Membrane in water
40344
    1TMC1    C1    1   4.239   0.079  10.689 -0.9248 -0.5763 -0.0857
    1TMC1    C2    2   4.259   0.018  10.565  0.9738 -0.1065 -0.0917
    1TMC1    C3    3   4.368   0.051  10.493 -0.1390 -0.4708  0.3358
    1TMC1    C4    4   4.327   0.179  10.728 -0.2520 -0.5869  0.2716
    1TMC1    C5    5   4.432   0.215  10.652  0.7529 -0.0110 -0.8600
    1TMC1    C6    6   4.462   0.146  10.535 -0.4290 -0.1730 -0.2993
    1TMC1     C    7   4.140   0.022  10.778  0.0332 -0.7356 -0.3319
    1TMC1     O    8   4.118   4.644  10.750  0.1766  0.0610 -0.2191
    1TMC1     H    9   4.211   4.662  10.542 -1.3352  0.3842  2.6823
    1TMC1    H1   10   4.322   0.237  10.819  0.0675  0.6791 -0.5129
    1TMC1    H2   11   4.560   0.157  10.490 -0.2435 -0.3752  0.0622
    1TMC1    C7   12   4.503   0.337  10.696  0.0770  0.2941 -0.5495
    1TMC1    C8   13   4.378   4.735  10.363 -0.6493 -1.1942 -0.5555
    1TMC1    O1   14   4.536   0.355  10.813 -0.1385 -0.1328 -0.3921
    1TMC1    O2   15   4.480   4.726  10.295  0.0779 -0.0522  0.5451
    1TMC1    O3   16   4.549   0.419  10.598 -0.4271 -0.1747  0.1231
    1TMC1    H3   17   4.502   0.394  10.516 -1.0608  2.4931 -0.3374
    1TMC1    O5   18   4.253   4.732  10.311  0.0811  0.4342  0.6298
    1TMC1    H5   19   4.188   0.011  10.383  0.3789 -1.2254  1.2874
    2MPD2     C   20   3.767   0.047  11.134  0.5200  0.2483  0.0560
    2MPD2    C1   21   3.798   4.695  11.032 -0.5601  0.5928  0.2255
    2MPD2    C2   22   3.901   4.706  10.944 -0.1723  0.0855 -0.1341
    2MPD2    C3   23   3.987   0.077  10.959 -0.1068 -0.2532 -0.2952
    2MPD2    C4   24   3.970   0.159  11.066  0.0295 -0.4053 -0.0936
    2MPD2    C5   25   3.865   0.146  11.153  0.0133 -0.1547 -0.2151
    2MPD2     H   26   3.903   4.655  10.848 -0.5328  0.3207 -0.2671
    2MPD2    H1   27   4.032   0.247  11.076  3.5353 -2.8386 -0.1861
    2MPD2    H2   28   3.683   0.023  11.197  1.3233  0.7334  1.3183
    2MPD2    H3   29   3.854   0.222  11.229 -0.2315 -0.5259  0.1219
    2MPD2     N   30   4.094   0.109  10.871  0.0951  0.2644 -0.3924
    2MPD2    H5   31   4.145   0.196  10.876  0.3370  0.0204  1.3844
    2MPD2    N1   32   3.716   4.578  11.016 -0.2541 -0.0722 -0.1889
    2MPD2    H7   33   3.641   4.566  11.083 -0.0107 -2.2890 -0.3280
    3TMC1    C1   34   3.663   1.474  10.972 -0.3070  0.1367  0.5382
    3TMC1    C2   35   3.640   1.611  10.964  0.1486 -0.0925  0.0672
    3TMC1    C3   36   3.738   1.692  10.901  0.6013 -0.0893  0.4278
    3TMC1    C4   37   3.773   1.416  10.915 -1.1059  0.3482 -0.5887
    3TMC1    C5   38   3.863   1.503  10.854  0.2082  0.1021 -0.5160
    3TMC1    C6   39   3.843   1.635  10.843  1.0201 -0.1794 -0.0431
    3TMC1     C   40   3.559   1.386  11.013 -0.3117  0.2674 -0.4116
    3TMC1     O   41   3.599   1.279  11.055  0.0130  0.0498  0.4939
    3TMC1     H   42   3.549   1.650  11.008  0.2846 -0.9780  1.1377
    3TMC1    H1   43   3.801   1.314  10.939  2.0593  1.1032 -1.0301
    3TMC1    H2   44   3.922   1.698  10.802  0.6301 -0.5372 -1.3586
    3TMC1    C7   45   4.000   1.452  10.823 -0.1788  0.6630 -0.7759
    3TMC1    C8   46   3.756   1.832  10.944 -0.3445 -0.0203  0.1108
    3TMC1    O1   47   4.048   1.348  10.870 -0.1222  0.4018  0.2699
    3TMC1    O2   48   3.828   1.914  10.899 -0.2134  0.0092  0.3049
    3TMC1    O3   49   4.030   1.497  10.697  0.3007 -0.3644  0.5613
    3TMC1    H3   50   3.968   1.559  10.653  0.5535  0.0785  0.8204
    3TMC1    O5   51   3.715   1.831  11.073  0.1848  0.0185  0.2801
    3TMC1    H5   52   3.686   1.741  11.099  1.0850 -0.3695 -0.0532
    4MPD2     C   53   3.078   1.259  11.136  0.4219  0.1309 -0.6370
    4MPD2    C1   54   3.073   1.351  11.031 -0.5639  0.5943 -0.8428
    4MPD2    C2   55   3.193   1.405  10.997  0.3910  0.5180  0.2882
    4MPD2    C3   56   3.311   1.358  11.041  0.2526  0.3536 -0.2509
    4MPD2    C4   57   3.319   1.257  11.131  0.2510 -0.6615  0.0020
    4MPD2    C5   58   3.203   1.214  11.180 -0.0352  0.4692 -0.7384
    4MPD2     H   59   3.198   1.484  10.923  1.0931 -0.2200 -0.4506
    4MPD2    H1   60   3.413   1.222  11.172 -0.4956  1.1441  3.2458
    4MPD2    H2   61   2.990   1.220  11.184  0.4682  0.6602 -0.1267
    4MPD2    H3   62   3.202   1.152  11.270  2.3106 -1.1909 -1.8631
    4MPD2     N   63   3.429   1.428  10.994 -0.0084  0.1256 -0.2163
    4MPD2    H5   64   3.419   1.513  10.940  1.8458  0.0373 -0.7329
    4MPD2    N1   65   2.952   1.397  10.979 -0.3478  0.0797 -0.5841
    4MPD2    H7   66   2.958   1.469  10.907  3.1939 -0.5468 -0.9384
    5TCq1    O1   67   2.838   2.567  11.893  0.0342 -0.3327 -0.7546
    5TCq1    C1   68   2.852   2.522  11.769  0.1941 -0.1059  0.0642
    5TCq1    O2   69   2.865   2.409  11.728 -1.0631  0.1053  0.3991
    5TCq1    C2   70   2.872   2.637  11.680 -0.1552 -0.6167 -0.0224
    5TCq1    C3   71   2.803   2.750  11.688  0.1927  0.2189  0.6650
    5TCq1    C4   72   2.804   2.836  11.582  0.0040 -0.2779 -0.4863
    5TCq1    C5   73   2.865   2.806  11.464  0.2008 -0.5410  0.0353
    5TCq1    C6   74   2.937   2.692  11.461  0.7801  0.2383 -0.2508
    5TCq1    C7   75   2.943   2.608  11.564  0.2473  0.2194 -0.1163
    5TCq1    C8   76   3.026   2.655  11.352  0.1632 -0.3228 -0.1894
    5TCq1    O4   77   3.052   2.536  11.346 -0.0572  0.3429  0.4801
    5TCq1    C9   78   2.728   2.959  11.589 -0.2133 -0.1302  0.0458
    5TCq1    O5   79   2.772   3.052  11.517 -0.5022 -0.9180  0.1074
    5TCq1    O6   80   2.647   2.967  11.692  0.7338  0.1809  0.3654
    5TCq1    H1   81   2.818   2.662  11.908  2.2169 -0.0556  0.4186
    5TCq1    H2   82   2.740   2.770  11.774 -1.0394 -2.7613  0.4728
    5TCq1    H3   83   2.850   2.866  11.375 -2.5677 -0.2664  0.7144
    5TCq1    H4   84   3.008   2.521  11.560  1.1671  0.8738  0.6033
    6MPD2     C   85   3.226   2.886  11.168  0.1738 -1.2276 -0.1688
    6MPD2    C1   86   3.170   2.769  11.192 -0.0072 -0.5950 -0.6518
    6MPD2    C2   87   3.212   2.655  11.121  0.3678 -0.7229  0.3646
    6MPD2    C3   88   3.322   2.666  11.044 -0.5908  0.2762 -0.1162
    6MPD2    C4   89   3.381   2.787  11.019  0.0896  0.4821 -0.4022
    6MPD2    C5   90   3.326   2.899  11.078 -0.3560 -0.0023  0.0079
    6MPD2     H   91   3.169   2.557  11.138 -1.0297 -0.0389  0.8128
    6MPD2    H1   92   3.469   2.803  10.958 -1.9884  0.5288 -3.4158
    6MPD2    H2   93   3.183   2.977  11.209 -0.3673 -1.1828 -0.8474
    6MPD2    H3   94   3.371   2.996  11.067  2.7401 -1.2346  1.7825
    6MPD2     N   95   3.390   2.547  10.993 -0.0346  0.3112  0.1527
    6MPD2    H5   96   3.348   2.460  11.022 -0.1948  0.1387 -0.6229
    6MPD2    N1   97   3.066   2.765  11.286 -0.0956 -0.4919 -0.0578
    6MPD2    H7   98   3.041   2.855  11.325 -1.0774 -0.1074 -1.5813
    7TCq1    O1   99   0.460   1.469  13.325 -0.0045 -0.1892 -0.1112
    7TCq1    C1  100   0.589   1.500  13.295 -0.3583 -0.2886  0.2179
    7TCq1    O2  101   0.638   1.476  13.187 -0.7836  0.1116  0.0832
    7TCq1    C2  102   0.649   1.484  13.424 -0.1576  0.2225 -0.0726
    7TCq1    C3  103   0.650   1.590  13.506 -0.3290  0.7248  0.2438
    7TCq1    C4  104   0.738   1.601  13.608 -0.1047  0.1924 -0.5581
    7TCq1    C5  105   0.827   1.499  13.629 -0.3867  0.1089  0.3794
    7TCq1    C6  106   0.829   1.396  13.540  0.5214 -0.4778  0.4604
    7TCq1    C7  107   0.744   1.393  13.437  0.2020 -0.2582 -0.6926
    7TCq1    C8  108   0.920   1.282  13.566  0.2781 -0.2865 -0.1357
    7TCq1    O4  109   0.884   1.170  13.537  0.1190  0.0028  0.2318
    7TCq1    C9  110   0.734   1.714  13.694  0.0488  0.8474 -0.4456
    7TCq1    O5  111   0.640   1.794  13.667 -0.8949  0.3714 -0.0952
    7TCq1    O6  112   0.815   1.729  13.789  0.2719  0.0567 -0.4536
    7TCq1    H1  113   0.463   1.457  13.422 -1.6962  1.1265  0.0969
    7TCq1    H2  114   0.574   1.665  13.487  1.3084  2.1441 -0.7977
    7TCq1    H3  115   0.899   1.492  13.710 -0.4167  0.9876  0.4781
    7TCq1    H4  116   0.742   1.305  13.374 -0.1709  1.2433 -2.7866
    8MPD2     C  117   1.395   1.102  13.621 -0.8408 -0.2971  0.7638
    8MPD2    C1  118   1.277   1.040  13.631  0.0714 -0.3110  0.2243
    8MPD2    C2  119   1.161   1.117  13.652  0.5562 -0.4429 -0.1864
    8MPD2    C3  120   1.166   1.252  13.618 -0.6387  0.4348  0.0051
    8MPD2    C4  121   1.290   1.310  13.596  0.1052  0.2615  0.4118
    8MPD2    C5  122   1.406   1.236  13.610 -1.0661  0.3088 -1.3140
    8MPD2     H  123   1.059   1.082  13.668  0.6383  0.1556  1.6781
    8MPD2    H1  124   1.294   1.418  13.599 -0.4371  0.2532  1.7565
    8MPD2    H2  125   1.483   1.039  13.623  0.9514  2.1311 -0.3126
    8MPD2    H3  126   1.503   1.281  13.597 -1.1910  0.4202 -1.8619
    8MPD2     N  127   1.046   1.326  13.606  0.2317  0.5495 -0.0976
    8MPD2    H5  128   1.058   1.427  13.603 -2.2828  0.8910  0.7774
    8MPD2    N1  129   1.267   0.903  13.643 -0.3439 -0.0337  0.1519
    8MPD2    H7  130   1.350   0.845  13.639  1.2520  2.2289  0.7330
    9TMC1    C1  131   3.739   0.247  10.730 -0.4918 -0.3285  0.7567
    9TMC1    C2  132   3.844   0.244  10.641 -0.3996 -0.3519 -0.7860
    9TMC1    C3  133   3.849   0.140  10.554 -0.3561  0.0968  0.2792
    9TMC1    C4  134   3.651   0.142  10.739 -0.3808  0.2519  0.0934
    9TMC1    C5  135   3.663   0.039  10.652  0.2959 -0.8412  0.3633
    9TMC1    C6  136   3.762   0.037  10.555  0.3656 -0.2075  0.3900
    9TMC1     C  137   3.722   0.360  10.813  0.0043  0.0360 -0.3693
    9TMC1     O  138   3.805   0.452  10.798 -0.9601  0.1536 -0.1117
    9TMC1     H  139   3.929   0.311  10.650 -0.7131 -0.0888  0.1996
    9TMC1    H1  140   3.568   0.140  10.809 -0.6961  0.9412 -0.2616
    9TMC1    H2  141   3.763   4.693  10.485 -1.1397 -1.3837  1.7568
    9TMC1    C7  142   3.560   4.673  10.661 -0.8913 -0.0958  0.2231
    9TMC1    C8  143   3.921   0.168  10.438  0.2008  0.3551  0.4668
    9TMC1    O1  144   3.458   4.693  10.719 -0.6724 -0.1879 -0.0895
    9TMC1    O2  145   4.017   0.107  10.398 -0.3362  0.6973 -0.1858
    9TMC1    O3  146   3.603   4.558  10.613  0.0303 -0.4107  0.2018
    9TMC1    H3  147   3.701   4.552  10.604  0.1505  1.8440  0.2286
    9TMC1    O5  148   3.889   0.299  10.419  0.0897  0.0822 -0.5960
    9TMC1    H5  149   3.800   0.307  10.460  0.9492  0.3525  1.1685
   10MPD2     C  150   3.674   0.558  11.043 -0.4025  0.9073  0.0805
   10MPD2    C1  151   3.613   0.434  11.026 -0.2885  0.0511 -0.3043
   10MPD2    C2  152   3.533   0.393  11.125 -0.2132  0.7239  0.5842
   10MPD2    C3  153   3.496   0.465  11.237 -0.1291  0.2720  0.5549
   10MPD2    C4  154   3.558   0.587  11.256  0.4973 -0.8431 -0.7700
   10MPD2    C5  155   3.645   0.631  11.160 -0.0831 -0.4494 -0.4622
   10MPD2     H  156   3.507   0.288  11.113  0.0048  0.7722 -0.2608
   10MPD2    H1  157   3.549   0.633  11.354  2.4362  0.0011 -0.9900
   10MPD2    H2  158   3.759   0.589  10.982  1.2395 -0.5606  1.6243
   10MPD2    H3  159   3.706   0.717  11.183  0.0856 -0.5512 -0.5309
   10MPD2     N  160   3.395   0.436  11.330  0.2560  0.0300  0.2664
   10MPD2    H5  161   3.387   0.506  11.402 -2.9902 -0.2545  0.1636
   10MPD2    N1  162   3.640   0.347  10.915 -0.1671  0.1267  0.5424
   10MPD2    H7  163   3.574   0.270  10.906 -0.3689  0.2680  0.8180
   11TCq1    O1  164   4.067   4.731  13.371  0.6401  0.1889 -0.6366
   11TCq1    C1  165   3.988   4.654  13.437 -0.4855 -0.2179 -0.9313
   11TCq1    O2  166   3.874   4.632  13.411  0.0528 -0.2707 -0.0612
   11TCq1    C2  167   4.040   4.662  13.582 -0.2976  0.7205 -0.0070
   11TCq1    C3  168   4.174   4.676  13.603  0.2325  0.6142  0.1450
   11TCq1    C4  169   4.218   4.705  13.733  0.4579 -0.4040 -0.1921
   11TCq1    C5  170   4.130   4.707  13.840  0.4387 -0.1115 -0.0982
   11TCq1    C6  171   3.996   4.686  13.811 -0.1825 -0.9689  0.2554
   11TCq1    C7  172   3.950   4.658  13.682 -0.6695  0.0101  0.0416
   11TCq1    C8  173   3.907   4.652  13.923 -0.3888 -0.0386  0.4808
   11TCq1    O4  174   3.915   4.723  14.027  0.6379  0.1707  0.7123
   11TCq1    C9  175   4.356   4.709  13.761 -0.4262  0.2636  0.6019
   11TCq1    O5  176   4.388   0.024  13.868  0.0828 -0.7093 -0.3577
   11TCq1    O6  177   4.431   4.650  13.677 -0.5527  0.1421 -0.3657
   11TCq1    H1  178   4.160   4.730  13.400  0.8835  0.6676 -1.3902
   11TCq1    H2  179   4.251   4.675  13.527  1.3083  0.8989  1.2267
   11TCq1    H3  180   4.156   4.717  13.945 -4.3828 -1.8133  1.2713
   11TCq1    H4  181   3.846   4.633  13.665 -0.1947 -1.1599 -1.2139
   12MPD2     C  182   3.750   4.496  14.125  0.1637  0.0439  1.7238
   12MPD2    C1  183   3.771   4.455  13.996  0.0709  0.1454  0.0866
   12MPD2    C2  184   3.726   4.325  13.961  0.5520  0.6672 -0.4400
   12MPD2    C3  185   3.665   4.241  14.054 -0.3514  0.6240 -0.4567
   12MPD2    C4  186   3.658   4.285  14.182  0.2692 -0.6237  0.5217
   12MPD2    C5  187   3.700   4.410  14.218 -0.7679  0.2373  0.3602
   12MPD2     H  188   3.724   4.295  13.856 -0.5029  2.3247 -0.8951
   12MPD2    H1  189   3.611   4.217  14.253  0.9961 -0.3358  1.2712
   12MPD2    H2  190   3.772   4.598  14.157  0.0620  0.5219  0.2848
   12MPD2    H3  191   3.700   4.436  14.323 -2.4708  2.5417 -0.2111
   12MPD2     N  192   3.612   4.117  14.029 -0.1271  0.0095 -0.1588
   12MPD2    H5  193   3.573   4.070  14.109  2.7915 -2.2226 -0.0512
   12MPD2    N1  194   3.852   4.531  13.903  0.4613 -0.1443  0.0159
   12MPD2    H7  195   3.869   4.485  13.813  1.8135  0.4815 -0.0568
   13TCq1    O1  196   3.359   4.274  10.487 -0.4575  0.0769  0.7053
   13TCq1    C1  197   3.294   4.393  10.515  0.1309  0.6397  0.6895
   13TCq1    O2  198   3.282   4.490  10.442  0.1011 -0.1046  0.6664
   13TCq1    C2  199   3.245   4.398  10.653  0.1135  0.1457 -0.6497
   13TCq1    C3  200   3.176   4.280  10.698 -0.4386  0.6934 -0.8550
   13TCq1    C4  201   3.087   4.286  10.795  0.2131  0.2029  0.3411
   13TCq1    C5  202   3.047   4.413  10.842  0.2818 -0.0007 -0.2340
   13TCq1    C6  203   3.115   4.526  10.802 -0.6214  0.5368  0.4302
   13TCq1    C7  204   3.208   4.522  10.700  0.0338  0.6953  0.0274
   13TCq1    C8  205   3.082   4.648  10.876  0.7494 -0.0052  0.5425
   13TCq1    O4  206   2.987   4.638  10.956  0.0641 -0.6398 -0.1950
   13TCq1    C9  207   3.028   4.175  10.848  0.8300  0.2614  0.7693
   13TCq1    O5  208   3.045   4.063  10.786 -0.3729 -0.8247 -0.0219
   13TCq1    O6  209   2.989   4.189  10.963  0.4016 -0.5546  0.6002
   13TCq1    H1  210   3.388   4.211  10.556  0.7799  0.6921  0.7372
   13TCq1    H2  211   3.186   4.185  10.647 -1.1993  0.0204  0.2688
   13TCq1    H3  212   2.979   4.419  10.926  1.5591 -0.8635  0.8462
   13TCq1    H4  213   3.261   4.610  10.666  0.7336  0.3966  0.3635
   14MPD2     C  214   3.226   0.245  10.833  0.3108  0.0665  0.2765
   14MPD2    C1  215   3.156   0.143  10.893  0.3241 -0.0814  0.0115
   14MPD2    C2  216   3.084   0.180  11.004  0.4371  0.1805 -0.2931
   14MPD2    C3  217   3.070   0.310  11.047  0.9477 -0.0630  0.1787
   14MPD2    C4  218   3.148   0.406  10.986 -0.6420  0.4048 -0.2875
   14MPD2    C5  219   3.230   0.368  10.883  0.6873 -0.0078 -0.1094
   14MPD2     H  220   3.034   0.099  11.056  1.9663 -0.2378  0.5304
   14MPD2    H1  221   3.153   0.512  11.008  0.6424  0.3903 -0.4802
   14MPD2    H2  222   3.290   0.223  10.749  0.7957 -1.3371  1.0138
   14MPD2    H3  223   3.296   0.440  10.835 -0.7732 -0.1970 -2.3898
   14MPD2     N  224   2.973   0.344  11.143  0.2633 -0.2510 -0.2530
   14MPD2    H5  225   2.930   0.265  11.188 -1.6170  1.2841  0.6457
   14MPD2    N1  226   3.157   0.018  10.839  0.5034  0.2677  0.0795
   14MPD2    H7  227   3.227   4.733  10.769  1.5594 -0.0883  1.2643
   15TCq1    O1  228   0.550   4.417   2.331 -0.0623 -0.5187  0.4456
   15TCq1    C1  229   0.549   4.380   2.203 -0.6015  0.2005  0.4409
   15TCq1    O2  230   0.648   4.374   2.132 -0.5381 -0.0432 -0.3859
   15TCq1    C2  231   0.421   4.380   2.146 -0.0586 -1.2174 -0.1202
   15TCq1    C3  232   0.321   4.467   2.196  0.6254  0.0483 -0.1844
   15TCq1    C4  233   0.225   4.502   2.108  0.7245 -0.4040  0.0546
   15TCq1    C5  234   0.213   4.443   1.992  0.2217 -0.9871 -0.6875
   15TCq1    C6  235   0.314   4.373   1.945  0.7739 -0.0529 -0.2831
   15TCq1    C7  236   0.412   4.327   2.019  0.1923 -0.4389  0.5749
   15TCq1    C8  237   0.317   4.330   1.805  0.0485 -0.0712 -0.5891
   15TCq1    O4  238   0.406   4.251   1.781 -0.1533  0.2488 -0.0151
   15TCq1    C9  239   0.120   4.595   2.151 -0.2179 -0.4162 -0.3832
   15TCq1    O5  240   0.020   4.600   2.074 -0.6235  0.2831 -0.0109
   15TCq1    O6  241   0.121   4.624   2.272  0.0624 -0.4975 -0.0412
   15TCq1    H1  242   0.462   4.392   2.366 -0.0980 -0.6738  0.2426
   15TCq1    H2  243   0.325   4.505   2.298 -0.8786  0.4324 -0.2723
   15TCq1    H3  244   0.123   4.453   1.932  0.7380 -0.1645 -1.3271
   15TCq1    H4  245   0.502   4.277   1.985 -0.8427 -1.8411 -0.1402
   16MPD2     C  246   0.107   4.424   1.501 -0.0296 -0.3304 -0.6693
   16MPD2    C1  247   0.203   4.357   1.579 -0.1645  0.1867  0.8501
   16MPD2    C2  248   0.288   4.265   1.516 -0.4881 -0.4613  0.4901
   16MPD2    C3  249   0.289   4.248   1.376 -0.1861 -0.0082 -0.2641
   16MPD2    C4  250   0.189   4.317   1.302 -0.2011 -0.5039  0.1829
   16MPD2    C5  251   0.110   4.404   1.367 -0.8938 -0.1615 -0.6016
   16MPD2     H  252   0.368   4.214   1.570 -0.4427 -0.3409  0.5361
   16MPD2    H1  253   0.175   4.318   1.195  0.3480  2.4440  0.1528
   16MPD2    H2  254   0.053   4.510   1.538  0.7572  1.0826 -2.7661
   16MPD2    H3  255   0.044   4.461   1.303 -0.0384  0.6571 -0.7608
   16MPD2     N  256   0.372   4.155   1.317 -0.2598 -0.4509  0.0754
   16MPD2    H5  257   0.435   4.100   1.374  0.5028  2.8707  2.4344
   16MPD2    N1  258   0.220   4.389   1.721 -0.1904  0.4189 -0.0177
   16MPD2    H7  259   0.154   4.448   1.770 -1.5447 -1.5160  0.4965
   17TMC1    C1  260   3.273   3.400   9.454  0.9461  0.3087 -1.1346
   17TMC1    C2  261   3.287   3.288   9.376 -0.7248  0.1591  0.4419
   17TMC1    C3  262   3.238   3.288   9.247 -0.6589 -0.0173  0.1748
   17TMC1    C4  263   3.207   3.513   9.407 -0.1111 -0.3217 -0.0747
   17TMC1    C5  264   3.155   3.510   9.279 -0.0362 -0.2352 -0.0857
   17TMC1    C6  265   3.168   3.395   9.200  0.0770  0.0510 -0.0940
   17TMC1     C  266   3.282   3.377   9.592 -0.0637 -0.0326  0.5434
   17TMC1     O  267   3.252   3.258   9.621  0.5654 -0.2647  0.8528
   17TMC1     H  268   3.332   3.198   9.414  0.5788  0.2979 -0.7835
   17TMC1    H1  269   3.194   3.604   9.465  1.5232  1.4679 -2.4943
   17TMC1    H2  270   3.135   3.407   9.098  1.5507  2.1946 -0.3030
   17TMC1    C7  271   3.126   3.637   9.218 -0.2267  0.3928  0.1275
   17TMC1    C8  272   3.256   3.161   9.174 -0.5084  0.4292 -0.2591
   17TMC1    O1  273   3.016   3.692   9.211  0.1787 -0.6689 -0.5635
   17TMC1    O2  274   3.330   3.069   9.211 -0.4322  0.4671  1.2561
   17TMC1    O3  275   3.242   3.704   9.214  0.3811 -0.4513 -0.1479
   17TMC1    H3  276   3.323   3.650   9.226 -1.0234 -2.1333  1.7287
   17TMC1    O5  277   3.162   3.150   9.084  0.3532  0.0518  0.0538
   17TMC1    H5  278   3.084   3.208   9.071  0.0323 -0.4833 -0.4348
   18MPD2     C  279   3.292   3.361   9.883  0.2035 -0.3411 -0.5829
   18MPD2    C1  280   3.317   3.475   9.815 -0.2409  0.2590 -0.0840
   18MPD2    C2  281   3.372   3.592   9.878 -0.8840  0.8205 -0.1738
   18MPD2    C3  282   3.378   3.595  10.013  0.2992 -0.7188 -0.2891
   18MPD2    C4  283   3.336   3.484  10.082  0.7259 -0.6381 -0.3636
   18MPD2    C5  284   3.301   3.367  10.017 -0.1966  0.8488  0.0493
   18MPD2     H  285   3.411   3.683   9.833 -0.1870 -0.3930 -2.0333
   18MPD2    H1  286   3.333   3.479  10.191  1.5383  1.7877 -0.2434
   18MPD2    H2  287   3.277   3.260   9.846 -0.0992 -1.1005  1.5923
   18MPD2    H3  288   3.270   3.279  10.073  1.0091  0.8549  0.7262
   18MPD2     N  289   3.423   3.705  10.092 -0.0605 -0.1878 -0.2229
   18MPD2    H5  290   3.432   3.687  10.192  1.1335  2.4445  0.1473
   18MPD2    N1  291   3.310   3.479   9.675  0.0355  0.0868  0.0855
   18MPD2    H7  292   3.321   3.564   9.622  0.6369  1.3706  2.2760
   19TMC2    C1  293   0.216   4.612  13.663 -0.1876 -0.0981  0.0358
   19TMC2    C2  294   0.143   4.701  13.580  0.0393 -0.5259 -0.0001
   19TMC2    C3  295   0.019   4.735  13.622 -0.2296  0.4421 -0.6829
   19TMC2    C4  296   0.157   4.530  13.760 -0.0818 -0.1426  0.4293
   19TMC2    C5  297   0.036   4.570  13.801  0.0614 -0.2258 -0.1131
   19TMC2    C6  298   4.709   4.671  13.730 -0.0460  0.5388 -0.1640
   19TMC2     C  299   0.362   4.612  13.648 -0.1551 -0.0021 -0.5903
   19TMC2     O  300   0.418   4.657  13.549  0.0174  0.2137  0.1495
   19TMC2     H  301   0.185   0.001  13.488 -2.9515 -2.5741 -2.2373
   19TMC2    H1  302   0.214   4.449  13.804  1.7828  0.8784 -0.1012
   19TMC2    H2  303   4.625   4.722  13.777 -0.1967  1.4159 -1.3835
   19TMC2    C7  304   4.706   4.475  13.880  0.0779  0.3363  0.1484
   19TMC2    C8  305   4.694   0.108  13.564  0.4876 -0.1429  0.1252
   19TMC2    O1  306   0.045   4.403  13.942 -0.2474  0.4514 -0.2213
   19TMC2    O2  307   0.020   0.182  13.489  0.5268  0.1795  0.0809
   19TMC2    O5  308   4.563   0.076  13.540  0.0002  0.0030 -0.8159
   19TMC2    H5  309   4.526   0.000  13.591 -0.0214  1.8585  1.9740
   20MPD2     C  310   0.653   4.619  13.704  0.3308 -0.2063  0.2314
   20MPD2    C1  311   0.557   4.585  13.797  0.2047 -0.6095  0.0752
   20MPD2    C2  312   0.594   4.567  13.931 -0.1509 -0.3109  0.0338
   20MPD2    C3  313   0.723   4.587  13.978 -0.3976 -0.1614 -0.3181
   20MPD2    C4  314   0.822   4.610  13.884  0.5701 -0.7174 -0.0705
   20MPD2    C5  315   0.787   4.629  13.748 -0.0560  0.4291  0.4961
   20MPD2     H  316   0.518   4.535  14.000  0.1618  3.0775  1.9369
   20MPD2    H1  317   0.924   4.626  13.919  0.3681 -0.0417  0.2073
   20MPD2    H2  318   0.640   4.652  13.602  2.2372  3.7569  1.2848
   20MPD2    H3  319   0.858   4.680  13.684 -2.0725  1.7150 -0.7368
   20MPD2     N  320   0.762   4.576  14.113  0.2909 -0.9204  0.3221
   20MPD2    H5  321   0.860   4.591  14.134  0.1922 -0.9820  0.8281
   20MPD2    N1  322   0.423   4.578  13.767 -0.4832  0.4239  0.0235
   20MPD2    H7  323   0.362   4.560  13.846  2.1431  1.0143  2.2007
   21TMC2    C1  324   2.417   4.618  13.923  0.5017  0.2466 -0.5404
   21TMC2    C2  325   2.506   4.519  13.898  0.6067  0.0086 -0.0922
   21TMC2    C3  326   2.549   4.434  14.005  0.3577  0.4977  0.3764
   21TMC2    C4  327   2.358   4.626  14.053 -0.3737 -0.0047  0.6158
   21TMC2    C5  328   2.413   4.556  14.157 -0.5461 -0.6365  0.5359
   21TMC2    C6  329   2.501   4.455  14.129 -0.3306  0.0987 -0.0502
   21TMC2     C  330   2.350   4.665  13.806 -0.1644  0.3141  0.8442
   21TMC2     O  331   2.324   4.575  13.724 -0.0215  0.7354  0.4972
   21TMC2     H  332   2.553   4.509  13.801  0.7376 -0.3955  0.0090
   21TMC2    H1  333   2.296   4.712  14.077 -0.2106  0.2200  0.2333
   21TMC2    H2  334   2.545   4.389  14.203 -0.4107  0.1983  0.0853
   21TMC2    C7  335   2.439   4.634  14.278 -0.1718 -0.6333  0.5683
   21TMC2    C8  336   2.661   4.340  13.989 -0.3177 -0.4403  0.2977
   21TMC2    O1  337   2.538   4.603  14.341  0.5100 -0.6053  0.1660
   21TMC2    O2  338   2.735   4.306  14.082  1.1071  0.9507 -0.5327
   21TMC2    O5  339   2.661   4.286  13.873  0.8797  0.5537 -0.3672
   21TMC2    H5  340   2.581   4.318  13.826  0.3997  0.7591  0.6018
   22MPD2     C  341   2.348   0.381  14.034 -0.3770 -0.5614 -0.2725
   22MPD2    C1  342   2.437   0.279  14.048 -0.6699 -0.3454 -0.4250
   22MPD2    C2  343   2.425   0.171  13.960 -0.1927 -0.4473  0.0777
   22MPD2    C3  344   2.316   0.164  13.875  0.2685  0.0880  0.4903
   22MPD2    C4  345   2.240   0.277  13.849  0.2186 -0.1857  0.7796
   22MPD2    C5  346   2.258   0.384  13.932  0.1323  0.1532  0.0801
   22MPD2     H  347   2.503   0.097  13.961 -0.8389 -1.1564 -1.3814
   22MPD2    H1  348   2.161   0.293  13.776  1.7759  0.7424 -0.6859
   22MPD2    H2  349   2.349   0.475  14.088 -0.4882 -0.9425  0.3948
   22MPD2    H3  350   2.187   0.466  13.923  0.0171 -0.0031 -0.4285
   22MPD2     N  351   2.285   0.044  13.804 -0.1029  0.0394  0.5892
   22MPD2    H5  352   2.216   0.059  13.731 -0.0251 -2.4178  0.0313
   22MPD2    N1  353   2.538   0.280  14.145 -0.2716  0.2180  0.3002
   22MPD2    H7  354   2.596   0.197  14.151 -1.1285 -0.4338 -0.4425
   23TMC2    C1  355   4.203   2.065  14.404 -0.3286 -0.1146 -0.5217
   23TMC2    C2  356   4.129   2.171  14.366 -0.4564 -0.3050  0.1811
   23TMC2    C3  357   4.002   2.144  14.327  0.3458 -0.3503 -0.2232
   23TMC2    C4  358   4.158   1.938  14.404  0.6502  0.6915  0.0648
   23TMC2    C5  359   4.029   1.915  14.364 -0.4308  0.7599  0.0415
   23TMC2    C6  360   3.948   2.022  14.320  0.5293 -0.7275  0.0943
   23TMC2     C  361   4.316   2.092  14.487 -1.5338 -0.0802 -0.1560
   23TMC2     O  362   4.389   2.185  14.459  0.0081 -0.5887 -0.5481
   23TMC2     H  363   4.164   2.273  14.361 -1.6566  0.1875  2.2936
   23TMC2    H1  364   4.227   1.861  14.435 -0.7901  0.4167  2.6074
   23TMC2    H2  365   3.851   1.997  14.280  0.5740  0.7489 -0.9471
   23TMC2    C7  366   4.001   1.777  14.381 -0.9424 -0.4876 -0.3268
   23TMC2    C8  367   3.923   2.264  14.288  0.0483 -0.7162  0.4716
   23TMC2    O1  368   4.098   1.701  14.373  0.2880 -0.4507  0.3868
   23TMC2    O2  369   3.971   2.374  14.262 -0.1340  0.3079 -0.5596
   23TMC2    O5  370   3.792   2.252  14.320  0.0215  0.7318 -0.7377
   23TMC2    H5  371   3.770   2.161  14.350  1.3794  0.1566 -1.5250
   24MPD2     C  372   4.571   2.031  14.932  0.6953 -0.0488  0.0600
   24MPD2    C1  373   4.451   1.959  14.942 -0.0399 -0.2929 -0.0817
   24MPD2    C2  374   4.366   1.965  14.837  0.1042  0.2226  1.1416
   24MPD2    C3  375   4.395   2.029  14.714 -0.8145  0.1687 -0.3375
   24MPD2    C4  376   4.514   2.103  14.713  0.1617  0.1467  1.0661
   24MPD2    C5  377   4.606   2.095  14.818 -0.0645  0.1658 -0.5043
   24MPD2     H  378   4.268   1.919  14.847  0.6503 -1.0825  0.4948
   24MPD2    H1  379   4.551   2.143  14.618 -0.6719  1.0954  1.1458
   24MPD2    H2  380   4.644   2.029  15.013 -0.4694  2.4691  1.1409
   24MPD2    H3  381   4.702   2.144  14.811 -0.5579  0.6961 -3.9162
   24MPD2     N  382   4.303   2.021  14.605 -0.4430 -0.7635 -0.2327
   24MPD2    H5  383   4.218   1.965  14.607  1.5462 -3.7901 -1.1958
   24MPD2    N1  384   4.418   1.879  15.059 -0.1110  0.1675  0.5075
   24MPD2    H7  385   4.326   1.838  15.052 -0.1327  0.2499  0.2836
   25TMC2    C1  386   3.055   3.601  11.487 -0.0544  0.1692  0.1290
   25TMC2    C2  387   3.175   3.639  11.531 -0.6425  0.4103 -0.6080
   25TMC2    C3  388   3.191   3.650  11.671 -0.4165  0.0821  0.4861
   25TMC2    C4  389   2.953   3.560  11.572  0.8616 -0.9341 -0.0387
   25TMC2    C5  390   2.984   3.554  11.708 -0.6724 -0.3189  0.6199
   25TMC2    C6  391   3.106   3.591  11.763  0.4885  0.5735  0.2478
   25TMC2     C  392   3.041   3.585  11.346  0.0046  0.1917  0.1823
   25TMC2     O  393   3.137   3.617  11.278  0.1086 -0.3708  0.4987
   25TMC2     H  394   3.255   3.675  11.467  0.4517 -1.3910 -0.2659
   25TMC2    H1  395   2.857   3.529  11.532  0.0607  1.0784  0.3231
   25TMC2    H2  396   3.127   3.595  11.869 -0.2143  0.2064  0.4004
   25TMC2    C7  397   2.874   3.575  11.801  0.1270  0.3354 -1.0750
   25TMC2    C8  398   3.321   3.692  11.728  0.6071  0.3996 -0.7444
   25TMC2    O1  399   2.886   3.509  11.903  0.5224  0.3236 -0.5118
   25TMC2    O2  400   3.383   3.615  11.806  0.2762  0.1241  0.5338
   25TMC2    O5  401   3.375   3.784  11.650 -0.0446 -0.5190 -0.1709
   25TMC2    H5  402   3.302   3.840  11.614 -1.5609 -1.1731  1.9127
   26MPD2     C  403   2.788   3.464  10.912  0.2370  0.1071 -0.5655
   26MPD2    C1  404   2.695   3.464  11.010 -1.1057  0.0098  0.5481
   26MPD2    C2  405   2.739   3.504  11.136 -0.4698 -0.3111 -0.2977
   26MPD2    C3  406   2.879   3.520  11.168 -0.1112  0.5566  0.2154
   26MPD2    C4  407   2.973   3.495  11.066 -0.8874 -0.7146 -0.3738
   26MPD2    C5  408   2.921   3.465  10.944  0.1127 -0.6096  0.1811
   26MPD2     H  409   2.673   3.508  11.222  1.5246  1.0509  1.1773
   26MPD2    H1  410   3.080   3.490  11.084 -0.9623  0.9946  0.6041
   26MPD2    H2  411   2.749   3.443  10.813  2.5765 -0.1294 -1.4295
   26MPD2    H3  412   2.987   3.430  10.866 -0.7439 -0.6298 -0.5272
   26MPD2     N  413   2.916   3.551  11.305  0.3141 -0.2349 -0.5364
   26MPD2    H5  414   2.843   3.587  11.365  2.3012  1.9367  0.5751
   26MPD2    N1  415   2.556   3.447  10.980 -0.1748 -0.6189  0.2094
   26MPD2    H7  416   2.535   3.415  10.886 -0.0377  0.8068 -0.3124
   27TMC2    C1  417   0.562   1.692  12.443 -0.1507 -0.7401 -1.0469
   27TMC2    C2  418   0.530   1.823  12.459  0.4707 -0.3523 -0.0925
   27TMC2    C3  419   0.631   1.912  12.450  1.0816  0.0418  0.4148
   27TMC2    C4  420   0.688   1.646  12.436 -0.1501  0.8533  0.1517
   27TMC2    C5  421   0.786   1.738  12.438 -0.1011  0.2516 -0.4986
   27TMC2    C6  422   0.760   1.876  12.445 -0.1773 -0.4743 -0.3134
   27TMC2     C  423   0.455   1.594  12.428 -0.7752 -0.1836 -0.2206
   27TMC2     O  424   0.344   1.624  12.380 -0.0620  0.0468 -0.1720
   27TMC2     H  425   0.428   1.859  12.462 -0.5506 -3.1637 -1.2215
   27TMC2    H1  426   0.716   1.543  12.416 -2.7181  0.5068 -1.6399
   27TMC2    H2  427   0.834   1.949  12.414 -1.2152 -0.1413 -2.0200
   27TMC2    C7  428   0.932   1.696  12.432 -0.3729  0.3440  0.4435
   27TMC2    C8  429   0.584   2.048  12.489  0.3498 -0.4990 -0.3160
   27TMC2    O1  430   1.016   1.777  12.464 -0.0652 -0.2339 -0.7566
   27TMC2    O2  431   0.465   2.077  12.473  0.7777  0.5004  0.2516
   27TMC2    O5  432   0.674   2.139  12.462 -0.0981 -0.5762 -0.7070
   27TMC2    H5  433   0.768   2.116  12.473  0.1538 -0.3180 -2.3116
   28MPD2     C  434   0.302   1.108  12.453  0.1967  1.0109 -1.1066
   28MPD2    C1  435   0.395   1.134  12.558  0.2078  0.5109  0.3761
   28MPD2    C2  436   0.454   1.260  12.575 -0.3440  0.3280  0.1590
   28MPD2    C3  437   0.429   1.354  12.476  0.8640  0.5187  0.0859
   28MPD2    C4  438   0.344   1.327  12.368  0.0379  0.2994  0.2396
   28MPD2    C5  439   0.284   1.204  12.356  0.0448 -0.2952  0.0725
   28MPD2     H  440   0.515   1.291  12.659  1.4700 -0.8666 -0.7362
   28MPD2    H1  441   0.313   1.409  12.304  2.1909  0.9988  0.0973
   28MPD2    H2  442   0.259   1.008  12.450  2.4914 -0.0710  2.6558
   28MPD2    H3  443   0.224   1.190  12.266 -0.8602  0.2995  0.5874
   28MPD2     N  444   0.494   1.479  12.492 -0.0334  0.8783 -0.3827
   28MPD2    H5  445   0.576   1.486  12.552 -1.3695 -2.0964  1.8410
   28MPD2    N1  446   0.431   1.025  12.633 -0.2683 -0.3018  0.5179
   28MPD2    H7  447   0.382   0.939  12.613  0.4586 -0.2305 -1.5641
   29TMC2    C1  448   1.330   3.206  14.745  0.1397  0.6064 -0.0427
   29TMC2    C2  449   1.284   3.227  14.869 -0.6075 -0.1845 -0.0221
   29TMC2    C3  450   1.293   3.355  14.921 -0.5306 -0.0576 -0.3343
   29TMC2    C4  451   1.383   3.307  14.664 -0.2620 -0.5019 -1.0980
   29TMC2    C5  452   1.380   3.434  14.712 -1.0003 -1.0862  0.0531
   29TMC2    C6  453   1.339   3.460  14.841  0.7217  0.2611 -0.0091
   29TMC2     C  454   1.337   3.075  14.692  0.3835 -0.1627  0.7262
   29TMC2     O  455   1.350   2.987  14.777  0.4731 -0.6718 -0.1205
   29TMC2     H  456   1.239   3.144  14.923  1.0636 -0.2535  1.2955
   29TMC2    H1  457   1.434   3.288  14.571 -1.2185  1.4375 -2.0146
   29TMC2    H2  458   1.349   3.551  14.899  0.1131  0.0596  0.4033
   29TMC2    C7  459   1.395   3.542  14.623 -0.4686  0.3381 -0.0221
   29TMC2    C8  460   1.233   3.380  15.052 -0.0497  0.1908  0.0291
   29TMC2    O1  461   1.371   3.533  14.501 -0.0859  0.6501  0.1571
   29TMC2    O2  462   1.277   3.476  15.113 -0.2389 -0.2629  0.0532
   29TMC2    O5  463   1.099   3.367  15.019 -0.1581  0.7932  0.1093
   29TMC2    H5  464   1.079   3.283  14.972  3.4754  0.0399 -0.0818
   30MPD2     C  465   1.282   2.688  14.359 -0.2087 -0.2245  0.9116
   30MPD2    C1  466   1.353   2.700  14.477 -1.1473  0.7092 -0.3103
   30MPD2    C2  467   1.365   2.827  14.543  0.4587 -0.0235  0.8931
   30MPD2    C3  468   1.307   2.942  14.496 -0.4037  0.3602  0.7418
   30MPD2    C4  469   1.250   2.932  14.367 -0.4012  0.0700  0.6820
   30MPD2    C5  470   1.231   2.806  14.307  0.3358 -0.5360  0.1737
   30MPD2     H  471   1.420   2.831  14.636  1.1514  0.1339  0.4774
   30MPD2    H1  472   1.217   3.019  14.311 -2.3028 -0.2233  1.3392
   30MPD2    H2  473   1.272   2.603  14.293 -0.9827  1.9397 -1.7208
   30MPD2    H3  474   1.179   2.806  14.212 -0.6392 -1.0306  0.7120
   30MPD2     N  475   1.311   3.070  14.559  0.3644 -0.4204 -0.2711
   30MPD2    H5  476   1.299   3.150  14.498 -1.3299  0.4441  1.1749
   30MPD2    N1  477   1.426   2.595  14.529 -0.6774 -0.5739  0.2330
   30MPD2    H7  478   1.491   2.615  14.604 -0.2604 -2.6588  0.4324
   31TMC2    C1  479   3.826   2.385  15.345 -0.3844 -0.5060 -0.6114
   31TMC2    C2  480   3.695   2.429  15.357 -0.1810 -0.5990 -0.6086
   31TMC2    C3  481   3.644   2.433  15.480 -0.8766  0.7777 -0.2522
   31TMC2    C4  482   3.893   2.321  15.441 -0.0330  0.6149  0.1592
   31TMC2    C5  483   3.826   2.298  15.561 -0.5378  0.6206 -0.0316
   31TMC2    C6  484   3.704   2.359  15.576 -1.0731 -0.1170  0.0068
   31TMC2     C  485   3.878   2.398  15.212 -0.0042  0.2230  0.2364
   31TMC2     O  486   3.802   2.440  15.129 -0.4765  0.0855  0.1782
   31TMC2     H  487   3.646   2.497  15.288 -0.7290  1.2261  1.5883
   31TMC2    H1  488   3.984   2.265  15.423 -1.0370 -1.0931  0.3659
   31TMC2    H2  489   3.643   2.347  15.665  0.3468  0.5262  1.0677
   31TMC2    C7  490   3.880   2.204  15.660  0.9327 -0.0999  0.3296
   31TMC2    C8  491   3.507   2.476  15.506 -0.0369  0.2265 -0.1647
   31TMC2    O1  492   3.964   2.121  15.624 -0.0011 -0.0456  0.3473
   31TMC2    O2  493   3.452   2.420  15.597  0.6466  0.1950  0.1878
   31TMC2    O5  494   3.443   2.504  15.386 -0.8060  0.0440  0.0817
   31TMC2    H5  495   3.491   2.574  15.337  1.2749 -1.4975 -0.0850
   32MPD2     C  496   4.256   2.371  14.839  0.4182 -0.3020  0.4304
   32MPD2    C1  497   4.125   2.419  14.831  1.2090  0.2091 -0.4605
   32MPD2    C2  498   4.042   2.415  14.944 -0.0352 -0.4555  0.4781
   32MPD2    C3  499   4.087   2.361  15.067 -0.2839  0.2062  0.1973
   32MPD2    C4  500   4.214   2.307  15.067  0.1677 -0.2794  0.0029
   32MPD2    C5  501   4.292   2.310  14.952 -0.4371 -0.5658  0.0241
   32MPD2     H  502   3.940   2.449  14.931  0.2696 -1.0850 -3.3828
   32MPD2    H1  503   4.262   2.263  15.154  0.2780  0.9553  0.5576
   32MPD2    H2  504   4.331   2.392  14.763 -0.1489  3.3443  0.8518
   32MPD2    H3  505   4.391   2.266  14.956  0.0879  0.4864 -1.5077
   32MPD2     N  506   4.011   2.351  15.189 -0.1219 -0.0771  0.1764
   32MPD2    H5  507   4.056   2.306  15.268 -1.3172 -0.7801  0.4623
   32MPD2    N1  508   4.091   2.495  14.716  0.6516  0.1847  0.8150
   32MPD2    H7  509   4.164   2.504  14.647  1.0660  1.9428  1.4945
   33TMC2    C1  510   3.485   0.221  10.122 -0.3039  0.7909  0.1706
   33TMC2    C2  511   3.351   0.253  10.107 -0.2049  0.0838 -0.4735
   33TMC2    C3  512   3.305   0.380  10.107  0.2111  1.3457  0.5856
   33TMC2    C4  513   3.580   0.317  10.133  0.1442 -0.4115  0.1384
   33TMC2    C5  514   3.526   0.445  10.121 -0.4380  0.2764  0.3998
   33TMC2    C6  515   3.394   0.479  10.098  0.3753 -1.0850  0.8212
   33TMC2     C  516   3.520   0.081  10.139  0.1978 -0.5499  0.1749
   33TMC2     O  517   3.432   4.731  10.125 -0.2272  0.2198  0.1628
   33TMC2     H  518   3.276   0.174  10.110 -2.4154  2.1952  0.4751
   33TMC2    H1  519   3.685   0.313  10.159  0.4199  0.0521 -0.8845
   33TMC2    H2  520   3.361   0.578  10.128  0.2746 -1.5171  2.1634
   33TMC2    C7  521   3.613   0.551  10.087  0.2804  0.4726  0.7960
   33TMC2    C8  522   3.177   0.386  10.038  0.3757 -0.6347  0.5829
   33TMC2    O1  523   3.731   0.551  10.124 -0.0146 -0.4490 -0.7818
   33TMC2    O2  524   3.147   0.317   9.942 -0.2768  0.4564 -0.6260
   33TMC2    O5  525   3.092   0.424  10.134 -0.0052  0.0871  0.4938
   33TMC2    H5  526   3.132   0.487  10.198 -1.5890  1.4669  0.1113
   34MPD2     C  527   3.874   4.474  10.233  0.1213 -0.5237  0.5705
   34MPD2    C1  528   3.741   4.458  10.231 -0.1369  0.9909  0.8386
   34MPD2    C2  529   3.652   4.563  10.211 -0.2148 -0.0055 -0.4912
   34MPD2    C3  530   3.717   4.685  10.186 -0.1791  0.3083  0.3394
   34MPD2    C4  531   3.851   4.700  10.178  0.9082  0.4329  0.6160
   34MPD2    C5  532   3.930   4.594  10.197 -0.9320  0.5025 -0.4279
   34MPD2     H  533   3.544   4.551  10.205 -0.2569 -0.1701  0.7021
   34MPD2    H1  534   3.902   0.053  10.149 -0.1656 -0.8276 -5.2872
   34MPD2    H2  535   3.938   4.387  10.237  0.7649 -0.0919 -0.5051
   34MPD2    H3  536   4.036   4.606  10.179 -0.7621  0.7923  0.7490
   34MPD2     N  537   3.654   0.074  10.164 -0.1800  0.4135  0.5529
   34MPD2    H5  538   3.719   0.151  10.148 -0.9621  1.1427  0.8898
   34MPD2    N1  539   3.700   4.322  10.243 -0.4288 -0.0784 -0.8467
   34MPD2    H7  540   3.770   4.263  10.286 -1.5103 -0.7829 -0.0541
   35TMC2    C1  541   4.473   1.189  11.595  0.5326  0.0526  0.5309
   35TMC2    C2  542   4.373   1.274  11.582 -0.4347 -0.0639  0.1226
   35TMC2    C3  543   4.266   1.256  11.668 -0.9618 -0.1107  0.3618
   35TMC2    C4  544   4.472   1.082  11.681 -0.5788  0.7221 -0.9758
   35TMC2    C5  545   4.361   1.072  11.761 -0.3029  1.1061 -0.1432
   35TMC2    C6  546   4.255   1.148  11.756  0.1926 -0.1877  0.0228
   35TMC2     C  547   4.602   1.219  11.539  0.0559  0.8530  0.2609
   35TMC2     O  548   4.601   1.317  11.466  0.3871  0.2921  1.4466
   35TMC2     H  549   4.376   1.359  11.515 -1.1363  1.5481  2.1115
   35TMC2    H1  550   4.549   1.006  11.679 -2.0939 -0.8181 -0.8156
   35TMC2    H2  551   4.164   1.144  11.814  0.0640  2.1663 -0.0256
   35TMC2    C7  552   4.367   0.954  11.849  0.9400  0.4714  0.0295
   35TMC2    C8  553   4.169   1.366  11.677 -0.0831 -0.2934 -0.5860
   35TMC2    O1  554   4.473   0.891  11.860  0.1913 -0.2541 -0.2006
   35TMC2    O2  555   4.171   1.466  11.603 -0.1811  0.3033  0.0505
   35TMC2    O5  556   4.171   1.381  11.812 -0.4921 -0.0022  0.0033
   35TMC2    H5  557   4.182   1.304  11.872  0.3908  1.0508  1.1949
   36MPD2     C  558   0.360   1.326  11.556  0.8642  0.5243  0.1921
   36MPD2    C1  559   0.326   1.260  11.670  0.4287 -0.2219  0.1403
   36MPD2    C2  560   0.194   1.211  11.691  0.1095  0.1478 -0.5430
   36MPD2    C3  561   0.095   1.222  11.591 -0.4266 -0.1669  0.0400
   36MPD2    C4  562   0.137   1.292  11.474  0.4408  0.0676  0.2137
   36MPD2    C5  563   0.269   1.334  11.462  0.3844 -0.1027 -0.0533
   36MPD2     H  564   0.163   1.166  11.784  3.5532 -2.2133 -0.5267
   36MPD2    H1  565   0.075   1.307  11.387  0.1173 -1.8101  0.1330
   36MPD2    H2  566   0.460   1.359  11.529  0.4945  0.2294 -1.5275
   36MPD2    H3  567   0.297   1.371  11.364 -0.5368  0.9514  0.0742
   36MPD2     N  568   4.702   1.170  11.620  0.3517  0.4104 -0.4788
   36MPD2    H5  569   4.678   1.134  11.711  2.7456 -0.7123 -0.3060
   36MPD2    N1  570   0.425   1.265  11.774 -0.2260  0.1445 -0.5031
   36MPD2    H7  571   0.514   1.303  11.744 -0.2593 -0.6987 -1.6762
   37TMC2    C1  572   2.139   1.318  11.652 -0.2258 -0.3469 -0.3637
   37TMC2    C2  573   2.215   1.217  11.694 -0.0505 -0.2456  0.2198
   37TMC2    C3  574   2.342   1.220  11.649 -0.3818 -0.4800 -0.3280
   37TMC2    C4  575   2.186   1.420  11.568  0.5429  0.5293 -0.3441
   37TMC2    C5  576   2.318   1.422  11.528  0.5783 -0.1280 -0.4616
   37TMC2    C6  577   2.398   1.321  11.579  0.5612  0.0075  0.6375
   37TMC2     C  578   2.024   1.356  11.733  0.4057  0.6198  0.3486
   37TMC2     O  579   1.952   1.447  11.699 -0.3216 -0.5526  0.8809
   37TMC2     H  580   2.170   1.124  11.728 -0.3061  0.5663  2.1340
   37TMC2    H1  581   2.120   1.504  11.550  0.2944  0.0610 -1.6155
   37TMC2    H2  582   2.503   1.318  11.555  0.4413 -0.4129  0.1730
   37TMC2    C7  583   2.383   1.531  11.458 -0.2830 -0.2620  0.6157
   37TMC2    C8  584   2.430   1.115  11.679  0.2391  0.7201 -0.3334
   37TMC2    O1  585   2.507   1.519  11.446 -0.1048  0.1040 -0.2033
   37TMC2    O2  586   2.426   1.011  11.614 -0.8431  0.1031 -0.8516
   37TMC2    O5  587   2.531   1.164  11.752  0.3168  0.3088 -0.0476
   37TMC2    H5  588   2.497   1.248  11.787  1.1191 -0.2331  2.0096
   38MPD2     C  589   1.753   1.328  12.155 -0.7565 -0.1812 -0.6556
   38MPD2    C1  590   1.872   1.266  12.175  0.4516 -0.1557  0.1462
   38MPD2    C2  591   1.960   1.250  12.064 -0.3907  0.3963 -0.4883
   38MPD2    C3  592   1.923   1.292  11.945 -0.5365 -0.1626 -0.0741
   38MPD2    C4  593   1.799   1.341  11.924 -0.1621  0.1411 -0.6146
   38MPD2    C5  594   1.717   1.364  12.029  0.1565  1.0179 -0.4006
   38MPD2     H  595   2.053   1.197  12.084 -0.9706 -0.0588  0.9795
   38MPD2    H1  596   1.766   1.378  11.828 -0.6034  2.3189  0.3716
   38MPD2    H2  597   1.685   1.350  12.236  1.4157 -0.9351  1.3810
   38MPD2    H3  598   1.618   1.407  12.018  0.4992  1.4471 -1.8643
   38MPD2     N  599   2.033   1.297  11.852  0.2368 -0.4205 -1.0290
   38MPD2    H5  600   2.122   1.253  11.874 -0.0229 -0.1825  0.4785
   38MPD2    N1  601   1.918   1.227  12.303  0.0292  0.1062  0.0867
   38MPD2    H7  602   2.015   1.201  12.316 -0.6598 -1.7109  1.5338
   39TMC2    C1  603   1.048   3.235   1.603 -0.3236 -0.2717  0.5289
   39TMC2    C2  604   1.023   3.120   1.674  0.2286 -0.0737  0.6825
   39TMC2    C3  605   1.111   3.093   1.776 -0.1123  0.0251  0.4720
   39TMC2    C4  606   1.135   3.327   1.649 -0.2174 -0.4299  0.1047
   39TMC2    C5  607   1.212   3.308   1.762  0.2601  0.5346 -0.0114
   39TMC2    C6  608   1.205   3.183   1.823 -0.2794  0.1627 -0.8096
   39TMC2     C  609   0.986   3.247   1.474  0.2362  0.8879 -0.8903
   39TMC2     O  610   0.879   3.190   1.462 -0.6197  0.5428  0.4949
   39TMC2     H  611   0.954   3.046   1.635  1.0404 -2.0661  3.0399
   39TMC2    H1  612   1.140   3.422   1.599 -0.9267 -1.5104 -2.0163
   39TMC2    H2  613   1.253   3.157   1.917  0.7154 -2.1226 -1.9473
   39TMC2    C7  614   1.348   3.366   1.757 -0.1412 -0.2196  0.1657
   39TMC2    C8  615   1.074   2.982   1.861  0.4768  0.1058  0.1712
   39TMC2    O1  616   1.438   3.290   1.799  0.2135 -0.0701  0.4510
   39TMC2    O2  617   1.143   2.891   1.900 -0.1359  0.3494  0.2951
   39TMC2    O5  618   0.941   2.984   1.877 -0.3627  0.3673  0.2858
   39TMC2    H5  619   0.905   3.066   1.837  1.6155  0.5039 -1.2299
   40MPD2     C  620   1.136   3.309   1.142  0.5694  0.1689  0.5911
   40MPD2    C1  621   1.039   3.323   1.242 -0.1839 -0.6497  0.0965
   40MPD2    C2  622   0.906   3.349   1.201 -0.0351 -0.5182 -0.3855
   40MPD2    C3  623   0.873   3.363   1.064 -0.3799 -0.3260  0.1072
   40MPD2    C4  624   0.974   3.356   0.972 -0.6776 -0.5900 -0.3858
   40MPD2    C5  625   1.099   3.328   1.014 -0.3647  0.0488 -0.3244
   40MPD2     H  626   0.830   3.348   1.279  1.2389 -1.1049  0.8624
   40MPD2    H1  627   0.956   3.362   0.866  1.0376  1.7465 -0.5670
   40MPD2    H2  628   1.241   3.291   1.161  0.7775  2.5839  1.7086
   40MPD2    H3  629   1.175   3.319   0.937  1.5557  1.9801  1.3373
   40MPD2     N  630   0.739   3.367   1.017  0.2290  0.0343 -0.2753
   40MPD2    H5  631   0.720   3.360   0.918  1.2589  0.2702 -0.4854
   40MPD2    N1  632   1.071   3.298   1.376  0.0529 -0.0203 -0.2221
   40MPD2    H7  633   1.169   3.293   1.402 -0.2802  0.3606  1.0936
   41TMC2    C1  634   4.637   1.233  13.501 -0.0037 -0.2937 -0.1445
   41TMC2    C2  635   4.526   1.306  13.491  0.2172 -0.2574  0.9594
   41TMC2    C3  636   4.445   1.270  13.387 -0.8262  0.1800 -0.2739
   41TMC2    C4  637   4.664   1.122  13.412 -0.5367 -0.1533 -0.9212
   41TMC2    C5  638   4.579   1.104  13.315  0.2639 -0.3312 -0.6128
   41TMC2    C6  639   4.466   1.176  13.292 -0.2658  0.5199 -0.3557
   41TMC2     C  640   4.715   1.224  13.624 -0.1679 -0.4897 -0.2614
   41TMC2     O  641   0.077   1.154  13.625 -0.0841 -0.2367 -0.1796
   41TMC2     H  642   4.504   1.391  13.555 -1.0962 -0.5660  0.9122
   41TMC2    H1  643   0.022   1.073  13.415 -0.2564  0.4106 -0.6136
   41TMC2    H2  644   4.392   1.150  13.217 -1.0472 -0.1876  0.6508
   41TMC2    C7  645   4.634   1.022  13.209 -0.9843  0.0878 -0.1323
   41TMC2    C8  646   4.317   1.341  13.369 -0.3920 -0.0118 -0.6391
   41TMC2    O1  647   0.012   0.991  13.217  0.1504 -0.0294  0.2479
   41TMC2    O2  648   4.230   1.341  13.456  0.0942 -0.2918 -0.1962
   41TMC2    O5  649   4.302   1.351  13.236 -0.4526  0.0796  0.1315
   41TMC2    H5  650   4.386   1.381  13.195 -0.7278  0.2401 -0.3140
   42MPD2     C  651   0.031   1.197  13.909 -0.9586 -0.1125 -0.1245
   42MPD2    C1  652   4.665   1.276  13.860  0.1789  0.0248 -0.8219
   42MPD2    C2  653   4.578   1.346  13.945 -0.1627  0.6806 -0.2553
   42MPD2    C3  654   4.585   1.337  14.080  0.0138  0.1960  0.0689
   42MPD2    C4  655   4.673   1.238  14.124  0.2366 -0.6591  0.5263
   42MPD2    C5  656   0.027   1.176  14.045 -0.2570 -0.7104  0.1374
   42MPD2     H  657   4.512   1.417  13.896 -1.0489 -1.3698 -2.0417
   42MPD2    H1  658   4.679   1.211  14.229  1.9708 -0.5184  0.4507
   42MPD2    H2  659   0.097   1.142  13.843 -0.0933 -1.7495  2.1096
   42MPD2    H3  660   0.096   1.107  14.092  1.1867 -1.1458 -2.6161
   42MPD2     N  661   4.504   1.418  14.166  0.3049 -0.4254  0.8741
   42MPD2    H5  662   4.447   1.485  14.116 -0.4500 -1.1432  0.7760
   42MPD2    N1  663   4.639   1.281  13.720  0.5539  0.0725  0.1448
   42MPD2    H7  664   4.554   1.326  13.687  1.0923  2.5334  2.1315
   43TMC2    C1  665   1.012   4.715   0.941  0.4432 -0.0514 -0.5327
   43TMC2    C2  666   1.026   0.108   0.958  0.0365  0.3538  0.2212
   43TMC2    C3  667   1.044   0.154   1.082 -0.4702 -0.4891  0.5234
   43TMC2    C4  668   1.025   4.628   1.044  0.6933 -0.3421  0.7471
   43TMC2    C5  669   1.042   4.676   1.173  0.1039 -0.2702  0.2391
   43TMC2    C6  670   1.044   0.076   1.195  0.5049 -0.0640  0.4649
   43TMC2     C  671   1.019   4.654   0.811  0.2067 -0.0917  0.5200
   43TMC2     O  672   1.031   4.532   0.804 -0.2424 -0.0762 -0.1801
   43TMC2     H  673   1.055   0.177   0.879  1.4688 -1.3170 -0.7212
   43TMC2    H1  674   1.009   4.522   1.029  0.2031  0.2762 -3.0678
   43TMC2    H2  675   1.062   0.122   1.292  0.2830  2.0439 -0.4912
   43TMC2    C7  676   1.097   4.571   1.270 -0.6359 -0.2313 -0.2766
   43TMC2    C8  677   1.064   0.293   1.094  0.5826  0.2275  0.1081
   43TMC2    O1  678   1.148   4.475   1.215 -0.0476  0.1796  0.0243
   43TMC2    O2  679   1.047   0.372   1.001 -0.3129 -0.4007 -0.7026
   43TMC2    O5  680   1.128   0.318   1.208  0.6570 -0.3395  0.1077
   43TMC2    H5  681   1.185   0.245   1.242 -0.1231 -2.4022 -3.0963
   44MPD2     C  682   1.015   4.688   0.296 -0.4110  0.2953 -0.1813
   44MPD2    C1  683   1.080   4.600   0.382  0.0231 -0.6617 -0.2703
   44MPD2    C2  684   1.057   4.614   0.513 -0.3621 -0.4879 -0.5477
   44MPD2    C3  685   0.982   4.715   0.570  0.3443  0.1714 -0.0232
   44MPD2    C4  686   0.925   0.070   0.480  0.2702  0.1196  0.2177
   44MPD2    C5  687   0.936   0.043   0.344  0.7130 -0.3067 -0.5138
   44MPD2     H  688   1.116   4.545   0.573 -0.8356  0.2379  0.7376
   44MPD2    H1  689   0.863   0.154   0.511 -0.0936 -0.3097  0.6516
   44MPD2    H2  690   1.037   4.680   0.190 -0.3404 -2.1753  0.0058
   44MPD2    H3  691   0.883   0.104   0.273 -0.1882 -1.2175 -0.6198
   44MPD2     N  692   0.980   4.738   0.709  0.1761 -0.0962 -0.2008
   44MPD2    H5  693   0.938   0.090   0.729  0.2541  0.3704 -2.1183
   44MPD2    N1  694   1.185   4.513   0.347 -0.0281  0.1569  0.1868
   44MPD2    H7  695   1.245   4.469   0.416 -0.6614 -1.5682 -0.3533
   45TMC2    C1  696   2.523   1.451   9.856  0.0417 -0.5339  0.1655
   45TMC2    C2  697   2.561   1.390   9.738 -0.0369  0.1845  0.3039
   45TMC2    C3  698   2.595   1.471   9.634 -0.3260 -0.3030  0.4898
   45TMC2    C4  699   2.530   1.581   9.876 -0.9453  0.5269  0.1852
   45TMC2    C5  700   2.565   1.657   9.764 -0.0046 -0.2654 -0.5470
   45TMC2    C6  701   2.599   1.605   9.644 -0.6102  1.1815  0.0952
   45TMC2     C  702   2.474   1.364   9.965  0.4355 -0.2681  0.6146
   45TMC2     O  703   2.496   1.400  10.076  0.2647 -0.0459 -0.2272
   45TMC2     H  704   2.559   1.282   9.740  0.2963  0.1389 -2.7914
   45TMC2    H1  705   2.497   1.623   9.971 -1.2564 -1.9177  1.1744
   45TMC2    H2  706   2.632   1.660   9.557 -0.1937  0.1608 -0.3956
   45TMC2    C7  707   2.576   1.800   9.784  0.0626  0.7064  0.0439
   45TMC2    C8  708   2.663   1.403   9.525  0.0528 -0.7401  0.7878
   45TMC2    O1  709   2.544   1.845   9.893 -0.5522  0.1640 -0.5529
   45TMC2    O2  710   2.743   1.466   9.461  0.3875  0.6699 -0.0052
   45TMC2    O5  711   2.619   1.277   9.509  0.8371 -0.2369  0.7831
   45TMC2    H5  712   2.529   1.264   9.546 -0.6785  1.2122 -2.3859
   46MPD2     C  713   2.299   1.173  10.123 -0.2811 -1.0221  0.7837
   46MPD2    C1  714   2.287   1.202   9.984  0.4917 -0.7803  0.1323
   46MPD2    C2  715   2.185   1.145   9.918  0.0514 -0.4203  0.2798
   46MPD2    C3  716   2.089   1.066   9.976 -1.0224  0.1079  0.8607
   46MPD2    C4  717   2.094   1.043  10.108  0.3900 -0.6345  1.0348
   46MPD2    C5  718   2.202   1.095  10.178 -0.3771  0.5282 -0.6985
   46MPD2     H  719   2.171   1.150   9.810 -1.5708 -0.5883  0.4904
   46MPD2    H1  720   2.030   0.970  10.156 -1.9471  2.1011  2.0629
   46MPD2    H2  721   2.371   1.220  10.189  0.5474 -1.1339 -0.0520
   46MPD2    H3  722   2.193   1.088  10.285 -3.5845  0.5817 -0.9612
   46MPD2     N  723   1.987   1.021   9.893  0.2930  0.4269 -1.2641
   46MPD2    H5  724   1.980   1.068   9.803  1.4898 -1.1396 -2.1739
   46MPD2    N1  725   2.380   1.281   9.911  0.4922 -0.5512  0.4865
   46MPD2    H7  726   2.376   1.276   9.810  0.6013  2.3537  0.3436
   47TMC2    C1  727   4.589   2.586   9.366  0.3052  0.3326 -0.0192
   47TMC2    C2  728   4.560   2.708   9.416  0.3954 -0.2284 -0.8744
   47TMC2    C3  729   4.431   2.729   9.460  0.0035  0.5785  0.6436
   47TMC2    C4  730   4.497   2.487   9.363  0.0440 -0.1746 -0.1009
   47TMC2    C5  731   4.373   2.509   9.401  0.4177 -0.3192  0.4854
   47TMC2    C6  732   4.334   2.630   9.455  0.0292 -0.4272 -0.5726
   47TMC2     C  733   4.731   2.555   9.390  0.7659  0.1563 -0.4130
   47TMC2     O  734   0.065   2.651   9.418  0.1892 -0.2057 -0.1224
   47TMC2     H  735   4.630   2.790   9.426 -0.3525  0.1426  1.2989
   47TMC2    H1  736   4.525   2.388   9.329  0.7811  0.3124 -0.9080
   47TMC2    H2  737   4.232   2.660   9.477 -0.0886 -1.1902 -0.0706
   47TMC2    C7  738   4.280   2.423   9.335  0.0191  0.6545  0.2847
   47TMC2    C8  739   4.392   2.857   9.492 -0.7625  0.5017  0.2788
   47TMC2    O1  740   4.324   2.309   9.318  0.1232 -0.2905 -0.5113
   47TMC2    O2  741   4.465   2.950   9.477 -0.2288 -0.3309  0.3501
   47TMC2    O5  742   4.316   2.846   9.604 -0.3912 -0.0525 -0.3820
   47TMC2    H5  743   4.299   2.752   9.630  2.3019 -0.4925 -0.2053
   48MPD2     C  744   0.264   2.446   9.444 -0.1718  0.0021 -0.3574
   48MPD2    C1  745   0.153   2.369   9.423  0.7968  0.4929 -0.6365
   48MPD2    C2  746   0.175   2.231   9.431  0.2225 -1.3305  0.3262
   48MPD2    C3  747   0.294   2.171   9.461 -0.2251 -0.8066 -0.0646
   48MPD2    C4  748   0.391   2.262   9.499  0.1383 -0.6132  0.0114
   48MPD2    C5  749   0.374   2.391   9.490 -0.1409  0.2136  0.1729
   48MPD2     H  750   0.085   2.177   9.404 -0.7842 -0.3211  1.6417
   48MPD2    H1  751   0.491   2.231   9.523 -0.0329 -1.6581 -0.6123
   48MPD2    H2  752   0.264   2.555   9.448 -0.0761  0.0632 -1.7931
   48MPD2    H3  753   0.457   2.451   9.526  0.1610 -0.5684  0.7490
   48MPD2     N  754   0.301   2.029   9.465 -0.3917  0.1928  0.1363
   48MPD2    H5  755   0.224   1.980   9.423 -1.6129  0.2609  2.2956
   48MPD2    N1  756   0.026   2.426   9.397 -0.3628 -0.0689  0.0781
   48MPD2    H7  757   4.695   2.356   9.373 -1.4383  1.4191 -1.1169
   49TMC2    C1  758   2.247   4.022  10.284  0.0862 -0.6345 -0.0866
   49TMC2    C2  759   2.145   3.971  10.204  0.4282  0.6807  0.0437
   49TMC2    C3  760   2.143   4.013  10.073  0.2625 -0.4628 -0.7531
   49TMC2    C4  761   2.338   4.117  10.251  0.0445  0.3929 -0.3524
   49TMC2    C5  762   2.321   4.163  10.121 -0.0913  0.2432  0.5853
   49TMC2    C6  763   2.226   4.116  10.039  0.6441  0.6395  0.7078
   49TMC2     C  764   2.275   3.942  10.399  0.2015  0.4163 -0.4046
   49TMC2     O  765   2.216   3.836  10.400  0.1273  0.7626  0.8914
   49TMC2     H  766   2.064   3.905  10.231  1.5340 -0.0921  1.4606
   49TMC2    H1  767   2.415   4.157  10.316  1.4324 -0.3792 -1.5349
   49TMC2    H2  768   2.218   4.155   9.938 -1.0395 -0.5743  0.3691
   49TMC2    C7  769   2.411   4.271  10.069  0.3425 -0.2010  0.3762
   49TMC2    C8  770   2.038   3.986   9.982 -0.6889  0.5169 -0.6392
   49TMC2    O1  771   2.361   4.335   9.982  0.2605  0.2832  0.6490
   49TMC2    O2  772   2.011   4.067   9.896 -0.2242  0.1705  0.4897
   49TMC2    O5  773   1.999   3.859   9.986 -0.5055 -0.0761 -0.0824
   49TMC2    H5  774   2.050   3.815  10.058 -0.8244  0.7319  0.6426
   50MPD2     C  775   2.413   3.821  10.631 -0.2453 -0.1466 -0.1231
   50MPD2    C1  776   2.381   3.954  10.627  0.1443  0.4097 -0.8673
   50MPD2    C2  777   2.403   4.032  10.735  1.0832 -0.1001 -0.5339
   50MPD2    C3  778   2.467   3.974  10.851 -0.3714 -0.1594 -0.1365
   50MPD2    C4  779   2.497   3.838  10.853 -0.2098 -0.3001  0.2880
   50MPD2    C5  780   2.478   3.768  10.739 -0.7189  0.7493  0.1164
   50MPD2     H  781   2.364   4.133  10.725  2.8009  0.7756  1.4653
   50MPD2    H1  782   2.554   3.795  10.934  0.5372  0.5115  0.2001
   50MPD2    H2  783   2.395   3.757  10.546  0.5429  1.2107 -1.3191
   50MPD2    H3  784   2.504   3.663  10.737 -0.0993  0.9246 -1.2889
   50MPD2     N  785   2.493   4.044  10.969 -0.2151  0.1639  0.1772
   50MPD2    H5  786   2.531   3.987  11.043 -1.0711  1.0500  1.2915
   50MPD2    N1  787   2.323   4.016  10.510  0.4522 -0.3650  0.2306
   50MPD2    H7  788   2.331   4.117  10.505 -0.2140 -0.2902  0.7071
   51TMC2    C1  789   4.640   2.810   1.714 -0.2842 -0.0934 -0.2507
   51TMC2    C2  790   0.015   2.845   1.788  0.0762  0.5243  0.0292
   51TMC2    C3  791   0.031   2.978   1.819 -0.5642  0.1650  0.1171
   51TMC2    C4  792   4.559   2.913   1.671  0.3397 -0.0308  0.2809
   51TMC2    C5  793   4.581   3.041   1.712 -0.4004 -0.7718 -0.1665
   51TMC2    C6  794   4.689   3.078   1.782  0.0692 -0.0174 -0.6286
   51TMC2     C  795   4.617   2.675   1.664  0.3506 -0.2982  0.9168
   51TMC2     O  796   4.509   2.663   1.608  0.6137  0.0132 -0.0421
   51TMC2     H  797   0.075   2.769   1.837 -1.4130  0.6697  2.0819
   51TMC2    H1  798   4.470   2.892   1.613  0.8078  0.0808 -0.4770
   51TMC2    H2  799   4.707   3.180   1.814 -2.3212  0.0925  0.3170
   51TMC2    C7  800   4.509   3.140   1.641 -0.0227  0.2671  0.1712
   51TMC2    C8  801   0.141   3.014   1.906  0.3905  0.1379  0.1971
   51TMC2    O1  802   4.457   3.102   1.537 -0.0623 -0.7565 -0.2961
   51TMC2    O2  803   0.244   2.945   1.915 -0.0780 -0.3101 -0.1163
   51TMC2    O5  804   0.094   3.098   1.997 -0.5967  0.3762  0.1497
   51TMC2    H5  805   4.735   3.110   1.992 -0.4625  0.5895 -1.9475
   52MPD2     C  806   4.694   2.171   1.624  0.9513 -0.0880 -0.8060
   52MPD2    C1  807   4.608   2.255   1.559 -0.7897  0.2648  0.7445
   52MPD2    C2  808   4.600   2.391   1.592  0.1574 -0.5313  0.3434
   52MPD2    C3  809   4.692   2.442   1.680 -0.3026  0.3979 -0.7193
   52MPD2    C4  810   0.052   2.364   1.739  0.0819  0.4156 -1.1288
   52MPD2    C5  811   0.048   2.228   1.705  0.0935 -0.2996  0.2925
   52MPD2     H  812   4.527   2.451   1.541  0.2425  0.3552  1.2618
   52MPD2    H1  813   0.125   2.411   1.804 -0.7350 -2.4858  1.8319
   52MPD2    H2  814   4.704   2.063   1.612  1.4720 -0.3244  1.8203
   52MPD2    H3  815   0.127   2.172   1.753  0.2730 -1.5582 -1.4566
   52MPD2     N  816   4.709   2.584   1.704  0.0474 -0.0945  0.2046
   52MPD2    H5  817   0.041   2.616   1.770  0.6600  1.1757 -1.0639
   52MPD2    N1  818   4.521   2.196   1.467 -0.3075 -0.8259 -0.2698
   52MPD2    H7  819   4.457   2.257   1.416  0.9872  0.8887  0.1723
   53TMC2    C1  820   2.853   2.046  11.216  0.1603 -0.0437  0.1769
   53TMC2    C2  821   2.923   2.138  11.147 -0.7000 -0.0239 -0.5359
   53TMC2    C3  822   3.055   2.154  11.179 -0.7386 -0.2064 -0.0307
   53TMC2    C4  823   2.902   1.986  11.327  0.7975  0.1330  0.3517
   53TMC2    C5  824   3.033   2.007  11.361  0.1759 -0.3301  0.3581
   53TMC2    C6  825   3.118   2.092  11.290  0.0722 -0.3965  0.6713
   53TMC2     C  826   2.717   2.021  11.177  0.0629  0.3037 -0.3134
   53TMC2     O  827   2.668   2.104  11.098 -0.2032  0.2470  0.3114
   53TMC2     H  828   2.873   2.200  11.073  0.5098  2.1307  0.4784
   53TMC2    H1  829   2.842   1.925  11.393 -2.6003  0.1123 -2.7903
   53TMC2    H2  830   3.223   2.108  11.310  0.0513 -1.9206  1.9742
   53TMC2    C7  831   3.074   1.938  11.484 -0.0738  0.0118 -0.1996
   53TMC2    C8  832   3.133   2.254  11.110 -0.3035 -0.2380  0.1055
   53TMC2    O1  833   3.004   1.855  11.536 -0.0940 -0.2622 -0.4352
   53TMC2    O2  834   3.242   2.297  11.151  0.3252  0.2742 -0.4995
   53TMC2    O5  835   3.070   2.297  10.998 -0.0446 -0.4963  0.2088
   53TMC2    H5  836   3.020   2.228  10.949 -2.2971  0.0578  1.7703
   54MPD2     C  837   2.424   1.939  11.149 -0.3785 -0.0404  0.1629
   54MPD2    C1  838   2.528   1.871  11.210 -1.0114 -0.1178  0.7629
   54MPD2    C2  839   2.487   1.763  11.286  0.4698  0.6125  0.3446
   54MPD2    C3  840   2.354   1.730  11.312 -0.4193 -0.2503 -0.3657
   54MPD2    C4  841   2.256   1.796  11.246 -0.1680 -0.4498 -0.3784
   54MPD2    C5  842   2.295   1.900  11.168 -0.8568 -0.7122  0.6945
   54MPD2     H  843   2.564   1.719  11.349  1.3164 -0.4490 -1.4196
   54MPD2    H1  844   2.149   1.780  11.247 -0.6229  2.5461 -0.8959
   54MPD2    H2  845   2.432   2.028  11.087 -2.8002 -0.9280 -1.4341
   54MPD2    H3  846   2.218   1.954  11.114  0.5606  0.2870 -0.3241
   54MPD2     N  847   2.303   1.621  11.389  0.1138 -0.3927 -0.4464
   54MPD2    H5  848   2.202   1.617  11.394  0.0551  2.8379  1.3454
   54MPD2    N1  849   2.662   1.898  11.217  0.5515 -0.1325 -0.2267
   54MPD2    H7  850   2.722   1.827  11.258 -0.8290 -2.3969 -2.1178
   55TMC2    C1  851   4.094   0.779  17.721 -0.0409  0.1576 -0.5182
   55TMC2    C2  852   4.154   0.895  17.689 -0.0330 -0.0006  0.6492
   55TMC2    C3  853   4.287   0.905  17.719 -0.3375 -0.1848  0.0758
   55TMC2    C4  854   4.164   0.678   0.028 -0.0985 -0.1856 -0.7268
   55TMC2    C5  855   4.293   0.693   0.064 -0.5828 -0.8539 -0.4847
   55TMC2    C6  856   4.352   0.815   0.044  0.4554  0.0330 -0.3161
   55TMC2     C  857   3.954   0.764  17.699 -0.4677 -0.1686 -0.3997
   55TMC2     O  858   3.902   0.670   0.006  0.3504  0.3205 -0.0813
   55TMC2     H  859   4.118   0.972  17.622 -2.4205 -0.0829  1.8267
   55TMC2    H1  860   4.109   0.586   0.044 -0.1187  0.3361  2.1193
   55TMC2    H2  861   4.460   0.827   0.050  0.8173 -2.4844 -1.7079
   55TMC2    C7  862   4.370   0.576   0.096  0.0809  0.3147  0.4180
   55TMC2    C8  863   4.356   1.011  17.654  0.0699  0.5419  0.3156
   55TMC2    O1  864   4.482   0.572   0.054  0.5490 -0.3344  0.4457
   55TMC2    O2  865   4.308   1.055  17.551 -0.3403 -0.0237  0.1552
   55TMC2    O5  866   4.424   1.084   0.003 -0.1847 -0.4124  0.1128
   55TMC2    H5  867   4.424   1.042   0.092 -2.3609  0.7864  0.6657
   56MPD2     C  868   3.715   0.938  17.471 -0.2506 -0.6543 -0.3119
   56MPD2    C1  869   3.765   0.847  17.561  0.0701 -0.2140 -0.0071
   56MPD2    C2  870   3.676   0.741  17.597  0.0355 -0.1559 -0.0462
   56MPD2    C3  871   3.549   0.730  17.548  0.5592  0.1131 -0.1232
   56MPD2    C4  872   3.508   0.817  17.450  0.0865 -0.1006 -0.6714
   56MPD2    C5  873   3.597   0.914  17.407  0.1013 -0.0475 -0.6163
   56MPD2     H  874   3.696   0.666  17.673 -0.0061  0.0441  0.1651
   56MPD2    H1  875   3.406   0.815  17.413  0.4963 -0.6266 -1.7588
   56MPD2    H2  876   3.783   1.015  17.437  0.8644 -1.3334  0.4059
   56MPD2    H3  877   3.557   0.975  17.327  0.3366  3.7221  2.0986
   56MPD2     N  878   3.459   0.630  17.600 -0.5133 -0.4580  0.8256
   56MPD2    H5  879   3.505   0.572  17.669  0.0657  0.8180  1.5259
   56MPD2    N1  880   3.894   0.859  17.617 -0.7400 -0.3418  0.3246
   56MPD2    H7  881   3.951   0.937  17.586 -0.4138  1.2681  4.9565
   57TMC2    C1  882   2.884   4.286  13.455  0.2649 -0.4227  0.4337
   57TMC2    C2  883   2.962   4.240  13.559 -0.4819  0.0746 -0.5566
   57TMC2    C3  884   3.063   4.151  13.531 -0.0195  0.2647 -0.0154
   57TMC2    C4  885   2.903   4.244  13.328 -0.1650  0.3547 -0.8813
   57TMC2    C5  886   3.011   4.165  13.304  0.1851  0.6579 -0.3198
   57TMC2    C6  887   3.092   4.117  13.406 -0.1751 -0.0042  0.0658
   57TMC2     C  888   2.789   4.398  13.472  0.1722 -0.2600 -0.1612
   57TMC2     O  889   2.682   4.386  13.415  0.1158  0.3258 -0.5053
   57TMC2     H  890   2.948   4.262  13.664  3.0087  2.6968 -0.6307
   57TMC2    H1  891   2.839   4.279  13.248 -1.7392 -1.2826 -0.3627
   57TMC2    H2  892   3.183   4.059  13.396 -0.0653  0.1780  0.0034
   57TMC2    C7  893   3.067   4.172  13.177  0.5718  0.2892 -0.1543
   57TMC2    C8  894   3.152   4.101  13.629  0.2636  0.0154 -0.3117
   57TMC2    O1  895   3.005   4.239  13.093 -0.6602 -0.1210  0.0688
   57TMC2    O2  896   3.273   4.089  13.608 -0.3096 -0.1505 -0.3413
   57TMC2    O5  897   3.082   4.028  13.719 -0.0432 -0.2455  0.0315
   57TMC2    H5  898   2.985   4.040  13.716 -0.1705 -1.2703  0.1211
   58MPD2     C  899   2.618   0.081  13.687 -0.4331 -0.6916 -0.4902
   58MPD2    C1  900   2.571   0.023  13.575  0.1731 -0.3552  0.2822
   58MPD2    C2  901   2.637   4.645  13.544  0.0934  0.5504 -0.9125
   58MPD2    C3  902   2.750   4.604  13.612  0.1090 -0.2871  0.2927
   58MPD2    C4  903   2.796   4.674  13.722  0.0684 -1.0018 -0.2488
   58MPD2    C5  904   2.728   0.046  13.758  0.5515  0.9919 -0.6827
   58MPD2     H  905   2.600   4.596  13.455  0.6335 -2.7127  0.6449
   58MPD2    H1  906   2.883   4.647  13.781  0.6134  1.0786 -0.1047
   58MPD2    H2  907   2.565   0.169  13.722 -0.0315 -1.1017  1.1017
   58MPD2    H3  908   2.776   0.108  13.833 -0.3171 -0.2015  0.8774
   58MPD2     N  909   2.831   4.495  13.563 -0.2786 -0.0650  0.3621
   58MPD2    H5  910   2.926   4.483  13.597  0.8236  0.0367 -2.6655
   58MPD2    N1  911   2.461   0.078  13.496 -0.0332 -0.0632 -0.7573
   58MPD2    H7  912   2.423   0.008  13.433 -3.0910  0.2981  0.6915
   59TMC2    C1  913   1.213   0.650  12.834 -0.8576 -0.4904  0.0827
   59TMC2    C2  914   1.208   0.548  12.927 -0.3757 -0.3795  0.0401
   59TMC2    C3  915   1.108   0.454  12.918  0.0285 -0.6857 -0.6226
   59TMC2    C4  916   1.110   0.662  12.739 -0.1189  0.4597  0.1346
   59TMC2    C5  917   1.003   0.566  12.746  0.1491 -0.3110  0.6350
   59TMC2    C6  918   1.007   0.456  12.827  0.7162  0.5487 -0.5183
   59TMC2     C  919   1.321   0.750  12.824  0.5158  0.0337  0.0598
   59TMC2     O  920   1.314   0.841  12.741  0.6293 -0.1739  0.0715
   59TMC2     H  921   1.274   0.553  13.013 -1.2060 -0.2890  0.6689
   59TMC2    H1  922   1.111   0.730  12.655 -3.0221  1.6129  1.0031
   59TMC2    H2  923   0.948   0.366  12.811  3.4255 -1.3467  0.1672
   59TMC2    C7  924   0.902   0.564  12.640  0.1331  0.2125 -0.0699
   59TMC2    C8  925   1.155   0.331  12.989 -0.5657  0.0779  0.0165
   59TMC2    O1  926   0.854   0.452  12.615 -0.6153 -0.4799 -0.3126
   59TMC2    O2  927   1.274   0.313  13.006  0.1418 -0.4376  0.0476
   59TMC2    O5  928   1.074   0.227  12.978  0.6457  0.3019 -0.5756
   59TMC2    H5  929   0.978   0.247  12.989  1.0311  0.5291  2.3043
   60MPD2     C  930   1.523   0.960  12.921  0.4628 -0.1592 -0.0602
   60MPD2    C1  931   1.528   0.823  12.932  0.9191  0.0939  0.6576
   60MPD2    C2  932   1.642   0.763  12.982  0.6746  0.1579  0.6233
   60MPD2    C3  933   1.748   0.849  13.007 -0.3115  0.6136 -0.0845
   60MPD2    C4  934   1.751   0.984  12.983  0.9118 -0.7819  0.0633
   60MPD2    C5  935   1.638   1.041  12.947  0.0542 -0.1637 -0.3007
   60MPD2     H  936   1.649   0.655  12.992 -0.3514  0.0200 -0.1661
   60MPD2    H1  937   1.840   1.045  12.989  1.1664 -1.3380  1.9015
   60MPD2    H2  938   1.431   1.009  12.894 -0.6706 -2.0026  0.4625
   60MPD2    H3  939   1.642   1.148  12.930  0.8097  0.0426  1.2076
   60MPD2     N  940   1.862   0.808  13.078  0.4897  0.0441 -0.6214
   60MPD2    H5  941   1.947   0.862  13.079  0.0982  0.6392  1.3158
   60MPD2    N1  942   1.418   0.740  12.918  0.1946  0.1239 -0.4838
   60MPD2    H7  943   1.422   0.651  12.968  0.0976 -0.0772 -0.8335
   61TMC2    C1  944   0.481   1.890  15.881 -0.0746 -0.7877  0.6692
   61TMC2    C2  945   0.511   1.863  16.017  1.0881 -0.0497 -0.1012
   61TMC2    C3  946   0.468   1.949  16.117 -0.3287 -0.1905 -0.1235
   61TMC2    C4  947   0.414   2.001  15.846  0.5271 -0.5734  0.0322
   61TMC2    C5  948   0.362   2.083  15.945  0.5101  0.4458  0.1824
   61TMC2    C6  949   0.384   2.052  16.084 -0.2268 -0.3534 -0.4406
   61TMC2     C  950   0.565   1.815  15.786  0.4962  0.3877  0.5363
   61TMC2     O  951   0.628   1.724  15.836 -0.0111  0.6327  0.7604
   61TMC2     H  952   0.548   1.768  16.053  1.2470  0.7641  1.8974
   61TMC2    H1  953   0.391   2.018  15.741  0.6665  0.6403  0.1965
   61TMC2    H2  954   0.323   2.101  16.159  0.5099 -1.2983  0.7757
   61TMC2    C7  955   0.326   2.221  15.906 -0.0471 -0.0896  0.4699
   61TMC2    C8  956   0.430   1.877  16.241  0.0985  0.5038 -0.3192
   61TMC2    O1  957   0.352   2.253  15.787  0.0131  0.4899  0.0770
   61TMC2    O2  958   0.319   1.882  16.284  0.2460 -0.4247 -0.2082
   61TMC2    O5  959   0.547   1.844  16.298 -0.0137  0.0627  0.2854
   61TMC2    H5  960   0.626   1.868  16.244 -0.7860  0.1226 -0.8153
   62MPD2     C  961   0.723   1.711  15.543 -0.4781  0.7014 -0.0638
   62MPD2    C1  962   0.628   1.814  15.540 -0.8809 -0.2402 -0.0527
   62MPD2    C2  963   0.605   1.872  15.413 -0.1630 -0.2116 -0.2246
   62MPD2    C3  964   0.674   1.827  15.296 -0.1979  0.8792 -0.3677
   62MPD2    C4  965   0.763   1.717  15.306  0.1254  0.0577  0.8002
   62MPD2    C5  966   0.801   1.681  15.430  0.1298 -0.3780 -0.4358
   62MPD2     H  967   0.537   1.957  15.410  0.9053  0.6296 -0.5977
   62MPD2    H1  968   0.813   1.666  15.224  1.4514  1.0218  1.0043
   62MPD2    H2  969   0.733   1.648  15.631 -0.8030 -3.5442 -3.0390
   62MPD2    H3  970   0.872   1.600  15.440 -0.5760 -0.7872  1.2803
   62MPD2     N  971   0.651   1.882  15.169  0.1253 -0.5753 -0.2735
   62MPD2    H5  972   0.719   1.849  15.100  0.4011  1.4155 -0.9558
   62MPD2    N1  973   0.557   1.862  15.652 -0.1305  0.2620  0.0130
   62MPD2    H7  974   0.497   1.941  15.633  0.1149  0.3214 -0.5199
   63TMC2    C1  975   0.489   1.944  10.576  0.4244  0.0356 -0.6549
   63TMC2    C2  976   0.598   1.989  10.644 -0.3477 -0.1524 -0.0288
   63TMC2    C3  977   0.688   2.071  10.581  0.5267 -0.2231  0.4366
   63TMC2    C4  978   0.474   1.965  10.440  0.4657 -0.1330  0.5475
   63TMC2    C5  979   0.562   2.058  10.381 -0.0342  0.2695 -0.6071
   63TMC2    C6  980   0.667   2.120  10.448 -0.9002 -0.4151 -0.3178
   63TMC2     C  981   0.369   1.944  10.667  0.3066 -0.3450  0.2664
   63TMC2     O  982   0.381   2.021  10.766  0.0864  0.6551 -0.1483
   63TMC2     H  983   0.601   1.968  10.750 -0.3205 -0.6086 -0.1191
   63TMC2    H1  984   0.380   1.942  10.390 -0.5046 -2.3527  3.3913
   63TMC2    H2  985   0.735   2.197  10.413 -2.0024 -0.0924 -1.7537
   63TMC2    C7  986   0.526   2.111  10.253 -0.7510 -0.4415 -0.0930
   63TMC2    C8  987   0.792   2.144  10.648  0.4757  0.2340  0.7080
   63TMC2    O1  988   0.423   2.069  10.198  0.2763  0.2333  0.6011
   63TMC2    O2  989   0.845   2.244  10.597  0.4510 -0.2070 -0.3003
   63TMC2    O5  990   0.796   2.099  10.780 -0.0537  0.1599  0.0140
   63TMC2    H5  991   0.760   2.011  10.802 -2.9780  2.0928  3.0367
   64MPD2     C  992   4.647   1.806  10.844  0.1175  0.6734  0.5148
   64MPD2    C1  993   4.672   1.725  10.732 -0.0916  0.0651  0.0329
   64MPD2    C2  994   0.043   1.765  10.653  0.1142 -0.4870  0.0688
   64MPD2    C3  995   0.137   1.851  10.703 -0.0190 -0.5873  0.6010
   64MPD2    C4  996   0.112   1.915  10.818 -0.2866 -0.2251  0.0036
   64MPD2    C5  997   0.001   1.892  10.892 -0.9601  0.1577  0.0748
   64MPD2     H  998   0.057   1.716  10.557 -1.6465 -1.5994  0.3771
   64MPD2    H1  999   0.165   2.003  10.851 -1.0737  0.0091  0.6753
   64MPD2    H2 1000   4.558   1.791  10.904 -0.1721  1.4061  0.2716
   64MPD2    H3 1001   4.707   1.945  10.981  0.6347 -0.3474  0.9612
   64MPD2     N 1002   0.254   1.876  10.626 -0.2742  0.2680  0.3588
   64MPD2    H5 1003   0.258   1.824  10.539 -0.4182  0.6185  0.1400
   64MPD2    N1 1004   4.593   1.616  10.686  0.6323  0.1735 -0.5157
   64MPD2    H7 1005   4.622   1.568  10.602 -1.4299  1.2810 -1.8654
   65TMC2    C1 1006   1.449   1.582  15.577 -0.0235 -0.2061 -0.0865
   65TMC2    C2 1007   1.543   1.541  15.484  0.6918  0.5825 -0.0391
   65TMC2    C3 1008   1.589   1.635  15.405 -0.1631 -0.5026  0.0532
   65TMC2    C4 1009   1.406   1.713  15.587 -0.3953 -0.3899  0.3189
   65TMC2    C5 1010   1.467   1.805  15.502  0.1929  0.3124  0.4544
   65TMC2    C6 1011   1.552   1.767  15.412  0.1781  0.1574  0.5650
   65TMC2     C 1012   1.393   1.483  15.653  0.0643 -0.2115 -0.0635
   65TMC2     O 1013   1.374   1.513  15.771 -0.6531  0.4024 -0.3628
   65TMC2     H 1014   1.573   1.437  15.476  1.2095  0.7184  0.1912
   65TMC2    H1 1015   1.335   1.745  15.662  0.9400  1.4334  0.8044
   65TMC2    H2 1016   1.601   1.839  15.347  1.2872 -0.9548  0.1861
   65TMC2    C7 1017   1.401   1.924  15.474 -0.5409 -0.9865  0.4470
   65TMC2    C8 1018   1.678   1.597  15.299  0.0752 -1.5443  0.3290
   65TMC2    O1 1019   1.416   1.970  15.363 -0.3703 -0.2672 -0.6872
   65TMC2    O2 1020   1.690   1.477  15.263  0.0489 -0.5211 -0.0720
   65TMC2    O5 1021   1.786   1.671  15.324  0.0026  0.1951 -0.1675
   65TMC2    H5 1022   1.768   1.733  15.399 -0.7941 -0.2141 -0.0160
   66MPD2     C 1023   1.279   1.239  15.776  0.3223 -0.6506  0.6037
   66MPD2    C1 1024   1.287   1.266  15.639  0.4128 -0.2028 -0.1884
   66MPD2    C2 1025   1.234   1.171  15.556  0.0358  0.0931  0.0654
   66MPD2    C3 1026   1.151   1.075  15.606 -0.4097 -0.0983  0.0340
   66MPD2    C4 1027   1.128   1.064  15.738  0.0852 -0.4902 -0.3072
   66MPD2    C5 1028   1.209   1.128  15.820  0.2543  0.6191 -0.1025
   66MPD2     H 1029   1.270   1.173  15.453  0.3960  0.2076  0.1938
   66MPD2    H1 1030   1.055   0.994  15.778 -0.0564 -0.2693 -0.1736
   66MPD2    H2 1031   1.345   1.291  15.845  0.0882  0.7445 -0.2153
   66MPD2    H3 1032   1.214   1.105  15.926  2.7258  0.8384 -0.1602
   66MPD2     N 1033   1.070   0.994  15.521 -0.4572 -0.2642 -0.0847
   66MPD2    H5 1034   0.993   0.944  15.564 -0.2070 -0.2415  0.3877
   66MPD2    N1 1035   1.362   1.369  15.582 -0.1157  0.2784  0.7366
   66MPD2    H7 1036   1.370   1.372  15.481  2.7338 -2.1808  0.8715
   67TMC2    C1 1037   1.190   0.805  14.373  0.3888  0.4272  0.0561
   67TMC2    C2 1038   1.113   0.914  14.352 -0.4171  0.8563 -0.0638
   67TMC2    C3 1039   1.143   1.024  14.423  0.4792  0.5943  0.2696
   67TMC2    C4 1040   1.292   0.796  14.464 -0.5793 -0.3204 -0.1662
   67TMC2    C5 1041   1.325   0.910  14.537  0.3632  0.2346 -0.3270
   67TMC2    C6 1042   1.246   1.024  14.518  0.2172 -0.0196 -0.3772
   67TMC2     C 1043   1.153   0.677  14.323 -1.4031  0.1195 -0.0212
   67TMC2     O 1044   1.204   0.576  14.374  0.0053  0.4250  0.0144
   67TMC2     H 1045   1.017   0.911  14.302 -0.2206  0.3193 -0.4108
   67TMC2    H1 1046   1.349   0.704  14.462  1.0207  0.6932 -1.5839
   67TMC2    H2 1047   1.268   1.120  14.563 -2.6785 -0.7685  2.7045
   67TMC2    C7 1048   1.412   0.903  14.652  0.1052 -0.4351 -0.1833
   67TMC2    C8 1049   1.130   1.147  14.343  0.8297  0.2876 -0.1170
   67TMC2    O1 1050   1.411   0.994  14.732 -0.0908  0.3757 -0.4286
   67TMC2    O2 1051   1.158   1.150  14.222 -0.4964  0.0726  0.2649
   67TMC2    O5 1052   1.141   1.252  14.429  0.1739  0.3711  0.3581
   67TMC2    H5 1053   1.124   1.234  14.524 -1.6676  0.6392  0.0761
   68MPD2     C 1054   1.071   0.451  14.149 -0.5911  0.3019  0.4288
   68MPD2    C1 1055   1.010   0.578  14.148  0.0617  0.2264  0.0791
   68MPD2    C2 1056   0.879   0.585  14.101 -0.3868 -0.1890  0.2713
   68MPD2    C3 1057   0.810   0.478  14.042  0.0648  0.4207 -0.0217
   68MPD2    C4 1058   0.880   0.361  14.036 -0.3278  0.0756 -0.8499
   68MPD2    C5 1059   1.006   0.350  14.089  0.3007  0.0238 -0.4019
   68MPD2     H 1060   0.830   0.681  14.112  1.7037  0.9495 -0.2515
   68MPD2    H1 1061   0.848   0.272  13.983  0.8213 -0.7296 -0.1933
   68MPD2    H2 1062   1.171   0.439  14.188 -1.2757  1.4427  2.5683
   68MPD2    H3 1063   1.058   0.256  14.076  0.4254 -0.4601  3.5564
   68MPD2     N 1064   0.673   0.473  14.010 -0.3140  0.1845 -0.3447
   68MPD2    H5 1065   0.643   0.389  13.962 -0.2263  0.2522 -0.5175
   68MPD2    N1 1066   1.065   0.685  14.216 -0.4422 -0.4907 -0.1010
   68MPD2    H7 1067   1.023   0.773  14.189 -0.7406 -1.3629 -2.4733
   69TMC2    C1 1068   4.052   1.127  12.648 -1.0865  0.5118 -0.2032
   69TMC2    C2 1069   4.151   1.161  12.730 -0.0127 -0.4246 -0.7378
   69TMC2    C3 1070   4.251   1.244  12.688 -0.6335 -0.4291 -0.2594
   69TMC2    C4 1071   4.054   1.168  12.519 -0.4995  0.5793  0.0725
   69TMC2    C5 1072   4.149   1.265  12.482  0.3290  0.1169  0.2008
   69TMC2    C6 1073   4.259   1.292  12.560 -0.7666  0.1351 -0.4162
   69TMC2     C 1074   3.932   1.071  12.709 -1.3464 -0.1452  0.1443
   69TMC2     O 1075   3.935   1.043  12.828 -0.0289 -0.1384 -0.0486
   69TMC2     H 1076   4.154   1.127  12.833  1.3578  1.9290  0.0055
   69TMC2    H1 1077   3.971   1.153  12.450 -0.4174  0.4727 -0.0029
   69TMC2    H2 1078   4.346   1.351  12.532 -1.6757  1.5740 -0.1781
   69TMC2    C7 1079   4.117   1.340  12.359  0.2175  0.2312  0.0020
   69TMC2    C8 1080   4.349   1.292  12.790  0.4613 -0.2709  0.0564
   69TMC2    O1 1081   4.034   1.290  12.285  0.2276 -0.3290 -0.2672
   69TMC2    O2 1082   4.319   1.305  12.910  0.0709 -0.2402  0.1277
   69TMC2    O5 1083   4.480   1.269  12.747  0.6232  0.3979 -0.3940
   69TMC2    H5 1084   4.481   1.229  12.658 -1.3839 -1.5544  0.4438
   70MPD2     C 1085   3.586   1.046  12.576 -0.0005 -0.0100  0.7380
   70MPD2    C1 1086   3.691   1.022  12.666  0.2100  0.8073 -0.0624
   70MPD2    C2 1087   3.672   0.954  12.784  0.2355 -0.1810 -0.0066
   70MPD2    C3 1088   3.544   0.917  12.824  0.2893  0.0319 -0.5370
   70MPD2    C4 1089   3.446   0.940  12.743  0.0891 -0.0434 -0.0641
   70MPD2    C5 1090   3.461   1.005  12.625 -0.6486 -0.4946  0.0576
   70MPD2     H 1091   3.752   0.931  12.853  0.6296 -0.6579 -0.6247
   70MPD2    H1 1092   3.348   0.895  12.750 -0.4730  1.4316  1.5304
   70MPD2    H2 1093   3.599   1.093  12.480 -0.7567 -1.6534 -0.1598
   70MPD2    H3 1094   3.376   1.021  12.560 -0.0439  1.8888 -0.1557
   70MPD2     N 1095   3.520   0.860  12.952  0.0300  0.2454  0.3888
   70MPD2    H5 1096   3.596   0.866  13.019 -0.1263 -1.2245  0.6913
   70MPD2    N1 1097   3.820   1.070  12.632 -0.5738  0.2651 -0.1000
   70MPD2    H7 1098   3.836   1.128  12.550  4.0670 -1.6582 -0.5734
   71TMC2    C1 1099   0.992   2.388   1.054 -0.3278  0.0916  0.2561
   71TMC2    C2 1100   1.107   2.320   1.022  0.0740  0.3314  0.1801
   71TMC2    C3 1101   1.140   2.217   1.100 -0.3874  0.2901 -0.5669
   71TMC2    C4 1102   0.908   2.358   1.158 -0.1034  0.1782  0.2632
   71TMC2    C5 1103   0.949   2.249   1.230 -0.2932  0.5434  0.1927
   71TMC2    C6 1104   1.059   2.173   1.202  0.3078  0.0184 -0.4904
   71TMC2     C 1105   0.983   2.519   0.997  0.2518 -0.3965 -0.4155
   71TMC2     O 1106   1.033   2.542   0.886  0.0198  0.4439  0.4191
   71TMC2     H 1107   1.168   2.351   0.938  0.1585  0.7224  0.3890
   71TMC2    H1 1108   0.824   2.420   1.184  1.3414  1.2381  2.3648
   71TMC2    H2 1109   1.105   2.100   1.267  1.0684  1.2993  0.4069
   71TMC2    C7 1110   0.852   2.175   1.310  0.0783  0.0019  0.7738
   71TMC2    C8 1111   1.283   2.182   1.100 -0.8301 -0.7769 -0.0691
   71TMC2    O1 1112   0.874   2.062   1.333 -0.1663  0.3719  0.4625
   71TMC2    O2 1113   1.358   2.258   1.047 -0.1684 -0.4345  0.0319
   71TMC2    O5 1114   1.300   2.058   1.146 -0.1666 -0.1746  0.0649
   71TMC2    H5 1115   1.219   2.003   1.144 -0.7749  0.6501  1.5925
   72MPD2     C 1116   0.771   3.001   1.022  0.2007  0.1444 -1.0244
   72MPD2    C1 1117   0.790   2.923   0.911  0.1674  0.2170  0.0748
   72MPD2    C2 1118   0.842   2.799   0.925  0.2184  0.1059  0.4188
   72MPD2    C3 1119   0.882   2.750   1.050 -0.1022 -0.6536 -0.1751
   72MPD2    C4 1120   0.880   2.835   1.156  0.6221 -0.3093  0.4900
   72MPD2    C5 1121   0.820   2.963   1.140  0.0562 -0.3310  0.2477
   72MPD2     H 1122   0.847   2.729   0.842  0.7197  0.7225 -0.0700
   72MPD2    H1 1123   0.915   2.804   1.253  1.3063 -2.6031 -0.5125
   72MPD2    H2 1124   0.730   3.102   1.017  0.8549  0.5580  1.5636
   72MPD2    H3 1125   0.810   3.037   1.219  0.9737  0.3385 -0.2683
   72MPD2     N 1126   0.924   2.613   1.079 -0.4052 -0.4207 -0.2936
   72MPD2    H5 1127   0.923   2.586   1.177 -0.1030 -2.5851 -0.9047
   72MPD2    N1 1128   0.748   2.961   0.780 -0.1927  0.7884  0.2946
   72MPD2    H7 1129   0.737   2.887   0.712  1.0838 -0.5313  1.5167
   73TMC2    C1 1130   0.280   4.130  14.103  0.1530  0.3617 -0.2021
   73TMC2    C2 1131   0.220   4.248  14.143  0.4289  0.1072 -0.1700
   73TMC2    C3 1132   0.298   4.330  14.216  0.2745  0.4894  0.0059
   73TMC2    C4 1133   0.408   4.095  14.145 -0.4474 -0.5228  0.2351
   73TMC2    C5 1134   0.482   4.192  14.212  0.5412  1.0131  0.2837
   73TMC2    C6 1135   0.430   4.314  14.242  0.6935 -0.5136  0.0099
   73TMC2     C 1136   0.267   4.092  13.958 -0.0640 -0.7033  0.5649
   73TMC2     O 1137   0.366   4.048  13.904  0.0365  0.6760  0.1218
   73TMC2     H 1138   0.117   4.276  14.123 -0.1389 -1.6579  0.2855
   73TMC2    H1 1139   0.453   4.004  14.107  2.8851  0.3932  2.0367
   73TMC2    H2 1140   0.497   4.376  14.299 -1.5723  1.0450  0.9967
   73TMC2    C7 1141   0.628   4.203  14.175 -0.7647 -0.2354  0.4377
   73TMC2    C8 1142   0.227   4.433  14.287  0.4959  0.5755  0.7790
   73TMC2    O1 1143   0.711   4.251  14.249 -0.1858 -0.4418 -0.3070
   73TMC2    O2 1144   0.117   4.403  14.334  0.2642 -0.0472  0.2403
   73TMC2    O5 1145   0.315   4.518  14.331 -0.0093  0.9178 -0.2720
   73TMC2    H5 1146   0.398   4.516  14.279  0.1523  1.1525 -0.0254
   74MPD2     C 1147   0.025   4.159  13.515 -0.0530  0.6579  0.1679
   74MPD2    C1 1148   0.161   4.178  13.550  0.2526  0.2979  0.1141
   74MPD2    C2 1149   0.206   4.142  13.677  0.3457  0.6383  0.2262
   74MPD2    C3 1150   0.111   4.104  13.776 -0.8731 -0.0024  0.6742
   74MPD2    C4 1151   4.720   4.106  13.745 -0.4391  0.0579 -0.8905
   74MPD2    C5 1152   4.681   4.115  13.620  0.0704  0.5478  0.4184
   74MPD2     H 1153   0.309   4.153  13.710  0.9648 -0.6860 -1.2822
   74MPD2    H1 1154   4.653   4.083  13.827 -0.5829  0.4896 -0.8891
   74MPD2    H2 1155   4.730   4.189  13.416 -1.6039 -2.6544 -0.2882
   74MPD2    H3 1156   4.574   4.108  13.600  0.1357  0.5902  0.0465
   74MPD2     N 1157   0.141   4.095  13.912 -0.3035 -0.3041 -1.0636
   74MPD2    H5 1158   0.074   4.100  13.988  0.0515 -0.1047 -0.7647
   74MPD2    N1 1159   0.251   4.225  13.453  0.1194  0.2069 -0.2005
   74MPD2    H7 1160   0.217   4.251  13.361 -1.6610 -0.3569  0.3051
   75TMC2    C1 1161   0.454   0.556  13.965  0.3611 -0.2405 -0.0738
   75TMC2    C2 1162   0.418   0.428  13.972  0.3024  0.4669 -0.6353
   75TMC2    C3 1163   0.290   0.405  13.924 -0.8474 -0.6136 -0.1908
   75TMC2    C4 1164   0.370   0.664  13.931  0.3474 -0.6801 -0.8874
   75TMC2    C5 1165   0.245   0.631  13.886  0.7547  0.6955  0.3976
   75TMC2    C6 1166   0.204   0.499  13.876 -0.9247 -0.3361 -0.4182
   75TMC2     C 1167   0.582   0.582  14.030  0.3351  0.3353 -0.7716
   75TMC2     O 1168   0.600   0.682  14.098 -1.0325 -0.2400  0.2307
   75TMC2     H 1169   0.466   0.345  14.021  1.8736  2.6544  1.5373
   75TMC2    H1 1170   0.389   0.767  13.957 -1.9612 -0.7913  1.3081
   75TMC2    H2 1171   0.102   0.471  13.849 -0.7042 -1.1392 -0.4183
   75TMC2    C7 1172   0.146   0.731  13.854 -0.3672 -0.3596 -0.6383
   75TMC2    C8 1173   0.260   0.266  13.896 -0.6042  0.1548  0.0133
   75TMC2    O1 1174   0.150   0.840  13.910  0.3935 -0.0586 -0.5608
   75TMC2    O2 1175   0.326   0.180  13.952 -0.4039  0.4525  0.4555
   75TMC2    O5 1176   0.178   0.242  13.794 -0.0314 -0.6481 -0.3603
   75TMC2    H5 1177   0.142   0.326  13.759  1.3000  0.6174  1.3628
   76TMC2    C1 1178   3.118   0.915  12.270  0.5377 -0.4326  0.2975
   76TMC2    C2 1179   3.002   0.849  12.233  0.1589  0.0757 -0.0270
   76TMC2    C3 1180   2.953   0.749  12.310 -0.9629 -0.3803 -0.0876
   76TMC2    C4 1181   3.203   0.864  12.362 -0.0525 -1.0055 -0.0542
   76TMC2    C5 1182   3.153   0.757  12.431  0.0460  0.3433  0.7913
   76TMC2    C6 1183   3.030   0.705  12.415  0.1321  0.4257  0.1722
   76TMC2     C 1184   3.168   1.035  12.197  0.4096 -0.2598 -0.2406
   76TMC2     O 1185   3.284   1.072  12.213  0.0477  0.0201 -0.0184
   76TMC2     H 1186   2.933   0.878  12.154 -0.9718 -1.2779  0.4636
   76TMC2    H1 1187   3.305   0.900  12.372 -0.5440  0.5775 -0.6647
   76TMC2    H2 1188   2.983   0.635  12.483  2.3669 -0.6112  0.6361
   76TMC2    C7 1189   3.237   0.695  12.527  0.1127 -0.3599 -0.4352
   76TMC2    C8 1190   2.814   0.764  12.333  0.0587  0.5786 -0.5293
   76TMC2    O1 1191   3.190   0.644  12.628 -0.0591 -0.1185  0.2041
   76TMC2    O2 1192   2.746   0.682  12.281 -0.4125 -0.6492  0.0072
   76TMC2    O5 1193   2.795   0.822  12.461  0.6419 -0.0928 -0.0485
   76TMC2    H5 1194   2.856   0.893  12.490  3.6447 -2.6027 -0.2767
   77MPD2     C 1195   3.137   1.397  11.828 -0.6757 -0.2004 -0.4968
   77MPD2    C1 1196   3.242   1.356  11.904 -0.3933  0.6872 -0.0979
   77MPD2    C2 1197   3.228   1.249  11.991 -1.0330  0.1988  0.1602
   77MPD2    C3 1198   3.103   1.186  12.002 -0.6012 -0.6096  0.5738
   77MPD2    C4 1199   2.996   1.221  11.915  0.0975  0.2289 -0.4364
   77MPD2    C5 1200   3.016   1.336  11.840 -0.8841  0.2199 -0.3475
   77MPD2     H 1201   3.311   1.221  12.055  0.6633 -0.0163 -2.1268
   77MPD2    H1 1202   2.893   1.189  11.928 -0.7994  1.9347 -3.3508
   77MPD2    H2 1203   3.133   1.486  11.766 -0.7847  1.0924  1.3341
   77MPD2    H3 1204   2.933   1.368  11.777 -2.1066 -0.0900  1.1099
   77MPD2     N 1205   3.084   1.076  12.095 -1.0102  0.0819 -0.4569
   77MPD2    H5 1206   2.992   1.033  12.099 -0.1313 -1.5489  2.4084
   77MPD2    N1 1207   3.367   1.425  11.885 -0.2497 -1.4386 -0.3153
   77MPD2    H7 1208   3.443   1.390  11.943  0.1949 -0.8106 -0.5227
   78TMC2    C1 1209   0.497   2.337   1.834  0.3412  0.0384 -0.0245
   78TMC2    C2 1210   0.426   2.455   1.843  0.5511  0.3704  0.1267
   78TMC2    C3 1211   0.482   2.563   1.782  0.8574  0.1114  0.2494
   78TMC2    C4 1212   0.613   2.321   1.761  0.0558  0.0305  0.1401
   78TMC2    C5 1213   0.661   2.434   1.690 -0.4379  0.2537 -0.6350
   78TMC2    C6 1214   0.600   2.558   1.707 -0.0067 -0.3993  0.1096
   78TMC2     C 1215   0.434   2.221   1.887  0.0085  0.0962 -0.1590
   78TMC2     O 1216   0.314   2.232   1.906 -0.0713  0.0680 -0.1787
   78TMC2     H 1217   0.330   2.461   1.893  1.0669 -0.6458  1.2288
   78TMC2    H1 1218   0.647   2.219   1.750  0.0560 -0.1502  1.8116
   78TMC2    H2 1219   0.643   2.638   1.648  0.5522 -0.6188  0.2124
   78TMC2    C7 1220   0.793   2.429   1.630  0.5960  0.3527 -0.2023
   78TMC2    C8 1221   0.371   2.652   1.750 -0.8458 -0.2497 -0.1414
   78TMC2    O1 1222   0.838   2.527   1.573  0.6256 -0.1914 -0.3797
   78TMC2    O2 1223   0.249   2.624   1.758  0.7346  0.5901 -0.8173
   78TMC2    O5 1224   0.426   2.757   1.684  0.4210  0.0729  0.2052
   78TMC2    H5 1225   0.513   2.766   1.729 -0.3262  1.3007  1.4136
   79MPD1     C 1226   0.486   1.810   2.182 -0.2652  0.1572  0.0020
   79MPD1    C1 1227   0.368   1.857   2.122 -1.1884  0.0917  0.5153
   79MPD1    C2 1228   0.377   1.975   2.044  0.5142 -0.3693 -0.2752
   79MPD1    C3 1229   0.499   2.034   2.027  1.1052  0.5687 -0.6970
   79MPD1    C4 1230   0.617   1.987   2.096  0.0809  0.2236 -0.5032
   79MPD1    C5 1231   0.601   1.887   2.187 -0.5999  0.4135 -0.0063
   79MPD1     H 1232   0.287   2.004   1.991 -0.3655 -1.1197  0.8050
   79MPD1    H1 1233   0.717   2.028   2.083  0.6602 -0.4146  2.0467
   79MPD1    H2 1234   0.492   1.723   2.247  2.4503  0.2088 -0.1680
   79MPD1    H3 1235   0.687   1.857   2.247  1.4155  0.7099 -2.7213
   79MPD1     N 1236   0.528   2.133   1.934  0.0375 -0.9102 -0.3488
   79MPD1    H5 1237   0.625   2.152   1.913  0.0656 -0.4155  0.1901
   79MPD1    N1 1238   0.242   1.779   2.120 -0.2786 -0.1296  0.0980
   79MPD1    H6 1239   0.160   1.839   2.114 -0.3956 -0.2121  0.8686
   79MPD1    H7 1240   0.221   1.713   2.195  0.5095 -3.0828 -2.2992
   80TMC2    C1 1241   2.659   0.908  11.994 -0.1108 -0.0025  0.3097
   80TMC2    C2 1242   2.716   0.951  11.876  0.2535 -0.6519  0.0561
   80TMC2    C3 1243   2.727   0.867  11.770 -0.2452 -0.5067  0.1732
   80TMC2    C4 1244   2.631   0.776  12.014  0.5863 -0.0662  0.0795
   80TMC2    C5 1245   2.664   0.692  11.914  0.1045  0.8455  0.1733
   80TMC2    C6 1246   2.713   0.732  11.787 -0.0893  0.0382  0.4401
   80TMC2     C 1247   2.690   0.991  12.112  0.2941  0.0664  0.0666
   80TMC2     O 1248   2.796   1.054  12.112 -0.4280  0.1996 -0.3086
   80TMC2     H 1249   2.754   1.052  11.863  1.3919 -1.1575 -0.5013
   80TMC2    H1 1250   2.591   0.743  12.109  0.4673  0.1020  0.0879
   80TMC2    H2 1251   2.745   0.657  11.716 -1.5856  0.1770 -0.3818
   80TMC2    C7 1252   2.676   0.550  11.940 -0.2247 -0.4149 -0.4532
   80TMC2    C8 1253   2.776   0.912  11.646 -1.1065 -0.1416  0.2665
   80TMC2    O1 1254   2.661   0.474  11.849 -0.3739 -0.1916 -0.4304
   80TMC2    O2 1255   2.853   1.004  11.624 -0.3255  0.1097 -0.0940
   80TMC2    O5 1256   2.726   0.831  11.545 -0.1447 -0.1210 -0.1152
   80TMC2    H5 1257   2.649   0.772  11.558  0.2577 -0.4809  0.6192
   81MPD2     C 1258   2.709   1.105  12.383  0.2523 -0.3322 -0.0204
   81MPD2    C1 1259   2.593   1.051  12.324  0.0825 -0.4147 -0.4532
   81MPD2    C2 1260   2.472   1.054  12.393 -0.4829 -0.3039 -0.2809
   81MPD2    C3 1261   2.470   1.124  12.511 -0.5677 -0.7944  0.5084
   81MPD2    C4 1262   2.585   1.176  12.571  0.0591  0.3022 -0.0405
   81MPD2    C5 1263   2.703   1.172  12.499 -0.4902  0.0089 -0.2961
   81MPD2     H 1264   2.382   1.016  12.347  1.7017 -2.4352 -2.7941
   81MPD2    H1 1265   2.573   1.218  12.670  0.4423 -1.5774  0.7950
   81MPD2    H2 1266   2.804   1.097  12.333  0.2557 -3.8837  0.5666
   81MPD2    H3 1267   2.796   1.204  12.542 -1.4002 -0.0773  1.7432
   81MPD2     N 1268   2.352   1.150  12.576  0.3346 -0.0475 -0.2774
   81MPD2    H5 1269   2.360   1.182  12.672 -0.5137  0.4510 -0.3712
   81MPD2    N1 1270   2.592   0.983  12.204 -0.6265  0.0113 -0.0329
   81MPD2    H7 1271   2.506   0.936  12.176 -1.9377  0.3889  3.3228
   82TMC2    C1 1272   1.582   0.211  11.345 -0.2123  0.8282  0.3287
   82TMC2    C2 1273   1.679   0.221  11.442 -0.6670 -0.4872  0.7817
   82TMC2    C3 1274   1.715   0.107  11.515 -0.1875 -0.0725  0.4667
   82TMC2    C4 1275   1.517   0.096  11.313  0.1977 -0.8195  0.5448
   82TMC2    C5 1276   1.553   4.725  11.381  0.1010  0.1013 -0.1184
   82TMC2    C6 1277   1.644   4.728  11.485  0.2023  0.8080  0.0130
   82TMC2     C 1278   1.535   0.329  11.286  0.2272 -0.2367  0.4675
   82TMC2     O 1279   1.420   0.320  11.241  0.5616 -0.6068  0.5616
   82TMC2     H 1280   1.722   0.316  11.472 -1.0836  0.0635 -0.3805
   82TMC2    H1 1281   1.436   0.101  11.242  0.6053  1.5311  0.2265
   82TMC2    H2 1282   1.699   4.636  11.504  0.5989  0.9088 -0.6556
   82TMC2    C7 1283   1.455   4.619  11.402 -0.7786  0.4671  0.0278
   82TMC2    C8 1284   1.856   0.096  11.551 -0.3933  0.2060  0.1792
   82TMC2    O1 1285   1.466   4.562  11.512 -0.4417  0.2689 -0.0670
   82TMC2    O2 1286   1.952   0.168  11.525 -0.1931 -0.1729 -0.0661
   82TMC2    O5 1287   1.867   4.733  11.644  0.3232 -0.0850 -0.1775
   82TMC2    H5 1288   1.778   4.702  11.671  0.6131  0.3514  1.2571
   83MPD2     C 1289   1.519   0.801  11.112  0.4320  0.9528 -0.0931
   83MPD2    C1 1290   1.418   0.712  11.131 -0.3163 -0.1530 -0.6261
   83MPD2    C2 1291   1.447   0.599  11.203  0.9546 -0.5091 -0.9323
   83MPD2    C3 1292   1.575   0.569  11.249 -0.2339  0.6950  0.0310
   83MPD2    C4 1293   1.675   0.658  11.226  0.1701 -1.0379 -0.0201
   83MPD2    C5 1294   1.643   0.775  11.154  0.4508 -0.1890 -0.1362
   83MPD2     H 1295   1.358   0.539  11.219  1.9008 -1.2125  1.6949
   83MPD2    H1 1296   1.780   0.640  11.248  0.7422  2.9305  0.6104
   83MPD2    H2 1297   1.510   0.891  11.053  1.9684  0.7462 -0.6354
   83MPD2    H3 1298   1.720   0.847  11.131  0.1184 -0.2707 -1.5200
   83MPD2     N 1299   1.613   0.445  11.306  0.0999 -0.4762 -0.1461
   83MPD2    H5 1300   1.707   0.436  11.342 -0.4019 -3.4284  0.3849
   83MPD2    N1 1301   1.293   0.745  11.081 -0.2823  0.3079  0.0107
   83MPD2    H7 1302   1.291   0.807  11.001 -0.7095  0.4127  0.1013
   84TMC2    C1 1303   2.461   4.371  11.293 -0.2175  0.1882  0.0859
   84TMC2    C2 1304   2.497   4.291  11.391 -0.1137 -0.2213 -0.6640
   84TMC2    C3 1305   2.549   4.170  11.352 -0.4472  0.1828  0.3729
   84TMC2    C4 1306   2.468   4.345  11.160  0.0230 -0.3793 -0.0331
   84TMC2    C5 1307   2.512   4.214  11.131  0.6501  1.2641 -0.4147
   84TMC2    C6 1308   2.541   4.123  11.228 -0.6591 -0.2568 -0.3397
   84TMC2     C 1309   2.418   4.503  11.331  0.1998 -0.5744 -0.1486
   84TMC2     O 1310   2.353   4.511  11.434  0.0784 -0.2637 -0.6024
   84TMC2     H 1311   2.485   4.335  11.489 -0.4598 -2.0626  0.1217
   84TMC2    H1 1312   2.444   4.415  11.081  1.4288  1.0009  0.7551
   84TMC2    H2 1313   2.599   4.036  11.201 -3.1883 -1.8494 -0.7203
   84TMC2    C7 1314   2.474   4.174  10.996 -0.9118  0.0148  0.1809
   84TMC2    C8 1315   2.560   4.069  11.457  0.5931  0.0993 -0.5042
   84TMC2    O1 1316   2.433   4.262  10.919 -0.8303  0.0536 -0.0811
   84TMC2    O2 1317   2.529   3.957  11.423  0.3932  0.2336  0.1704
   84TMC2    O5 1318   2.624   4.112  11.566  0.0810 -0.3797 -0.0151
   84TMC2    H5 1319   2.660   4.203  11.567 -0.2025 -0.2524 -1.3530
   85TMC2    C1 1320   3.813   2.709  16.255  0.0578  0.1409 -0.0285
   85TMC2    C2 1321   3.929   2.693  16.330  0.0588  0.5942  0.6655
   85TMC2    C3 1322   4.036   2.762  16.298  0.8298 -0.8622  0.4735
   85TMC2    C4 1323   3.808   2.789  16.142  0.0960 -0.2597 -0.5252
   85TMC2    C5 1324   3.920   2.864  16.130  0.7322 -0.2390 -0.0076
   85TMC2    C6 1325   4.035   2.851  16.198  0.0212 -0.3852 -0.7907
   85TMC2     C 1326   3.691   2.650  16.309 -0.3327  0.3759 -0.7159
   85TMC2     O 1327   3.707   2.603  16.422 -0.0828  0.2335  0.1527
   85TMC2     H 1328   3.932   2.612  16.403  3.5176  0.5305  0.4760
   85TMC2    H1 1329   3.721   2.804  16.079 -1.4315  1.0306  1.8856
   85TMC2    H2 1330   4.133   2.890  16.170 -0.1640  0.5546 -0.1272
   85TMC2    C7 1331   3.909   2.976  16.039  0.1282 -0.0989  0.1191
   85TMC2    C8 1332   4.155   2.744  16.375  0.4458 -0.3461  0.4336
   85TMC2    O1 1333   3.837   2.953  15.943  0.0000 -0.6661  0.2420
   85TMC2    O2 1334   4.251   2.825  16.394  0.1793  0.1061 -0.2009
   85TMC2    O5 1335   4.157   2.613  16.403 -0.0064 -0.4482  0.5840
   85TMC2    H5 1336   4.096   2.555  16.352 -0.8625  1.2372 -0.3279
   86MPD2     C 1337   3.247   2.439  16.360 -0.2732  0.1418 -0.9533
   86MPD2    C1 1338   3.280   2.426  16.227  0.1693  0.3846  0.3564
   86MPD2    C2 1339   3.401   2.488  16.182 -0.0847  0.3517 -0.2650
   86MPD2    C3 1340   3.467   2.573  16.267  0.4376 -1.1396  0.1073
   86MPD2    C4 1341   3.422   2.594  16.397  0.6449  0.4524 -0.1857
   86MPD2    C5 1342   3.315   2.527  16.444  0.8877 -0.4076  0.2882
   86MPD2     H 1343   3.444   2.468  16.085 -2.2982 -1.3205 -0.8982
   86MPD2    H1 1344   3.481   2.655  16.465 -0.7638  0.3722  1.0920
   86MPD2    H2 1345   3.166   2.381  16.404 -1.3762  2.6923  0.3810
   86MPD2    H3 1346   3.282   2.536  16.547 -1.3614  1.4595 -0.5941
   86MPD2     N 1347   3.588   2.631  16.219  0.1453  0.3173  0.1119
   86MPD2    H5 1348   3.603   2.644  16.120 -1.3066  0.5635 -0.0827
   86MPD2    N1 1349   3.205   2.341  16.137 -0.3096  0.5496  0.0174
   86MPD2    H7 1350   3.232   2.351  16.039 -1.3007 -0.1798 -0.3319
   87TMC2    C1 1351   0.856   1.213   1.033 -0.1133 -0.0075 -0.5152
   87TMC2    C2 1352   0.885   1.180   1.163  0.8318  0.0029 -0.2619
   87TMC2    C3 1353   0.818   1.247   1.261 -0.5779 -0.0226  0.5857
   87TMC2    C4 1354   0.780   1.321   1.001 -0.2221 -0.4013  0.0351
   87TMC2    C5 1355   0.723   1.388   1.103  0.4214  0.1725 -0.4000
   87TMC2    C6 1356   0.744   1.358   1.237 -0.1159  0.1984 -0.0828
   87TMC2     C 1357   0.910   1.139   0.923 -0.8447 -0.0900  0.2777
   87TMC2     O 1358   0.956   1.205   0.833 -0.1830  0.1482  0.3469
   87TMC2     H 1359   0.951   1.095   1.180 -0.3580 -0.8604  0.0241
   87TMC2    H1 1360   0.768   1.336   0.894 -0.1561  0.3467  0.1376
   87TMC2    H2 1361   0.689   1.395   1.323 -0.3202  0.5033 -0.3463
   87TMC2    C7 1362   0.633   1.491   1.062 -1.1953 -0.2558  0.1810
   87TMC2    C8 1363   0.861   1.219   1.398  0.4945 -0.1275  0.7773
   87TMC2    O1 1364   0.610   1.490   0.938  0.3865 -0.4263 -0.3475
   87TMC2    O2 1365   0.800   1.242   1.501 -0.2430 -0.3544  0.4129
   87TMC2    O5 1366   0.976   1.155   1.402 -0.6598  0.0076 -0.0210
   87TMC2    H5 1367   1.017   1.150   1.313  0.0972  0.8006  0.2739
   88MPD2     C 1368   0.465   1.767   1.240  1.2462  0.1516 -0.1497
   88MPD2    C1 1369   0.512   1.692   1.138  1.1031  0.0488  0.0915
   88MPD2    C2 1370   0.457   1.723   1.012  0.1439  0.4033  0.0069
   88MPD2    C3 1371   0.354   1.822   0.998  0.0579  0.6395  0.4234
   88MPD2    C4 1372   0.307   1.883   1.111 -0.0061 -0.7279 -0.8001
   88MPD2    C5 1373   0.362   1.855   1.226 -0.0929  0.0888  0.1008
   88MPD2     H 1374   0.499   1.675   0.924 -2.4890 -1.9322 -0.0100
   88MPD2    H1 1375   0.237   1.966   1.117 -0.9986 -1.6725  0.6188
   88MPD2    H2 1376   0.505   1.751   1.340 -0.0091  0.4871  0.3983
   88MPD2    H3 1377   0.329   1.916   1.310  1.5651  2.4873 -0.9885
   88MPD2     N 1378   0.290   1.857   0.880 -0.2944  0.2425 -0.0019
   88MPD2    H5 1379   0.237   1.944   0.874 -0.6720  0.0892  1.0307
   88MPD2    N1 1380   0.595   1.581   1.159  0.6912 -0.0129  0.1388
   88MPD2    H7 1381   0.623   1.560   1.254 -2.0074  0.9905  1.1509
   89TMC2    C1 1382   1.458   4.148   1.464  0.2932 -0.5607  0.5523
   89TMC2    C2 1383   1.352   4.115   1.374 -0.4546  0.6028  0.1017
   89TMC2    C3 1384   1.327   4.207   1.274 -0.0858  0.3906  0.3723
   89TMC2    C4 1385   1.513   4.275   1.468  0.0298 -0.1166  0.7002
   89TMC2    C5 1386   1.491   4.358   1.358  0.3312  1.1567  0.6249
   89TMC2    C6 1387   1.400   4.320   1.261 -0.5396  0.1756  0.6660
   89TMC2     C 1388   1.534   4.038   1.528 -0.2814  0.3279 -0.2827
   89TMC2     O 1389   1.649   4.048   1.564  0.5221  0.1658  0.6768
   89TMC2     H 1390   1.304   4.018   1.374  1.6486 -0.4350  0.1844
   89TMC2    H1 1391   1.597   4.298   1.533 -0.7048 -1.8151  2.2567
   89TMC2    H2 1392   1.386   4.381   1.173  0.9137  0.8877  0.9278
   89TMC2    C7 1393   1.546   4.487   1.357 -0.4626 -0.6139  0.6360
   89TMC2    C8 1394   1.280   4.149   1.145  0.3373 -0.8853 -0.4064
   89TMC2    O1 1395   1.570   4.538   1.463  0.3365  0.5102 -0.1881
   89TMC2    O2 1396   1.309   4.032   1.126  0.4444 -0.4189  0.1730
   89TMC2    O5 1397   1.227   4.239   1.061 -0.2186 -0.0038 -0.9097
   89TMC2    H5 1398   1.220   4.333   1.089 -1.5694 -0.6104  0.8254
   90MPD2     C 1399   1.590   3.546   1.677 -0.1208 -0.3940 -0.5463
   90MPD2    C1 1400   1.454   3.582   1.683 -0.0986  0.2710  0.5790
   90MPD2    C2 1401   1.420   3.712   1.637  0.2453  0.4687  0.0350
   90MPD2    C3 1402   1.509   3.797   1.584  0.0268  0.0668  0.3766
   90MPD2    C4 1403   1.644   3.761   1.583 -0.9850 -0.3824 -0.7632
   90MPD2    C5 1404   1.682   3.635   1.628  0.2429  0.0551 -0.4216
   90MPD2     H 1405   1.319   3.751   1.643  0.6412  1.5997 -0.7009
   90MPD2    H1 1406   1.727   3.819   1.544 -0.8477  0.2196  0.4134
   90MPD2    H2 1407   1.619   3.447   1.710  0.6821  0.4149  1.1634
   90MPD2    H3 1408   1.786   3.608   1.611  0.0903 -0.7430 -0.0591
   90MPD2     N 1409   1.459   3.920   1.534  0.9878 -0.2456  0.2650
   90MPD2    H5 1410   1.359   3.934   1.525  0.9086  0.1526  1.8081
   90MPD2    N1 1411   1.347   3.501   1.727  1.1694 -0.5369 -0.1242
   90MPD2    H7 1412   1.252   3.535   1.714  1.9272  1.0076 -1.5865
   91TMC2    C1 1413   3.469   3.731  17.222  0.2234 -0.1416 -0.3028
   91TMC2    C2 1414   3.438   3.761  17.352  0.2249  0.5914  0.1788
   91TMC2    C3 1415   3.335   3.843  17.381  0.3563 -0.2664  0.1468
   91TMC2    C4 1416   3.405   3.786  17.113 -0.1986  0.6987 -0.0301
   91TMC2    C5 1417   3.295   3.863  17.147 -0.7203  0.4909 -0.1050
   91TMC2    C6 1418   3.266   3.895  17.277 -0.5926  0.8620  0.0862
   91TMC2     C 1419   3.565   3.617  17.215  0.2158 -0.2394 -0.9957
   91TMC2     O 1420   3.598   3.569  17.324  0.1005 -0.0977 -0.0560
   91TMC2     H 1421   3.505   3.731  17.432  0.5863 -2.3028 -1.2047
   91TMC2    H1 1422   3.438   3.758  17.014 -1.4900  2.2710 -0.8954
   91TMC2    H2 1423   3.181   3.957  17.306 -2.0787 -0.1086 -2.1834
   91TMC2    C7 1424   3.179   3.882  17.054 -0.1576  0.5952 -0.0975
   91TMC2    C8 1425   3.318   3.888  17.521  0.0940  0.3424  0.7801
   91TMC2    O1 1426   3.088   3.952  17.101 -0.2223  0.7093 -0.7871
   91TMC2    O2 1427   3.397   3.854  17.606 -0.2710 -0.1706 -0.3112
   91TMC2    O5 1428   3.184   3.881  17.541 -0.2722  0.2424 -0.2060
   91TMC2    H5 1429   3.121   3.886  17.467 -0.8740 -1.1522  0.2086
   92MPD2     C 1430   3.753   3.409  17.155  0.4883 -0.7392  0.2615
   92MPD2    C1 1431   3.725   3.512  17.062 -0.1446  0.0234  0.1957
   92MPD2    C2 1432   3.778   3.517  16.936 -0.0371  0.1953 -0.0486
   92MPD2    C3 1433   3.871   3.422  16.902 -0.0358  0.0004 -0.4743
   92MPD2    C4 1434   3.905   3.319  16.992 -0.8169  0.1868 -0.1994
   92MPD2    C5 1435   3.843   3.313  17.111 -0.6443  0.2535  0.1531
   92MPD2     H 1436   3.749   3.607  16.883 -0.7578  0.8612  1.4666
   92MPD2    H1 1437   3.978   3.241  16.973 -0.3100  0.5035  0.4306
   92MPD2    H2 1438   3.709   3.403  17.254  0.8642 -1.6853  0.3745
   92MPD2    H3 1439   3.881   3.242  17.183 -1.0578 -1.4325 -1.3011
   92MPD2     N 1440   3.934   3.446  16.779 -0.4350 -0.5700  0.1289
   92MPD2    H5 1441   3.901   3.526  16.727 -2.1209 -2.6760 -2.0465
   92MPD2    N1 1442   3.630   3.605  17.094 -0.1248 -0.0322 -0.1103
   92MPD2    H7 1443   3.603   3.674  17.024 -0.3328 -1.5165 -1.5012
   93TMC2    C1 1444   4.734   3.166  13.536  0.6015 -0.0533 -0.5070
   93TMC2    C2 1445   4.707   3.268  13.445  0.1981 -0.5652  0.5860
   93TMC2    C3 1446   0.058   3.367  13.465  0.0102 -0.1884 -0.2590
   93TMC2    C4 1447   0.091   3.161  13.639 -0.1179  0.4010 -0.1617
   93TMC2    C5 1448   0.167   3.272  13.653 -0.1604  0.1753 -0.7732
   93TMC2    C6 1449   0.153   3.374  13.563 -0.0530 -0.3394 -0.1590
   93TMC2     C 1450   4.641   3.058  13.534  0.6259  0.5012  0.3911
   93TMC2     O 1451   4.681   2.951  13.580 -0.2037 -0.4600  0.2664
   93TMC2     H 1452   4.643   3.272  13.357  2.2437  1.8721 -0.7971
   93TMC2    H1 1453   0.117   3.071  13.692 -0.2433 -0.6999 -1.9731
   93TMC2    H2 1454   0.228   3.452  13.550  0.6701 -0.8559  0.9619
   93TMC2    C7 1455   0.294   3.262  13.721  0.1207  0.0201 -0.1795
   93TMC2    C8 1456   0.054   3.470  13.365  0.3410 -0.2718  0.0840
   93TMC2    O1 1457   0.363   3.168  13.691  0.1067  0.1309 -0.4847
   93TMC2    O2 1458   0.153   3.530  13.326  0.6159  0.0221 -0.1806
   93TMC2    O5 1459   4.673   3.534  13.372  0.5585 -0.2615 -0.0391
   93TMC2    H5 1460   4.607   3.481  13.421  0.9606  0.4521  1.2827
   94MPD2     C 1461   4.424   2.865  13.475 -0.2007  0.1677 -0.7065
   94MPD2    C1 1462   4.429   2.993  13.425  0.4985  0.1857 -0.1227
   94MPD2    C2 1463   4.333   3.039  13.340 -0.6240  0.3272  0.1001
   94MPD2    C3 1464   4.222   2.962  13.324 -0.2013  0.2364 -0.0768
   94MPD2    C4 1465   4.217   2.829  13.375  0.1686 -0.3648 -0.5128
   94MPD2    C5 1466   4.318   2.782  13.446 -0.7533  0.7223 -0.1755
   94MPD2     H 1467   4.345   3.123  13.273 -0.0116  0.2946  0.1765
   94MPD2    H1 1468   4.132   2.767  13.347 -1.0044  1.1884 -0.4008
   94MPD2    H2 1469   4.499   2.813  13.533  0.0701  1.7531  0.3581
   94MPD2    H3 1470   4.318   2.681  13.486 -1.3540  0.5435 -0.6222
   94MPD2     N 1471   4.110   3.016  13.261  0.4758 -0.3901  0.1499
   94MPD2    H5 1472   4.136   3.108  13.227 -1.2190  1.1397  2.9721
   94MPD2    N1 1473   4.523   3.094  13.465 -0.4733 -0.4314 -0.5504
   94MPD2    H7 1474   4.495   3.187  13.437  0.2040 -0.5695 -1.6847
   95TMC2    C1 1475   0.259   1.228  15.931 -0.0028  0.0622  0.4017
   95TMC2    C2 1476   0.367   1.288  15.991 -0.3005 -0.7916 -0.4039
   95TMC2    C3 1477   0.386   1.426  15.985 -0.4078  0.7246  0.5447
   95TMC2    C4 1478   0.162   1.300  15.871 -0.0127 -0.1181  1.0266
   95TMC2    C5 1479   0.178   1.434  15.879  0.3173 -0.0887  0.1195
   95TMC2    C6 1480   0.284   1.497  15.934  0.1995  0.0694 -0.5126
   95TMC2     C 1481   0.312   1.115  15.853 -0.2548 -0.4003 -0.2222
   95TMC2     O 1482   0.431   1.104  15.851 -0.3328 -0.8570 -0.1184
   95TMC2     H 1483   0.453   1.234  16.028 -0.2100 -1.6506 -1.8906
   95TMC2    H1 1484   0.085   1.257  15.808 -0.3828  2.6062 -0.4012
   95TMC2    H2 1485   0.318   1.600  15.923 -1.9037  0.9200  1.0044
   95TMC2    C7 1486   0.088   1.519  15.798  0.2150 -0.5209 -0.4226
   95TMC2    C8 1487   0.455   1.485  16.094  0.1592 -0.2752  0.0937
   95TMC2    O1 1488   4.711   1.517  15.827  0.1009 -0.2662  0.5839
   95TMC2    O2 1489   0.403   1.587  16.134  0.5333  0.1029 -0.1109
   95TMC2    O5 1490   0.589   1.466  16.074 -0.8557 -0.4039 -0.3076
   95TMC2    H5 1491   0.621   1.415  15.997 -1.6736 -0.7379 -0.4256
   96MPD2     C 1492   0.280   0.737  15.523  1.3143 -0.3983 -0.7446
   96MPD2    C1 1493   0.372   0.843  15.529  0.3776  0.2165 -0.3003
   96MPD2    C2 1494   0.345   0.941  15.619  0.5291 -0.6655 -0.4164
   96MPD2    C3 1495   0.237   0.942  15.700 -0.1982  0.3238  0.7846
   96MPD2    C4 1496   0.140   0.845  15.688 -0.5324 -0.2255  0.5500
   96MPD2    C5 1497   0.169   0.742  15.601 -0.0062 -0.3255  0.0965
   96MPD2     H 1498   0.409   1.028  15.632  0.8753 -0.8639 -0.8063
   96MPD2    H1 1499   0.048   0.850  15.745 -1.0285  0.4943 -0.3136
   96MPD2    H2 1500   0.290   0.659  15.448 -1.9835  0.9759 -2.5909
   96MPD2    H3 1501   0.096   0.663  15.590 -0.3174 -0.3715  2.6479
   96MPD2     N 1502   0.211   1.042  15.794 -0.0925 -0.5490 -0.2848
   96MPD2    H5 1503   0.114   1.051  15.821 -0.5687  0.7176 -2.4812
   96MPD2    N1 1504   0.495   0.842  15.457 -0.1533 -0.4189  0.2250
   96MPD2    H7 1505   0.519   0.756  15.408  1.0996  0.0559  0.0044
   97TMC2    C1 1506   2.465   4.010   0.257 -0.2232 -0.4656 -0.5908
   97TMC2    C2 1507   2.416   4.123   0.195  0.1565 -0.4387  0.3677
   97TMC2    C3 1508   2.509   4.218   0.165 -0.0657 -0.5717  0.4498
   97TMC2    C4 1509   2.595   4.005   0.298 -0.8335  0.1201 -0.0911
   97TMC2    C5 1510   2.685   4.101   0.265 -1.0696 -0.0319 -0.6862
   97TMC2    C6 1511   2.645   4.188   0.171  0.0340  0.6466  0.8942
   97TMC2     C 1512   2.364   3.932   0.327  0.2448 -0.1651 -0.0589
   97TMC2     O 1513   2.260   3.993   0.348 -0.6365  0.1284 -0.1932
   97TMC2     H 1514   2.316   4.134   0.155  0.4125 -3.7731 -1.1697
   97TMC2    H1 1515   2.626   3.913   0.346 -0.2633  0.3730  0.0252
   97TMC2    H2 1516   2.713   4.257   0.121  0.2936 -1.4813 -1.6683
   97TMC2    C7 1517   2.823   4.083   0.285 -0.4028  0.7290 -0.8868
   97TMC2    C8 1518   2.466   4.297   0.053 -1.2786  0.7539 -0.7306
   97TMC2    O1 1519   2.900   4.151   0.220  0.0333 -0.1254 -0.8991
   97TMC2    O2 1520   2.502   4.261  17.695 -0.4987 -0.4978  0.6228
   97TMC2    O5 1521   2.358   4.366   0.097 -0.4809 -0.1756  0.2084
   97TMC2    H5 1522   2.345   4.366   0.194 -0.3750 -1.1894  0.2264
   98MPD2     C 1523   2.203   3.517   0.593  0.2380  0.5647 -0.2920
   98MPD2    C1 1524   2.323   3.485   0.528  0.3647  0.2867 -0.3066
   98MPD2    C2 1525   2.388   3.574   0.447  0.7385 -0.3398 -0.3984
   98MPD2    C3 1526   2.334   3.702   0.433 -0.5492 -0.5937 -0.2186
   98MPD2    C4 1527   2.212   3.735   0.495 -0.4451  0.0185  0.7433
   98MPD2    C5 1528   2.147   3.643   0.573  0.2583  0.8838  0.2750
   98MPD2     H 1529   2.478   3.543   0.395  1.2834  0.1809  0.2420
   98MPD2    H1 1530   2.167   3.833   0.496  0.6679  0.5538 -1.4779
   98MPD2    H2 1531   2.145   3.449   0.654 -0.0613 -0.4050 -1.6801
   98MPD2    H3 1532   2.055   3.670   0.624 -1.1013 -2.4173 -0.4318
   98MPD2     N 1533   2.399   3.796   0.354  0.0865  0.1201 -0.7024
   98MPD2    H5 1534   2.482   3.759   0.309 -1.0892 -1.3736 -1.6574
   98MPD2    N1 1535   2.367   3.355   0.562 -0.1692  0.2307 -0.2843
   98MPD2    H7 1536   2.313   3.304   0.632  0.4470 -0.1363 -0.0728
   99TMC2    C1 1537   1.066   4.572   2.113 -0.0951  0.0599  0.2069
   99TMC2    C2 1538   1.104   4.504   2.224  0.3628 -0.2242  0.1843
   99TMC2    C3 1539   1.016   4.516   2.334  0.8134  0.3763  0.2886
   99TMC2    C4 1540   0.941   4.627   2.097 -0.1460  0.4783 -0.8482
   99TMC2    C5 1541   0.853   4.632   2.208  0.4000 -0.7236  0.5225
   99TMC2    C6 1542   0.898   4.587   2.331  0.6065 -0.3425 -0.0774
   99TMC2     C 1543   1.124   4.503   1.999  0.0881  0.2671  0.0412
   99TMC2     O 1544   1.178   4.395   2.020  0.1104  0.5701  0.1307
   99TMC2     H 1545   1.199   4.452   2.230  0.3595 -0.2421  0.0824
   99TMC2    H1 1546   0.921   4.693   2.013  1.6119  0.7912 -1.0276
   99TMC2    H2 1547   0.830   4.586   2.415  1.3668 -3.0692  0.5028
   99TMC2    C7 1548   0.718   4.692   2.203  0.2669 -0.8072 -0.2026
   99TMC2    C8 1549   1.035   4.435   2.443 -0.2414  0.0790 -0.1742
   99TMC2    O1 1550   0.661   4.727   2.301  0.5013 -0.2201 -0.6725
   99TMC2    O2 1551   0.986   4.442   2.555 -0.1415 -0.4934 -0.5447
   99TMC2    O5 1552   1.059   4.318   2.380  0.1215  0.1701  0.0199
   99TMC2    H5 1553   1.053   4.335   2.284 -3.0424 -1.4442 -0.0545
  100MPD2     C 1554   1.176   4.361   1.742 -0.1697  0.2608  0.0248
  100MPD2    C1 1555   1.118   4.488   1.754  0.7908 -0.1506  0.0045
  100MPD2    C2 1556   1.096   4.564   1.640 -1.0875 -0.5136  0.8167
  100MPD2    C3 1557   1.111   4.515   1.511 -0.1013 -0.6199  0.7220
  100MPD2    C4 1558   1.157   4.386   1.499  0.0012  0.6648  0.4561
  100MPD2    C5 1559   1.184   4.309   1.616 -0.0168 -0.7238  0.5754
  100MPD2     H 1560   1.066   4.668   1.650  4.4067  1.0373  0.8633
  100MPD2    H1 1561   1.172   4.336   1.404  0.7536  1.1803  0.3024
  100MPD2    H2 1562   1.202   4.296   1.825 -3.0616 -2.5629 -1.2808
  100MPD2    H3 1563   1.227   4.210   1.611  1.0302 -0.2251 -0.3161
  100MPD2     N 1564   1.079   4.605   1.402 -0.7779  0.2026  0.3058
  100MPD2    H5 1565   1.031   4.692   1.426 -2.7204 -1.0900  1.0821
  100MPD2    N1 1566   1.083   4.548   1.878  0.2712  0.3715 -0.6461
  100MPD2    H7 1567   1.050   4.644   1.873  0.3089  0.4187  0.0340
  101TMC2    C1 1568   2.970   0.916  13.135  0.3648  0.0422 -0.1650
  101TMC2    C2 1569   3.014   0.962  13.256 -0.0433  0.3380 -0.3394
  101TMC2    C3 1570   3.117   1.054  13.247 -0.0833  0.7832  0.2465
  101TMC2    C4 1571   3.005   0.968  13.015  0.1854  0.2164  0.5705
  101TMC2    C5 1572   3.104   1.063  13.012 -0.0663  0.6535 -0.0456
  101TMC2    C6 1573   3.158   1.105  13.129  0.0702  0.3161  0.2007
  101TMC2     C 1574   2.855   0.835  13.139 -0.7287 -0.2145  1.1706
  101TMC2     O 1575   2.789   0.853  13.244 -0.1822 -0.9730  0.4707
  101TMC2     H 1576   2.990   0.911  13.349 -0.5268  2.9307  0.9916
  101TMC2    H1 1577   2.959   0.930  12.924  1.3283  1.4452 -0.5232
  101TMC2    H2 1578   3.235   1.180  13.137  0.1783  0.2308 -0.0359
  101TMC2    C7 1579   3.135   1.126  12.881  0.3039  0.5425 -0.0667
  101TMC2    C8 1580   3.143   1.140  13.368 -0.3425  0.4181 -0.6546
  101TMC2    O1 1581   3.057   1.107  12.787 -0.3919 -0.0491 -0.5632
  101TMC2    O2 1582   3.182   1.254  13.354  0.3142 -0.4179  1.3572
  101TMC2    O5 1583   3.107   1.081  13.486  0.4310  0.5720  0.1888
  101TMC2    H5 1584   3.124   1.133  13.568  0.1131  0.9561  0.0104
  102MPD2     C 1585   2.696   0.652  12.862 -0.1256  0.6234  0.6800
  102MPD2    C1 1586   2.704   0.716  12.979 -0.6087 -0.2581 -0.2898
  102MPD2    C2 1587   2.597   0.717  13.054 -0.4763  0.5545  0.6008
  102MPD2    C3 1588   2.478   0.666  13.015  0.4986  0.4496 -0.0119
  102MPD2    C4 1589   2.472   0.601  12.899 -0.4371 -0.4260  0.8977
  102MPD2    C5 1590   2.581   0.598  12.823 -0.1268  0.0618 -0.3391
  102MPD2     H 1591   2.604   0.749  13.157  3.0672  2.2906 -0.1958
  102MPD2    H1 1592   2.391   0.541  12.859  1.7566 -2.4417 -0.5274
  102MPD2    H2 1593   2.778   0.637  12.793  0.1486 -1.9443  1.5677
  102MPD2    H3 1594   2.589   0.529  12.740  0.5514 -1.7789  1.2470
  102MPD2     N 1595   2.358   0.676  13.086  0.3900  0.2796 -0.2057
  102MPD2    H5 1596   2.289   0.609  13.052 -1.1871  1.2952  1.0011
  102MPD2    N1 1597   2.830   0.762  13.021  0.2354  0.7295  0.1547
  102MPD2    H7 1598   2.903   0.753  12.952 -0.4940  0.8512 -0.6287
  103TMC2    C1 1599   4.030   0.734  12.459  0.5056 -0.0616  0.0473
  103TMC2    C2 1600   4.083   0.772  12.337 -0.2911 -0.6959 -0.7196
  103TMC2    C3 1601   4.216   0.802  12.331  0.2833 -0.0603 -0.0336
  103TMC2    C4 1602   4.102   0.732  12.572  0.1190  0.3272 -0.5212
  103TMC2    C5 1603   4.237   0.773  12.560  0.6800 -0.1584 -0.6679
  103TMC2    C6 1604   4.294   0.791  12.440  0.1106  0.1077 -0.6760
  103TMC2     C 1605   3.883   0.707  12.461 -0.6109 -0.0273 -0.6098
  103TMC2     O 1606   3.821   0.724  12.359  0.6905  0.5743  0.3416
  103TMC2     H 1607   4.019   0.761  12.249 -0.5872  0.8522 -0.7107
  103TMC2    H1 1608   4.053   0.724  12.669  1.2636 -2.8737 -0.2155
  103TMC2    H2 1609   4.396   0.828  12.435  0.3553 -0.1743  2.0319
  103TMC2    C7 1610   4.306   0.811  12.687 -0.3035 -0.2250 -0.7479
  103TMC2    C8 1611   4.273   0.893  12.226  0.3201 -0.0115 -0.0201
  103TMC2    O1 1612   4.236   0.849  12.782 -0.6378 -0.6188  0.2556
  103TMC2    O2 1613   4.392   0.919  12.214 -0.3139 -0.3114  0.3716
  103TMC2    O5 1614   4.175   0.983  12.200  0.5247 -0.1702  0.2106
  103TMC2    H5 1615   4.088   0.948  12.230  0.2649 -1.2525 -1.8064
  104MPD2     C 1616   3.689   0.578  12.735 -0.6401  0.6945  0.0824
  104MPD2    C1 1617   3.709   0.640  12.621 -1.0116  0.6272 -0.9513
  104MPD2    C2 1618   3.603   0.682  12.541  0.3398 -0.0303  0.0769
  104MPD2    C3 1619   3.476   0.649  12.576  0.1471 -0.5264  0.1827
  104MPD2    C4 1620   3.457   0.593  12.708 -0.9796  0.1412 -0.4286
  104MPD2    C5 1621   3.562   0.570  12.792  1.2227 -1.0002 -0.3189
  104MPD2     H 1622   3.619   0.733  12.447 -1.4236  0.5581  0.0950
  104MPD2    H1 1623   3.360   0.585  12.757 -1.2151 -0.9908 -1.0911
  104MPD2    H2 1624   3.773   0.541  12.793 -0.4276  1.5322  0.3213
  104MPD2    H3 1625   3.532   0.542  12.892 -0.7848 -1.7786 -1.1181
  104MPD2     N 1626   3.368   0.686  12.489  0.1996 -0.3338 -0.7158
  104MPD2    H5 1627   3.385   0.724  12.397 -1.2943 -0.5860 -1.1035
  104MPD2    N1 1628   3.842   0.658  12.584 -0.1600  0.0140  0.6193
  104MPD2    H7 1629   3.916   0.620  12.642 -0.1077 -2.1843 -0.8591
  105TMC2    C1 1630   1.197   0.882   0.042 -0.2489 -0.2328  0.0300
  105TMC2    C2 1631   1.175   1.017   0.024 -0.3637  0.3488  0.0238
  105TMC2    C3 1632   1.165   1.090   0.146  0.0966 -0.2870 -0.2652
  105TMC2    C4 1633   1.214   0.828   0.164  0.0871 -0.0880  0.3662
  105TMC2    C5 1634   1.198   0.911   0.278 -0.6831  0.2737 -0.1934
  105TMC2    C6 1635   1.180   1.050   0.270  0.5710  0.2736  0.3226
  105TMC2     C 1636   1.225   0.810  17.681 -0.1379  0.1762  1.0176
  105TMC2     O 1637   1.240   0.686  17.696  0.3589 -0.2846  0.2808
  105TMC2     H 1638   1.156   1.065  17.680  0.5112  2.3411  0.8598
  105TMC2    H1 1639   1.226   0.723   0.188  3.8215  0.6442  1.7111
  105TMC2    H2 1640   1.166   1.122   0.350 -2.1728  1.0734 -0.8819
  105TMC2    C7 1641   1.194   0.839   0.411  0.0427  0.5189  0.1745
  105TMC2    C8 1642   1.122   1.227   0.141  0.0877  0.4679  0.4004
  105TMC2    O1 1643   1.236   0.727   0.418  0.3155 -0.2999  0.0060
  105TMC2    O2 1644   1.040   1.278   0.218 -0.0334 -0.0987  0.1036
  105TMC2    O5 1645   1.176   1.292   0.042 -0.0142  0.0797 -0.0667
  105TMC2    H5 1646   1.234   1.246  17.729  0.9314 -0.0504  0.8795
  106MPD2     C 1647   1.568   0.734  17.312  0.1174 -0.5400 -0.0699
  106MPD2    C1 1648   1.570   0.869  17.347 -0.7436 -0.2244  0.8762
  106MPD2    C2 1649   1.486   0.928  17.439 -0.0497 -0.4639 -0.1782
  106MPD2    C3 1650   1.388   0.840  17.498  0.4045  0.6126  0.0268
  106MPD2    C4 1651   1.380   0.712  17.451 -0.4681 -0.2678  0.1857
  106MPD2    C5 1652   1.472   0.659  17.365  0.1931 -0.8436  0.0892
  106MPD2     H 1653   1.502   1.031  17.468 -0.5175 -0.0919 -1.2530
  106MPD2    H1 1654   1.300   0.644  17.480  0.2099 -0.2194  2.1670
  106MPD2    H2 1655   1.614   0.701  17.220  2.6337 -2.6160  1.9171
  106MPD2    H3 1656   1.462   0.554  17.338 -2.4827 -0.2576 -1.1582
  106MPD2     N 1657   1.299   0.887  17.594 -0.3541 -0.6699 -0.1892
  106MPD2    H5 1658   1.310   0.983  17.623 -1.8939 -0.3214 -0.7410
  106MPD2    N1 1659   1.673   0.954  17.291  0.8312  0.0211  0.5478
  106MPD2    H7 1660   1.659   1.054  17.305  2.4644  0.7184 -2.7748
  107TMC2    C1 1661   2.023   0.315  11.851 -0.3399  0.1414  0.3463
  107TMC2    C2 1662   1.925   0.409  11.837 -1.0875 -0.4860  0.5697
  107TMC2    C3 1663   1.948   0.493  11.729  0.4945 -0.6339 -0.5162
  107TMC2    C4 1664   2.131   0.298  11.769  0.2695 -0.7147 -0.3341
  107TMC2    C5 1665   2.152   0.388  11.662 -0.8314  0.2393 -0.5479
  107TMC2    C6 1666   2.052   0.487  11.637  1.1243 -0.0046  0.1538
  107TMC2     C 1667   2.001   0.218  11.959 -0.2889 -0.5927  0.7698
  107TMC2     O 1668   1.920   0.253  12.046  0.1009 -0.2137  0.2867
  107TMC2     H 1669   1.845   0.422  11.909 -1.3882  2.1113 -0.2211
  107TMC2    H1 1670   2.210   0.226  11.785 -0.1106 -1.0026  0.2116
  107TMC2    H2 1671   2.061   0.565  11.562  1.9113 -0.3178 -0.0673
  107TMC2    C7 1672   2.260   0.371  11.558 -0.4324  0.3444 -0.1569
  107TMC2    C8 1673   1.834   0.570  11.699  0.2875 -0.5631 -0.7909
  107TMC2    O1 1674   2.292   0.472  11.496  0.4051  0.0021 -0.1216
  107TMC2    O2 1675   1.752   0.610  11.778 -0.0136 -0.9923 -0.0034
  107TMC2    O5 1676   1.807   0.554  11.569 -0.0213  0.4574  0.5806
  107TMC2    H5 1677   1.874   0.499  11.525 -0.6297  0.3065 -0.1500
  108MPD2     C 1678   2.074   4.592  11.950 -0.5854  0.0853 -0.4435
  108MPD2    C1 1679   2.018   4.711  11.997  0.4840  0.3788  0.9176
  108MPD2    C2 1680   1.929   4.707  12.105 -0.2640 -0.0910 -0.2221
  108MPD2    C3 1681   1.915   4.584  12.173  0.6007 -0.1464  0.0862
  108MPD2    C4 1682   1.977   4.476  12.131 -0.2025  0.0763  0.4969
  108MPD2    C5 1683   2.057   4.476  12.021  0.1133  0.5094  0.1932
  108MPD2     H 1684   1.879   0.058  12.141  0.7963  0.0268  0.9651
  108MPD2    H1 1685   1.965   4.378  12.175 -1.4959  0.3530  0.7409
  108MPD2    H2 1686   2.144   4.597  11.867  1.6788  1.4283  1.5458
  108MPD2    H3 1687   2.114   4.389  11.990 -0.8660  0.3274 -1.1237
  108MPD2     N 1688   1.821   4.558  12.277 -0.4310  0.1443  0.2146
  108MPD2    H5 1689   1.847   4.478  12.334 -0.2683 -0.2398 -0.4025
  108MPD2    N1 1690   2.052   0.092  11.925  0.2663  0.1182  0.3234
  108MPD2    H7 1691   2.107   0.074  11.841 -1.8692 -0.5667 -0.9159
  109TMC2    C1 1692   1.336   2.872   0.278  0.2613  0.3507  0.1551
  109TMC2    C2 1693   1.275   2.760   0.222 -0.4811 -0.2288  0.3957
  109TMC2    C3 1694   1.362   2.675   0.157  0.1624  0.5581  0.1735
  109TMC2    C4 1695   1.472   2.908   0.257  0.0467 -0.2124 -0.0135
  109TMC2    C5 1696   1.549   2.814   0.186  0.0893  0.5721  0.6100
  109TMC2    C6 1697   1.491   2.699   0.134 -0.4846  0.4361  0.6241
  109TMC2     C 1698   1.263   2.938   0.384 -0.7318 -0.0198 -0.1003
  109TMC2     O 1699   1.142   2.955   0.366  0.5113 -0.1480  0.0430
  109TMC2     H 1700   1.170   2.740   0.239 -0.9846  0.9436 -1.3609
  109TMC2    H1 1701   1.504   3.002   0.299 -1.0937 -0.4669  1.4296
  109TMC2    H2 1702   1.556   2.625   0.088 -0.7120  0.1416  0.7743
  109TMC2    C7 1703   1.695   2.831   0.193 -0.1238 -0.0523 -0.6949
  109TMC2    C8 1704   1.323   2.541   0.126 -0.0343  0.5511  0.2828
  109TMC2    O1 1705   1.728   2.920   0.273 -0.0907 -0.2944  0.0291
  109TMC2    O2 1706   1.364   2.475   0.031  0.5562  0.1249 -0.3567
  109TMC2    O5 1707   1.219   2.508   0.201  0.5251 -0.0762 -0.4986
  109TMC2    H5 1708   1.223   2.542   0.293  1.4363  0.1859 -0.6407
  110MPD2     C 1709   1.149   2.977   0.877 -0.2379  0.4487  0.3383
  110MPD2    C1 1710   1.258   2.896   0.865 -0.2993  0.0537 -0.1202
  110MPD2    C2 1711   1.316   2.893   0.738 -0.4897  0.1814 -0.6011
  110MPD2    C3 1712   1.260   2.951   0.629  0.1355 -0.0471 -0.5304
  110MPD2    C4 1713   1.145   3.023   0.644 -0.2590 -0.3664 -0.1460
  110MPD2    C5 1714   1.107   3.050   0.770  0.3598  0.4225 -0.1142
  110MPD2     H 1715   1.402   2.829   0.726 -1.6846 -1.2247 -1.7695
  110MPD2    H1 1716   1.090   3.072   0.564  0.2468 -0.8437 -0.7831
  110MPD2    H2 1717   1.086   2.978   0.966 -1.6209 -0.9274 -0.6137
  110MPD2    H3 1718   1.031   3.127   0.773  0.1077  0.2673 -2.4484
  110MPD2     N 1719   1.323   2.925   0.505  0.7167  0.0281 -0.0227
  110MPD2    H5 1720   1.406   2.868   0.516 -0.3398 -1.6616 -0.7782
  110MPD2    N1 1721   1.300   2.814   0.968  0.7821  0.5391  0.9089
  110MPD2    H7 1722   1.251   2.830   1.055  0.0149 -2.4952  1.0444
  111TMC2    C1 1723   1.974   1.760  11.720  0.7068 -0.0186 -0.4651
  111TMC2    C2 1724   1.863   1.780  11.797  0.6638 -0.9912  0.1390
  111TMC2    C3 1725   1.879   1.754  11.929 -0.0210 -0.2171  0.2857
  111TMC2    C4 1726   2.094   1.713  11.774  0.1432 -0.3809 -0.4846
  111TMC2    C5 1727   2.101   1.691  11.911 -0.2222 -0.1943 -0.2076
  111TMC2    C6 1728   1.993   1.707  11.991 -0.2875  0.2763 -0.1386
  111TMC2     C 1729   1.952   1.764  11.574 -0.1496 -0.0866 -0.2115
  111TMC2     O 1730   2.051   1.753  11.503 -0.8273 -0.5991  0.6290
  111TMC2     H 1731   1.777   1.833  11.758  1.3387  1.3712  1.9029
  111TMC2    H1 1732   2.170   1.678  11.705  0.5680  0.7479 -0.5934
  111TMC2    H2 1733   1.973   1.669  12.090 -0.9168 -0.1278 -0.4263
  111TMC2    C7 1734   2.216   1.618  11.969  0.3341  0.4417 -0.2919
  111TMC2    C8 1735   1.762   1.748  12.014 -0.2462  0.6684 -0.1592
  111TMC2    O1 1736   2.303   1.575  11.892 -0.0744 -0.0253 -0.3718
  111TMC2    O2 1737   1.750   1.781  12.131 -0.5377  0.1222  0.1088
  111TMC2    O5 1738   1.668   1.676  11.950 -0.1044 -0.2497  0.3071
  111TMC2    H5 1739   1.689   1.649  11.858 -0.6286  0.3796 -0.0039
  112MPD2     C 1740   1.602   1.846  11.206  0.7959 -0.0355 -0.0072
  112MPD2    C1 1741   1.738   1.876  11.208  0.0231 -0.6879 -0.1971
  112MPD2    C2 1742   1.811   1.820  11.317 -0.3723  0.1721 -0.1757
  112MPD2    C3 1743   1.752   1.764  11.423 -0.5289  0.6362 -0.2040
  112MPD2    C4 1744   1.623   1.732  11.412  0.7512 -1.1318 -0.9164
  112MPD2    C5 1745   1.548   1.766  11.306  0.8277 -0.1353  0.6956
  112MPD2     H 1746   1.916   1.844  11.314 -0.2864 -0.1506  0.3421
  112MPD2    H1 1747   1.574   1.669  11.485 -0.2313  0.1496 -0.4781
  112MPD2    H2 1748   1.537   1.880  11.126  0.3985  0.6482  0.6103
  112MPD2    H3 1749   1.449   1.722  11.301  0.5350  0.3889  2.0560
  112MPD2     N 1750   1.822   1.731  11.544 -0.4634 -0.3327 -0.2637
  112MPD2    H5 1751   1.766   1.682  11.613 -0.2444  1.6350  1.3118
  112MPD2    N1 1752   1.800   1.965  11.119 -0.1941  0.9563  0.2567
  112MPD2    H7 1753   1.901   1.979  11.123  0.0594 -0.6648 -0.7289
  113TMC2    C1 1754   0.503   0.300   0.584  0.4162  0.3200  0.1051
  113TMC2    C2 1755   0.550   0.399   0.504  0.2693 -0.7670  0.3239
  113TMC2    C3 1756   0.538   0.376   0.370  0.5825  0.5931 -0.0509
  113TMC2    C4 1757   0.457   0.179   0.535 -0.1501  0.2612 -0.0787
  113TMC2    C5 1758   0.432   0.173   0.404 -0.1648 -0.0030 -0.3654
  113TMC2    C6 1759   0.481   0.265   0.322  0.0404 -0.5243  0.1256
  113TMC2     C 1760   0.532   0.314   0.724 -0.5069 -0.0986  0.1425
  113TMC2     O 1761   0.531   0.425   0.776  0.2552 -0.3738  0.2804
  113TMC2     H 1762   0.590   0.488   0.551  0.6358  0.8789 -3.0425
  113TMC2    H1 1763   0.424   0.101   0.602  1.1005  0.5882  0.9214
  113TMC2    H2 1764   0.446   0.264   0.219 -0.4408  2.8555  0.2658
  113TMC2    C7 1765   0.314   0.104   0.360 -0.2043  0.7256 -0.2203
  113TMC2    C8 1766   0.583   0.484   0.287 -0.4697 -0.6623 -0.6072
  113TMC2    O1 1767   0.321   0.080   0.236  0.3769 -0.5938 -0.1759
  113TMC2    O2 1768   0.594   0.600   0.326 -0.3176 -0.6609  0.0299
  113TMC2    O5 1769   0.634   0.417   0.177  0.5020 -0.0388  0.9685
  113TMC2    H5 1770   0.622   0.320   0.183  0.9465  0.0146  2.9249
  114MPD2     C 1771   0.715   0.127   1.159 -0.0697 -0.2782 -0.3376
  114MPD2    C1 1772   0.683   0.253   1.124  0.7817 -0.5936  0.0900
  114MPD2    C2 1773   0.639   0.275   0.992  0.0454  0.3370  1.0162
  114MPD2    C3 1774   0.626   0.171   0.902 -0.4114  1.2172 -0.5074
  114MPD2    C4 1775   0.658   0.046   0.947 -0.6385 -0.5984 -0.6442
  114MPD2    C5 1776   0.692   0.023   1.077 -0.0367 -0.6701 -0.1299
  114MPD2     H 1777   0.598   0.375   0.980  0.7023  0.6126  1.0596
  114MPD2    H1 1778   0.650   4.698   0.881  1.5331 -1.4490  0.2092
  114MPD2    H2 1779   0.750   0.100   1.258  0.8366 -0.4882 -0.7153
  114MPD2    H3 1780   0.730   4.666   1.110  0.2343  0.1264  1.9010
  114MPD2     N 1781   0.578   0.192   0.772 -0.2056 -0.6389  0.2293
  114MPD2    H5 1782   0.592   0.112   0.711  0.0316  0.1268 -0.7280
  114MPD2    N1 1783   0.685   0.365   1.212 -0.7239 -0.3272  0.0874
  114MPD2    H7 1784   0.649   0.454   1.180  1.6421  0.5666 -0.0801
  115TMC2    C1 1785   1.494   2.951  17.631  0.0141 -0.8369 -0.3779
  115TMC2    C2 1786   1.625   2.958  17.599 -0.1675  0.0283 -0.4836
  115TMC2    C3 1787   1.695   3.069  17.616 -0.0250 -0.0964  0.1594
  115TMC2    C4 1788   1.431   3.061  17.679  0.6725 -0.0405  0.1183
  115TMC2    C5 1789   1.501   3.179  17.687  0.3766  0.5495 -0.0883
  115TMC2    C6 1790   1.638   3.179  17.647 -0.5080  0.1485  0.4811
  115TMC2     C 1791   1.410   2.841  17.589 -0.6017 -0.3734 -0.4554
  115TMC2     O 1792   1.465   2.740  17.554  0.0538  0.0337 -0.0689
  115TMC2     H 1793   1.671   2.868  17.560 -1.0162 -0.3047 -0.7179
  115TMC2    H1 1794   1.342   3.054  17.739  0.6363 -1.4149 -0.0763
  115TMC2    H2 1795   1.695   3.264  17.685 -1.0537  0.9872 -0.5670
  115TMC2    C7 1796   1.439   3.306  17.693 -0.6006 -0.4533  0.3863
  115TMC2    C8 1797   1.838   3.057  17.608  0.3341  0.5600 -0.3997
  115TMC2    O1 1798   1.330   3.299   0.002  0.6851  0.7865  0.3223
  115TMC2    O2 1799   1.889   2.944  17.620 -0.7635  0.8543  0.0787
  115TMC2    O5 1800   1.882   3.148  17.518 -0.0442  0.0971 -0.2063
  115TMC2    H5 1801   1.815   3.215  17.490  0.3350 -0.6225 -2.8308
  116MPD2     C 1802   0.954   2.649  17.457 -0.2316  0.3313 -0.7877
  116MPD2    C1 1803   1.079   2.594  17.450  0.7923 -0.2804  0.3060
  116MPD2    C2 1804   1.188   2.666  17.502 -0.0707 -0.2943 -0.2763
  116MPD2    C3 1805   1.168   2.793  17.555 -0.8727 -0.0381 -0.7718
  116MPD2    C4 1806   1.038   2.839  17.563  0.1014 -0.5336 -0.0603
  116MPD2    C5 1807   0.935   2.769  17.510  0.7881 -0.2718  0.1128
  116MPD2     H 1808   1.290   2.629  17.505  0.2674  0.5748 -0.7503
  116MPD2    H1 1809   1.014   2.937  17.603 -1.5640 -0.7322 -0.5976
  116MPD2    H2 1810   0.866   2.596  17.423 -1.1024  2.1865 -1.3869
  116MPD2    H3 1811   0.832   2.803  17.512  0.8535 -0.0020 -1.4032
  116MPD2     N 1812   1.274   2.871  17.600  0.2872  0.0557  0.1645
  116MPD2    H5 1813   1.245   2.959  17.641  0.7789  0.2813  0.0251
  116MPD2    N1 1814   1.079   2.460  17.385 -0.1230  0.2908 -0.0621
  116MPD2    H7 1815   0.991   2.433  17.342 -0.6686  1.0985  0.5368
  117TMC2    C1 1816   4.541   3.657  14.164 -0.8865  0.1732  0.2405
  117TMC2    C2 1817   4.671   3.621  14.137 -0.5994 -0.3018 -0.0456
  117TMC2    C3 1818   0.022   3.717  14.159  0.8860 -0.1787  0.7365
  117TMC2    C4 1819   4.507   3.789  14.176  0.4379  0.7362 -0.3640
  117TMC2    C5 1820   4.606   3.882  14.191 -0.1450  0.0201  0.6260
  117TMC2    C6 1821   4.737   3.850  14.182 -0.6734  0.1927  0.4503
  117TMC2     C 1822   4.441   3.560  14.119 -0.0055 -0.6417 -0.0546
  117TMC2     O 1823   4.489   3.453  14.083 -0.1289 -0.0607 -0.6113
  117TMC2     H 1824   4.703   3.518  14.126 -0.2659 -0.1114 -0.8586
  117TMC2    H1 1825   4.403   3.817  14.193  0.8185  1.4673  0.7875
  117TMC2    H2 1826   0.078   3.924  14.185 -0.7725  0.3278 -0.3454
  117TMC2    C7 1827   4.596   4.022  14.136 -0.6929 -0.3262  0.8819
  117TMC2    C8 1828   0.159   3.682  14.128  0.0627  0.8708 -0.1724
  117TMC2    O1 1829   4.690   4.096  14.134 -0.3246 -0.2026 -0.4163
  117TMC2    O2 1830   0.229   3.633  14.218 -0.0880 -0.1135  0.3968
  117TMC2    O5 1831   0.206   3.781  14.054  0.5751 -0.4388 -0.2198
  117TMC2    H5 1832   0.141   3.803  13.984  0.6550 -1.3734 -0.5800
  118MPD2     C 1833   4.314   4.147  13.920 -0.0244  0.4234 -0.4538
  118MPD2    C1 1834   4.444   4.147  13.975  0.7431  0.1485  0.3882
  118MPD2    C2 1835   4.534   4.253  13.953  0.6631 -0.0755  0.0589
  118MPD2    C3 1836   4.491   4.361  13.885  0.4592 -0.0058  0.6226
  118MPD2    C4 1837   4.363   4.356  13.836 -0.0730 -0.4434 -0.0596
  118MPD2    C5 1838   4.271   4.255  13.847  0.3564  0.2456  0.2864
  118MPD2     H 1839   4.636   4.251  13.991  0.0624 -0.3716  1.6705
  118MPD2    H1 1840   4.331   4.433  13.766 -1.1686 -0.0931  0.8413
  118MPD2    H2 1841   4.250   4.063  13.945  1.4041 -0.6665 -0.4507
  118MPD2    H3 1842   4.177   4.265  13.794 -0.9558  0.0962  2.6171
  118MPD2     N 1843   4.574   4.467  13.851 -0.3984 -0.1270  0.0574
  118MPD2    H5 1844   4.537   4.538  13.788  0.8524  0.9364  0.5176
  118MPD2    N1 1845   4.476   4.038  14.062 -0.3017  0.3007 -0.4262
  118MPD2    H7 1846   4.404   3.966  14.065  0.9497 -1.0259 -2.1606
  119TMC2    C1 1847   1.608   4.389  13.282 -0.1945  0.4000  0.0266
  119TMC2    C2 1848   1.624   4.257  13.333  0.1306 -0.2166 -0.0245
  119TMC2    C3 1849   1.607   4.240  13.471 -0.1099  0.1942  0.0947
  119TMC2    C4 1850   1.582   4.490  13.378 -0.5134  0.4365  0.0876
  119TMC2    C5 1851   1.577   4.470  13.514  0.1973  0.1985  0.3331
  119TMC2    C6 1852   1.597   4.345  13.560 -0.1068 -0.0577  0.2123
  119TMC2     C 1853   1.690   4.446  13.177  0.4089  0.1277  0.2929
  119TMC2     O 1854   1.664   4.562  13.144 -0.7668 -0.4491  0.6176
  119TMC2     H 1855   1.653   4.180  13.262  0.1852 -1.5364  1.4201
  119TMC2    H1 1856   1.573   4.590  13.337 -2.4676 -0.3754 -1.4972
  119TMC2    H2 1857   1.598   4.315  13.664 -0.0341 -0.1937  0.1728
  119TMC2    C7 1858   1.635   4.577  13.588  0.6852 -1.0257  0.5484
  119TMC2    C8 1859   1.616   4.106  13.530  0.1463  0.3937  0.3574
  119TMC2    O1 1860   1.594   4.689  13.559  0.0039  0.1464 -0.1407
  119TMC2    O2 1861   1.637   4.085  13.648  0.0406 -0.6124 -0.5204
  119TMC2    O5 1862   1.560   4.023  13.435  0.4437  0.2341 -0.3419
  119TMC2    H5 1863   1.513   4.069  13.362 -2.4894 -0.1257  1.3449
  120MPD2     C 1864   2.183   4.486  13.072 -0.2413  0.3559  0.1003
  120MPD2    C1 1865   2.092   4.584  13.104 -0.2549  0.1928  0.4514
  120MPD2    C2 1866   1.953   4.543  13.112  0.0251  0.1374  0.3239
  120MPD2    C3 1867   1.923   4.409  13.098  0.0044 -0.0798 -0.4628
  120MPD2    C4 1868   2.016   4.312  13.075 -0.4223 -0.2134  1.1619
  120MPD2    C5 1869   2.141   4.356  13.043 -0.2244  0.0374 -0.1505
  120MPD2     H 1870   1.886   4.626  13.127 -0.5479 -0.1925 -0.4303
  120MPD2    H1 1871   1.989   4.210  13.050 -0.4168 -0.0007  0.2975
  120MPD2    H2 1872   2.287   4.516  13.061  0.1026 -1.8941 -2.6781
  120MPD2    H3 1873   2.214   4.286  13.004  2.7287  1.6380  2.5676
  120MPD2     N 1874   1.793   4.363  13.137  0.3937 -0.4731 -1.0030
  120MPD2    H5 1875   1.786   4.262  13.151 -1.6610 -0.1418  0.4052
  120MPD2    N1 1876   2.137   4.716  13.134  1.1248 -0.7634 -0.3873
  120MPD2    H7 1877   2.238   4.725  13.146  0.8735 -0.2298  1.4354
  121TMC2    C1 1878   4.226   2.238  13.839  0.8516 -0.6251  0.4101
  121TMC2    C2 1879   4.181   2.367  13.856  0.0645  0.6168  0.0196
  121TMC2    C3 1880   4.072   2.378  13.931 -0.4590 -0.2023 -0.9666
  121TMC2    C4 1881   4.165   2.130  13.888 -0.1199 -0.2620 -0.1751
  121TMC2    C5 1882   4.044   2.148  13.949  0.4399  0.2100 -0.0372
  121TMC2    C6 1883   3.995   2.272  13.965  0.3139  0.2931 -0.2626
  121TMC2     C 1884   4.361   2.225  13.787 -0.4042 -0.4441  0.2392
  121TMC2     O 1885   4.429   2.130  13.818  0.4834 -0.2510  0.2341
  121TMC2     H 1886   4.243   2.455  13.839 -2.4554  2.3826  0.0376
  121TMC2    H1 1887   4.222   2.037  13.886  2.2673  1.1820 -0.0792
  121TMC2    H2 1888   3.896   2.289  14.007  0.4746  2.7385 -0.8711
  121TMC2    C7 1889   3.968   2.025  13.990 -0.8718 -0.5135  0.8383
  121TMC2    C8 1890   4.007   2.505  13.944 -0.7182 -0.3602  0.2133
  121TMC2    O1 1891   4.036   1.926  14.016 -0.4199 -0.3008  0.8158
  121TMC2    O2 1892   4.004   2.582  13.845  0.3113  0.2309 -0.2984
  121TMC2    O5 1893   4.036   2.543  14.066  0.3042  0.4813 -0.1908
  121TMC2    H5 1894   4.049   2.466  14.124  0.0621 -0.5898 -1.5641
  122MPD2     C 1895   4.635   2.297  13.686 -0.9770  0.5890  0.3221
  122MPD2    C1 1896   4.519   2.354  13.637 -0.0663  0.5133  0.4152
  122MPD2    C2 1897   4.524   2.452  13.546 -0.3000  0.1320  0.3825
  122MPD2    C3 1898   4.649   2.496  13.497  0.1908  0.1722  0.1522
  122MPD2    C4 1899   0.030   2.448  13.546  0.0633 -0.4165 -0.7763
  122MPD2    C5 1900   0.019   2.346  13.641 -0.6296 -0.1583  0.1127
  122MPD2     H 1901   4.434   2.488  13.499  0.9136  3.1953  0.4143
  122MPD2    H1 1902   0.131   2.466  13.510  0.5886 -0.1780  0.8172
  122MPD2    H2 1903   4.625   2.220  13.761 -1.9056 -1.1689 -1.6083
  122MPD2    H3 1904   0.110   2.303  13.681 -1.3216 -2.1799 -0.4452
  122MPD2     N 1905   4.660   2.578  13.384 -0.1491  0.3213  0.4219
  122MPD2    H5 1906   0.012   2.622  13.370 -0.3992  0.6038 -0.3438
  122MPD2    N1 1907   4.388   2.315  13.685 -0.6095 -0.4095  0.4505
  122MPD2    H7 1908   4.313   2.370  13.646  1.3383  1.2952 -0.9106
  123TMC2    C1 1909   3.608   0.593  10.467 -0.0880 -0.3121 -0.2670
  123TMC2    C2 1910   3.739   0.603  10.423  0.0360 -0.0007 -0.2090
  123TMC2    C3 1911   3.771   0.729  10.375  0.0613 -0.6050  0.6737
  123TMC2    C4 1912   3.513   0.692  10.440  0.0140 -0.9981  0.1300
  123TMC2    C5 1913   3.548   0.807  10.374  0.2360 -0.3348 -0.1329
  123TMC2    C6 1914   3.680   0.833  10.352 -0.3089  0.2485 -0.0190
  123TMC2     C 1915   3.562   0.452  10.469 -0.0756 -0.6919 -0.3592
  123TMC2     O 1916   3.647   0.365  10.469  0.0202  0.0489 -0.1974
  123TMC2     H 1917   3.816   0.528  10.433 -0.2678 -0.0955  1.4207
  123TMC2    H1 1918   3.408   0.688  10.468  0.0852  0.9558  0.7395
  123TMC2    H2 1919   3.712   0.930  10.315  2.7364 -0.3091  1.1319
  123TMC2    C7 1920   3.444   0.880  10.302  0.6200 -0.0446 -0.3683
  123TMC2    C8 1921   3.905   0.774  10.358 -0.9400  0.9222  0.2406
  123TMC2    O1 1922   3.328   0.849  10.332  0.1490  0.0114  0.3425
  123TMC2    O2 1923   3.952   0.818  10.257 -0.0647 -0.3517 -0.4664
  123TMC2    O5 1924   3.969   0.732  10.468 -0.0856 -0.2576 -0.7399
  123TMC2    H5 1925   3.915   0.719  10.549  0.5540 -1.6411 -0.5356
  124MPD2     C 1926   3.188   0.085  10.448 -0.2295  0.9590  0.5362
  124MPD2    C1 1927   3.127   0.208  10.462  1.0625  0.7315 -0.2574
  124MPD2    C2 1928   3.213   0.319  10.467 -1.0659  0.6457 -0.1641
  124MPD2    C3 1929   3.346   0.309  10.445  0.1775  0.3309  0.3820
  124MPD2    C4 1930   3.409   0.190  10.427 -0.1070 -0.2163  0.5427
  124MPD2    C5 1931   3.323   0.078  10.423 -0.9427 -0.1234  0.6258
  124MPD2     H 1932   3.180   0.420  10.485  1.0190  1.4088 -0.6595
  124MPD2    H1 1933   3.514   0.177  10.406 -0.5298 -1.0347 -1.0099
  124MPD2    H2 1934   3.131   4.733  10.429 -0.8532  1.2579  0.9864
  124MPD2    H3 1935   3.367   4.722  10.393 -0.3925  0.0401  0.9057
  124MPD2     N 1936   3.422   0.437  10.455  0.4664 -0.1579 -0.1521
  124MPD2    H5 1937   3.362   0.517  10.472  1.1848  0.7541 -1.8735
  124MPD2    N1 1938   2.989   0.216  10.457  0.9040 -0.2905  0.5046
  124MPD2    H7 1939   2.942   0.128  10.438  1.0509 -0.1880 -0.3198
  125TMC2    C1 1940   4.051   1.754   8.878  0.3677  0.1791  0.0088
  125TMC2    C2 1941   3.960   1.694   8.802 -0.6107  0.0715  0.2640
  125TMC2    C3 1942   3.852   1.768   8.768 -0.5830  0.5638  0.1983
  125TMC2    C4 1943   4.048   1.889   8.915  0.0755  0.4701  1.2116
  125TMC2    C5 1944   3.924   1.949   8.887 -0.0146 -0.3063  0.2909
  125TMC2    C6 1945   3.830   1.891   8.809  0.0734  0.6053  0.3644
  125TMC2     C 1946   4.168   1.674   8.910  0.3350 -0.3823 -0.3733
  125TMC2     O 1947   4.175   1.566   8.856  0.0343  0.5343  0.5671
  125TMC2     H 1948   3.967   1.589   8.773  1.1251  0.9841 -2.5601
  125TMC2    H1 1949   4.128   1.942   8.965 -0.3437  1.5763  0.7178
  125TMC2    H2 1950   3.732   1.934   8.792  0.3878  1.7628  1.4810
  125TMC2    C7 1951   3.885   2.070   8.947 -0.9442  0.0786  0.1859
  125TMC2    C8 1952   3.744   1.677   8.746 -0.8569  0.1858  0.7395
  125TMC2    O1 1953   3.770   2.112   8.934 -0.1738  0.0814  0.0447
  125TMC2    O2 1954   3.744   1.555   8.758 -0.1195  0.3155 -0.1407
  125TMC2    O5 1955   3.640   1.742   8.690 -0.4949  0.0425  0.5948
  125TMC2    H5 1956   3.670   1.830   8.658 -0.3791  0.2004  1.1472
  126MPD1     C 1957   4.627   1.612   9.083  0.2091 -0.2802 -0.4363
  126MPD1    C1 1958   4.573   1.693   9.176  0.3386 -0.4909 -0.4866
  126MPD1    C2 1959   4.435   1.725   9.164 -0.6876 -0.3369  0.4358
  126MPD1    C3 1960   4.366   1.669   9.051 -0.3048  0.1089 -0.6061
  126MPD1    C4 1961   4.430   1.576   8.968  0.8401 -0.6374 -0.6484
  126MPD1    C5 1962   4.556   1.543   8.987  0.0492  0.4360  0.0549
  126MPD1     H 1963   4.392   1.802   9.227 -0.3934 -1.2857  1.7969
  126MPD1    H1 1964   4.396   1.528   8.877  2.6177 -3.2462  0.0547
  126MPD1    H2 1965   4.732   1.586   9.087  0.3755  0.7496  1.9044
  126MPD1    H3 1966   4.601   1.471   8.919  1.4679  1.7837 -0.4090
  126MPD1     N 1967   4.238   1.720   9.022  0.6950 -0.0405  0.0851
  126MPD1    H5 1968   4.201   1.798   9.075  1.6574  0.2202  0.3529
  126MPD1    N1 1969   4.657   1.761   9.266  0.2662 -0.0138  0.4662
  126MPD1    H6 1970   4.737   1.704   9.294 -1.1020 -1.5163  1.3148
  126MPD1    H7 1971   4.612   1.783   9.354 -0.1503  0.3439  0.1638
  127TMC2    C1 1972   4.361   1.093   9.898  0.8495 -0.2527  0.4943
  127TMC2    C2 1973   4.382   1.057  10.029 -0.6145 -0.1053  0.3094
  127TMC2    C3 1974   4.281   1.005  10.105 -0.3281  0.5318  0.2537
  127TMC2    C4 1975   4.234   1.096   9.852  0.5968 -0.2854  0.7011
  127TMC2    C5 1976   4.127   1.056   9.935 -0.2172 -1.1877 -0.3020
  127TMC2    C6 1977   4.153   1.002  10.062  0.0233 -0.5647  0.1368
  127TMC2     C 1978   4.472   1.154   9.826 -0.3573  0.4437 -0.1441
  127TMC2     O 1979   4.581   1.184   9.879 -0.0806  0.3259 -0.2815
  127TMC2     H 1980   4.483   1.062  10.069 -0.5831 -0.6287  0.2997
  127TMC2    H1 1981   4.215   1.105   9.746 -3.1533 -2.5621  1.1728
  127TMC2    H2 1982   4.082   0.948  10.124 -1.3479  3.6933  2.2213
  127TMC2    C7 1983   3.999   1.030   9.871  0.1069 -0.4760 -0.4632
  127TMC2    C8 1984   4.305   0.986  10.248  0.2913 -0.2910  0.1886
  127TMC2    O1 1985   3.982   1.091   9.763 -0.3457 -0.3953 -0.0029
  127TMC2    O2 1986   4.418   0.992  10.293 -0.4835  0.0359  0.0808
  127TMC2    O5 1987   4.191   1.018  10.315 -0.5170 -0.3351 -0.5403
  127TMC2    H5 1988   4.116   1.046  10.259 -1.5145 -0.4260  0.7643
  128MPD2     C 1989   4.489   1.219   9.459 -0.8998  0.2552  0.3000
  128MPD2    C1 1990   4.534   1.223   9.588 -1.0577 -0.0640 -0.0532
  128MPD2    C2 1991   4.654   1.294   9.615  0.3030 -0.2325  0.2472
  128MPD2    C3 1992   4.719   1.365   9.515  0.3458  0.7814  0.1742
  128MPD2    C4 1993   4.673   1.354   9.387  0.5327  0.2630  0.0051
  128MPD2    C5 1994   4.561   1.283   9.366  0.4338 -0.0632  0.6923
  128MPD2     H 1995   4.705   1.292   9.711 -1.5695  0.9874  1.2558
  128MPD2    H1 1996   4.727   1.406   9.309  1.0359  0.5424  0.5384
  128MPD2    H2 1997   4.392   1.179   9.432  0.4189 -1.3843 -1.9774
  128MPD2    H3 1998   4.516   1.282   9.268  1.2379  0.9872  0.3174
  128MPD2     N 1999   0.088   1.445   9.546  0.5343  0.0860  0.4007
  128MPD2    H5 2000   0.122   1.442   9.642  0.8563  0.7181  0.3062
  128MPD2    N1 2001   4.452   1.171   9.687  0.0942 -0.0927 -0.2856
  128MPD2    H7 2002   4.367   1.137   9.645  1.3802 -1.8951 -1.4267
  129TMC2    C1 2003   3.823   1.163   1.390 -0.6814  0.2068 -0.4396
  129TMC2    C2 2004   3.789   1.270   1.469 -0.4866  0.3446 -0.7722
  129TMC2    C3 2005   3.711   1.247   1.574 -0.9133 -0.2649 -0.6106
  129TMC2    C4 2006   3.768   1.042   1.402 -0.3315 -0.5231 -0.3090
  129TMC2    C5 2007   3.673   1.029   1.502 -0.1091  0.1055 -0.1190
  129TMC2    C6 2008   3.647   1.124   1.593 -0.5011 -0.0185  0.4178
  129TMC2     C 2009   3.918   1.175   1.277  0.3031 -0.1763 -0.0728
  129TMC2     O 2010   3.941   1.086   1.195 -0.3292  0.1802 -0.1898
  129TMC2     H 2011   3.836   1.368   1.469 -0.1307  0.1741  1.4399
  129TMC2    H1 2012   3.781   0.965   1.327  0.2713 -0.3919 -0.3387
  129TMC2    H2 2013   3.585   1.105   1.679 -2.3536 -2.0566 -1.3698
  129TMC2    C7 2014   3.553   0.945   1.478 -0.4633 -0.8907 -0.0321
  129TMC2    C8 2015   3.692   1.357   1.667 -0.4374 -0.1650 -0.4453
  129TMC2    O1 2016   3.454   0.968   1.542 -0.5420  0.2942  0.4828
  129TMC2    O2 2017   3.679   1.468   1.617 -0.0010 -0.0193  0.3264
  129TMC2    O5 2018   3.786   1.318   1.754  0.5821  0.0248  0.2831
  129TMC2    H5 2019   3.782   1.221   1.767 -1.3353  0.1423  0.5885
  130MPD2     C 2020   4.135   1.279   1.091  0.3430  0.2043 -0.3599
  130MPD2    C1 2021   4.095   1.339   1.213  0.2221  0.2278 -0.4836
  130MPD2    C2 2022   4.133   1.466   1.237 -0.0370  0.4582  0.1256
  130MPD2    C3 2023   4.220   1.537   1.157 -0.4360  0.1835 -0.2683
  130MPD2    C4 2024   4.273   1.469   1.047  0.3306  0.9156 -0.3886
  130MPD2    C5 2025   4.223   1.348   1.010  0.3712 -0.3763 -0.2384
  130MPD2     H 2026   4.101   1.520   1.327 -0.3763 -0.3158  0.4682
  130MPD2    H1 2027   4.340   1.520   0.979  1.2338  0.7786  0.3992
  130MPD2    H2 2028   4.110   1.179   1.057  0.3526 -0.0591  0.3913
  130MPD2    H3 2029   4.253   1.305   0.916  1.4864 -1.9711  0.8430
  130MPD2     N 2030   4.252   1.674   1.191 -0.3402 -0.0297 -0.4188
  130MPD2    H5 2031   4.210   1.704   1.279  0.8451 -2.3725  0.9586
  130MPD2    N1 2032   3.995   1.288   1.302  0.4038 -0.5698  0.0062
  130MPD2    H7 2033   3.969   1.347   1.380  3.1731 -1.1031  1.3347
  131TMC2    C1 2034   2.784   1.339  10.175  0.6259  0.5215  0.2042
  131TMC2    C2 2035   2.770   1.434  10.277 -0.1694  0.6337  0.5443
  131TMC2    C3 2036   2.805   1.559  10.237 -0.0346  0.5804 -0.1205
  131TMC2    C4 2037   2.836   1.373  10.054  0.2591  0.2830  0.2810
  131TMC2    C5 2038   2.869   1.505  10.020 -0.5847  0.1857  0.5714
  131TMC2    C6 2039   2.844   1.602  10.115 -0.2135  0.4841 -0.7515
  131TMC2     C 2040   2.753   1.198  10.197  0.7375  0.0313  0.2052
  131TMC2     O 2041   2.782   1.113  10.111 -0.4056 -0.9690 -0.3054
  131TMC2     H 2042   2.736   1.414  10.378 -0.1632 -0.7708  0.2716
  131TMC2    H1 2043   2.835   1.298   9.976 -0.0082 -1.1483  1.6805
  131TMC2    H2 2044   2.874   1.705  10.098 -0.0706  0.5709  0.0471
  131TMC2    C7 2045   2.893   1.542   9.880  0.2257  0.2092  0.5277
  131TMC2    C8 2046   2.824   1.644  10.351 -0.5130  0.5380  0.0895
  131TMC2    O1 2047   2.885   1.453   9.796  0.1963 -0.0520  0.0945
  131TMC2    O2 2048   2.838   1.588  10.459 -0.3577  0.9469 -0.7383
  131TMC2    O5 2049   2.789   1.766  10.330 -0.3816 -0.4345 -0.3788
  131TMC2    H5 2050   2.758   1.789  10.240 -0.8401 -1.2292 -0.4251
  132MPD2     C 2051   2.501   1.100  10.426  0.3682  0.4601  0.4286
  132MPD2    C1 2052   2.611   1.072  10.345 -0.4964 -0.1802  0.2605
  132MPD2    C2 2053   2.637   0.943  10.313 -0.4780  0.2883 -0.3985
  132MPD2    C3 2054   2.559   0.843  10.375  0.7487 -0.1547 -0.5854
  132MPD2    C4 2055   2.461   0.870  10.467 -0.6647 -0.4245  0.5769
  132MPD2    C5 2056   2.434   1.000  10.492  0.4645  0.3447  0.1923
  132MPD2     H 2057   2.715   0.914  10.243 -0.1130 -1.6867  0.8057
  132MPD2    H1 2058   2.412   0.795  10.528  1.5925 -0.6653  2.0831
  132MPD2    H2 2059   2.473   1.202  10.446 -0.7527  0.1312  0.5198
  132MPD2    H3 2060   2.355   1.012  10.566  0.5506  1.2565  0.1329
  132MPD2     N 2061   2.602   0.712  10.355  0.0061 -0.0425 -0.4977
  132MPD2    H5 2062   2.699   0.700  10.329  0.7013  0.3994  1.9047
  132MPD2    N1 2063   2.679   1.189  10.303 -0.0355 -0.3859 -0.4170
  132MPD2    H7 2064   2.660   1.277  10.349 -0.6585 -1.1638  0.8085
  133TMC2    C1 2065   2.186   1.656  10.042 -0.1643 -0.2600  0.2996
  133TMC2    C2 2066   2.248   1.586  10.140  0.3491 -0.3923 -0.1771
  133TMC2    C3 2067   2.355   1.644  10.199  0.2304  0.0945 -0.4213
  133TMC2    C4 2068   2.215   1.789  10.031 -0.0338  0.4621 -0.0109
  133TMC2    C5 2069   2.305   1.851  10.109 -0.4061 -0.7283  0.2594
  133TMC2    C6 2070   2.383   1.775  10.190  0.8111 -0.0635 -0.7642
  133TMC2     C 2071   2.080   1.592   9.963  0.0931  0.3006 -0.5749
  133TMC2     O 2072   2.080   1.470   9.974 -0.2299 -0.2452  0.0452
  133TMC2     H 2073   2.219   1.483  10.162 -2.8560  0.9073  1.6012
  133TMC2    H1 2074   2.148   1.855   9.978  2.4781  4.0102  1.2466
  133TMC2    H2 2075   2.464   1.820  10.247 -0.0383  0.8004 -0.2324
  133TMC2    C7 2076   2.314   1.994  10.111 -0.5130  0.2695  0.8139
  133TMC2    C8 2077   2.415   1.585  10.314 -0.3014  0.2414 -0.3923
  133TMC2    O1 2078   2.343   2.040  10.217  0.7656  0.8141  0.3367
  133TMC2    O2 2079   2.430   1.654  10.411  0.2163 -0.2981  0.4117
  133TMC2    O5 2080   2.416   1.447  10.311  0.1169  0.4595 -0.1426
  133TMC2    H5 2081   2.424   1.419  10.217  2.4559 -0.7291  0.4066
  134MPD2     C 2082   1.829   1.734   9.729 -0.0094 -0.0723  0.2656
  134MPD2    C1 2083   1.893   1.636   9.802  0.3455 -0.1171  0.4849
  134MPD2    C2 2084   1.847   1.505   9.785 -0.1135 -0.2700 -0.2005
  134MPD2    C3 2085   1.746   1.476   9.692  0.3676 -0.5584 -0.6719
  134MPD2    C4 2086   1.680   1.574   9.624 -0.4711  0.0889 -0.6064
  134MPD2    C5 2087   1.723   1.701   9.641  0.5100  0.7416  0.4598
  134MPD2     H 2088   1.900   1.421   9.829 -1.1191  0.0050  1.5116
  134MPD2    H1 2089   1.603   1.546   9.552 -0.3847 -1.7476  0.0091
  134MPD2    H2 2090   1.826   1.840   9.750  3.2451  0.1832 -0.5955
  134MPD2    H3 2091   1.673   1.780   9.585  1.0743  0.9181  0.2054
  134MPD2     N 2092   1.706   1.347   9.664  0.1510  0.6642 -0.1602
  134MPD2    H5 2093   1.622   1.341   9.606  0.4857  3.0236 -0.9198
  134MPD2    N1 2094   2.005   1.677   9.884 -0.2292 -0.2999  0.1671
  134MPD2    H7 2095   2.035   1.773   9.868  1.7576 -0.9977 -0.2220
  135TMC2    C1 2096   4.235   3.674   9.987  0.5750 -0.5272 -0.3806
  135TMC2    C2 2097   4.159   3.777   9.930 -0.4200  0.4586  0.2137
  135TMC2    C3 2098   4.070   3.842  10.023  0.9028  0.4872  0.1530
  135TMC2    C4 2099   4.226   3.644  10.122 -0.2309  1.0766 -0.5294
  135TMC2    C5 2100   4.131   3.706  10.195 -0.7468  0.3961 -0.2895
  135TMC2    C6 2101   4.045   3.803  10.147 -0.3803 -0.5749  0.5906
  135TMC2     C 2102   4.355   3.620   9.913 -0.5572  0.3276  0.0885
  135TMC2     O 2103   4.444   3.582   9.988  0.1152  0.0317  0.0448
  135TMC2     H 2104   4.177   3.819   9.831 -1.0170 -0.6627 -0.3682
  135TMC2    H1 2105   4.282   3.565  10.170  0.7883 -0.0063 -3.5214
  135TMC2    H2 2106   3.961   3.841  10.204 -0.8660 -0.9663  0.1298
  135TMC2    C7 2107   4.082   3.658  10.326 -0.0603 -0.4798  0.2718
  135TMC2    C8 2108   3.956   3.911   9.962  0.2238  0.1955  0.2632
  135TMC2    O1 2109   4.021   3.729  10.401 -0.1927  0.4530 -0.2472
  135TMC2    O2 2110   3.844   3.866   9.986 -0.2429  0.1033  0.7586
  135TMC2    O5 2111   3.994   3.945   9.837  0.3261 -0.4259 -0.4948
  135TMC2    H5 2112   4.084   3.983   9.849  0.6219 -0.8534 -1.3152
  136MPD2     C 2113   4.541   3.471   9.728  0.6327  0.7901  0.5737
  136MPD2    C1 2114   4.407   3.488   9.709 -0.4668 -0.1432  0.4147
  136MPD2    C2 2115   4.341   3.416   9.613  0.0059  0.1519 -0.2203
  136MPD2    C3 2116   4.399   3.308   9.555 -0.0763 -0.2087  0.6617
  136MPD2    C4 2117   4.522   3.271   9.603  0.1635  0.2520 -0.4583
  136MPD2    C5 2118   4.595   3.350   9.684 -0.3456  0.5022 -0.2512
  136MPD2     H 2119   4.235   3.436   9.603  0.9887  4.9745 -0.9780
  136MPD2    H1 2120   4.564   3.173   9.582 -1.0212 -0.6055  1.2271
  136MPD2    H2 2121   4.594   3.520   9.809  1.3732  1.1993 -0.1579
  136MPD2    H3 2122   4.686   3.315   9.731 -1.8586 -1.7066  1.0124
  136MPD2     N 2123   4.340   3.224   9.457  0.0858 -0.0553  0.1771
  136MPD2    H5 2124   4.393   3.141   9.430  0.9634 -0.4646  3.2251
  136MPD2    N1 2125   4.323   3.580   9.786  0.2983 -0.7435 -0.6213
  136MPD2    H7 2126   4.232   3.592   9.744  0.5927  0.0701 -1.0290
  137TMC2    C1 2127   4.296   1.917   9.653  0.0765 -0.0743  0.6595
  137TMC2    C2 2128   4.412   1.983   9.623 -0.0682  0.2716 -0.2517
  137TMC2    C3 2129   4.432   2.025   9.495  0.3287  0.0171  0.0001
  137TMC2    C4 2130   4.202   1.882   9.562  1.0533  0.1896 -0.1111
  137TMC2    C5 2131   4.227   1.920   9.431 -0.2679 -0.0129  0.0205
  137TMC2    C6 2132   4.344   1.987   9.395 -0.5002 -0.1926  0.0506
  137TMC2     C 2133   4.276   1.876   9.795  0.0240  0.0877  0.2771
  137TMC2     O 2134   4.382   1.857   9.859 -0.7932 -0.0203  0.8116
  137TMC2     H 2135   4.473   2.023   9.704  1.2674  0.5649 -1.3875
  137TMC2    H1 2136   4.112   1.839   9.604  1.7710 -0.9358  0.2692
  137TMC2    H2 2137   4.347   2.032   9.297 -2.0661  0.0655  0.1256
  137TMC2    C7 2138   4.126   1.902   9.330  0.0989  0.7277 -0.5590
  137TMC2    C8 2139   4.560   2.089   9.467  0.1245  0.6237  0.1408
  137TMC2    O1 2140   4.164   1.894   9.217  0.3509 -0.0731 -0.4796
  137TMC2    O2 2141   4.638   2.116   9.554  0.4273 -0.5806  0.0451
  137TMC2    O5 2142   4.554   2.149   9.346  0.0681  0.5158  0.1215
  137TMC2    H5 2143   4.465   2.139   9.307  0.5685  0.8211 -1.1127
  138MPD2     C 2144   3.960   1.883   9.975  0.4074  0.3889 -0.1216
  138MPD2    C1 2145   4.087   1.841   9.955  1.1622  0.2281  0.3024
  138MPD2    C2 2146   4.158   1.774  10.049  0.3093 -0.3022  0.4009
  138MPD2    C3 2147   4.105   1.767  10.178 -0.0053 -0.0285  1.2016
  138MPD2    C4 2148   3.978   1.803  10.202  0.3548  0.3007  0.3938
  138MPD2    C5 2149   3.905   1.868  10.099  0.0184 -0.1216 -0.1500
  138MPD2     H 2150   4.258   1.742  10.023  0.3244  0.8755 -1.0256
  138MPD2    H1 2151   3.923   1.787  10.295  0.5810  0.7846  0.6085
  138MPD2    H2 2152   3.908   1.952   9.910  0.9996 -0.8194 -1.8867
  138MPD2    H3 2153   3.806   1.907  10.120  0.2276 -0.2321  1.0322
  138MPD2     N 2154   4.187   1.723  10.282 -0.3284 -0.5471 -0.5800
  138MPD2    H5 2155   4.277   1.695  10.245 -0.5976 -3.7842  1.1593
  138MPD2    N1 2156   4.146   1.879   9.830  0.1299  0.6112 -0.3350
  138MPD2    H7 2157   4.079   1.922   9.766  0.2774  0.3494 -0.6689
  139TMC2    C1 2158   3.613   4.178  13.359 -0.2616  0.0773  0.2545
  139TMC2    C2 2159   3.593   4.237  13.235  0.4471 -0.0376  0.1836
  139TMC2    C3 2160   3.508   4.345  13.213 -0.2847  0.3144 -0.3330
  139TMC2    C4 2161   3.539   4.232  13.464 -0.1316 -0.0595 -0.2935
  139TMC2    C5 2162   3.437   4.321  13.436 -0.3390  0.4922 -0.6792
  139TMC2    C6 2163   3.432   4.388  13.320 -0.3588 -0.6928 -0.0400
  139TMC2     C 2164   3.748   4.127  13.393  0.2783 -0.3444 -0.1871
  139TMC2     O 2165   3.822   4.107  13.299  0.3543 -0.2713  0.0680
  139TMC2     H 2166   3.641   4.185  13.154  1.3220 -0.3779  0.9248
  139TMC2    H1 2167   3.560   4.194  13.564 -0.7843 -0.1767 -0.2028
  139TMC2    H2 2168   3.384   4.485  13.312  1.1643  0.2820  2.4200
  139TMC2    C7 2169   3.394   4.397  13.548 -0.2533  1.2670  0.4611
  139TMC2    C8 2170   3.462   4.373  13.079 -0.3126 -0.0381  0.8658
  139TMC2    O1 2171   3.343   4.508  13.521  0.4149 -0.6955 -0.2614
  139TMC2    O2 2172   3.512   4.320  12.981 -0.0613 -0.1757 -0.2894
  139TMC2    O5 2173   3.361   4.453  13.074 -0.2466 -0.2377 -0.2212
  139TMC2    H5 2174   3.326   4.480  13.162  0.5418 -3.1525  0.9750
  140MPD2     C 2175   3.901   4.017  13.708  0.3992 -0.3756  0.0481
  140MPD2    C1 2176   3.895   4.055  13.574 -0.0202  0.5647 -0.6033
  140MPD2    C2 2177   4.013   4.062  13.494  0.1727 -0.0954 -0.3392
  140MPD2    C3 2178   4.125   4.013  13.548  0.0505 -0.1507 -0.3167
  140MPD2    C4 2179   4.134   3.958  13.675 -0.2047 -0.4217 -0.6461
  140MPD2    C5 2180   4.020   3.966  13.761 -0.8626  0.8797 -0.0177
  140MPD2     H 2181   4.011   4.125  13.405 -2.1890  0.5742  0.1797
  140MPD2    H1 2182   4.227   3.920  13.716 -0.1872  0.4761  0.1424
  140MPD2    H2 2183   3.809   4.023  13.765 -0.9085 -0.7600 -2.0210
  140MPD2    H3 2184   4.022   3.931  13.863  1.2361  0.3582 -0.2306
  140MPD2     N 2185   4.241   4.024  13.464 -0.2309 -0.2919  0.0225
  140MPD2    H5 2186   4.222   4.048  13.367 -0.7563  0.4877  0.3165
  140MPD2    N1 2187   3.770   4.100  13.524 -0.0658  0.2813  0.5703
  140MPD2    H7 2188   3.689   4.101  13.585 -0.9665 -0.7594 -0.6042
  141TMC2    C1 2189   4.415   1.518  14.368 -0.2038  0.0249 -0.1178
  141TMC2    C2 2190   4.393   1.479  14.495 -0.2040  0.5168 -0.2016
  141TMC2    C3 2191   4.412   1.574  14.594 -0.1902 -0.0805  0.6477
  141TMC2    C4 2192   4.445   1.641  14.335  0.2789  0.2514 -0.1745
  141TMC2    C5 2193   4.472   1.727  14.439  0.1711  0.0404 -0.3426
  141TMC2    C6 2194   4.448   1.701  14.570 -0.0274 -0.4295 -0.3136
  141TMC2     C 2195   4.492   1.413  14.306  0.1214  0.0427  0.1404
  141TMC2     O 2196   4.554   1.334  14.380 -0.6993  0.4833 -0.1510
  141TMC2     H 2197   4.366   1.378  14.522 -0.2133 -0.0072 -2.1413
  141TMC2    H1 2198   4.461   1.668  14.231  2.8369  0.5501  0.3093
  141TMC2    H2 2199   4.454   1.775  14.648  2.1485  0.1768 -1.0641
  141TMC2    C7 2200   4.558   1.845  14.415 -0.0087  0.6293  0.1416
  141TMC2    C8 2201   4.378   1.540  14.727  0.0542  0.1506  0.1980
  141TMC2    O1 2202   4.525   1.911  14.321  0.1541 -0.2473 -0.8461
  141TMC2    O2 2203   4.272   1.481  14.758  0.1637 -0.4577 -0.4693
  141TMC2    O5 2204   4.482   1.550  14.813  0.6407 -0.5459  0.3118
  141TMC2    H5 2205   4.557   1.592  14.766  0.6986 -1.6472 -0.5752
  142TMC2    C1 2206   2.699   0.633   9.943  0.0532 -0.0193  0.3172
  142TMC2    C2 2207   2.618   0.740   9.916  0.0902 -0.4863  0.1151
  142TMC2    C3 2208   2.671   0.860   9.891 -0.0761 -0.0878  0.4102
  142TMC2    C4 2209   2.838   0.659   9.947 -0.1444  0.3923  1.0801
  142TMC2    C5 2210   2.883   0.791   9.938  0.0610 -0.7237 -0.7364
  142TMC2    C6 2211   2.799   0.893   9.899 -0.0979  0.0917 -0.0679
  142TMC2     C 2212   2.650   0.505   9.987  0.0853 -0.8112 -0.5078
  142TMC2     O 2213   2.526   0.491   9.983 -0.6996 -0.2587  0.1903
  142TMC2     H 2214   2.509   0.739   9.912  0.0484 -1.4657  1.4027
  142TMC2    H1 2215   2.916   0.589   9.977 -0.5572 -1.0859 -1.2219
  142TMC2    H2 2216   2.827   0.997   9.889 -1.2347  0.2409 -1.6807
  142TMC2    C7 2217   3.017   0.818   9.986  1.0596  0.7319  0.0350
  142TMC2    C8 2218   2.573   0.959   9.863 -0.7296 -0.6154 -0.6560
  142TMC2    O1 2219   3.079   0.735  10.051  0.1799 -0.7066  0.8493
  142TMC2    O2 2220   2.485   0.943   9.781  0.3692 -0.3113  0.5093
  142TMC2    O5 2221   2.602   1.075   9.920  0.1652 -0.6270  0.4556
  142TMC2    H5 2222   2.663   1.065   9.996  0.8692  1.4304  0.1666
  143MPD2     C 2223   2.693   0.038  10.184  0.0813  0.0374 -0.4954
  143MPD2    C1 2224   2.578   0.095  10.136 -0.1344  0.0700  0.5933
  143MPD2    C2 2225   2.606   0.217  10.077 -0.4235  0.2803  0.5722
  143MPD2    C3 2226   2.728   0.278  10.065 -0.2591  0.0750  0.0674
  143MPD2    C4 2227   2.839   0.206  10.108  0.0183 -0.0681 -0.2921
  143MPD2    C5 2228   2.820   0.085  10.166  0.3013 -1.4827  0.5595
  143MPD2     H 2229   2.521   0.276  10.044  0.1346 -0.0184 -1.4477
  143MPD2    H1 2230   2.939   0.240  10.088 -0.0369  0.3606  0.1595
  143MPD2    H2 2231   2.687   4.684  10.239  1.1897 -0.2914 -0.9373
  143MPD2    H3 2232   2.904   0.019  10.183  2.1717  1.0872  1.3131
  143MPD2     N 2233   2.745   0.408  10.005 -0.7010  0.2879 -0.0576
  143MPD2    H5 2234   2.842   0.434   9.991 -0.9523  2.1194  1.5418
  143MPD2    N1 2235   2.451   0.032  10.149  0.2291  0.5382 -0.4484
  143MPD2    H7 2236   2.434   4.691  10.210  0.7049 -0.6879 -1.9018
  144TMC2    C1 2237   0.752   4.020   0.501 -0.2138  0.4730  0.0445
  144TMC2    C2 2238   0.822   3.918   0.441 -0.3870 -0.1112 -0.2381
  144TMC2    C3 2239   0.912   3.856   0.524  0.0035 -0.2940 -1.3905
  144TMC2    C4 2240   0.747   4.032   0.635  0.5204  0.0753  0.1245
  144TMC2    C5 2241   0.844   3.973   0.711  0.3710  0.5951 -0.0614
  144TMC2    C6 2242   0.936   3.885   0.656  0.0709  0.0073 -0.4269
  144TMC2     C 2243   0.646   4.085   0.418 -0.2215 -0.4462 -0.2496
  144TMC2     O 2244   0.643   4.050   0.299 -0.3875  0.3054  0.2689
  144TMC2     H 2245   0.818   3.896   0.335 -1.3790 -0.9591 -0.0335
  144TMC2    H1 2246   0.663   4.075   0.688  0.2468  1.5108 -1.4662
  144TMC2    H2 2247   1.021   3.850   0.713 -0.8138 -0.9968  0.2622
  144TMC2    C7 2248   0.862   3.995   0.854 -0.0925 -0.1934  0.4555
  144TMC2    C8 2249   0.995   3.760   0.449  0.0552 -0.4338 -0.2554
  144TMC2    O1 2250   0.940   3.924   0.917  0.1463 -0.0129  0.5529
  144TMC2    O2 2251   1.029   3.773   0.333  0.0352 -0.3440 -0.4140
  144TMC2    O5 2252   1.039   3.672   0.544 -0.2109 -0.3032  0.2547
  144TMC2    H5 2253   0.982   3.674   0.624 -1.7757  1.4749 -0.8925
  145MPD2     C 2254   0.303   4.451   0.295  0.3067 -0.0144 -0.9017
  145MPD2    C1 2255   0.317   4.326   0.238 -0.1740 -0.1460 -0.1867
  145MPD2    C2 2256   0.405   4.236   0.305  0.5701  0.6499 -0.5800
  145MPD2    C3 2257   0.479   4.271   0.416 -0.3651  0.0337 -0.4296
  145MPD2    C4 2258   0.463   4.395   0.469  0.5376 -0.7021 -1.0740
  145MPD2    C5 2259   0.366   4.481   0.416 -0.0232  0.3911 -1.3150
  145MPD2     H 2260   0.405   4.134   0.270  0.5455  0.3513  0.2917
  145MPD2    H1 2261   0.518   4.436   0.553  0.3657 -0.2746 -1.1703
  145MPD2    H2 2262   0.253   4.527   0.236  1.3978  2.0149  0.8273
  145MPD2    H3 2263   0.366   4.577   0.466 -1.4691 -0.7724  0.8848
  145MPD2     N 2264   0.583   4.190   0.477 -0.2888 -0.0895  0.3931
  145MPD2    H5 2265   0.630   4.212   0.564  1.3496  1.4927 -0.9092
  145MPD2    N1 2266   0.265   4.286   0.110 -0.0470  0.5015 -0.1542
  145MPD2    H7 2267   0.274   4.187   0.086 -0.7375  0.3122  0.4004
  146TMC2    C1 2268   2.353   1.911  12.267  0.0977  0.7174 -0.2369
  146TMC2    C2 2269   2.318   1.941  12.141  0.0443  0.1342  0.0675
  146TMC2    C3 2270   2.411   1.943  12.037 -0.6585  0.3824 -0.2298
  146TMC2    C4 2271   2.482   1.886  12.302 -0.3104 -0.3792  0.0442
  146TMC2    C5 2272   2.574   1.878  12.197  0.0478 -0.1720 -0.2116
  146TMC2    C6 2273   2.543   1.904  12.068 -0.3719  0.0666  0.3052
  146TMC2     C 2274   2.249   1.932  12.369 -0.2703  0.4303  0.5219
  146TMC2     O 2275   2.144   1.971  12.324 -0.4211 -0.1643  0.3638
  146TMC2     H 2276   2.218   1.960  12.105 -0.3801  0.1350  1.2616
  146TMC2    H1 2277   2.523   1.891  12.403 -0.5027 -1.9983  0.1969
  146TMC2    H2 2278   2.617   1.904  11.989 -0.8266 -2.1372 -0.1282
  146TMC2    C7 2279   2.719   1.860  12.225 -0.9034  0.4846 -0.0233
  146TMC2    C8 2280   2.382   2.011  11.919 -0.0119 -0.8815  0.3346
  146TMC2    O1 2281   2.794   1.905  12.138 -0.0856  0.1577  0.2719
  146TMC2    O2 2282   2.292   2.091  11.904 -0.7394  0.0636 -0.7023
  146TMC2    O5 2283   2.399   1.925  11.819 -0.3539  0.0776 -0.1473
  146TMC2    H5 2284   2.452   1.848  11.847  0.9542  0.4591 -1.5771
  147MPD2     C 2285   3.141   1.803  12.516 -0.1221 -0.3517  1.0971
  147MPD2    C1 2286   3.030   1.750  12.580  0.1848 -1.1121 -0.4989
  147MPD2    C2 2287   2.908   1.742  12.519 -0.3427 -0.2070  0.1527
  147MPD2    C3 2288   2.880   1.815  12.404 -0.1168 -0.1925 -0.3957
  147MPD2    C4 2289   2.992   1.874  12.348  0.1081 -0.3833 -0.1792
  147MPD2    C5 2290   3.116   1.869  12.399  1.1708 -0.2148 -0.0470
  147MPD2     H 2291   2.830   1.675  12.555  0.3777 -0.9127  0.3939
  147MPD2    H1 2292   2.988   1.943  12.265  1.9021 -0.0309  0.0347
  147MPD2    H2 2293   3.243   1.803  12.554 -0.0912 -0.4568  1.0144
  147MPD2    H3 2294   3.195   1.903  12.334 -0.3939  1.4972 -1.0449
  147MPD2     N 2295   2.753   1.812  12.349  0.2117  0.1416 -0.0460
  147MPD2    H5 2296   2.680   1.764  12.402  0.6507  0.3407  0.7320
  147MPD2    N1 2297   3.062   1.702  12.706 -0.0774  0.2348  0.0697
  147MPD2    H7 2298   3.158   1.718  12.733  0.4969 -1.0438 -1.2475
  148TMC2    C1 2299   2.900   0.941  10.624 -0.0465  0.4986  0.4735
  148TMC2    C2 2300   3.038   0.918  10.639  0.5251  0.1939 -0.0698
  148TMC2    C3 2301   3.085   0.799  10.677 -0.1717  0.0869 -0.0813
  148TMC2    C4 2302   2.814   0.843  10.657 -0.6840  0.1415 -0.2204
  148TMC2    C5 2303   2.864   0.721  10.697 -0.3525  0.3522  0.3920
  148TMC2    C6 2304   2.998   0.697  10.705 -0.3245  0.4202  0.4265
  148TMC2     C 2305   2.861   1.079  10.613 -0.0439 -0.6897  0.3396
  148TMC2     O 2306   2.929   1.152  10.545  0.2526  0.1729 -0.4954
  148TMC2     H 2307   3.106   1.001  10.622 -1.0583  1.7171  1.0904
  148TMC2    H1 2308   2.708   0.864  10.669 -0.7558  0.6073 -1.6541
  148TMC2    H2 2309   3.040   0.598  10.719  0.1805  0.5267 -0.3551
  148TMC2    C7 2310   2.770   0.619  10.744 -0.6608  0.3533  0.2760
  148TMC2    C8 2311   3.218   0.752  10.663 -0.7751  0.1384 -0.2840
  148TMC2    O1 2312   2.652   0.658  10.761  0.5090 -0.3152 -0.3276
  148TMC2    O2 2313   3.250   0.635  10.653  0.2728  0.3833  0.1828
  148TMC2    O5 2314   3.307   0.847  10.694 -0.3142 -1.1166 -0.0543
  148TMC2    H5 2315   3.264   0.918  10.746  1.3574  0.0414 -0.2464
  149MPD2     C 2316   2.682   1.326  10.639  0.2740 -0.2943 -0.0600
  149MPD2    C1 2317   2.661   1.202  10.696  0.0034 -0.6333 -0.1156
  149MPD2    C2 2318   2.533   1.175  10.743  0.0989 -0.5732 -0.4201
  149MPD2    C3 2319   2.429   1.269  10.726  0.0308  0.2158 -0.6554
  149MPD2    C4 2320   2.451   1.386  10.668  0.1494  0.5447  1.4505
  149MPD2    C5 2321   2.577   1.412  10.622  0.7512 -0.4432 -0.6501
  149MPD2     H 2322   2.506   1.075  10.776 -0.2085 -0.0187  0.9606
  149MPD2    H1 2323   2.376   1.464  10.663 -1.3455 -0.8716  1.8661
  149MPD2    H2 2324   2.777   1.357  10.599  0.7066 -1.1715  0.2913
  149MPD2    H3 2325   2.592   1.509  10.576 -1.3996  0.9498  1.6235
  149MPD2     N 2326   2.301   1.238  10.771 -0.5482  1.0542  0.4326
  149MPD2    H5 2327   2.222   1.293  10.737 -1.4838 -0.1520  0.6476
  149MPD2    N1 2328   2.747   1.098  10.684 -0.0010 -0.2166  0.3901
  149MPD2    H7 2329   2.713   1.014  10.729 -0.4283  0.0119  0.4867
  150TMC2    C1 2330   3.598   0.339  12.445 -0.7295 -0.0417  1.2805
  150TMC2    C2 2331   3.687   0.394  12.358  0.1214  0.2348  1.3250
  150TMC2    C3 2332   3.819   0.372  12.394 -0.1274  0.4073  0.4756
  150TMC2    C4 2333   3.635   0.270  12.559 -0.8138  0.8846  0.3236
  150TMC2    C5 2334   3.771   0.249  12.579 -0.3582  0.1924 -0.5672
  150TMC2    C6 2335   3.869   0.303  12.498  0.2585 -0.1745  0.3444
  150TMC2     C 2336   3.455   0.336  12.421 -0.4458 -0.0158  0.2542
  150TMC2     O 2337   3.380   0.319  12.514 -0.2584 -0.3183 -0.1858
  150TMC2     H 2338   3.665   0.476  12.290  0.1933  0.1142  1.1577
  150TMC2    H1 2339   3.570   0.237  12.640  2.7146 -3.4315  1.3827
  150TMC2    H2 2340   3.974   0.296  12.524  0.2035  0.4466  0.7216
  150TMC2    C7 2341   3.811   0.209  12.714  0.1280  0.0229  0.9210
  150TMC2    C8 2342   3.919   0.419  12.304 -0.1207  0.8439  0.3852
  150TMC2    O1 2343   3.736   0.205  12.810 -0.0755 -0.5134  0.3687
  150TMC2    O2 2344   4.032   0.440  12.345  0.0265 -0.0195 -0.1718
  150TMC2    O5 2345   3.883   0.397  12.176  0.0959 -0.3089  0.9746
  150TMC2    H5 2346   3.791   0.363  12.174  0.0582 -0.0464 -3.5135
  151MPD2     C 2347   3.063   0.404  12.104 -0.5721  0.0721 -0.1033
  151MPD2    C1 2348   3.172   0.371  12.026 -0.0469  0.8365  0.2773
  151MPD2    C2 2349   3.292   0.360  12.093 -0.0116 -0.6778 -0.2556
  151MPD2    C3 2350   3.303   0.375  12.231 -0.5663  0.2898 -0.0487
  151MPD2    C4 2351   3.195   0.414  12.308 -0.6291  0.4107  0.2384
  151MPD2    C5 2352   3.072   0.431  12.240 -0.2426 -0.3755 -0.3611
  151MPD2     H 2353   3.384   0.330  12.043  0.7026  0.0175  0.6438
  151MPD2    H1 2354   3.196   0.440  12.414 -1.7183 -2.0026  0.8476
  151MPD2    H2 2355   2.965   0.429  12.064  1.5403  1.8385 -4.2039
  151MPD2    H3 2356   2.991   0.479  12.293  0.8354 -0.2138  1.1399
  151MPD2     N 2357   3.430   0.352  12.286  0.0263  0.4238 -0.0596
  151MPD2    H5 2358   3.506   0.348  12.219 -0.8261 -0.6018 -0.9624
  151MPD2    N1 2359   3.152   0.348  11.892  0.0606  0.4100 -0.0302
  151MPD2    H7 2360   3.057   0.353  11.857 -0.0610 -0.6422  0.1651
  152TMC2    C1 2361   3.235   4.681  12.889 -0.4321 -0.1110  0.4230
  152TMC2    C2 2362   3.336   4.615  12.818  0.3301  0.7699 -0.1516
  152TMC2    C3 2363   3.466   4.658  12.830 -0.5734 -0.0200  0.7520
  152TMC2    C4 2364   3.262   0.052  12.964 -0.1181 -0.3578 -0.4820
  152TMC2    C5 2365   3.392   0.094  12.971 -0.8801 -0.2965  0.3029
  152TMC2    C6 2366   3.498   0.025  12.910 -0.1431  0.1499 -0.4950
  152TMC2     C 2367   3.097   4.648  12.868  0.3899  0.5179 -0.5534
  152TMC2     O 2368   3.061   4.601  12.763 -0.2067 -0.0425 -0.6265
  152TMC2     H 2369   3.305   4.530  12.759  1.2593  1.6071 -1.8358
  152TMC2    H1 2370   3.176   0.101  13.010 -1.5503 -1.9983 -1.3919
  152TMC2    H2 2371   3.604   0.044  12.928 -0.0473  0.4465 -1.4185
  152TMC2    C7 2372   3.419   0.207  13.060 -0.0161  0.5314  0.6030
  152TMC2    C8 2373   3.571   4.612  12.744 -0.1751  0.3194  0.0449
  152TMC2    O1 2374   3.328   0.234  13.139 -0.1403  0.1784  0.3166
  152TMC2    O2 2375   3.678   4.589  12.795  0.1961  0.1823 -0.0006
  152TMC2    O5 2376   3.550   4.693  12.640  0.1503 -0.5437 -0.7298
  152TMC2    H5 2377   3.459   4.728  12.631  0.4577  0.8056  1.2356
  153MPD2     C 2378   2.856   4.657  13.140  0.0091  0.0345 -0.6024
  153MPD2    C1 2379   2.890   4.647  13.009 -0.1208  0.6557 -0.0001
  153MPD2    C2 2380   2.798   4.636  12.903  0.5834  0.1679 -0.3087
  153MPD2    C3 2381   2.665   4.638  12.928 -0.4454 -0.0343 -0.3205
  153MPD2    C4 2382   2.630   4.634  13.064  0.3851  0.3322  0.2192
  153MPD2    C5 2383   2.721   4.639  13.172 -0.1329  0.7132  1.5592
  153MPD2     H 2384   2.829   4.632  12.800  1.0394 -0.3665 -0.1528
  153MPD2    H1 2385   2.526   4.637  13.095 -0.5163 -4.2974 -2.4256
  153MPD2    H2 2386   2.927   4.670  13.221 -2.6320  1.0170  1.5865
  153MPD2    H3 2387   2.684   4.642  13.274 -0.9017  0.9850  1.2707
  153MPD2     N 2388   2.567   4.653  12.822 -0.0648  0.5746 -0.3011
  153MPD2    H5 2389   2.602   4.669  12.728 -1.3703 -2.4285 -1.2987
  153MPD2    N1 2390   3.032   4.655  12.991  0.0216  0.4893 -0.4668
  153MPD2    H7 2391   3.096   4.653  13.069 -0.0292 -2.1285 -0.4750
  154TMC2    C1 2392   1.299   0.170   0.665 -0.1705  0.0942 -0.0958
  154TMC2    C2 2393   1.315   0.194   0.798 -0.1932 -0.2307 -0.6043
  154TMC2    C3 2394   1.407   0.111   0.861  0.2270 -0.4645  0.5391
  154TMC2    C4 2395   1.366   0.064   0.603 -0.3276 -0.1228 -0.1333
  154TMC2    C5 2396   1.445   4.718   0.674  0.2111 -0.0126  0.0279
  154TMC2    C6 2397   1.460   4.736   0.806 -0.5459  0.5612  0.5963
  154TMC2     C 2398   1.211   0.256   0.586  0.3747 -0.6838 -0.3132
  154TMC2     O 2399   1.138   0.324   0.661  0.6084  0.5044 -0.5502
  154TMC2     H 2400   1.282   0.284   0.848 -1.2279 -1.2112  0.4757
  154TMC2    H1 2401   1.329   0.027   0.508  1.2326 -2.2222  0.0707
  154TMC2    H2 2402   1.520   4.670   0.868 -0.9830 -1.8404 -1.5420
  154TMC2    C7 2403   1.535   4.629   0.616  0.5218 -0.1695  0.5998
  154TMC2    C8 2404   1.410   0.128   1.000 -0.9055  0.6264 -0.7062
  154TMC2    O1 2405   1.580   4.539   0.690 -0.3987 -0.3638 -0.1447
  154TMC2    O2 2406   1.393   0.238   1.051 -0.4491 -0.3276 -0.3801
  154TMC2    O5 2407   1.372   0.017   1.060  0.7367 -0.1788  0.1554
  154TMC2    H5 2408   1.372   4.676   1.003 -0.9317 -0.4905  0.5860
  155MPD2     C 2409   1.192   0.295   0.221  0.6100  0.0627 -0.5695
  155MPD2    C1 2410   1.160   0.317   0.352  0.4371  0.7354  0.1200
  155MPD2    C2 2411   1.070   0.420   0.368  0.5818 -0.1008 -0.1314
  155MPD2    C3 2412   1.015   0.500   0.265  0.5118 -0.5606  0.0798
  155MPD2    C4 2413   1.054   0.472   0.140 -0.8432  0.2844 -0.4812
  155MPD2    C5 2414   1.133   0.357   0.113 -0.1273 -0.7979  0.5616
  155MPD2     H 2415   1.052   0.440   0.473  0.4877  1.7180 -0.4963
  155MPD2    H1 2416   1.026   0.537   0.058 -2.4692 -0.2024 -0.3071
  155MPD2    H2 2417   1.260   0.212   0.208  0.1937 -0.1533 -1.3859
  155MPD2    H3 2418   1.168   0.333   0.013 -1.9708  1.5599 -0.6839
  155MPD2     N 2419   0.942   0.622   0.297  0.4028  0.8167  0.3192
  155MPD2    H5 2420   0.908   0.630   0.392  2.1607 -0.3621  1.0438
  155MPD2    N1 2421   1.218   0.241   0.449 -0.2351  0.3593  0.2722
  155MPD2    H7 2422   1.288   0.174   0.419 -1.8934 -0.5909 -1.4309
  156TMC2    C1 2423   3.983   2.809  12.050  0.3211 -0.7599  0.1333
  156TMC2    C2 2424   3.969   2.675  12.025 -0.1421  0.4540  0.0126
  156TMC2    C3 2425   3.989   2.646  11.889  0.5884  0.0920  0.6029
  156TMC2    C4 2426   4.011   2.906  11.948 -0.0596 -0.2133 -0.0052
  156TMC2    C5 2427   4.007   2.868  11.817  0.8587  0.5309  0.4271
  156TMC2    C6 2428   4.009   2.733  11.786  0.6919  0.4176 -0.2894
  156TMC2     C 2429   3.895   2.857  12.151  0.2063  0.7868  0.1398
  156TMC2     O 2430   3.807   2.788  12.196  0.1507  0.0836 -1.0436
  156TMC2     H 2431   3.955   2.601  12.103  1.9953 -0.3770 -0.3994
  156TMC2    H1 2432   4.040   3.009  11.961  1.6921 -0.6511 -0.4074
  156TMC2    H2 2433   4.027   2.701  11.683  1.2012  0.2210 -0.1383
  156TMC2    C7 2434   3.983   2.960  11.711  1.0385  0.4876  0.0050
  156TMC2    C8 2435   3.999   2.505  11.840  0.4455  0.4681 -0.5060
  156TMC2    O1 2436   4.009   3.077  11.734  0.0022  0.7442  0.3456
  156TMC2    O2 2437   4.084   2.468  11.763  0.2653  0.6335 -0.0210
  156TMC2    O5 2438   3.901   2.435  11.892  0.1073 -0.0245 -0.3750
  156TMC2    H5 2439   3.838   2.486  11.947  2.0984 -0.7107  2.5478
  157MPD2     C 2440   3.900   3.209  12.272 -0.3314  0.8388  0.4566
  157MPD2    C1 2441   3.839   3.086  12.242 -0.3358  0.0877 -0.1938
  157MPD2    C2 2442   3.703   3.073  12.240 -1.0323 -0.4360 -0.0264
  157MPD2    C3 2443   3.622   3.179  12.272  0.4556  0.2003 -0.4724
  157MPD2    C4 2444   3.677   3.296  12.319  0.0654  0.0362 -0.5414
  157MPD2    C5 2445   3.816   3.313  12.311  0.4202  0.0912 -0.3769
  157MPD2     H 2446   3.667   2.977  12.204  0.4642 -0.7230 -0.7423
  157MPD2    H1 2447   3.620   3.386  12.338 -1.4592 -0.6284 -1.9172
  157MPD2    H2 2448   4.007   3.226  12.276 -0.2882  0.6531  0.0390
  157MPD2    H3 2449   3.865   3.408  12.325  0.7509 -0.4119  1.8621
  157MPD2     N 2450   3.478   3.176  12.256  0.5168  0.3835 -0.0869
  157MPD2    H5 2451   3.430   3.260  12.288  0.3324  0.3577 -0.3026
  157MPD2    N1 2452   3.926   2.989  12.183  0.0023 -0.9890  0.3602
  157MPD2    H7 2453   4.016   3.023  12.151  0.2659 -0.8964  1.2037
  158TMC2    C1 2454   3.644   1.424  13.653  0.0302 -0.3924 -0.0339
  158TMC2    C2 2455   3.601   1.506  13.562  0.1243 -0.2955 -0.1934
  158TMC2    C3 2456   3.475   1.487  13.519  0.6966 -1.3818 -0.6084
  158TMC2    C4 2457   3.581   1.315  13.706 -0.7288 -0.1398 -0.3755
  158TMC2    C5 2458   3.455   1.300  13.658 -0.2576  0.5779 -0.2671
  158TMC2    C6 2459   3.399   1.380  13.566 -0.2982  0.3901 -0.4917
  158TMC2     C 2460   3.775   1.463  13.702 -0.0306 -0.6641  0.1573
  158TMC2     O 2461   3.820   1.574  13.674 -0.3387 -0.0269  0.3401
  158TMC2     H 2462   3.665   1.590  13.537 -0.1723  0.3008  1.0469
  158TMC2    H1 2463   3.614   1.253  13.789 -0.9048  0.1095 -0.1188
  158TMC2    H2 2464   3.304   1.357  13.520 -0.7948  0.0871  0.6772
  158TMC2    C7 2465   3.366   1.195  13.703 -0.1430  0.4029  0.3636
  158TMC2    C8 2466   3.420   1.585  13.422  0.1520 -0.3399  0.1102
  158TMC2    O1 2467   3.248   1.227  13.682 -0.1362  0.1246  0.3283
  158TMC2    O2 2468   3.304   1.613  13.415 -0.0205  0.6134 -0.0348
  158TMC2    O5 2469   3.511   1.629  13.331  0.0216 -0.5087 -0.3534
  158TMC2    H5 2470   3.595   1.581  13.316  0.8651  1.2479 -1.3565
  159MPD2     C 2471   4.109   1.437  14.079 -0.3624 -0.5857  0.2384
  159MPD2    C1 2472   4.112   1.322  14.013  0.5096 -0.4746 -0.1191
  159MPD2    C2 2473   4.017   1.306  13.918  0.4756 -0.1760 -0.8536
  159MPD2    C3 2474   3.929   1.408  13.884 -0.4349 -0.2032  0.7528
  159MPD2    C4 2475   3.919   1.523  13.959 -0.0941  0.1435  0.5972
  159MPD2    C5 2476   4.016   1.543  14.056 -0.3385  0.0718  0.4610
  159MPD2     H 2477   4.014   1.217  13.857 -1.7649  0.4044 -1.5780
  159MPD2    H1 2478   3.838   1.594  13.942 -0.1056 -0.3454 -1.4464
  159MPD2    H2 2479   4.187   1.445  14.154  1.4028  1.1023 -1.7431
  159MPD2    H3 2480   4.009   1.636  14.110 -1.6822  2.2509 -3.4881
  159MPD2     N 2481   3.830   1.377  13.785  0.4367 -0.4340  0.2323
  159MPD2    H5 2482   3.800   1.280  13.774 -1.4286  0.1169  0.5466
  159MPD2    N1 2483   4.217   1.234  14.052  0.1230 -0.2810  0.0277
  159MPD2    H7 2484   4.275   1.254  14.133  0.3726  2.2547 -0.7926
  160TMC2    C1 2485   4.181   4.649   1.063 -0.1394  0.4934  0.5039
  160TMC2    C2 2486   4.274   4.598   1.148 -0.9642 -0.8388  0.1770
  160TMC2    C3 2487   4.403   4.625   1.122 -0.3352  0.6664 -0.7269
  160TMC2    C4 2488   4.214   0.008   0.971  0.3916 -0.2725 -0.0777
  160TMC2    C5 2489   4.344   0.032   0.942  0.2208  0.3698 -0.0797
  160TMC2    C6 2490   4.441   4.713   1.021 -0.0137 -0.0396  0.7672
  160TMC2     C 2491   4.060   4.569   1.044 -0.5328  0.3528  0.4336
  160TMC2     O 2492   4.066   4.448   1.054  0.0298 -0.3587 -0.0605
  160TMC2     H 2493   4.243   4.514   1.208 -1.0177 -2.6508 -2.4116
  160TMC2    H1 2494   4.135   0.039   0.904 -1.0628  1.0319  2.2532
  160TMC2    H2 2495   4.548   4.723   1.004  0.2366 -1.3447  1.5322
  160TMC2    C7 2496   4.384   0.096   0.816 -0.0622  0.0684  0.7191
  160TMC2    C8 2497   4.505   4.569   1.206 -0.4621 -0.3866 -0.4259
  160TMC2    O1 2498   4.307   0.084   0.722  0.1030 -0.0048  0.7848
  160TMC2    O2 2499   4.623   4.569   1.178  0.3204 -0.5398 -0.0442
  160TMC2    O5 2500   4.461   4.592   1.336 -0.4100 -0.5454  0.5129
  160TMC2    H5 2501   4.371   4.620   1.363  0.3575  1.0056  1.4805
  161MPD2     C 2502   3.794   4.470   0.941  0.4274 -0.1869  0.0313
  161MPD2    C1 2503   3.834   4.603   0.953 -0.2705  0.4130 -0.0600
  161MPD2    C2 2504   3.745   4.703   0.915  0.2054  0.0852  0.4396
  161MPD2    C3 2505   3.623   4.669   0.873 -0.0746  0.2556  0.6452
  161MPD2    C4 2506   3.586   4.537   0.861 -0.8264  0.2850  0.1656
  161MPD2    C5 2507   3.672   4.439   0.892 -0.6558  0.7356  0.2996
  161MPD2     H 2508   3.774   0.068   0.927  1.1199 -0.2500  1.0586
  161MPD2    H1 2509   3.488   4.513   0.822  0.2126 -3.3443 -0.2218
  161MPD2    H2 2510   3.859   4.385   0.962  0.2767 -0.0801  0.9334
  161MPD2    H3 2511   3.653   4.332   0.892 -1.4663  0.8840  0.4471
  161MPD2     N 2512   3.519   0.029   0.844 -0.5030 -0.6387 -0.1012
  161MPD2    H5 2513   3.429   4.724   0.828 -1.4282  1.1836  0.2546
  161MPD2    N1 2514   3.955   4.646   1.007  0.0302  0.2569  0.4197
  161MPD2    H7 2515   3.965   0.008   1.011  0.7678  0.1813  0.4353
  162TMC2    C1 2516   2.468   1.974   1.225 -0.2195  0.1119 -0.1088
  162TMC2    C2 2517   2.462   2.101   1.279 -0.4547  0.1881  0.0567
  162TMC2    C3 2518   2.567   2.138   1.360  0.3651 -0.1948  0.1060
  162TMC2    C4 2519   2.572   1.886   1.246 -0.2199 -0.5287  0.2001
  162TMC2    C5 2520   2.679   1.940   1.321 -0.0558 -0.9274 -0.3041
  162TMC2    C6 2521   2.678   2.061   1.386 -0.6871 -0.5496  0.3751
  162TMC2     C 2522   2.392   1.935   1.106 -0.0796 -0.2607 -0.3321
  162TMC2     O 2523   2.458   1.868   1.025 -0.4422 -0.2190  0.1767
  162TMC2     H 2524   2.389   2.168   1.236 -0.0678  0.9320  0.5635
  162TMC2    H1 2525   2.569   1.785   1.208  0.0297 -0.4905  0.0787
  162TMC2    H2 2526   2.748   2.090   1.464 -0.9675 -0.2384  0.5156
  162TMC2    C7 2527   2.790   1.842   1.355 -0.0916 -0.1453  0.1916
  162TMC2    C8 2528   2.558   2.252   1.451 -0.5623  0.0477  0.1822
  162TMC2    O1 2529   2.878   1.888   1.427  0.2231 -0.2983  0.3883
  162TMC2    O2 2530   2.606   2.254   1.563 -0.8231 -0.4688 -0.1051
  162TMC2    O5 2531   2.487   2.356   1.391 -0.0383  0.4320  0.2054
  162TMC2    H5 2532   2.478   2.331   1.296  1.7253  1.3869 -0.1992
  163MPD2     C 2533   2.029   2.030   0.746 -0.7588 -0.4273 -0.2330
  163MPD2    C1 2534   2.145   1.960   0.743 -0.0354 -0.7292 -0.3770
  163MPD2    C2 2535   2.224   1.946   0.852  0.7061 -0.1344  0.6206
  163MPD2    C3 2536   2.197   2.014   0.972  0.0031 -0.1461 -0.5701
  163MPD2    C4 2537   2.086   2.097   0.975 -0.1021 -0.3795  0.5732
  163MPD2    C5 2538   2.005   2.093   0.861 -0.0951 -0.4881 -0.6185
  163MPD2     H 2539   2.316   1.889   0.852  1.6915  1.4334  0.7508
  163MPD2    H1 2540   2.051   2.154   1.061 -0.8311 -0.6387  0.4477
  163MPD2    H2 2541   1.951   2.032   0.670 -1.1554  0.6955  0.2002
  163MPD2    H3 2542   1.907   2.137   0.880  0.5684 -0.2630  2.3201
  163MPD2     N 2543   2.278   2.011   1.089 -0.3716 -0.3782 -0.6374
  163MPD2    H5 2544   2.246   2.068   1.167  3.2779 -0.1326  0.6725
  163MPD2    N1 2545   2.192   1.892   0.626  0.4271 -0.1717 -0.0476
  163MPD2    H7 2546   2.258   1.819   0.652  0.9754  0.2198 -0.3263
  164TMC2    C1 2547   2.730   1.456  10.946 -0.6136 -0.1788 -0.3784
  164TMC2    C2 2548   2.778   1.584  10.922 -0.3888 -0.5784  0.0336
  164TMC2    C3 2549   2.682   1.685  10.907 -0.2888 -0.4490 -0.4092
  164TMC2    C4 2550   2.599   1.439  10.980 -0.0301 -0.7892 -0.2637
  164TMC2    C5 2551   2.511   1.539  10.958 -0.1730  0.3132 -0.3736
  164TMC2    C6 2552   2.550   1.660  10.905  0.3395 -0.1428 -0.0528
  164TMC2     C 2553   2.824   1.367  11.011  0.6827  0.8033  0.2639
  164TMC2     O 2554   2.784   1.298  11.101  0.1507 -0.2779  0.2109
  164TMC2     H 2555   2.879   1.623  10.919  0.5566 -2.9277  0.7921
  164TMC2    H1 2556   2.582   1.336  11.009  0.5169 -0.5760  0.8285
  164TMC2    H2 2557   2.476   1.737  10.883 -1.0593 -1.1354  1.1699
  164TMC2    C7 2558   2.375   1.516  11.009 -0.6786  0.2913 -0.0520
  164TMC2    C8 2559   2.759   1.802  10.853 -0.2110 -0.4674  0.6731
  164TMC2    O1 2560   2.287   1.598  10.984  0.0935  0.2877 -0.2891
  164TMC2    O2 2561   2.863   1.843  10.904  0.2665  0.1191 -0.3644
  164TMC2    O5 2562   2.667   1.878  10.787  0.5342  0.4785  0.2661
  164TMC2    H5 2563   2.589   1.834  10.746  0.3523  1.9374 -0.9571
  165TMC2    C1 2564   4.052   3.480   1.268  0.6624 -0.1004  0.2978
  165TMC2    C2 2565   3.953   3.386   1.223 -0.8468 -0.4249 -0.4651
  165TMC2    C3 2566   3.849   3.432   1.149  0.3883 -0.0040 -0.8978
  165TMC2    C4 2567   4.045   3.613   1.239  0.0647 -0.4148 -0.3314
  165TMC2    C5 2568   3.935   3.655   1.171  0.2659 -0.2104  0.2886
  165TMC2    C6 2569   3.842   3.569   1.122  0.2618 -0.2711 -0.3409
  165TMC2     C 2570   4.141   3.432   1.373 -1.2609  0.1209 -0.1710
  165TMC2     O 2571   4.131   3.314   1.414 -0.0982 -1.0705  0.1293
  165TMC2     H 2572   3.964   3.281   1.250  0.5135 -0.3309 -0.6317
  165TMC2    H1 2573   4.114   3.689   1.274  1.9035 -1.8667 -0.7492
  165TMC2    H2 2574   3.764   3.605   1.057 -0.1974 -1.5580 -0.4923
  165TMC2    C7 2575   3.943   3.791   1.118  0.1590 -0.2119 -0.1949
  165TMC2    C8 2576   3.730   3.352   1.129  0.0706  0.3192  0.4272
  165TMC2    O1 2577   3.987   3.874   1.199 -0.3696  0.2582  0.9926
  165TMC2    O2 2578   3.623   3.412   1.115  0.1882 -0.1698  0.1020
  165TMC2    O5 2579   3.760   3.231   1.077 -0.0696  0.2444  0.0705
  165TMC2    H5 2580   3.855   3.206   1.083 -0.1802 -0.1529  0.1643
  166MPD2     C 2581   4.425   3.458   1.787 -0.1451 -0.4364  0.1479
  166MPD2    C1 2582   4.423   3.359   1.693 -0.2228 -0.0877  0.2323
  166MPD2    C2 2583   4.351   3.383   1.580 -0.6938 -0.7627  0.2728
  166MPD2    C3 2584   4.281   3.506   1.559  0.5836  0.1543 -0.2504
  166MPD2    C4 2585   4.284   3.604   1.655 -1.1546  0.0319 -0.1569
  166MPD2    C5 2586   4.349   3.573   1.771 -0.2968  1.4159 -0.0731
  166MPD2     H 2587   4.356   3.315   1.495 -1.6527 -0.9688  0.3779
  166MPD2    H1 2588   4.234   3.700   1.646 -2.0672 -0.4981 -0.6901
  166MPD2    H2 2589   4.477   3.445   1.882 -1.0560  1.5081  0.9151
  166MPD2    H3 2590   4.355   3.649   1.848 -0.5598  0.8276  0.5197
  166MPD2     N 2591   4.195   3.533   1.450 -0.1283  0.9780  1.1599
  166MPD2    H5 2592   4.153   3.625   1.447 -1.2207  0.5302  2.5146
  166MPD2    N1 2593   4.489   3.242   1.726 -0.7553 -0.0493  0.0136
  166MPD2    H7 2594   4.530   3.228   1.818 -2.7368  1.0871  1.0604
  167TMC2    C1 2595   1.155   0.893  12.343 -0.7898  0.2575  0.6126
  167TMC2    C2 2596   1.038   0.885  12.279  0.2951  0.4067  0.1394
  167TMC2    C3 2597   0.986   0.759  12.258 -0.2770  0.6677  0.5692
  167TMC2    C4 2598   1.232   0.785  12.378  0.3337  0.2835  0.0983
  167TMC2    C5 2599   1.182   0.665  12.352 -0.1857 -0.1394 -0.4551
  167TMC2    C6 2600   1.052   0.649  12.300  0.1620  0.3827 -0.5765
  167TMC2     C 2601   1.208   1.024  12.357  0.2037 -0.0074  0.4948
  167TMC2     O 2602   1.328   1.024  12.368 -0.0369  0.0440  0.6149
  167TMC2     H 2603   0.977   0.966  12.240  0.4261  0.6652  0.4705
  167TMC2    H1 2604   1.323   0.790  12.437  0.6578  0.7821 -0.4476
  167TMC2    H2 2605   1.021   0.546  12.284  0.3347  0.4781 -1.5366
  167TMC2    C7 2606   1.247   0.545  12.405 -0.1521  0.2754 -0.1040
  167TMC2    C8 2607   0.870   0.748  12.164 -0.1853 -0.3520  0.1871
  167TMC2    O1 2608   1.181   0.444  12.418  0.6068 -0.0394 -0.0570
  167TMC2    O2 2609   0.824   0.845  12.106 -0.2174 -0.1243 -0.4702
  167TMC2    O5 2610   0.807   0.627  12.165 -0.1684 -0.3648 -0.3037
  167TMC2    H5 2611   0.852   0.554  12.212  1.0497  1.4285  1.3009
  168MPD2     C 2612   1.282   1.312  12.386  0.2246  0.3552 -0.6122
  168MPD2    C1 2613   1.153   1.264  12.387 -0.4994  0.0280  0.1833
  168MPD2    C2 2614   1.050   1.350  12.403  0.5735  0.1619  0.2623
  168MPD2    C3 2615   1.066   1.486  12.399  0.2523  0.2268 -0.2211
  168MPD2    C4 2616   1.193   1.535  12.403 -0.2913 -0.5875  0.1991
  168MPD2    C5 2617   1.293   1.447  12.399 -0.3149 -0.7703 -0.3759
  168MPD2     H 2618   0.947   1.315  12.410 -0.1212  1.5211 -3.2192
  168MPD2    H1 2619   1.216   1.641  12.402  0.0237 -0.6614 -0.1653
  168MPD2    H2 2620   1.365   1.243  12.392 -0.5866 -0.4945  1.0507
  168MPD2    H3 2621   1.392   1.492  12.402  0.0644 -1.7428  1.7876
  168MPD2     N 2622   0.946   1.563  12.408  1.1096 -0.3865 -0.5803
  168MPD2    H5 2623   0.858   1.516  12.393  1.7442 -1.7891  0.1226
  168MPD2    N1 2624   1.118   1.124  12.368 -0.0680 -1.0632 -0.3382
  168MPD2    H7 2625   1.021   1.097  12.351  0.1470 -1.9448 -0.1925
  169MPD1     C 2626   3.467   1.175   9.301  0.1302 -0.3029  1.2112
  169MPD1    C1 2627   3.417   1.074   9.376  0.7083  0.4332  0.3699
  169MPD1    C2 2628   3.502   0.984   9.435  0.1995  0.0417  0.4704
  169MPD1    C3 2629   3.639   0.989   9.410  0.1407 -0.5046  0.2232
  169MPD1    C4 2630   3.697   1.089   9.328 -0.7445  0.0672 -0.1879
  169MPD1    C5 2631   3.605   1.180   9.280  0.1879  0.4585  0.2269
  169MPD1     H 2632   3.465   0.914   9.509 -1.2324  1.0089  0.6771
  169MPD1    H1 2633   3.803   1.104   9.311 -1.0729  1.3114 -1.1912
  169MPD1    H2 2634   3.413   1.264   9.273  1.4486 -0.1399 -0.8926
  169MPD1    H3 2635   3.643   1.270   9.232  0.9053 -0.0500 -0.1674
  169MPD1     N 2636   3.725   0.895   9.475 -0.4661  0.7636  0.4839
  169MPD1    H5 2637   3.674   0.822   9.524  0.9792  0.4794  1.5748
  169MPD1    N1 2638   3.282   1.083   9.409  0.3633 -0.2735 -0.0816
  169MPD1    H6 2639   3.255   0.991   9.443  1.9717 -0.4816  0.6543
  169MPD1    H7 2640   3.236   1.092   9.319 -1.3745  1.3586  0.9824
  170MPD1     C 2641   2.160   2.861  12.612  0.6042  0.1775 -0.8774
  170MPD1    C1 2642   2.265   2.819  12.688  0.3233  0.7003 -1.1761
  170MPD1    C2 2643   2.268   2.860  12.814 -0.5923 -0.5770 -0.2304
  170MPD1    C3 2644   2.188   2.966  12.868 -0.1528  0.9504 -0.7426
  170MPD1    C4 2645   2.085   3.008  12.786 -0.5854  0.4121 -1.2411
  170MPD1    C5 2646   2.067   2.950  12.662  0.1955  0.7587 -0.2774
  170MPD1     H 2647   2.346   2.819  12.877 -0.3086 -0.1797 -0.3246
  170MPD1    H1 2648   2.019   3.087  12.819  0.8796  1.3193 -0.4791
  170MPD1    H2 2649   2.153   2.827  12.509 -1.7072 -0.0004 -0.6777
  170MPD1    H3 2650   1.983   2.989  12.605 -1.7253  0.3786  2.3273
  170MPD1     N 2651   2.195   3.025  13.001  0.2475  0.5968  0.4906
  170MPD1    H5 2652   2.145   3.111  13.020 -0.0877 -0.0282  2.3412
  170MPD1    N1 2653   2.343   2.715  12.635 -0.6924 -1.0242 -0.0955
  170MPD1    H6 2654   2.356   2.732  12.536 -1.0391  0.6751  0.1430
  170MPD1    H7 2655   2.436   2.731  12.674 -1.8577 -0.9525  2.6695
  171MPD1     C 2656   0.835   4.502  15.291 -0.4846 -0.7268  0.1633
  171MPD1    C1 2657   0.907   4.614  15.329  0.3218  0.4102 -0.4913
  171MPD1    C2 2658   1.012   4.598  15.426  0.6665 -0.0104 -0.5664
  171MPD1    C3 2659   1.028   4.483  15.502  0.3500  0.7966 -0.7859
  171MPD1    C4 2660   0.941   4.376  15.465  0.2131  0.4112  0.2733
  171MPD1    C5 2661   0.846   4.388  15.361 -0.6151  1.1217 -0.4105
  171MPD1     H 2662   1.064   4.688  15.458 -0.7481  0.3727  0.6134
  171MPD1    H1 2663   0.936   4.284  15.521 -2.0301  0.2984 -0.1239
  171MPD1    H2 2664   0.773   4.497  15.202 -0.2634 -0.2233 -0.0232
  171MPD1    H3 2665   0.781   4.307  15.331  1.4613 -0.7934  0.2888
  171MPD1     N 2666   1.117   4.479  15.606 -0.6795 -0.2087  0.5147
  171MPD1    H5 2667   1.162   4.567  15.632  0.7207 -0.6340 -0.4403
  171MPD1    N1 2668   0.903   4.724  15.244  0.0895 -0.1735  0.1633
  171MPD1    H6 2669   0.964   4.712  15.164 -0.6138  0.9266 -0.5374
  171MPD1    H7 2670   0.805   4.731  15.218  0.4188  3.1903 -0.1539
  172MPD1     C 2671   0.826   3.968  17.437 -0.5181  0.1517  0.1388
  172MPD1    C1 2672   0.735   4.054  17.388 -0.3913 -0.4157  0.2736
  172MPD1    C2 2673   0.677   4.140  17.478 -0.4903 -0.0818 -0.6522
  172MPD1    C3 2674   0.710   4.141  17.607 -0.3152  1.0200  0.4201
  172MPD1    C4 2675   0.803   4.061  17.662  0.3109 -0.3309  0.2257
  172MPD1    C5 2676   0.863   3.971  17.572 -0.1425  0.0148  0.6148
  172MPD1     H 2677   0.599   4.205  17.441 -0.2120 -0.5425 -2.0308
  172MPD1    H1 2678   0.819   4.055   0.017  0.0634  1.4664  0.3662
  172MPD1    H2 2679   0.872   3.890  17.377  2.3564  2.9482 -1.2802
  172MPD1    H3 2680   0.925   3.891  17.611  0.3192  0.9062  1.7194
  172MPD1     N 2681   0.639   4.228  17.696  0.7135  0.7026 -0.1565
  172MPD1    H5 2682   0.676   4.222   0.038  0.8725 -0.0714 -0.2688
  172MPD1    N1 2683   0.686   4.033  17.260  0.2219  0.9151 -0.5831
  172MPD1    H6 2684   0.750   3.975  17.205 -0.2220  0.0073 -0.1385
  172MPD1    H7 2685   0.641   4.109  17.209 -0.9224  0.6026 -0.0350
  173MPD1     C 2686   1.253   3.552  13.962  0.1495 -0.5367  0.1022
  173MPD1    C1 2687   1.240   3.574  14.096 -0.0531  0.1441 -0.0168
  173MPD1    C2 2688   1.351   3.577  14.170  0.0203 -0.1838  0.4246
  173MPD1    C3 2689   1.479   3.527  14.129 -0.1553 -0.7519  0.4578
  173MPD1    C4 2690   1.494   3.505  13.995 -0.4890  0.2509 -0.2300
  173MPD1    C5 2691   1.387   3.523  13.914 -0.4802 -0.3927  0.1392
  173MPD1     H 2692   1.341   3.610  14.273 -2.4205  0.3481  0.0087
  173MPD1    H1 2693   1.586   3.480  13.943 -0.0756  2.2412 -0.4683
  173MPD1    H2 2694   1.171   3.564  13.893 -1.7115  0.9356  2.5685
  173MPD1    H3 2695   1.400   3.529  13.807  0.9122 -1.6052  0.2315
  173MPD1     N 2696   1.581   3.512  14.228 -0.1200  0.0435  0.4416
  173MPD1    H5 2697   1.559   3.553  14.319 -1.2898 -0.1940  0.2598
  173MPD1    N1 2698   1.120   3.617  14.148  0.3212 -0.5956 -0.7319
  173MPD1    H6 2699   1.038   3.585  14.096 -0.8512 -0.4125  1.0081
  173MPD1    H7 2700   1.109   3.591  14.245 -0.2065  0.1503 -0.5908
  174MPD1     C 2701   2.430   3.029  14.081 -0.0958  0.3756 -0.3956
  174MPD1    C1 2702   2.406   3.007  14.210 -0.2175  0.7145  0.2980
  174MPD1    C2 2703   2.303   3.076  14.269 -0.5199 -0.0806  0.0849
  174MPD1    C3 2704   2.234   3.176  14.206 -0.6543  0.2146  0.4612
  174MPD1    C4 2705   2.270   3.213  14.080 -0.9119 -0.4375  0.1967
  174MPD1    C5 2706   2.365   3.137  14.014 -0.1124  0.1298 -0.3550
  174MPD1     H 2707   2.280   3.052  14.372 -1.4003 -1.4334 -0.4211
  174MPD1    H1 2708   2.212   3.290  14.030  0.7686  1.2323  0.8304
  174MPD1    H2 2709   2.486   2.962  14.017 -1.9112 -1.4020 -0.1448
  174MPD1    H3 2710   2.359   3.130  13.906 -2.5786  1.5655 -0.3183
  174MPD1     N 2711   2.128   3.237  14.263  0.3340  0.3218 -0.0133
  174MPD1    H5 2712   2.091   3.317  14.212  2.4208  1.4706  0.2342
  174MPD1    N1 2713   2.443   2.882  14.269 -0.0334  0.1984 -0.3360
  174MPD1    H6 2714   2.462   2.893  14.368 -0.0443  1.9290 -0.5125
  174MPD1    H7 2715   2.531   2.841  14.237  0.5959 -0.7943  2.7431
  175MPD1     C 2716   4.576   0.225  14.541  0.1683 -0.5937 -0.3468
  175MPD1    C1 2717   4.584   0.338  14.611 -0.3554  0.7646 -0.0932
  175MPD1    C2 2718   4.654   0.343  14.729 -0.2125 -0.8489  0.5988
  175MPD1    C3 2719   4.697   0.230  14.793 -0.5155  0.1170  0.2436
  175MPD1    C4 2720   4.669   0.111  14.735  1.0326 -0.4787 -0.3502
  175MPD1    C5 2721   4.607   0.110  14.611  0.7811 -0.2314  0.3145
  175MPD1     H 2722   4.670   0.440  14.774 -0.4973  0.9363 -3.1686
  175MPD1    H1 2723   4.712   0.020  14.775 -0.3436 -1.0971 -0.2718
  175MPD1    H2 2724   4.548   0.217  14.436 -0.9824  0.5901 -0.1230
  175MPD1    H3 2725   4.598   0.012  14.565  2.3773 -1.1878  2.0071
  175MPD1     N 2726   0.029   0.219  14.919 -0.5570  0.0858  0.6676
  175MPD1    H5 2727   0.050   0.125  14.952 -1.1538 -0.2315  0.1498
  175MPD1    N1 2728   4.546   0.458  14.557 -0.2819 -0.2137  0.1025
  175MPD1    H6 2729   4.463   0.453  14.498  0.3391  1.8539 -0.9672
  175MPD1    H7 2730   4.536   0.532  14.626  0.2445 -0.2726  0.2431
  176MPD1     C 2731   2.742   2.424   0.152  0.5423  0.2174  0.3134
  176MPD1    C1 2732   2.760   2.548   0.202 -0.0325 -0.0452  0.4085
  176MPD1    C2 2733   2.690   2.651   0.143 -0.6190  0.3177  0.7829
  176MPD1    C3 2734   2.624   2.638   0.025  0.5608  0.2376 -0.0001
  176MPD1    C4 2735   2.596   2.508  17.732 -0.4052  0.5095  0.4789
  176MPD1    C5 2736   2.652   2.400   0.051  0.1530 -0.2539  0.2210
  176MPD1     H 2737   2.694   2.748   0.192  0.6153 -0.0125  1.3429
  176MPD1    H1 2738   2.526   2.486  17.653 -0.9620  1.5975  0.6721
  176MPD1    H2 2739   2.777   2.337   0.207  1.9559  0.7602  0.2752
  176MPD1    H3 2740   2.617   2.298   0.038  0.3165 -0.1926 -0.7206
  176MPD1     N 2741   2.554   2.746  17.722  0.3638 -0.1565  0.7414
  176MPD1    H5 2742   2.568   2.841   0.003 -0.0323  0.1775 -0.0756
  176MPD1    N1 2743   2.813   2.560   0.332 -0.3468  0.0956  0.4337
  176MPD1    H6 2744   2.877   2.483   0.354  1.4084  1.3087 -0.3843
  176MPD1    H7 2745   2.876   2.640   0.338 -0.7933  0.4482  0.3717
  177MPD1     C 2746   0.714   1.222  10.118  0.2906 -0.2567 -0.1341
  177MPD1    C1 2747   0.587   1.193  10.092 -0.4714 -0.2847 -0.4349
  177MPD1    C2 2748   0.515   1.264  10.000 -0.3803  0.5572  0.8102
  177MPD1    C3 2749   0.562   1.379   9.944  0.0798  0.0778  0.3208
  177MPD1    C4 2750   0.690   1.417   9.989 -0.1931 -0.5954 -0.3143
  177MPD1    C5 2751   0.761   1.338  10.076  0.1896  0.7335  0.6634
  177MPD1     H 2752   0.414   1.237   9.971  1.3324 -1.3551 -3.4038
  177MPD1    H1 2753   0.737   1.509   9.956  2.5056 -2.0981 -0.6225
  177MPD1    H2 2754   0.780   1.162  10.180  0.1162  1.6157  1.8639
  177MPD1    H3 2755   0.865   1.356  10.101 -0.2337  0.7755  2.3493
  177MPD1     N 2756   0.485   1.452   9.847  0.0555 -0.7027  0.0112
  177MPD1    H5 2757   0.398   1.415   9.809 -0.2707 -1.8503  1.9062
  177MPD1    N1 2758   0.537   1.065  10.122 -0.1084 -0.4292  0.1256
  177MPD1    H6 2759   0.565   1.043  10.217  0.9106 -0.4010 -0.1628
  177MPD1    H7 2760   0.436   1.071  10.128 -0.0277  1.6632 -0.5672
  178MPD1     C 2761   2.720   3.091   0.160 -0.4049  0.0081  0.7030
  178MPD1    C1 2762   2.692   3.095   0.025  0.2140  0.1539  0.4929
  178MPD1    C2 2763   2.769   3.012  17.696  0.0956  0.1139 -0.1920
  178MPD1    C3 2764   2.875   2.926  17.735  0.6155  0.0079 -0.1647
  178MPD1    C4 2765   2.893   2.921   0.122 -0.0431  1.1886  0.3131
  178MPD1    C5 2766   2.832   3.016   0.201 -0.0392  0.2783 -0.1131
  178MPD1     H 2767   2.756   3.026  17.589  2.2242  2.3589 -0.1530
  178MPD1    H1 2768   2.972   2.859   0.164 -0.6132  0.7690  0.7691
  178MPD1    H2 2769   2.663   3.155   0.225 -0.7543 -0.0678  0.4724
  178MPD1    H3 2770   2.853   3.009   0.308 -3.8916 -2.1643  0.5011
  178MPD1     N 2771   2.958   2.849  17.648  0.1404  0.4106 -0.6459
  178MPD1    H5 2772   3.020   2.784  17.695 -0.5895  0.3485  0.2393
  178MPD1    N1 2773   2.600   3.187  17.729  0.4288  0.1476  0.4611
  178MPD1    H6 2774   2.524   3.203   0.043 -0.7064  1.8221 -1.2478
  178MPD1    H7 2775   2.550   3.166  17.642  0.9528  1.1279 -0.0852
  179MPD1     C 2776   2.635   0.988  15.260 -0.4398  0.4538 -0.2821
  179MPD1    C1 2777   2.660   0.982  15.391 -0.5505  0.4898 -0.4388
  179MPD1    C2 2778   2.571   0.930  15.481  0.2442 -0.2295  0.6129
  179MPD1    C3 2779   2.442   0.908  15.444  0.0501  0.8266 -0.2659
  179MPD1    C4 2780   2.413   0.923  15.302 -0.2794 -0.3744 -0.7256
  179MPD1    C5 2781   2.512   0.955  15.216 -0.2191  0.2350 -0.6491
  179MPD1     H 2782   2.616   0.901  15.575 -0.8987 -1.7985  0.6685
  179MPD1    H1 2783   2.321   0.894  15.252 -2.0495  0.4780  2.0536
  179MPD1    H2 2784   2.715   1.009  15.189  0.9507  0.9146  1.4137
  179MPD1    H3 2785   2.493   0.961  15.110  1.6294  0.7913 -0.9503
  179MPD1     N 2786   2.339   0.848  15.527  0.0999 -0.1062  0.3210
  179MPD1    H5 2787   2.251   0.830  15.482  0.6704  1.5953 -1.4652
  179MPD1    N1 2788   2.794   1.009  15.433  0.1553  0.4346 -0.0076
  179MPD1    H6 2789   2.849   1.066  15.368 -0.3074  0.0005 -0.7802
  179MPD1    H7 2790   2.794   1.050  15.526  2.1158 -1.1360  0.7032
  180MPD1     C 2791   1.982   2.165  15.170 -0.3816  0.3275 -0.1412
  180MPD1    C1 2792   2.003   2.225  15.046 -0.8760 -0.5156  0.0736
  180MPD1    C2 2793   2.002   2.144  14.931 -0.3648 -0.1843  0.1523
  180MPD1    C3 2794   1.975   2.014  14.938 -0.1676  0.1712  0.2333
  180MPD1    C4 2795   1.944   1.957  15.064 -0.7077  0.8104 -0.2899
  180MPD1    C5 2796   1.942   2.033  15.178 -0.5828 -0.0354  0.2351
  180MPD1     H 2797   2.033   2.186  14.836  0.0630 -0.4533  0.1731
  180MPD1    H1 2798   1.935   1.849  15.066 -1.1498  0.7917 -2.3712
  180MPD1    H2 2799   1.980   2.229  15.257 -1.4206  0.0246  0.0576
  180MPD1    H3 2800   1.906   1.985  15.268  1.5613 -1.4951  0.3044
  180MPD1     N 2801   1.993   1.946  14.814 -0.1347 -0.7203  0.3109
  180MPD1    H5 2802   2.031   2.003  14.740  0.4668 -0.3302  0.9227
  180MPD1    N1 2803   2.053   2.357  15.048  0.3133  0.2188 -0.3801
  180MPD1    H6 2804   2.021   2.393  14.959 -0.5068 -0.0042 -0.1759
  180MPD1    H7 2805   2.005   2.421  15.112  1.7528  1.2431 -0.3286
  181MPD1     C 2806   0.471   0.300   9.965  0.5102  0.0534 -0.3028
  181MPD1    C1 2807   0.434   0.184   9.896 -0.3447 -0.1442  0.3478
  181MPD1    C2 2808   0.420   0.076   9.972 -0.4283  0.3909  0.2824
  181MPD1    C3 2809   0.471   0.062  10.096  0.0371 -0.1868 -0.2984
  181MPD1    C4 2810   0.519   0.178  10.158  0.3178 -0.1328  0.3056
  181MPD1    C5 2811   0.496   0.300  10.101 -0.2633 -0.0847 -0.0793
  181MPD1     H 2812   0.380   4.727   9.922  1.6826 -0.1148 -0.5211
  181MPD1    H1 2813   0.544   0.183  10.263  1.6346 -1.0775  0.0291
  181MPD1    H2 2814   0.489   0.395   9.915 -1.7315  1.8897  2.3994
  181MPD1    H3 2815   0.523   0.384  10.164 -2.7118  1.5190 -1.1430
  181MPD1     N 2816   0.452   4.683  10.177  0.0978  0.0304  0.1924
  181MPD1    H5 2817   0.461   4.692  10.278 -0.7816 -0.7769  0.3349
  181MPD1    N1 2818   0.392   0.189   9.762  0.0761  0.0759  0.2923
  181MPD1    H6 2819   0.451   0.251   9.707 -0.0589 -1.7517 -1.9224
  181MPD1    H7 2820   0.405   0.097   9.721  1.5555 -0.0803  1.1020
  182MPD1     C 2821   0.407   3.038   1.228 -0.0873  0.2196 -0.0174
  182MPD1    C1 2822   0.415   2.975   1.107  0.3043 -0.4668 -0.0952
  182MPD1    C2 2823   0.325   3.016   1.010 -0.5164 -0.0016  0.3123
  182MPD1    C3 2824   0.255   3.135   1.023  0.5129  0.2666  0.5211
  182MPD1    C4 2825   0.258   3.205   1.143  0.2734 -0.3337 -0.2871
  182MPD1    C5 2826   0.345   3.165   1.241  0.6200  0.8871  0.5904
  182MPD1     H 2827   0.311   2.943   0.931  0.2919 -0.4143  0.5556
  182MPD1    H1 2828   0.217   3.304   1.156 -1.1513 -0.5590 -3.0423
  182MPD1    H2 2829   0.464   3.001   1.312  0.1396 -1.3126 -0.8611
  182MPD1    H3 2830   0.357   3.221   1.333 -2.1512  1.4563  0.6010
  182MPD1     N 2831   0.160   3.183   0.929  0.3756 -0.2847  0.5738
  182MPD1    H5 2832   0.110   3.269   0.951  1.0476  0.5064 -0.9858
  182MPD1    N1 2833   0.470   2.844   1.104  0.4551  0.0552  0.2693
  182MPD1    H6 2834   0.531   2.817   1.181 -0.3918  2.6210  1.8467
  182MPD1    H7 2835   0.528   2.833   1.021  0.3672 -2.0366  0.4723
  183MPD1     C 2836   4.486   2.133   8.649  0.2881 -0.4412  0.3102
  183MPD1    C1 2837   4.405   2.244   8.638  0.0671  0.4290 -0.2410
  183MPD1    C2 2838   4.461   2.371   8.644  0.1470  0.5743 -0.2058
  183MPD1    C3 2839   4.599   2.382   8.634  0.5311  0.1437 -0.1007
  183MPD1    C4 2840   4.681   2.270   8.619 -0.2275  0.3283 -0.2259
  183MPD1    C5 2841   4.624   2.144   8.636  0.1311  0.5084 -0.2255
  183MPD1     H 2842   4.398   2.457   8.663  0.2903  0.5660  0.3248
  183MPD1    H1 2843   0.050   2.285   8.619 -0.4531  1.9221 -0.8509
  183MPD1    H2 2844   4.448   2.037   8.682 -0.6837 -0.2668 -0.3097
  183MPD1    H3 2845   4.690   2.059   8.649 -2.4492 -1.2506  1.4175
  183MPD1     N 2846   4.654   2.513   8.647  0.0197  0.6993  0.2052
  183MPD1    H5 2847   4.584   2.587   8.653 -0.1485  0.4918  0.8053
  183MPD1    N1 2848   4.273   2.227   8.662  0.2331  0.1871 -0.8635
  183MPD1    H6 2849   4.241   2.142   8.616  1.7347 -0.4009 -0.7932
  183MPD1    H7 2850   4.213   2.304   8.631 -0.0084  0.5527  0.4745
  184MPD1     C 2851   4.163   1.382  10.385  0.6378 -0.6011  0.6335
  184MPD1    C1 2852   4.064   1.418  10.298 -0.1869  0.4269 -0.0199
  184MPD1    C2 2853   4.099   1.435  10.168  0.2538 -0.6502 -0.0342
  184MPD1    C3 2854   4.222   1.413  10.112 -0.2357  0.2461 -0.6926
  184MPD1    C4 2855   4.318   1.374  10.204 -0.0195 -0.0862  0.3594
  184MPD1    C5 2856   4.284   1.348  10.334 -0.8011  0.6836  0.4032
  184MPD1     H 2857   4.012   1.469  10.112  0.3686 -0.1125  0.1093
  184MPD1    H1 2858   4.421   1.355  10.176 -0.0015  1.1653 -0.4259
  184MPD1    H2 2859   4.146   1.374  10.491 -2.2145  1.7955  0.3572
  184MPD1    H3 2860   4.361   1.324  10.408 -0.5464  1.2040  0.3054
  184MPD1     N 2861   4.264   1.438   9.981  0.0673  0.0851  1.1735
  184MPD1    H5 2862   4.363   1.436   9.959  0.3214  0.0533  2.2898
  184MPD1    N1 2863   3.930   1.425  10.343 -0.4110  0.0319 -0.8875
  184MPD1    H6 2864   3.936   1.463  10.437 -0.6166  0.2498 -0.9628
  184MPD1    H7 2865   3.870   1.492  10.297 -0.4661  0.0079 -0.8506
  185MPD1     C 2866   3.706   1.528   9.170  0.0696 -0.5489 -0.0237
  185MPD1    C1 2867   3.830   1.500   9.116 -0.1395 -0.6103  0.4569
  185MPD1    C2 2868   3.941   1.502   9.201  0.0917 -0.0097 -0.6215
  185MPD1    C3 2869   3.932   1.546   9.339 -0.1425  0.8100  0.2862
  185MPD1    C4 2870   3.804   1.572   9.388 -0.6104 -0.0442 -0.7109
  185MPD1    C5 2871   3.695   1.575   9.303 -0.0351 -0.1512 -0.5750
  185MPD1     H 2872   4.040   1.471   9.170  0.0985 -0.8775  0.2614
  185MPD1    H1 2873   3.793   1.578   9.495  0.3340  0.7441 -0.6587
  185MPD1    H2 2874   3.618   1.526   9.107  0.3977  0.3068 -0.5159
  185MPD1    H3 2875   3.597   1.601   9.341 -0.6538  0.0816 -2.3398
  185MPD1     N 2876   4.037   1.529   9.428  0.2777  0.2633 -0.0103
  185MPD1    H5 2877   4.019   1.546   9.527  0.9280  1.2994 -0.0671
  185MPD1    N1 2878   3.851   1.448   8.986 -0.3820  0.4652  0.1461
  185MPD1    H6 2879   3.776   1.474   8.922 -1.1553 -1.5710  0.2131
  185MPD1    H7 2880   3.944   1.458   8.947 -0.7803 -2.4942 -1.5536
  186MPD1     C 2881   2.934   0.594  15.730 -0.0375  0.3553 -0.6173
  186MPD1    C1 2882   2.960   0.707  15.652 -0.7562  0.0454  0.0675
  186MPD1    C2 2883   2.910   0.831  15.695  0.5253 -0.2275  0.3704
  186MPD1    C3 2884   2.855   0.846  15.819 -0.2021 -0.2067 -0.0144
  186MPD1    C4 2885   2.835   0.736  15.900  0.1412 -0.5756  0.2149
  186MPD1    C5 2886   2.879   0.615  15.851  0.4286  0.7849  0.2514
  186MPD1     H 2887   2.929   0.920  15.636 -1.8380 -1.4553 -2.2094
  186MPD1    H1 2888   2.803   0.734  16.003 -1.2877  2.2443 -0.1992
  186MPD1    H2 2889   2.969   0.496  15.700  1.0168  0.5518 -0.0378
  186MPD1    H3 2890   2.875   0.533  15.922 -1.4026  0.8248  0.1921
  186MPD1     N 2891   2.831   0.974  15.883  0.3242  0.4826  0.7199
  186MPD1    H5 2892   2.791   0.966  15.976 -0.1945 -2.3543  0.2650
  186MPD1    N1 2893   3.011   0.690  15.527  0.0253 -0.4633 -0.0090
  186MPD1    H6 2894   3.073   0.609  15.528  1.2191  0.4321 -0.5602
  186MPD1    H7 2895   3.063   0.774  15.501 -0.3399 -0.1372  0.3126
  187MPD1     C 2896   2.247   3.462   0.144 -1.0775 -0.1807 -0.2100
  187MPD1    C1 2897   2.360   3.452   0.062  0.4993 -0.3465 -0.0119
  187MPD1    C2 2898   2.327   3.469  17.680  0.6114  0.0798 -0.4398
  187MPD1    C3 2899   2.198   3.490  17.637  0.6390  0.5360 -0.6880
  187MPD1    C4 2900   2.093   3.491  17.723 -0.9335  0.2651 -0.3896
  187MPD1    C5 2901   2.118   3.478   0.103  0.6051 -0.3708  0.3555
  187MPD1     H 2902   2.408   3.463  17.608  0.0925  0.2704 -1.0321
  187MPD1    H1 2903   1.991   3.492  17.685 -0.7736  1.0825 -0.7969
  187MPD1    H2 2904   2.265   3.478   0.250 -0.4509  0.0427 -0.3544
  187MPD1    H3 2905   2.032   3.464   0.168  0.1186 -1.0580 -0.4434
  187MPD1     N 2906   2.169   3.479  17.498 -0.2582 -0.0400 -0.2604
  187MPD1    H5 2907   2.070   3.461  17.483  0.0403 -1.8407 -0.0137
  187MPD1    N1 2908   2.496   3.443   0.109 -0.3792  0.0604  0.7289
  187MPD1    H6 2909   2.494   3.385   0.193 -1.5346 -2.6820 -1.1706
  187MPD1    H7 2910   2.534   3.387   0.033  1.7851 -0.7398  2.4119
  188MPD1     C 2911   2.138   2.866  10.054  0.3254  0.9056 -0.1160
  188MPD1    C1 2912   2.076   2.777   9.976  0.8321  0.3776 -0.8095
  188MPD1    C2 2913   2.016   2.664  10.020 -0.5261  0.4514  0.3605
  188MPD1    C3 2914   2.015   2.638  10.158  0.0556 -0.7304  0.2330
  188MPD1    C4 2915   2.078   2.726  10.238 -0.6723  0.5221 -0.1621
  188MPD1    C5 2916   2.133   2.840  10.187 -0.1750 -0.0995  0.0510
  188MPD1     H 2917   1.973   2.590   9.953 -1.9362  0.3935  1.3147
  188MPD1    H1 2918   2.070   2.715  10.345 -0.5449 -1.6197 -0.3769
  188MPD1    H2 2919   2.187   2.957  10.020 -2.2052  2.7855  1.2583
  188MPD1    H3 2920   2.182   2.912  10.252 -0.3107  0.6557 -0.6842
  188MPD1     N 2921   1.947   2.528  10.213  0.0106  0.6283 -0.0015
  188MPD1    H5 2922   1.959   2.517  10.313  2.0593  0.2235 -0.3030
  188MPD1    N1 2923   2.074   2.800   9.836 -0.1591  0.5656 -0.2473
  188MPD1    H6 2924   2.141   2.873   9.816 -0.8697  1.0511 -0.8701
  188MPD1    H7 2925   2.088   2.723   9.770 -0.9055  0.4800 -0.3088
  189MPD1     C 2926   4.320   3.903   0.390 -0.0539  0.8447  0.0984
  189MPD1    C1 2927   4.300   4.040   0.422 -0.6014  0.0383  0.2646
  189MPD1    C2 2928   4.170   4.085   0.419 -0.0538  0.2752  0.5317
  189MPD1    C3 2929   4.068   4.011   0.361 -0.0001 -0.4116  0.7801
  189MPD1    C4 2930   4.095   3.877   0.334 -0.2632  0.5598 -0.3922
  189MPD1    C5 2931   4.218   3.828   0.337 -0.1199  0.2936  0.8551
  189MPD1     H 2932   4.147   4.179   0.469  0.8029  1.6120 -1.6043
  189MPD1    H1 2933   4.019   3.813   0.291  0.3821 -1.5755  1.6541
  189MPD1    H2 2934   4.421   3.864   0.384 -0.4734 -0.5521  2.3124
  189MPD1    H3 2935   4.232   3.722   0.319  1.0070  0.1326  2.7284
  189MPD1     N 2936   3.938   4.078   0.343 -0.1553 -0.4579 -0.0755
  189MPD1    H5 2937   3.931   4.173   0.377 -0.6674 -0.1396 -1.0717
  189MPD1    N1 2938   4.406   4.112   0.477  0.3089  0.7627  0.1283
  189MPD1    H6 2939   4.385   4.210   0.455 -0.6913  0.1277 -1.7475
  189MPD1    H7 2940   4.498   4.097   0.436  0.0014  1.7700 -0.9609
  190MPD1     C 2941   2.298   2.016  15.307 -1.0340  0.4562 -0.5944
  190MPD1    C1 2942   2.365   2.064  15.197  0.7849  0.1778 -0.4595
  190MPD1    C2 2943   2.493   2.100  15.223  0.8568  0.2521  0.0466
  190MPD1    C3 2944   2.547   2.096  15.351  0.0563 -0.1970 -0.5468
  190MPD1    C4 2945   2.474   2.040  15.451  0.0532 -0.4856  0.0217
  190MPD1    C5 2946   2.340   2.023  15.430 -0.3729 -0.6509 -0.2275
  190MPD1     H 2947   2.555   2.133  15.140 -0.1731 -1.2556 -1.3415
  190MPD1    H1 2948   2.510   2.012  15.549 -0.3890 -2.0178 -0.2544
  190MPD1    H2 2949   2.198   1.977  15.293 -1.8536  1.5237  2.3281
  190MPD1    H3 2950   2.279   1.996  15.516  0.6817  0.2399  0.8015
  190MPD1     N 2951   2.675   2.147  15.374 -0.4611  0.3530  0.6549
  190MPD1    H5 2952   2.716   2.207  15.303  2.0520  0.9858  2.6287
  190MPD1    N1 2953   2.323   2.029  15.068  0.1689 -0.1661  0.5697
  190MPD1    H6 2954   2.368   2.091  15.001  1.2673 -0.7831  0.7464
  190MPD1    H7 2955   2.222   2.031  15.053  0.6699 -1.8049 -2.8225
  191MPD1     C 2956   1.565   3.146  13.039  0.0403 -0.6986 -0.1293
  191MPD1    C1 2957   1.622   3.169  12.917 -0.6070  0.8502 -0.3706
  191MPD1    C2 2958   1.571   3.277  12.853 -0.0625  0.3315  0.0642
  191MPD1    C3 2959   1.471   3.356  12.895 -0.1087 -0.0352  0.1276
  191MPD1    C4 2960   1.415   3.332  13.021  0.7122  0.5869 -0.3025
  191MPD1    C5 2961   1.464   3.226  13.089  0.7080 -0.0726 -0.4265
  191MPD1     H 2962   1.618   3.298  12.757 -1.6235 -0.5010 -0.8768
  191MPD1    H1 2963   1.333   3.390  13.059 -0.1546  0.4372 -1.9225
  191MPD1    H2 2964   1.605   3.068  13.103  0.2314 -0.2561  0.2887
  191MPD1    H3 2965   1.419   3.208  13.186 -0.1751  1.5350 -0.5387
  191MPD1     N 2966   1.442   3.465  12.817 -0.3912  0.0798 -0.0014
  191MPD1    H5 2967   1.513   3.477  12.745 -1.3946  1.2081 -0.7958
  191MPD1    N1 2968   1.739   3.097  12.868  0.2282  0.0859  0.7026
  191MPD1    H6 2969   1.752   3.006  12.913 -1.6970 -0.4571  0.1900
  191MPD1    H7 2970   1.732   3.078  12.768  1.5544  0.0440  0.6168
  192MPD1     C 2971   0.544   3.912  12.643  0.1742 -0.1332 -0.3089
  192MPD1    C1 2972   0.639   3.999  12.694 -0.1448  0.0625  0.0294
  192MPD1    C2 2973   0.774   3.966  12.683  0.6338 -0.0554  0.7381
  192MPD1    C3 2974   0.818   3.852  12.617  0.6794 -0.4720 -0.1733
  192MPD1    C4 2975   0.721   3.777  12.559 -0.8738  0.4133 -0.0856
  192MPD1    C5 2976   0.590   3.803  12.580 -0.1253  0.7278  0.1271
  192MPD1     H 2977   0.844   4.032  12.732  0.1698  0.1195  1.1665
  192MPD1    H1 2978   0.755   3.684  12.514  0.1649  0.1333  1.2652
  192MPD1    H2 2979   0.438   3.932  12.652 -0.0835 -1.4101 -0.6130
  192MPD1    H3 2980   0.507   3.745  12.542 -0.2230  1.8273 -1.3499
  192MPD1     N 2981   0.952   3.817  12.600 -0.4588  0.2869  0.0300
  192MPD1    H5 2982   0.974   3.744  12.533  0.6432  1.8229 -1.2777
  192MPD1    N1 2983   0.597   4.117  12.755  0.0567 -0.0737  0.3565
  192MPD1    H6 2984   0.593   4.107  12.857  0.8186  1.3119  0.5273
  192MPD1    H7 2985   0.497   4.119  12.737 -0.2913 -1.8237  2.0323
  193MPD1     C 2986   0.961   4.576  16.714 -0.0106 -0.2534  0.4873
  193MPD1    C1 2987   0.988   4.534  16.587 -0.3332  0.2537 -0.5501
  193MPD1    C2 2988   1.078   4.604  16.509 -0.2159  0.6517 -0.1692
  193MPD1    C3 2989   1.129   4.717  16.562 -0.4963  0.1937 -0.2022
  193MPD1    C4 2990   1.079   0.029  16.680  0.0175  0.6666 -0.4440
  193MPD1    C5 2991   1.005   4.690  16.763 -0.7711  0.0173  0.8335
  193MPD1     H 2992   1.106   4.569  16.411  1.3127  0.0205  0.5020
  193MPD1    H1 2993   1.110   0.127  16.714  0.7249  1.1700 -2.5063
  193MPD1    H2 2994   0.901   4.529  16.790  2.5474 -0.8536  2.1037
  193MPD1    H3 2995   0.959   4.720  16.856 -0.9320 -0.9065  1.0505
  193MPD1     N 2996   1.241   0.051  16.507  0.5033  0.1208  0.1331
  193MPD1    H5 2997   1.272   0.131  16.561  2.5682 -0.6531  0.0723
  193MPD1    N1 2998   0.903   4.430  16.535  1.1449  0.3720 -0.8504
  193MPD1    H6 2999   0.939   4.376  16.456  0.5609 -0.1178 -0.7844
  193MPD1    H7 3000   0.874   4.370  16.612 -0.3754  1.7592 -0.3281
  194MPD1     C 3001   3.558   2.181  16.800  1.2257  0.0126 -0.5276
  194MPD1    C1 3002   3.489   2.065  16.816  0.1010 -0.6190  0.5990
  194MPD1    C2 3003   3.563   1.950  16.798  0.4893 -0.4720 -0.1263
  194MPD1    C3 3004   3.702   1.944  16.774  0.6180 -0.2116  0.1816
  194MPD1    C4 3005   3.773   2.062  16.778 -0.1244 -0.4974 -0.5316
  194MPD1    C5 3006   3.699   2.173  16.786  0.5576 -0.2833  0.4479
  194MPD1     H 3007   3.509   1.856  16.800  2.2597 -1.4513  1.1674
  194MPD1    H1 3008   3.880   2.066  16.760 -0.6031 -0.1760 -3.2638
  194MPD1    H2 3009   3.512   2.279  16.809 -1.3049 -1.2410  0.0156
  194MPD1    H3 3010   3.754   2.267  16.793  1.4673 -0.8512  0.9245
  194MPD1     N 3011   3.771   1.820  16.766 -0.4090  0.3683 -0.2737
  194MPD1    H5 3012   3.871   1.835  16.758 -0.0807 -0.6348  1.8314
  194MPD1    N1 3013   3.345   2.066  16.826  0.3971  0.0318  0.3982
  194MPD1    H6 3014   3.309   1.995  16.889 -0.8264 -1.7213 -2.2742
  194MPD1    H7 3015   3.323   2.157  16.867 -0.2073  0.9849 -2.0509
  195MPD1     C 3016   1.567   4.225  17.551 -0.6898  0.8089  0.0275
  195MPD1    C1 3017   1.449   4.209  17.625 -0.3604  0.4530  0.1984
  195MPD1    C2 3018   1.439   4.091  17.695 -0.1083 -0.0071 -0.5316
  195MPD1    C3 3019   1.535   3.995  17.702  0.2132  0.2694  0.2520
  195MPD1    C4 3020   1.653   4.026  17.631  0.8474  0.3471 -0.2504
  195MPD1    C5 3021   1.664   4.134  17.555 -0.5487 -0.4925  0.5445
  195MPD1     H 3022   1.346   4.078  17.748 -0.1477  1.3076 -0.2839
  195MPD1    H1 3023   1.735   3.958  17.612  0.4129  0.3502 -2.1084
  195MPD1    H2 3024   1.566   4.309  17.483 -0.6626  0.9901  0.2547
  195MPD1    H3 3025   1.761   4.151  17.509 -0.1084 -1.5684  1.0758
  195MPD1     N 3026   1.531   3.869   0.017  0.2157 -1.1411  0.5667
  195MPD1    H5 3027   1.617   3.815   0.007  0.6307 -0.3036 -0.4105
  195MPD1    N1 3028   1.336   4.302  17.612 -0.0492  0.0340 -0.2042
  195MPD1    H6 3029   1.289   4.329  17.698  0.4368  0.6605 -0.1325
  195MPD1    H7 3030   1.374   4.393  17.587 -0.7170 -0.0006 -1.3210
  196MPD1     C 3031   0.511   2.543   0.129  0.6287 -0.4680  0.5988
  196MPD1    C1 3032   0.534   2.665   0.065  0.1801 -0.2179 -0.0706
  196MPD1    C2 3033   0.530   2.784   0.135  0.2073  0.4615 -0.5858
  196MPD1    C3 3034   0.501   2.780   0.271 -0.7556 -0.5849 -0.1380
  196MPD1    C4 3035   0.462   2.662   0.331  0.2228 -0.3097 -0.6468
  196MPD1    C5 3036   0.470   2.543   0.256 -0.5574  0.6428 -0.4182
  196MPD1     H 3037   0.560   2.877   0.089  0.2925  1.0654  0.6937
  196MPD1    H1 3038   0.435   2.664   0.437  1.4364 -0.0025 -0.3510
  196MPD1    H2 3039   0.519   2.445   0.083  1.6660 -0.2580  0.3319
  196MPD1    H3 3040   0.430   2.455   0.304  2.4993 -0.5573 -0.0631
  196MPD1     N 3041   0.505   2.894   0.355 -0.1891 -0.2127  0.5191
  196MPD1    H5 3042   0.495   2.877   0.454 -0.2435  0.1310  0.5733
  196MPD1    N1 3043   0.588   2.662  17.684 -0.1664  0.0465 -0.3140
  196MPD1    H6 3044   0.568   2.757  17.653  0.5524  0.3357  0.1040
  196MPD1    H7 3045   0.540   2.595  17.624 -2.2770 -0.7801  2.2756
  197MPD1     C 3046   0.153   4.326  17.144  0.0161 -0.5003  0.4552
  197MPD1    C1 3047   0.208   4.418  17.225  0.0893  0.3909  0.1021
  197MPD1    C2 3048   0.258   4.540  17.156  0.8620 -0.2516 -0.0404
  197MPD1    C3 3049   0.242   4.553  17.020  0.4035  0.2769 -0.3817
  197MPD1    C4 3050   0.167   4.457  16.953 -0.1038 -0.3275 -0.5493
  197MPD1    C5 3051   0.129   4.349  17.015 -0.5406  0.2350 -0.4237
  197MPD1     H 3052   0.309   4.613  17.217 -0.6066  0.3760  0.4357
  197MPD1    H1 3053   0.152   4.452  16.845 -0.6657  0.6317 -0.5171
  197MPD1    H2 3054   0.114   4.233  17.182 -0.8050  1.1173  3.5411
  197MPD1    H3 3055   0.084   4.267  16.961 -0.2413  0.8402 -1.5971
  197MPD1     N 3056   0.295   4.656  16.940  0.2101 -0.4572 -0.3320
  197MPD1    H5 3057   0.281   4.639  16.840  2.2579  2.7712 -1.1595
  197MPD1    N1 3058   0.215   4.413  17.364 -0.5069 -0.1054 -0.3335
  197MPD1    H6 3059   0.225   4.320  17.403 -0.7645 -0.0107 -0.0497
  197MPD1    H7 3060   0.299   4.462  17.395 -1.4730  0.8477  0.7324
  198MPD1     C 3061   3.771   3.342  16.192 -0.1903  0.0252  0.2378
  198MPD1    C1 3062   3.700   3.384  16.079 -0.4944  0.3183 -0.1434
  198MPD1    C2 3063   3.561   3.388  16.085  0.4058  0.1348  0.0123
  198MPD1    C3 3064   3.492   3.357  16.201 -0.4048 -0.0961  0.0692
  198MPD1    C4 3065   3.560   3.304  16.302  0.3376  0.6947  0.1295
  198MPD1    C5 3066   3.697   3.297  16.296  0.3409  0.1202 -0.5258
  198MPD1     H 3067   3.504   3.429  16.002 -0.3681  1.8563  1.3984
  198MPD1    H1 3068   3.514   3.257  16.388  0.2234 -0.4206 -0.5518
  198MPD1    H2 3069   3.879   3.346  16.197 -0.1881 -0.0471  0.2499
  198MPD1    H3 3070   3.755   3.264  16.381 -0.3598 -0.6057 -0.3340
  198MPD1     N 3071   3.352   3.366  16.204 -0.8180  0.1714  0.3583
  198MPD1    H5 3072   3.314   3.432  16.137 -0.0270 -1.2257 -1.4588
  198MPD1    N1 3073   3.762   3.433  15.965 -0.1289 -0.1952 -0.5450
  198MPD1    H6 3074   3.726   3.518  15.921  1.2852  1.1031  0.8316
  198MPD1    H7 3075   3.862   3.420  15.955  0.2251  1.6477  0.7204
  199MPD1     C 3076   4.490   4.385  10.287 -0.4768  0.3423 -0.6890
  199MPD1    C1 3077   4.382   4.307  10.309  0.5533  0.1897 -0.0729
  199MPD1    C2 3078   4.275   4.315  10.214 -0.5549 -0.2440 -0.6175
  199MPD1    C3 3079   4.275   4.388  10.098  0.3658 -0.8815 -0.1986
  199MPD1    C4 3080   4.387   4.457  10.075 -0.8044  0.3237  0.4645
  199MPD1    C5 3081   4.491   4.453  10.168  0.1958  0.3639  0.1015
  199MPD1     H 3082   4.189   4.255  10.241  1.8854 -2.7283  1.7726
  199MPD1    H1 3083   4.402   4.511   9.982  0.5583 -1.9690 -0.6334
  199MPD1    H2 3084   4.570   4.405  10.358 -0.1909  0.7619 -1.1354
  199MPD1    H3 3085   4.575   4.517  10.144  2.2630 -2.8176 -1.1172
  199MPD1     N 3086   4.170   4.395  10.001  1.1893 -0.1602  0.1749
  199MPD1    H5 3087   4.183   4.459   9.923 -0.5761  0.2786  0.2447
  199MPD1    N1 3088   4.360   4.248  10.437 -0.0812  0.1506  0.2454
  199MPD1    H6 3089   4.447   4.224  10.484 -0.7980  0.9990  2.0242
  199MPD1    H7 3090   4.306   4.162  10.444 -0.1679  0.2796  1.2309
  200MPD1     C 3091   3.548   4.356  15.221 -0.0128 -0.4165  0.1612
  200MPD1    C1 3092   3.441   4.302  15.148  0.1010  0.3222  0.7488
  200MPD1    C2 3093   3.432   4.332  15.020 -0.0753  1.0608  0.9429
  200MPD1    C3 3094   3.521   4.429  14.964  0.2770  0.0507 -0.2860
  200MPD1    C4 3095   3.612   4.488  15.041  0.1026 -0.1189 -0.2474
  200MPD1    C5 3096   3.627   4.455  15.172 -0.2131  0.0183  0.6302
  200MPD1     H 3097   3.356   4.290  14.955 -0.4974  0.0308  2.1035
  200MPD1    H1 3098   3.668   4.577  15.012  1.7670 -1.5483 -1.3956
  200MPD1    H2 3099   3.572   4.315  15.319 -0.6704  0.4772  0.6987
  200MPD1    H3 3100   3.703   4.505  15.230 -0.7330 -0.4800  1.7403
  200MPD1     N 3101   3.510   4.471  14.829 -0.0109 -0.8639  0.3146
  200MPD1    H5 3102   3.446   4.413  14.774 -0.8404 -1.1603  1.6015
  200MPD1    N1 3103   3.373   4.192  15.204 -0.2157  0.0658  0.8831
  200MPD1    H6 3104   3.279   4.183  15.165  0.8176 -0.8212 -1.3691
  200MPD1    H7 3105   3.362   4.192  15.305 -3.0785  0.1970  0.5899
  201MPD1     C 3106   1.828   2.083  13.305  0.8148  0.6583 -0.5443
  201MPD1    C1 3107   1.754   1.970  13.277  0.0183  0.1416  0.2895
  201MPD1    C2 3108   1.628   1.956  13.329 -0.3101 -0.7032  0.6845
  201MPD1    C3 3109   1.565   2.056  13.397  0.0698  0.6800 -0.6144
  201MPD1    C4 3110   1.643   2.170  13.428  0.1234 -0.7506  0.4274
  201MPD1    C5 3111   1.767   2.184  13.383  0.0449 -0.1806  0.2959
  201MPD1     H 3112   1.569   1.865  13.317  0.3549 -1.1145  0.5564
  201MPD1    H1 3113   1.592   2.252  13.478  1.2808  1.4741 -2.0147
  201MPD1    H2 3114   1.928   2.095  13.266  1.0544  0.8475  0.1317
  201MPD1    H3 3115   1.822   2.272  13.416  0.5921 -0.5611  0.4082
  201MPD1     N 3116   1.432   2.031  13.431  0.5565 -0.0380 -0.6794
  201MPD1    H5 3117   1.408   1.939  13.396  3.7154 -1.1132 -0.0694
  201MPD1    N1 3118   1.822   1.873  13.198 -0.0166  0.5281  0.2307
  201MPD1    H6 3119   1.920   1.885  13.171  0.1591 -0.8840  0.2658
  201MPD1    H7 3120   1.774   1.785  13.183 -0.0894  0.8963 -1.6746
  202MPD1     C 3121   1.009   2.029   8.372 -0.0242 -0.0295 -0.1235
  202MPD1    C1 3122   1.067   1.951   8.469  0.0341  0.2989 -0.3288
  202MPD1    C2 3123   1.019   1.972   8.601 -0.5923  0.2877  0.2870
  202MPD1    C3 3124   0.962   2.094   8.633 -0.2531  0.2782  0.1292
  202MPD1    C4 3125   0.927   2.179   8.535 -0.2363 -0.0336  0.0461
  202MPD1    C5 3126   0.944   2.147   8.403 -0.1737  0.5451 -1.1985
  202MPD1     H 3127   1.044   1.904   8.682 -0.1054 -1.8823 -1.6609
  202MPD1    H1 3128   0.885   2.275   8.562  2.3021  1.7468 -2.3240
  202MPD1    H2 3129   1.023   2.007   8.267 -0.6645  1.3265 -0.4957
  202MPD1    H3 3130   0.920   2.224   8.331 -1.4746  1.3280  0.0915
  202MPD1     N 3131   0.946   2.132   8.769  0.3018 -0.4336 -0.6782
  202MPD1    H5 3132   0.909   2.224   8.789  1.5770  0.4660 -2.4439
  202MPD1    N1 3133   1.110   1.825   8.432 -0.1468 -0.1345 -0.2583
  202MPD1    H6 3134   1.154   1.841   8.342 -0.1432  2.4715  0.2037
  202MPD1    H7 3135   1.174   1.787   8.501 -0.4408  0.1769  0.1867
  203MPD1     C 3136   4.053   3.469  12.038  0.5383 -0.5911 -0.3148
  203MPD1    C1 3137   4.102   3.362  11.972 -0.2137 -0.4255  0.0691
  203MPD1    C2 3138   4.218   3.303  12.018  0.6259  0.2025  0.5201
  203MPD1    C3 3139   4.269   3.330  12.149 -0.7432  0.4052 -0.8532
  203MPD1    C4 3140   4.209   3.428  12.221 -0.3946  0.1953  0.3210
  203MPD1    C5 3141   4.100   3.492  12.164  0.8741  0.1492  0.2202
  203MPD1     H 3142   4.263   3.221  11.963  0.1034  0.7111 -0.6630
  203MPD1    H1 3143   4.232   3.448  12.325 -1.1294  1.0554  0.3237
  203MPD1    H2 3144   3.964   3.523  12.006  0.0726 -0.8874  0.4785
  203MPD1    H3 3145   4.049   3.563  12.228  0.4179 -1.5115  1.7212
  203MPD1     N 3146   4.376   3.260  12.198  0.7665 -0.1501 -0.3097
  203MPD1    H5 3147   4.409   3.185  12.139 -0.2248 -0.5704 -0.3324
  203MPD1    N1 3148   4.044   3.323  11.851 -0.4304 -0.1495  0.0624
  203MPD1    H6 3149   4.075   3.235  11.812 -0.5231 -0.6777  1.1685
  203MPD1    H7 3150   3.942   3.325  11.860 -0.3295 -0.5213  1.2845
  204MPD1     C 3151   0.081   0.608  17.295 -0.3134  0.5649 -0.1652
  204MPD1    C1 3152   0.039   0.645  17.168 -0.5868 -0.2302 -0.2458
  204MPD1    C2 3153   4.656   0.590  17.127 -0.6321  0.4132 -0.2665
  204MPD1    C3 3154   4.602   0.473  17.183 -0.0040 -0.3311 -0.3206
  204MPD1    C4 3155   4.662   0.428  17.300 -0.1229 -0.4891  0.3405
  204MPD1    C5 3156   0.024   0.499  17.359  0.8084  0.3211  0.3988
  204MPD1     H 3157   4.610   0.641  17.043 -1.2253  1.3478  0.6267
  204MPD1    H1 3158   4.629   0.341  17.355  0.2682  1.4047  3.5371
  204MPD1    H2 3159   0.164   0.653  17.347 -0.1761  1.8537 -1.4922
  204MPD1    H3 3160   0.064   0.469  17.455 -2.8775 -1.1332  1.4828
  204MPD1     N 3161   4.489   0.417  17.125  0.4994  0.7988 -0.1254
  204MPD1    H5 3162   4.464   0.476  17.046 -1.5758  0.4482  0.2767
  204MPD1    N1 3163   0.102   0.756  17.104 -0.2674  0.3751  0.5230
  204MPD1    H6 3164   0.201   0.745  17.123 -0.2850  0.9685  0.9536
  204MPD1    H7 3165   0.086   0.764  17.004  0.2525  1.5219  0.5315
  205MPD1     C 3166   0.066   4.107   0.399  0.9372  0.3141  0.2301
  205MPD1    C1 3167   0.005   3.992   0.362 -0.1749 -0.4980  0.2366
  205MPD1    C2 3168   4.642   4.000   0.270 -0.3374 -0.3056  0.2306
  205MPD1    C3 3169   4.604   4.126   0.212 -0.1335 -0.6485 -0.6424
  205MPD1    C4 3170   4.662   4.235   0.262  0.0134  0.1713  0.0827
  205MPD1    C5 3171   0.031   4.234   0.353 -0.3122  0.4119 -0.1558
  205MPD1     H 3172   4.595   3.908   0.238  1.2272 -1.0129 -0.0386
  205MPD1    H1 3173   4.622   4.330   0.230 -0.7689 -0.4175 -0.6932
  205MPD1    H2 3174   0.151   4.103   0.467  0.8605 -0.7683  0.2632
  205MPD1    H3 3175   0.077   4.326   0.388  0.4431  0.6835 -1.8671
  205MPD1     N 3176   4.498   4.141   0.121  0.9358  0.2285 -0.1014
  205MPD1    H5 3177   4.466   4.233   0.093  2.6465 -0.1402 -3.3334
  205MPD1    N1 3178   0.043   3.859   0.389 -0.4621 -0.8787  0.1231
  205MPD1    H6 3179   4.714   3.783   0.382 -1.0356 -0.4766  1.1486
  205MPD1    H7 3180   0.085   3.854   0.482  0.3880 -0.3776 -0.2389
  206MPD1     C 3181   4.500   1.999  16.900  0.2636 -0.0575  0.4074
  206MPD1    C1 3182   4.423   2.083  16.816  0.8130 -0.2221  0.3233
  206MPD1    C2 3183   4.365   2.017  16.706  0.1830 -0.1935  0.1555
  206MPD1    C3 3184   4.398   1.890  16.680 -0.1754  0.1691  0.5139
  206MPD1    C4 3185   4.478   1.815  16.761  0.2768  0.3491  0.1673
  206MPD1    C5 3186   4.526   1.868  16.872 -0.1217 -0.7593  0.2917
  206MPD1     H 3187   4.298   2.078  16.647  1.2120  0.7037 -0.1061
  206MPD1    H1 3188   4.499   1.709  16.747 -0.9909  0.1891 -0.5114
  206MPD1    H2 3189   4.549   2.042  16.987  0.6037  1.7630 -0.6815
  206MPD1    H3 3190   4.583   1.807  16.941  0.3427  0.0831  0.6486
  206MPD1     N 3191   4.341   1.817  16.568  0.4444  0.8682 -0.5712
  206MPD1    H5 3192   4.381   1.724  16.566 -2.1190 -0.2652  0.2387
  206MPD1    N1 3193   4.382   2.210  16.850  0.4487  0.0585  0.2701
  206MPD1    H6 3194   4.390   2.264  16.765  0.8762 -0.1471  0.1815
  206MPD1    H7 3195   4.461   2.260  16.888  0.3365 -1.7854  2.9620
  207MPD1     C 3196   1.376   0.027   9.926  0.3633  0.0865 -0.6627
  207MPD1    C1 3197   1.448   0.132   9.981 -0.2774  0.0658 -0.6381
  207MPD1    C2 3198   1.585   0.110  10.004  0.1444 -0.6223  0.0118
  207MPD1    C3 3199   1.635   4.726  10.003 -0.2310  0.0942 -0.1780
  207MPD1    C4 3200   1.563   4.616   9.954 -0.2937 -0.8226 -0.2725
  207MPD1    C5 3201   1.433   4.639   9.911 -0.6665 -0.2221 -0.8837
  207MPD1     H 3202   1.641   0.192  10.046  0.2580 -0.3710 -0.6368
  207MPD1    H1 3203   1.600   4.515   9.957  0.4055 -0.6322 -2.2700
  207MPD1    H2 3204   1.276   0.044   9.887  0.3209  3.4237  0.9524
  207MPD1    H3 3205   1.380   4.551   9.877  1.4647 -0.9882 -2.1806
  207MPD1     N 3206   1.770   4.689  10.042  0.1717  0.5958 -0.6397
  207MPD1    H5 3207   1.805   4.595  10.030 -1.7493 -0.3134  0.7848
  207MPD1    N1 3208   1.398   0.260   9.968  0.1803  0.6598 -0.8953
  207MPD1    H6 3209   1.299   0.267   9.990  0.3005  0.2873 -0.2475
  207MPD1    H7 3210   1.440   0.326  10.033 -0.8141 -1.2156  1.6448
  208MPD1     C 3211   4.403   2.564  16.958  0.1271  0.0240  0.0061
  208MPD1    C1 3212   4.481   2.614  17.057 -0.8541  0.0237 -1.2111
  208MPD1    C2 3213   4.436   2.684  17.160 -0.3155  0.1854  0.7034
  208MPD1    C3 3214   4.310   2.705  17.181 -1.3203  0.7031 -0.0105
  208MPD1    C4 3215   4.223   2.666  17.079 -0.8522  0.7437  0.1079
  208MPD1    C5 3216   4.267   2.595  16.975 -0.6642  0.0940  0.8606
  208MPD1     H 3217   4.510   2.728  17.226 -1.4661  0.8462  1.5317
  208MPD1    H1 3218   4.115   2.675  17.090 -0.7719  0.5780  1.0438
  208MPD1    H2 3219   4.439   2.516  16.868  0.2581 -0.3148  0.2395
  208MPD1    H3 3220   4.209   2.557  16.892  0.0763  1.3041 -0.2164
  208MPD1     N 3221   4.267   2.777  17.301 -0.1215 -0.1032 -0.5553
  208MPD1    H5 3222   4.341   2.816  17.359 -2.8229  1.8856  1.5342
  208MPD1    N1 3223   4.618   2.606  17.035  0.1845  0.1460  0.3174
  208MPD1    H6 3224   4.662   2.594  17.126 -0.1204 -0.7312  0.3570
  208MPD1    H7 3225   4.633   2.518  16.985 -0.1835 -0.4441  1.2331
  209MPD1     C 3226   1.773   3.308  10.827  0.0782  0.8101  0.8385
  209MPD1    C1 3227   1.771   3.410  10.733 -0.1635  0.3687  0.1916
  209MPD1    C2 3228   1.840   3.520  10.752  0.0490  0.7757  0.1937
  209MPD1    C3 3229   1.926   3.538  10.860 -1.0819  0.1660 -0.1218
  209MPD1    C4 3230   1.940   3.435  10.956 -0.0378  0.2180  0.0421
  209MPD1    C5 3231   1.863   3.323  10.935 -0.7045 -0.1980 -0.1836
  209MPD1     H 3232   1.829   3.599  10.680  1.4021  0.9926  0.2231
  209MPD1    H1 3233   1.995   3.452  11.048 -1.7213 -1.7297  1.4189
  209MPD1    H2 3234   1.704   3.224  10.832 -0.3102  1.1546  1.2426
  209MPD1    H3 3235   1.856   3.248  11.013  0.6040 -2.0042 -1.7972
  209MPD1     N 3236   1.984   3.668  10.867  0.0182 -0.2148  0.2663
  209MPD1    H5 3237   1.967   3.730  10.788 -0.4012  0.3278  0.7755
  209MPD1    N1 3238   1.678   3.418  10.626  0.2489  0.9453  0.2310
  209MPD1    H6 3239   1.656   3.322  10.599  0.3379  1.0093 -0.0751
  209MPD1    H7 3240   1.726   3.457  10.545 -1.0411  0.2814 -0.8420
  210MPD1     C 3241   2.095   4.146  11.704  0.2061  0.7968 -1.0300
  210MPD1    C1 3242   2.012   4.213  11.614 -0.1411 -0.1358 -0.3064
  210MPD1    C2 3243   2.045   4.194  11.482  1.1702 -0.1614 -0.1320
  210MPD1    C3 3244   2.137   4.102  11.432  0.5085 -0.3784 -0.3413
  210MPD1    C4 3245   2.214   4.036  11.525 -0.1212 -0.4757 -0.2289
  210MPD1    C5 3246   2.184   4.054  11.658 -0.0486  0.2860  0.5322
  210MPD1     H 3247   1.995   4.245  11.401 -0.6689  0.6380  1.5036
  210MPD1    H1 3248   2.292   3.966  11.498  0.3396  0.0069 -0.1472
  210MPD1    H2 3249   2.092   4.168  11.810 -1.7096  1.4745 -1.2216
  210MPD1    H3 3250   2.247   4.002  11.730  2.0444 -0.1539 -1.6108
  210MPD1     N 3251   2.169   4.074  11.299 -0.9156 -0.3555  0.3855
  210MPD1    H5 3252   2.233   3.996  11.285 -1.1106 -0.5360  0.5084
  210MPD1    N1 3253   1.929   4.314  11.664  0.2876  0.6498  0.1947
  210MPD1    H6 3254   1.881   4.277  11.746  0.2304  0.3653  0.0304
  210MPD1    H7 3255   1.853   4.336  11.600  0.2852  0.4770  0.1385
  211MPD1     C 3256   0.091   3.250  16.583  0.5346  0.6839  0.2675
  211MPD1    C1 3257   4.728   3.166  16.623 -0.9094 -0.1237 -0.0965
  211MPD1    C2 3258   4.599   3.190  16.573  0.3104 -0.5607  0.6927
  211MPD1    C3 3259   4.576   3.290  16.481 -0.4124  0.2626 -0.0315
  211MPD1    C4 3260   4.682   3.365  16.438  0.0394 -0.5996 -0.1972
  211MPD1    C5 3261   0.071   3.340  16.482 -0.3083  0.3034 -0.3900
  211MPD1     H 3262   4.517   3.129  16.610 -0.3336  0.5139  1.0324
  211MPD1    H1 3263   4.667   3.441  16.362 -0.2935  0.1038  0.5663
  211MPD1    H2 3264   0.196   3.235  16.608  1.0187  0.6149 -1.7626
  211MPD1    H3 3265   0.153   3.406  16.457  1.4167 -1.7061  0.0195
  211MPD1     N 3266   4.440   3.323  16.462  0.5978 -0.1887 -0.3428
  211MPD1    H5 3267   4.373   3.258  16.502  1.3449 -0.0346  1.1692
  211MPD1    N1 3268   0.004   3.084  16.737 -0.1302  0.0437  0.0387
  211MPD1    H6 3269   0.094   3.037  16.733 -1.2372 -1.8733 -2.2759
  211MPD1    H7 3270   4.663   3.021  16.749  0.3711 -0.5661  0.1668
  212MPD1     C 3271   3.784   2.153  16.412 -0.1874  0.3341 -0.0819
  212MPD1    C1 3272   3.649   2.190  16.416  0.2536  0.5131  0.3277
  212MPD1    C2 3273   3.552   2.090  16.432  0.1722  0.0254 -0.2101
  212MPD1    C3 3274   3.591   1.956  16.450  0.6883  0.1033  0.8718
  212MPD1    C4 3275   3.724   1.923  16.446  0.5000  0.2617  0.3722
  212MPD1    C5 3276   3.816   2.025  16.423 -0.0974  0.2427  0.5143
  212MPD1     H 3277   3.445   2.107  16.434 -0.1663 -2.1865  1.2710
  212MPD1    H1 3278   3.759   1.821  16.450  1.0477  0.5305  2.2488
  212MPD1    H2 3279   3.851   2.236  16.393 -1.6734  1.5365 -0.0273
  212MPD1    H3 3280   3.920   1.998  16.427 -0.0408  0.4378  0.3450
  212MPD1     N 3281   3.507   1.853  16.477  0.1034 -0.2739 -0.0444
  212MPD1    H5 3282   3.553   1.773  16.519 -0.3508  0.7874  2.4626
  212MPD1    N1 3283   3.622   2.319  16.379 -0.4539 -0.2871  0.6008
  212MPD1    H6 3284   3.533   2.355  16.414 -1.2552 -0.9580 -0.7447
  212MPD1    H7 3285   3.689   2.393  16.398  1.0717 -1.3914 -0.5595
  213MPD1     C 3286   2.651   3.096  15.001  0.0457  0.0014  1.1692
  213MPD1    C1 3287   2.657   3.195  15.099  0.3856  0.1742 -0.4922
  213MPD1    C2 3288   2.635   3.157  15.230 -0.0224  0.4474 -0.8031
  213MPD1    C3 3289   2.667   3.025  15.269  0.0515 -0.1566 -0.0177
  213MPD1    C4 3290   2.691   2.932  15.170 -0.3540 -0.4573  0.2304
  213MPD1    C5 3291   2.681   2.969  15.038 -0.4173  0.1667 -0.0091
  213MPD1     H 3292   2.612   3.229  15.308 -1.6586 -2.4039  1.3600
  213MPD1    H1 3293   2.711   2.830  15.200  1.9386  0.0265  0.3800
  213MPD1    H2 3294   2.650   3.119  14.895  2.3655 -2.2719  0.6604
  213MPD1    H3 3295   2.689   2.893  14.961 -1.1760 -0.9095  0.9660
  213MPD1     N 3296   2.658   2.994  15.410  0.3285 -0.2771  0.1925
  213MPD1    H5 3297   2.610   3.059  15.472 -0.4573 -1.3944  0.7524
  213MPD1    N1 3298   2.615   3.321  15.052  0.2464 -0.0914  0.1633
  213MPD1    H6 3299   2.657   3.381  15.123  0.7715 -0.8897  0.5345
  213MPD1    H7 3300   2.664   3.345  14.967  0.3310  0.5379  0.3892
  214MPD1     C 3301   2.536   2.106  16.066  0.2020 -0.6261 -0.8943
  214MPD1    C1 3302   2.566   2.117  15.934  0.6468 -0.0124  0.2514
  214MPD1    C2 3303   2.595   2.243  15.879  0.2940 -0.5294 -0.0393
  214MPD1    C3 3304   2.579   2.354  15.955  0.2719  0.4330 -0.9648
  214MPD1    C4 3305   2.537   2.345  16.086  0.6995 -0.4442 -0.0848
  214MPD1    C5 3306   2.525   2.222  16.140 -0.3498  0.1082 -0.2870
  214MPD1     H 3307   2.616   2.255  15.773  2.1210  2.2453  0.6340
  214MPD1    H1 3308   2.537   2.436  16.146  1.9415 -0.0790 -0.6225
  214MPD1    H2 3309   2.535   2.005  16.106 -0.5368  0.0685  0.8721
  214MPD1    H3 3310   2.517   2.220  16.248 -1.1572  0.9430 -0.3296
  214MPD1     N 3311   2.588   2.486  15.901  0.0231 -0.4643 -0.4189
  214MPD1    H5 3312   2.569   2.564  15.963  0.8874  0.5125 -1.3777
  214MPD1    N1 3313   2.541   2.012  15.845 -0.3168  0.0253 -0.3556
  214MPD1    H6 3314   2.546   1.917  15.884 -0.5258 -1.1335 -3.1875
  214MPD1    H7 3315   2.596   2.005  15.759 -1.5848 -0.1170 -1.1421
  215MPD1     C 3316   1.238   3.032  10.747 -0.3153  0.3433  0.5744
  215MPD1    C1 3317   1.362   3.004  10.793  0.7148 -0.5858 -0.1267
  215MPD1    C2 3318   1.423   3.103  10.869 -0.1479  0.2254  0.5267
  215MPD1    C3 3319   1.363   3.217  10.920 -0.3073  0.0550  0.3192
  215MPD1    C4 3320   1.234   3.237  10.875  0.3729 -0.2991  0.3056
  215MPD1    C5 3321   1.173   3.149  10.788 -0.0460 -0.8027 -0.1038
  215MPD1     H 3322   1.524   3.076  10.897  0.2649  0.0433 -1.1677
  215MPD1    H1 3323   1.180   3.324  10.908 -1.4892 -0.8055 -1.4350
  215MPD1    H2 3324   1.176   2.970  10.683  0.3881  0.9491 -0.7169
  215MPD1    H3 3325   1.069   3.166  10.761  0.5165  1.6012 -0.7842
  215MPD1     N 3326   1.432   3.300  11.013 -0.1003 -0.6104 -0.5541
  215MPD1    H5 3327   1.509   3.263  11.067 -0.5638 -0.1502  0.4238
  215MPD1    N1 3328   1.436   2.900  10.746 -0.5070 -0.1672  0.4338
  215MPD1    H6 3329   1.507   2.870  10.813  0.9187  2.1918 -0.0511
  215MPD1    H7 3330   1.375   2.821  10.726  0.7813 -0.4739 -2.3494
  216MPD1     C 3331   3.695   1.042  16.866  0.5132  0.6490  0.4125
  216MPD1    C1 3332   3.798   0.954  16.864 -0.1982  0.7983 -0.0031
  216MPD1    C2 3333   3.788   0.844  16.945  0.7096 -0.3979  0.3022
  216MPD1    C3 3334   3.679   0.818  17.028  0.0548 -0.5780 -0.6118
  216MPD1    C4 3335   3.576   0.912  17.034 -0.1185 -0.1474  0.0262
  216MPD1    C5 3336   3.584   1.018  16.949  0.8762  0.0175  0.3094
  216MPD1     H 3337   3.868   0.770  16.949  0.3366 -0.6957  2.3090
  216MPD1    H1 3338   3.488   0.907  17.097  0.6010 -2.5530  0.8246
  216MPD1    H2 3339   3.702   1.132  16.806  2.0118  0.4562  0.2981
  216MPD1    H3 3340   3.502   1.089  16.948 -0.9374 -2.0755 -0.3344
  216MPD1     N 3341   3.678   0.701  17.101  0.1594  0.1629 -0.2864
  216MPD1    H5 3342   3.759   0.644  17.080 -1.1596 -1.9437  0.3435
  216MPD1    N1 3343   3.915   0.982  16.800 -0.0416 -0.3768  0.2927
  216MPD1    H6 3344   3.909   1.054  16.729  0.2668  1.0145  1.6690
  216MPD1    H7 3345   3.956   0.900  16.757  0.1416 -0.1209 -0.0184
  217MPD1     C 3346   3.484   3.271   8.894  0.0912 -0.0172  0.5942
  217MPD1    C1 3347   3.574   3.204   8.826 -0.1564  0.1279 -0.8819
  217MPD1    C2 3348   3.689   3.162   8.887 -0.4217 -0.1481 -0.2389
  217MPD1    C3 3349   3.718   3.204   9.015  0.7898 -0.0936 -0.3398
  217MPD1    C4 3350   3.627   3.291   9.081  1.0259 -0.2834  0.5187
  217MPD1    C5 3351   3.512   3.323   9.019  0.1217  0.4555 -0.3106
  217MPD1     H 3352   3.761   3.109   8.826 -0.1798 -0.5468  0.3902
  217MPD1    H1 3353   3.652   3.331   9.179  0.1475 -0.8692  0.9863
  217MPD1    H2 3354   3.385   3.284   8.851  0.5627 -2.5748 -1.3111
  217MPD1    H3 3355   3.438   3.372   9.080  0.1782  0.2890 -0.1073
  217MPD1     N 3356   3.840   3.166   9.082  0.2604  0.0107  0.3682
  217MPD1    H5 3357   3.853   3.209   9.173  1.2979  1.9812 -0.7269
  217MPD1    N1 3358   3.540   3.153   8.699  0.5210  0.2257 -0.2426
  217MPD1    H6 3359   3.483   3.215   8.642 -1.2054 -0.3815  0.8453
  217MPD1    H7 3360   3.623   3.128   8.645  1.9719  0.8436  1.7066
  218MPD1     C 3361   1.133   3.044  13.462 -0.1222 -0.1753 -0.0738
  218MPD1    C1 3362   1.244   2.977  13.420  0.6289  0.3980 -0.3093
  218MPD1    C2 3363   1.266   2.963  13.282  0.1175  0.0950 -0.4815
  218MPD1    C3 3364   1.186   3.026  13.188  0.3004 -0.1887  0.4238
  218MPD1    C4 3365   1.086   3.113  13.232 -0.5179 -0.7390 -0.1710
  218MPD1    C5 3366   1.069   3.124  13.367 -0.6371  0.5045 -0.1912
  218MPD1     H 3367   1.347   2.902  13.242  0.0623  0.3919 -1.0531
  218MPD1    H1 3368   1.014   3.156  13.163  1.2040  0.9615 -0.8903
  218MPD1    H2 3369   1.104   3.052  13.566 -1.9012  0.5352 -0.6176
  218MPD1    H3 3370   0.990   3.183  13.411 -0.0069  0.6557  0.7378
  218MPD1     N 3371   1.213   3.008  13.055  0.7372 -0.4143 -0.1300
  218MPD1    H5 3372   1.288   2.939  13.049  0.6776 -0.4104 -0.9250
  218MPD1    N1 3373   1.314   2.891  13.504 -0.4508  0.5075  0.3168
  218MPD1    H6 3374   1.411   2.882  13.475 -0.5679  0.7017 -0.1299
  218MPD1    H7 3375   1.325   2.926  13.599 -0.7341  1.2810  0.0663
  219MPD1     C 3376   1.437   3.344  12.044  0.4785  0.0674  0.6744
  219MPD1    C1 3377   1.330   3.381  12.123 -0.1216 -0.2297 -0.0911
  219MPD1    C2 3378   1.321   3.316  12.248  0.2490  0.2681 -0.1769
  219MPD1    C3 3379   1.416   3.224  12.284 -0.0919  0.8282 -0.0414
  219MPD1    C4 3380   1.517   3.190  12.199 -0.0862 -0.1694  0.1577
  219MPD1    C5 3381   1.532   3.257  12.080  0.2227 -0.7987  0.2775
  219MPD1     H 3382   1.238   3.326  12.318 -0.2363 -1.6423 -0.4607
  219MPD1    H1 3383   1.596   3.121  12.227  2.0534  1.7356 -1.1934
  219MPD1    H2 3384   1.437   3.378  11.941  0.4974  0.0954  0.6835
  219MPD1    H3 3385   1.614   3.232  12.014 -0.5204  0.5125 -1.1456
  219MPD1     N 3386   1.404   3.158  12.404 -0.1234  0.2305  0.6658
  219MPD1    H5 3387   1.458   3.073  12.409 -2.3040 -1.2428 -1.0922
  219MPD1    N1 3388   1.240   3.468  12.066 -0.2374 -0.3301 -0.5133
  219MPD1    H6 3389   1.201   3.527  12.139 -1.6287 -1.3822 -0.4129
  219MPD1    H7 3390   1.302   3.533  12.019  0.8715 -1.6202 -0.8611
  220MPD1     C 3391   1.123   0.295  10.205  0.8654 -0.1469 -0.1429
  220MPD1    C1 3392   1.201   0.261  10.315  0.3543  0.1350 -0.0249
  220MPD1    C2 3393   1.233   0.135  10.344 -0.6568 -0.1715  0.0836
  220MPD1    C3 3394   1.190   0.039  10.259 -0.3200 -0.0873 -0.6455
  220MPD1    C4 3395   1.105   0.065  10.152 -0.6580 -0.0087 -0.2124
  220MPD1    C5 3396   1.068   0.196  10.123  0.4001 -0.4071 -0.1401
  220MPD1     H 3397   1.288   0.113  10.435 -0.4998  2.1252  0.5476
  220MPD1    H1 3398   1.069   4.726  10.085 -0.0545  0.6266 -1.2828
  220MPD1    H2 3399   1.119   0.401  10.181  1.4154 -0.2897 -0.8489
  220MPD1    H3 3400   1.012   0.221  10.034  2.1348  2.3059 -0.4754
  220MPD1     N 3401   1.229   4.640  10.290  0.1227  0.2467 -0.6168
  220MPD1    H5 3402   1.290   4.627  10.370 -1.4674  1.5512  0.8352
  220MPD1    N1 3403   1.266   0.364  10.384  0.5136 -0.0902 -0.9254
  220MPD1    H6 3404   1.298   0.333  10.475 -2.2404 -0.0314  0.0805
  220MPD1    H7 3405   1.196   0.438  10.393  2.1033  0.9196  3.1483
  221MPD1     C 3406   0.333   2.450  16.933 -0.1937  0.1114 -0.2207
  221MPD1    C1 3407   0.370   2.411  16.807 -0.1425 -0.5999  0.1813
  221MPD1    C2 3408   0.299   2.474  16.707  0.2585  0.2998 -0.3030
  221MPD1    C3 3409   0.188   2.560  16.724 -0.1076  0.4174  0.3677
  221MPD1    C4 3410   0.163   2.597  16.857 -0.0463  0.4646  0.5780
  221MPD1    C5 3411   0.236   2.540  16.959 -0.3212  0.6223 -0.0243
  221MPD1     H 3412   0.331   2.449  16.606 -0.3228  2.3009 -0.9852
  221MPD1    H1 3413   0.079   2.664  16.870 -1.2104 -1.1882  1.5244
  221MPD1    H2 3414   0.383   2.393  17.011  1.2540  0.3571 -0.9674
  221MPD1    H3 3415   0.204   2.567  17.059  0.6009 -0.0459  0.4491
  221MPD1     N 3416   0.108   2.624  16.624 -0.2836 -0.3033 -0.2505
  221MPD1    H5 3417   0.049   2.703  16.649  3.5237  2.2874  0.6523
  221MPD1    N1 3418   0.490   2.335  16.785 -0.0766  0.4554  0.3941
  221MPD1    H6 3419   0.510   2.264  16.855 -2.0781  0.5326  1.0436
  221MPD1    H7 3420   0.472   2.287  16.696 -0.4997  0.6545  0.3740
  222MPD1     C 3421   3.684   1.427  17.016  0.5917 -0.4765  0.0832
  222MPD1    C1 3422   3.800   1.499  17.049 -0.4614  0.0343 -0.2928
  222MPD1    C2 3423   3.782   1.632  17.079  0.2035  0.2532  0.3024
  222MPD1    C3 3424   3.663   1.695  17.063 -0.5942 -0.1181  1.1502
  222MPD1    C4 3425   3.558   1.626  17.018 -0.0626  0.2262 -0.3036
  222MPD1    C5 3426   3.564   1.493  17.001 -0.3659  0.5207 -0.3830
  222MPD1     H 3427   3.870   1.684  17.115  0.9148 -0.8247  0.1097
  222MPD1    H1 3428   3.465   1.680  17.005 -0.5019 -0.6662 -0.8936
  222MPD1    H2 3429   3.684   1.320  17.000  0.8682 -0.6872  1.4331
  222MPD1    H3 3430   3.480   1.428  16.979  0.2830 -0.0593 -1.1985
  222MPD1     N 3431   3.644   1.833  17.086 -0.5719  0.0610 -0.4652
  222MPD1    H5 3432   3.547   1.864  17.084 -0.7592 -0.4605  0.9188
  222MPD1    N1 3433   3.921   1.440  17.082 -0.1518  0.1803 -0.4782
  222MPD1    H6 3434   3.930   1.347  17.040  0.5704 -0.6141  1.4451
  222MPD1    H7 3435   3.995   1.500  17.045  2.3001 -1.3770  1.9476
  223MPD1     C 3436   2.946   2.261  17.558  0.6716 -0.2808 -0.0774
  223MPD1    C1 3437   3.050   2.330  17.614  0.5773 -0.2182  0.5076
  223MPD1    C2 3438   3.166   2.338  17.544 -0.2905  0.4406  0.1987
  223MPD1    C3 3439   3.189   2.271  17.425 -0.2373 -0.2584 -1.0624
  223MPD1    C4 3440   3.079   2.211  17.362 -0.6880 -0.0003  0.0321
  223MPD1    C5 3441   2.960   2.205  17.430  0.1644  0.4607 -0.3217
  223MPD1     H 3442   3.258   2.376  17.585  1.1512  0.2602 -2.8780
  223MPD1    H1 3443   3.087   2.158  17.268  0.8992  0.2421  0.0297
  223MPD1    H2 3444   2.846   2.246  17.597 -0.5385 -0.4240 -3.2281
  223MPD1    H3 3445   2.888   2.148  17.372  0.4258 -0.6152  0.4148
  223MPD1     N 3446   3.318   2.256  17.370 -0.2090 -0.4365 -0.1336
  223MPD1    H5 3447   3.396   2.294  17.422  0.7039 -1.6128 -0.6626
  223MPD1    N1 3448   3.039   2.371  17.748  0.2186  0.2309 -0.3548
  223MPD1    H6 3449   3.115   2.433   0.022  0.8115 -1.1132  1.1190
  223MPD1    H7 3450   2.952   2.423   0.011  0.0529 -0.7248  2.1320
  224MPD1     C 3451   4.197   3.571   9.132  0.2011  0.6534  0.1815
  224MPD1    C1 3452   4.241   3.689   9.189  0.2362  0.5838  0.2227
  224MPD1    C2 3453   4.358   3.690   9.261 -0.3208  0.1743 -0.4392
  224MPD1    C3 3454   4.444   3.584   9.260 -0.2313 -0.7431  0.0561
  224MPD1    C4 3455   4.401   3.470   9.200 -0.0082 -0.0725  0.3702
  224MPD1    C5 3456   4.286   3.470   9.133 -0.1646  0.4870 -0.1731
  224MPD1     H 3457   4.381   3.779   9.319 -0.5776 -0.1141  0.1008
  224MPD1    H1 3458   4.454   3.375   9.202  1.8461  1.0186  2.6114
  224MPD1    H2 3459   4.103   3.560   9.078  0.1793 -0.3175  0.4113
  224MPD1    H3 3460   4.266   3.379   9.078 -0.0504 -0.4793  1.3716
  224MPD1     N 3461   4.559   3.583   9.341 -0.3042  0.1996 -0.1200
  224MPD1    H5 3462   4.608   3.493   9.346 -0.0170  0.3539 -0.1466
  224MPD1    N1 3463   4.159   3.804   9.187 -0.5254  0.4945  0.3805
  224MPD1    H6 3464   4.210   3.886   9.220 -2.3562  1.6773  0.3113
  224MPD1    H7 3465   4.108   3.815   9.099 -1.1980  1.9875  0.9420
  225MPD1     C 3466   1.365   4.168  12.605 -0.0772 -1.2430 -0.0755
  225MPD1    C1 3467   1.360   4.098  12.483  0.0483 -0.3224 -0.4613
  225MPD1    C2 3468   1.237   4.081  12.421 -0.3896 -0.4494  0.6134
  225MPD1    C3 3469   1.124   4.138  12.482 -0.1148 -0.7082 -0.2713
  225MPD1    C4 3470   1.129   4.218  12.596 -0.4556  0.3252  0.2905
  225MPD1    C5 3471   1.251   4.233  12.655 -0.1145 -0.9537  0.5710
  225MPD1     H 3472   1.234   4.010  12.339 -3.1216  0.0632  0.2957
  225MPD1    H1 3473   1.037   4.259  12.637  0.3371 -0.4798  2.8665
  225MPD1    H2 3474   1.459   4.176  12.659 -0.4504  1.0648  0.1980
  225MPD1    H3 3475   1.270   4.297  12.740 -1.4397 -1.1004  0.9688
  225MPD1     N 3476   0.991   4.120  12.443 -0.8462 -0.4383 -0.1219
  225MPD1    H5 3477   0.920   4.154  12.507 -1.6675  0.8864 -1.7538
  225MPD1    N1 3478   1.469   4.022  12.447  0.0600  0.0785 -0.5201
  225MPD1    H6 3479   1.470   3.999  12.348  1.4676 -2.1220 -0.0176
  225MPD1    H7 3480   1.561   4.051  12.480  0.7538 -3.1107  0.3641
  226MPD1     C 3481   0.308   3.681   9.199  0.0838  0.7535 -0.1466
  226MPD1    C1 3482   0.292   3.599   9.094 -0.2668 -0.5896 -0.5785
  226MPD1    C2 3483   0.163   3.611   9.037 -0.1054 -0.0069 -0.3806
  226MPD1    C3 3484   0.056   3.692   9.075 -0.0472 -0.2029  0.2154
  226MPD1    C4 3485   0.082   3.777   9.182 -0.1252 -0.2220  1.1663
  226MPD1    C5 3486   0.212   3.774   9.235 -0.0461 -0.2975  0.3119
  226MPD1     H 3487   0.136   3.553   8.949 -2.6897  1.4992 -0.5736
  226MPD1    H1 3488   0.015   3.856   9.213  0.0594  1.0023 -1.4902
  226MPD1    H2 3489   0.404   3.686   9.249  0.9610 -2.7072 -1.4849
  226MPD1    H3 3490   0.239   3.831   9.323 -0.2422 -0.0309  0.2004
  226MPD1     N 3491   4.683   3.700   8.991  0.2458 -0.1260 -0.1364
  226MPD1    H5 3492   4.670   3.626   8.922 -0.5067  1.2968 -1.5134
  226MPD1    N1 3493   0.397   3.524   9.038 -0.0050 -0.5322  0.9423
  226MPD1    H6 3494   0.470   3.498   9.103  2.9683  0.7748 -1.8638
  226MPD1    H7 3495   0.387   3.432   8.996 -2.0079  0.1644 -0.1139
  227MPD1     C 3496   4.104   4.496   8.808  0.9431  0.5868 -0.1782
  227MPD1    C1 3497   4.239   4.482   8.767  0.5164  0.2870  0.0853
  227MPD1    C2 3498   4.286   4.350   8.772 -0.6986 -0.0672  0.3389
  227MPD1    C3 3499   4.204   4.240   8.809  0.5349 -0.0528 -0.0667
  227MPD1    C4 3500   4.069   4.265   8.832  0.5056 -0.3997  0.0014
  227MPD1    C5 3501   4.026   4.393   8.829 -0.3037 -0.9871 -0.1745
  227MPD1     H 3502   4.389   4.331   8.745 -0.3024  1.1990  0.9437
  227MPD1    H1 3503   3.998   4.186   8.851 -0.8961  0.6584 -0.9103
  227MPD1    H2 3504   4.049   4.590   8.808  0.0970  0.0854 -0.8719
  227MPD1    H3 3505   3.922   4.406   8.858 -0.0618  1.2750 -0.3407
  227MPD1     N 3506   4.262   4.112   8.808 -0.1752  0.5968 -0.0354
  227MPD1    H5 3507   4.360   4.105   8.783 -1.1948 -3.7095 -2.8746
  227MPD1    N1 3508   4.330   4.585   8.757 -0.1536 -0.2856 -0.9094
  227MPD1    H6 3509   4.400   4.573   8.684  2.2840 -2.8668  1.8494
  227MPD1    H7 3510   4.291   4.678   8.743 -1.1442 -0.8131 -1.6573
  228MPD1     C 3511   3.862   1.616  12.935 -0.3160 -0.6120 -0.4974
  228MPD1    C1 3512   3.787   1.715  12.870 -0.1502  0.2556  0.5225
  228MPD1    C2 3513   3.655   1.704  12.881 -0.0631  0.4682  0.3410
  228MPD1    C3 3514   3.588   1.597  12.950  0.0843 -0.2072  0.0848
  228MPD1    C4 3515   3.667   1.492  12.998  0.4374 -0.0113 -0.7453
  228MPD1    C5 3516   3.807   1.508  12.994 -0.4436  1.0020 -0.1410
  228MPD1     H 3517   3.594   1.789  12.853  0.6158  0.8555  0.0354
  228MPD1    H1 3518   3.627   1.400  13.039  3.1240 -1.3077 -1.0036
  228MPD1    H2 3519   3.970   1.610  12.923 -0.2933 -1.6550  0.1874
  228MPD1    H3 3520   3.879   1.433  13.026 -0.4887  0.9233 -0.2237
  228MPD1     N 3521   3.446   1.606  12.964 -0.3956 -0.4326 -0.0322
  228MPD1    H5 3522   3.400   1.686  12.922 -0.3644  0.4863  1.7138
  228MPD1    N1 3523   3.862   1.820  12.801  0.1132 -0.4168  0.2066
  228MPD1    H6 3524   3.960   1.821  12.827 -0.0732 -1.1634  0.9268
  228MPD1    H7 3525   3.825   1.914  12.813 -0.8077 -0.7627  0.1337
  229MPD1     C 3526   2.490   0.970  14.339  0.1559 -0.3875 -0.2742
  229MPD1    C1 3527   2.554   1.065  14.424 -0.7849 -0.7271 -0.4583
  229MPD1    C2 3528   2.611   1.020  14.543  0.4885  0.0109 -0.6466
  229MPD1    C3 3529   2.621   0.883  14.562 -0.0743 -0.1196 -0.1842
  229MPD1    C4 3530   2.567   0.797  14.477 -0.0075  0.2956  0.1434
  229MPD1    C5 3531   2.503   0.837  14.368 -0.8706 -0.6775 -0.2529
  229MPD1     H 3532   2.641   1.092  14.618 -0.5897  0.1946 -0.3998
  229MPD1    H1 3533   2.566   0.691  14.499 -1.0553 -0.0735 -1.6239
  229MPD1    H2 3534   2.425   1.004  14.260  0.9274  1.0023 -0.2952
  229MPD1    H3 3535   2.457   0.764  14.303 -0.8410  1.2081 -2.3759
  229MPD1     N 3536   2.675   0.830  14.682 -0.3392  1.1846  0.2318
  229MPD1    H5 3537   2.688   0.730  14.677 -1.2121  1.1924 -2.6480
  229MPD1    N1 3538   2.528   1.198  14.404  0.0372  0.0908  0.6871
  229MPD1    H6 3539   2.525   1.233  14.309 -1.1073  0.6949  0.9486
  229MPD1    H7 3540   2.586   1.262  14.458  0.5397  2.2132 -2.4305
  230MPD1     C 3541   3.339   0.932  15.554  0.1530 -0.5682  0.1153
  230MPD1    C1 3542   3.376   0.817  15.487 -0.3764  0.4825  0.7183
  230MPD1    C2 3543   3.290   0.782  15.384  0.3470 -0.4892 -0.0299
  230MPD1    C3 3544   3.191   0.864  15.334 -0.3833  0.2424 -0.4023
  230MPD1    C4 3545   3.165   0.983  15.394  0.2696  0.3725 -0.2226
  230MPD1    C5 3546   3.231   1.015  15.511 -0.1507 -0.0052  0.6088
  230MPD1     H 3547   3.314   0.694  15.325  1.6073  0.1655 -0.4949
  230MPD1    H1 3548   3.089   1.051  15.359  0.3713  0.7763  0.3475
  230MPD1    H2 3549   3.389   0.958  15.646 -0.5251  0.2943  0.2459
  230MPD1    H3 3550   3.201   1.110  15.556 -1.4504 -0.9288  1.6863
  230MPD1     N 3551   3.112   0.826  15.225 -0.2656 -0.4773  0.5417
  230MPD1    H5 3552   3.130   0.746  15.165  0.8448 -0.3298  0.6653
  230MPD1    N1 3553   3.486   0.734  15.526 -0.2756  0.1458 -0.5004
  230MPD1    H6 3554   3.512   0.660  15.461 -0.5608 -1.0180  0.7214
  230MPD1    H7 3555   3.565   0.786  15.565  0.9412  0.2776 -3.0955
  231MPD1     C 3556   0.781   2.583  15.567 -0.3721 -0.5764 -0.2003
  231MPD1    C1 3557   0.894   2.629  15.617  0.0946  0.0328  0.5494
  231MPD1    C2 3558   0.993   2.662  15.526 -0.1553  0.6521 -0.6580
  231MPD1    C3 3559   0.979   2.644  15.390 -0.7835  0.1353  0.2507
  231MPD1    C4 3560   0.868   2.585  15.342  0.5584  0.1736 -0.7452
  231MPD1    C5 3561   0.765   2.565  15.431 -0.2419  0.4286  0.3771
  231MPD1     H 3562   1.089   2.697  15.564 -0.7129  1.4212  0.0223
  231MPD1    H1 3563   0.839   2.579  15.238  3.2556 -1.5051 -1.3930
  231MPD1    H2 3564   0.696   2.559  15.629 -0.1477 -0.0288  0.3140
  231MPD1    H3 3565   0.668   2.529  15.398 -0.4570  2.5467 -1.2991
  231MPD1     N 3566   1.080   2.691  15.304  0.3437  0.4715 -0.1105
  231MPD1    H5 3567   1.174   2.686  15.344  0.4332 -2.2818 -0.6439
  231MPD1    N1 3568   0.912   2.630  15.756  0.3047 -0.6667 -0.1552
  231MPD1    H6 3569   0.827   2.655  15.805  1.9785  0.7610  2.0438
  231MPD1    H7 3570   0.990   2.693  15.774 -1.1803  0.3272  2.7495
  232MPD1     C 3571   2.716   0.987   0.558 -0.4342 -0.1388 -0.0733
  232MPD1    C1 3572   2.709   0.881   0.470  0.2530 -1.1349  0.2874
  232MPD1    C2 3573   2.617   0.882   0.372  0.2818  0.6624  0.2637
  232MPD1    C3 3574   2.534   0.989   0.344 -0.5736  0.1931  0.6349
  232MPD1    C4 3575   2.539   1.097   0.429 -0.2359  0.4877 -0.2870
  232MPD1    C5 3576   2.628   1.094   0.535  0.2219 -0.2305 -0.2398
  232MPD1     H 3577   2.613   0.796   0.306 -1.9499  0.2825  0.9219
  232MPD1    H1 3578   2.477   1.186   0.416 -0.1497  0.9240  2.1375
  232MPD1    H2 3579   2.787   0.982   0.639 -1.2725  2.8219  0.8177
  232MPD1    H3 3580   2.640   1.190   0.584  1.6066 -0.6912  0.3147
  232MPD1     N 3581   2.441   0.989   0.233  0.7560  0.6731 -0.4090
  232MPD1    H5 3582   2.449   0.911   0.169  0.3475 -1.2947  1.9434
  232MPD1    N1 3583   2.785   0.767   0.502  0.3660 -0.3999  0.6378
  232MPD1    H6 3584   2.875   0.792   0.542  0.1616 -3.2172  2.9010
  232MPD1    H7 3585   2.811   0.709   0.423  3.1459  0.3232  1.0268
  233MPD1     C 3586   4.328   4.154   2.039  0.7334 -0.3335 -0.4392
  233MPD1    C1 3587   4.270   4.140   1.915 -0.3421  0.1804 -0.1626
  233MPD1    C2 3588   4.325   4.057   1.819  0.6399  1.3797 -0.0888
  233MPD1    C3 3589   4.436   3.982   1.844  0.4296 -0.7247  0.3555
  233MPD1    C4 3590   4.494   3.989   1.966 -0.2409 -0.5863  0.0830
  233MPD1    C5 3591   4.443   4.078   2.060  0.7007 -0.6999 -0.3378
  233MPD1     H 3592   4.281   4.053   1.720 -0.2537  0.3540  0.3509
  233MPD1    H1 3593   4.580   3.933   2.001 -0.6344 -0.5844  1.0283
  233MPD1    H2 3594   4.294   4.219   2.119  1.2453  2.1632 -2.2770
  233MPD1    H3 3595   4.488   4.093   2.157 -0.3494 -0.0220  0.0448
  233MPD1     N 3596   4.497   3.902   1.738 -0.3586 -1.1753 -0.4330
  233MPD1    H5 3597   4.573   3.839   1.764  1.2172  1.3486  1.0942
  233MPD1    N1 3598   4.156   4.221   1.885  0.3260 -0.1325 -0.5845
  233MPD1    H6 3599   4.107   4.190   1.801 -0.0849  1.6630 -1.0060
  233MPD1    H7 3600   4.091   4.224   1.963  1.3160 -0.4776  0.2526
  234MPD1     C 3601   0.567   1.886   8.985  0.2260  0.2694  0.2624
  234MPD1    C1 3602   0.462   1.946   8.914  0.2867  0.3596 -1.1494
  234MPD1    C2 3603   0.424   2.071   8.960 -0.4241 -0.1857 -0.6783
  234MPD1    C3 3604   0.493   2.147   9.045 -0.4275 -1.0999  0.2289
  234MPD1    C4 3605   0.603   2.089   9.106  0.4655 -0.2896 -0.3245
  234MPD1    C5 3606   0.645   1.962   9.071 -0.1032  0.3280  0.3727
  234MPD1     H 3607   0.327   2.105   8.925 -1.6411 -1.0469  1.8772
  234MPD1    H1 3608   0.658   2.134   9.188  1.2583 -2.8125  0.5422
  234MPD1    H2 3609   0.592   1.782   8.968  1.9728  0.7967 -0.4569
  234MPD1    H3 3610   0.725   1.915   9.127  0.6315  0.6237 -0.4139
  234MPD1     N 3611   0.454   2.281   9.071  0.0264  0.1084 -0.2758
  234MPD1    H5 3612   0.383   2.324   9.012 -0.8525 -0.1512  0.5870
  234MPD1    N1 3613   0.385   1.872   8.826  0.0299  0.0072 -0.2027
  234MPD1    H6 3614   0.322   1.928   8.770  0.1801 -0.1983 -0.5759
  234MPD1    H7 3615   0.445   1.808   8.775  0.2734  1.1298 -1.3365
  235MPD1     C 3616   2.037   4.637  10.607  0.9038 -0.3012 -0.7205
  235MPD1    C1 3617   2.013   0.003  10.523 -0.3015  0.4062  0.6560
  235MPD1    C2 3618   2.120   0.089  10.472 -0.1857 -1.0048 -0.7763
  235MPD1    C3 3619   2.255   0.064  10.521 -0.2764  0.3593 -0.6515
  235MPD1    C4 3620   2.271   4.699  10.611 -0.0562 -0.8208  0.5624
  235MPD1    C5 3621   2.165   4.615  10.640 -0.0756  0.2527  0.3591
  235MPD1     H 3622   2.105   0.153  10.386 -0.3987  2.2900  1.7274
  235MPD1    H1 3623   2.365   4.663  10.653  0.8836  0.3638 -0.5406
  235MPD1    H2 3624   1.958   4.568  10.634 -0.9943  2.3596  0.5536
  235MPD1    H3 3625   2.165   4.539  10.717  0.5948  0.6575  0.7572
  235MPD1     N 3626   2.354   0.149  10.475 -0.3247 -0.2839 -0.1646
  235MPD1    H5 3627   2.333   0.226  10.412  1.2146 -1.2270 -1.8252
  235MPD1    N1 3628   1.883   0.025  10.472 -0.3228  0.1525  0.3988
  235MPD1    H6 3629   1.860   0.074  10.386  0.5013  1.5770  0.9893
  235MPD1    H7 3630   1.825   4.679  10.473  0.4093 -0.3501 -0.2939
  236MPD1     C 3631   1.616   1.582  10.489  0.5630  0.1367 -0.3041
  236MPD1    C1 3632   1.582   1.460  10.455 -0.0852 -1.0422  0.5932
  236MPD1    C2 3633   1.652   1.357  10.519 -0.4741  0.1932 -0.5359
  236MPD1    C3 3634   1.752   1.381  10.609  0.7860 -0.5454 -0.1618
  236MPD1    C4 3635   1.787   1.507  10.635  0.5708  0.4795 -0.3541
  236MPD1    C5 3636   1.717   1.610  10.578  0.9086  0.5901 -0.3775
  236MPD1     H 3637   1.638   1.255  10.487 -1.3082  0.1412  0.0198
  236MPD1    H1 3638   1.862   1.528  10.711 -3.0022  2.0896  2.7250
  236MPD1    H2 3639   1.568   1.667  10.444 -0.6073  0.3669  1.3540
  236MPD1    H3 3640   1.747   1.711  10.602  3.4266  0.0871 -1.3597
  236MPD1     N 3641   1.831   1.280  10.668  0.5066 -0.3744  0.1817
  236MPD1    H5 3642   1.906   1.328  10.717  2.4586 -2.8913 -0.3079
  236MPD1    N1 3643   1.482   1.436  10.364  0.0101  0.3588 -0.2164
  236MPD1    H6 3644   1.398   1.485  10.393 -0.7482 -0.3091 -1.2743
  236MPD1    H7 3645   1.449   1.340  10.373 -1.2796  0.9603  1.5149
  237MPD1     C 3646   1.564   4.313  15.484  0.0171 -0.4276 -0.2112
  237MPD1    C1 3647   1.608   4.191  15.438  0.0656  0.3400  0.4110
  237MPD1    C2 3648   1.529   4.126  15.348  0.7901 -0.1502 -0.2120
  237MPD1    C3 3649   1.398   4.165  15.317 -0.0649 -0.0577  0.2584
  237MPD1    C4 3650   1.355   4.283  15.382  0.2419  0.4559 -0.1350
  237MPD1    C5 3651   1.439   4.355  15.456 -0.3699  0.2110 -0.8402
  237MPD1     H 3652   1.556   4.032  15.300 -0.2146  0.2147 -1.4972
  237MPD1    H1 3653   1.250   4.306  15.374  0.2341  1.1468  1.8368
  237MPD1    H2 3654   1.628   4.372  15.548 -0.1988 -0.0467 -0.3433
  237MPD1    H3 3655   1.411   4.449  15.502 -0.5650 -0.7589  1.0154
  237MPD1     N 3656   1.308   4.086  15.236 -0.5955 -0.8289 -0.4749
  237MPD1    H5 3657   1.212   4.113  15.220  0.0738 -1.6909 -6.0155
  237MPD1    N1 3658   1.740   4.151  15.461  0.6597  0.1608  0.3244
  237MPD1    H6 3659   1.782   4.198  15.541  0.3854 -2.7562  2.1637
  237MPD1    H7 3660   1.762   4.051  15.459  2.1031  0.4480  1.6285
  238MPD1     C 3661   3.584   2.436  14.905 -0.5303 -0.2217 -0.2808
  238MPD1    C1 3662   3.515   2.512  14.813  0.4332  0.3157 -0.2592
  238MPD1    C2 3663   3.379   2.525  14.834 -0.4354 -0.4155  0.2050
  238MPD1    C3 3664   3.312   2.482  14.941 -0.4694 -0.1778  0.2496
  238MPD1    C4 3665   3.387   2.430  15.043 -0.0861  0.2052  0.0614
  238MPD1    C5 3666   3.516   2.394  15.018 -0.4330 -0.1001 -0.0946
  238MPD1     H 3667   3.328   2.585  14.759  1.7683 -0.5439 -1.4091
  238MPD1    H1 3668   3.341   2.384  15.130  2.2518 -3.1149 -0.4485
  238MPD1    H2 3669   3.691   2.418  14.910 -0.7526 -0.8377  2.5139
  238MPD1    H3 3670   3.570   2.329  15.086 -1.3265 -0.2100  0.5031
  238MPD1     N 3671   3.175   2.471  14.958  0.0097  0.4416 -0.2104
  238MPD1    H5 3672   3.140   2.439  15.047 -0.9739  1.3799 -0.2576
  238MPD1    N1 3673   3.580   2.551  14.695  0.8294  0.9855 -0.6688
  238MPD1    H6 3674   3.681   2.560  14.706  0.7446 -0.8654  1.6339
  238MPD1    H7 3675   3.533   2.630  14.652 -2.2991  1.3437  3.3735
  239MPD1     C 3676   2.295   2.768  15.012  0.6440  0.0672 -0.1742
  239MPD1    C1 3677   2.372   2.741  14.905  0.4947  0.4149 -0.4957
  239MPD1    C2 3678   2.414   2.845  14.823  0.9037  0.8244  0.0931
  239MPD1    C3 3679   2.359   2.970  14.833 -0.2551  0.1809 -0.1053
  239MPD1    C4 3680   2.263   2.992  14.933 -0.1244  0.4892 -0.1290
  239MPD1    C5 3681   2.226   2.892  15.020  0.0432 -0.1089  0.7102
  239MPD1     H 3682   2.488   2.821  14.747  0.9499 -0.3441  0.5126
  239MPD1    H1 3683   2.209   3.086  14.936  0.1123  0.5667  1.5849
  239MPD1    H2 3684   2.279   2.688  15.084 -0.9622  0.4145 -0.1310
  239MPD1    H3 3685   2.161   2.912  15.104 -0.0277  2.0678  0.1434
  239MPD1     N 3686   2.380   3.069  14.726 -0.0821 -0.4098  0.2561
  239MPD1    H5 3687   2.333   3.159  14.727 -0.1542 -0.4575  1.1325
  239MPD1    N1 3688   2.433   2.615  14.898 -0.0978  0.0565  0.5576
  239MPD1    H6 3689   2.439   2.586  14.801 -1.8024  1.5361  0.0120
  239MPD1    H7 3690   2.369   2.549  14.942 -1.1410 -0.2204 -1.3684
  240MPD1     C 3691   1.896   3.222  13.312  0.1268 -0.8457  0.4760
  240MPD1    C1 3692   1.932   3.089  13.292  0.2032 -0.1060 -0.1555
  240MPD1    C2 3693   1.977   3.022  13.408 -0.3646 -0.1239 -0.0836
  240MPD1    C3 3694   1.987   3.084  13.532  0.0203 -0.5705  0.6951
  240MPD1    C4 3695   1.943   3.218  13.543  0.1540 -0.0190  0.3517
  240MPD1    C5 3696   1.906   3.284  13.429 -0.7631 -0.3980  0.2327
  240MPD1     H 3697   2.010   2.920  13.391  1.4758  0.2771  1.1730
  240MPD1    H1 3698   1.948   3.268  13.639  1.3883  0.0696  0.2452
  240MPD1    H2 3699   1.850   3.284  13.237  1.6057  0.8368  0.9498
  240MPD1    H3 3700   1.864   3.383  13.446  1.9689  0.8899 -0.5111
  240MPD1     N 3701   2.040   3.023  13.647 -0.3257  0.0605  0.2346
  240MPD1    H5 3702   2.079   2.930  13.634  0.1988  0.6776 -2.6501
  240MPD1    N1 3703   1.904   3.028  13.169 -0.0528  0.4031 -0.1799
  240MPD1    H6 3704   1.885   3.082  13.085  1.8510 -1.4578 -1.7984
  240MPD1    H7 3705   1.947   2.938  13.149  3.0120  1.5512  1.1316
  241MPD1     C 3706   2.437   2.306  13.507 -0.2759 -0.2239  0.0102
  241MPD1    C1 3707   2.422   2.281  13.641 -0.8773 -0.9224  0.4874
  241MPD1    C2 3708   2.403   2.400  13.713  0.5033 -0.2128  0.5879
  241MPD1    C3 3709   2.379   2.515  13.659 -0.2273  0.1050  0.7916
  241MPD1    C4 3710   2.407   2.540  13.529  0.6419  0.0039 -0.0303
  241MPD1    C5 3711   2.434   2.431  13.457 -0.4896 -0.0104  0.1307
  241MPD1     H 3712   2.396   2.400  13.821 -1.4143 -1.1017  0.4777
  241MPD1    H1 3713   2.396   2.642  13.492 -1.6660 -0.5158 -0.8056
  241MPD1    H2 3714   2.462   2.222  13.443 -2.2705 -1.7041  1.1848
  241MPD1    H3 3715   2.459   2.442  13.352 -0.1536 -0.5297  0.1625
  241MPD1     N 3716   2.338   2.631  13.728  0.4323  0.3581 -0.0014
  241MPD1    H5 3717   2.346   2.720  13.680 -0.3287 -1.0242 -2.6357
  241MPD1    N1 3718   2.463   2.172  13.709  0.4520 -0.4800 -0.0593
  241MPD1    H6 3719   2.412   2.148  13.794  1.4104 -1.3185  0.2778
  241MPD1    H7 3720   2.441   2.089  13.655  4.5985 -1.0234 -0.9430
  242MPD1     C 3721   1.962   0.888  15.954  0.0733  0.4807 -0.0859
  242MPD1    C1 3722   1.921   0.877  15.823  0.0953 -0.1885  0.1619
  242MPD1    C2 3723   1.973   0.963  15.722  0.0944 -0.4442 -0.2710
  242MPD1    C3 3724   2.062   1.062  15.755 -0.2555 -0.1907 -0.2356
  242MPD1    C4 3725   2.110   1.070  15.884 -0.7942  0.5141  0.2709
  242MPD1    C5 3726   2.059   0.979  15.977 -0.5168 -0.6896  0.7330
  242MPD1     H 3727   1.930   0.948  15.624 -1.2788 -2.1615  0.6099
  242MPD1    H1 3728   2.185   1.145  15.908 -0.8753  0.7350 -0.1730
  242MPD1    H2 3729   1.922   0.825  16.033  1.6355 -0.7709 -0.2930
  242MPD1    H3 3730   2.093   0.981  16.080 -1.1200 -2.4098  0.9733
  242MPD1     N 3731   2.118   1.149  15.661 -0.2539 -0.0138 -0.2986
  242MPD1    H5 3732   2.176   1.223  15.700  1.5204 -1.9054  0.6498
  242MPD1    N1 3733   1.812   0.795  15.798  0.1739 -0.0978  0.0273
  242MPD1    H6 3734   1.812   0.724  15.871  1.5304  0.4608  0.5867
  242MPD1    H7 3735   1.812   0.750  15.707  1.5072 -0.8738  0.4040
  243MPD1     C 3736   2.736   0.177  17.586 -0.3516 -0.6222 -0.3580
  243MPD1    C1 3737   2.834   0.103  17.657  0.2321 -0.0523 -1.0184
  243MPD1    C2 3738   2.931   0.041  17.583  0.2092 -0.3116  0.1543
  243MPD1    C3 3739   2.932   0.054  17.448 -0.4716  0.1588  0.2609
  243MPD1    C4 3740   2.823   0.108  17.382  0.0123  0.1930  0.6675
  243MPD1    C5 3741   2.729   0.176  17.451 -0.0339 -0.0181  0.3567
  243MPD1     H 3742   2.999   4.711  17.632  2.1182  1.2792 -0.2490
  243MPD1    H1 3743   2.811   0.101  17.275  1.8111  1.4155  0.3887
  243MPD1    H2 3744   2.651   0.228  17.631  0.8735 -0.3677  1.6134
  243MPD1    H3 3745   2.638   0.218  17.410  0.5840 -0.3688 -1.3681
  243MPD1     N 3746   3.034   4.722  17.379 -0.5894  0.0733  0.3446
  243MPD1    H5 3747   3.110   4.690  17.438 -0.2136 -2.1901 -1.3719
  243MPD1    N1 3748   2.830   0.094   0.041  0.3566 -0.4090  0.7675
  243MPD1    H6 3749   2.854   0.000   0.073  0.6082 -0.7002 -0.2610
  243MPD1    H7 3750   2.734   0.116   0.068  0.5460  1.8424 -0.3995
  244MPD1     C 3751   3.715   4.008  17.426  0.2600  0.0273  0.0140
  244MPD1    C1 3752   3.695   4.012  17.289  0.6038 -0.0373  0.2671
  244MPD1    C2 3753   3.612   4.117  17.237  0.2457 -0.3947 -0.4362
  244MPD1    C3 3754   3.553   4.217  17.330 -0.6577 -0.1922 -0.1188
  244MPD1    C4 3755   3.570   4.200  17.467  0.3159 -0.5430 -0.1747
  244MPD1    C5 3756   3.652   4.098  17.513  0.4975 -0.8144  0.1616
  244MPD1     H 3757   3.590   4.119  17.131 -1.6501  0.8419 -0.0171
  244MPD1    H1 3758   3.537   4.271  17.542  1.1639 -0.8261  0.4646
  244MPD1    H2 3759   3.779   3.941  17.481  0.6744 -1.1499 -1.9217
  244MPD1    H3 3760   3.660   4.077  17.619  1.0585 -1.4180 -0.0101
  244MPD1     N 3761   3.477   4.322  17.274  0.1550  0.1757 -0.5928
  244MPD1    H5 3762   3.467   4.325  17.173  2.4938  0.0259 -0.8367
  244MPD1    N1 3763   3.770   3.925  17.208  0.0531 -0.4827 -0.3404
  244MPD1    H6 3764   3.798   3.837  17.252 -0.3120 -0.6839 -0.5124
  244MPD1    H7 3765   3.727   3.899  17.120  0.5027 -2.0305 -0.1084
  245MPD1     C 3766   0.490   0.290  13.620 -0.0445  0.0688  0.4350
  245MPD1    C1 3767   0.513   0.428  13.605 -0.1019 -0.2902  0.2815
  245MPD1    C2 3768   0.641   0.473  13.623  0.8130 -0.5520 -0.1319
  245MPD1    C3 3769   0.743   0.389  13.667 -0.3874 -0.6591  0.0626
  245MPD1    C4 3770   0.716   0.255  13.691 -0.0042 -0.5298  0.3485
  245MPD1    C5 3771   0.590   0.208  13.661  0.1301  0.1498 -0.3700
  245MPD1     H 3772   0.671   0.568  13.580 -0.1691 -0.1959 -0.0310
  245MPD1    H1 3773   0.794   0.185  13.719  1.0660  0.1345 -0.9725
  245MPD1    H2 3774   0.396   0.247  13.587  0.7138 -2.0324  1.0067
  245MPD1    H3 3775   0.574   0.101  13.667  1.0632 -0.0430 -1.3397
  245MPD1     N 3776   0.865   0.448  13.689 -0.2474 -0.5992  0.3440
  245MPD1    H5 3777   0.873   0.548  13.671  1.8128 -0.7674  0.3650
  245MPD1    N1 3778   0.421   0.513  13.534  0.1132  0.0519 -0.3481
  245MPD1    H6 3779   0.439   0.607  13.569  0.4054 -1.0964  2.6586
  245MPD1    H7 3780   0.323   0.486  13.542  0.4526 -1.3673 -0.9149
  246MPD1     C 3781   2.253   2.440   9.875  0.4255  0.5155 -0.0534
  246MPD1    C1 3782   2.302   2.353   9.784  0.3381 -0.1853  0.2436
  246MPD1    C2 3783   2.324   2.219   9.815 -0.1121 -0.6000  0.0872
  246MPD1    C3 3784   2.301   2.179   9.947  1.0395  0.0722 -0.2453
  246MPD1    C4 3785   2.268   2.270  10.046 -0.2018  0.3663  0.2447
  246MPD1    C5 3786   2.240   2.403  10.005 -0.2070 -0.4251  0.5848
  246MPD1     H 3787   2.373   2.165   9.735  0.4470  0.1359 -0.0679
  246MPD1    H1 3788   2.238   2.238  10.145  1.1578  3.0010  1.5159
  246MPD1    H2 3789   2.215   2.540   9.853 -0.7149 -0.2636 -1.5992
  246MPD1    H3 3790   2.225   2.482  10.078  1.9080  0.2037  0.3438
  246MPD1     N 3791   2.300   2.044   9.986  0.1156 -0.5424 -0.0306
  246MPD1    H5 3792   2.310   1.978   9.910  1.4050  0.6464 -0.9066
  246MPD1    N1 3793   2.313   2.383   9.643 -0.0984  0.3193  0.7126
  246MPD1    H6 3794   2.373   2.316   9.595 -0.8431  0.4658 -0.4177
  246MPD1    H7 3795   2.341   2.480   9.631 -0.8874  0.5603  0.8106
  247MPD1     C 3796   0.026   1.964  15.557  0.6397  0.1316 -0.2640
  247MPD1    C1 3797   4.682   1.898  15.638 -0.0873 -0.1326  0.1860
  247MPD1    C2 3798   4.735   1.787  15.699  0.0921  0.0656  0.3650
  247MPD1    C3 3799   0.114   1.733  15.668 -0.2037  0.2778 -0.3398
  247MPD1    C4 3800   0.200   1.801  15.585  0.0826  0.3829 -0.3236
  247MPD1    C5 3801   0.154   1.916  15.529 -0.9256 -0.3583  0.0327
  247MPD1     H 3802   4.666   1.735  15.765  0.9676  0.1395  1.3333
  247MPD1    H1 3803   0.290   1.754  15.546 -0.5259 -0.1824 -1.0363
  247MPD1    H2 3804   4.738   2.055  15.504  0.2842 -1.1975 -2.3798
  247MPD1    H3 3805   0.215   1.963  15.453 -0.3155  1.0247  1.3895
  247MPD1     N 3806   0.157   1.606  15.718  0.6065 -0.3505  0.2532
  247MPD1    H5 3807   0.254   1.588  15.692  0.6464  2.0012 -1.1756
  247MPD1    N1 3808   4.545   1.926  15.640  0.0530 -0.2368 -0.7114
  247MPD1    H6 3809   4.509   1.895  15.730  0.2442  3.3938  0.6329
  247MPD1    H7 3810   4.534   2.027  15.640  0.9073 -0.1464 -1.0736
  248MPD1     C 3811   1.923   4.545   0.280 -0.1785  0.3250 -0.6052
  248MPD1    C1 3812   1.856   4.658   0.255 -0.4461 -0.3887  0.9117
  248MPD1    C2 3813   1.740   4.695   0.323 -0.2626 -0.0770  0.0340
  248MPD1    C3 3814   1.687   4.620   0.426  1.1118  0.6820  0.2307
  248MPD1    C4 3815   1.757   4.500   0.462 -0.1790 -0.3084  0.1016
  248MPD1    C5 3816   1.873   4.467   0.387 -0.2542 -0.2316  0.6153
  248MPD1     H 3817   1.700   0.057   0.320 -2.2010 -0.8910 -1.5808
  248MPD1    H1 3818   1.721   4.429   0.536 -0.3412 -2.0733 -1.6437
  248MPD1    H2 3819   2.018   4.524   0.233 -0.3741 -1.2851 -0.2930
  248MPD1    H3 3820   1.926   4.383   0.429 -0.1676  0.0140  0.9986
  248MPD1     N 3821   1.576   4.668   0.493 -0.7801  0.4269  0.2818
  248MPD1    H5 3822   1.528   0.002   0.441  1.7121  1.5611 -0.4697
  248MPD1    N1 3823   1.918   0.014   0.173  0.4202 -0.1260 -0.7510
  248MPD1    H6 3824   1.848   0.062   0.117 -0.4882  1.5425  1.8279
  248MPD1    H7 3825   1.994   4.717   0.115  0.8279 -1.8646  0.8642
  249MPD1     C 3826   2.858   4.524  10.047  0.7514 -0.1153 -0.5589
  249MPD1    C1 3827   2.870   4.434  10.151 -0.1209 -0.7627 -0.1347
  249MPD1    C2 3828   2.760   4.355  10.181  0.8106 -0.5669 -0.5890
  249MPD1    C3 3829   2.639   4.365  10.106 -0.0543 -0.7795 -0.1695
  249MPD1    C4 3830   2.637   4.442   9.992 -0.8058 -0.0324 -0.0280
  249MPD1    C5 3831   2.749   4.515   9.962  0.2396  0.1454 -0.0614
  249MPD1     H 3832   2.762   4.286  10.265  0.6175 -0.8857 -0.8481
  249MPD1    H1 3833   2.550   4.466   9.932  0.4044  0.4223 -1.6026
  249MPD1    H2 3834   2.943   4.582  10.011  1.0075 -0.4163 -0.4396
  249MPD1    H3 3835   2.743   4.586   9.880 -0.6251  1.2696  0.9584
  249MPD1     N 3836   2.537   4.274  10.132  0.6549  0.2104 -0.1932
  249MPD1    H5 3837   2.554   4.232  10.223  0.9403 -0.2046 -0.4380
  249MPD1    N1 3838   2.974   4.438  10.242 -0.4464  0.1704 -0.1384
  249MPD1    H6 3839   3.066   4.460  10.204  0.4159 -0.9422  1.2751
  249MPD1    H7 3840   2.980   4.349  10.291 -1.4921  0.4658  0.5370
  250MPD2     C 3841   4.220   3.765  12.460 -0.2359 -0.4726  0.6048
  250MPD2    C1 3842   4.099   3.808  12.510 -0.2911 -0.9437  0.2038
  250MPD2    C2 3843   4.004   3.851  12.417  0.3342 -0.5799 -0.2318
  250MPD2    C3 3844   4.024   3.857  12.277  0.6256 -0.8945 -0.5240
  250MPD2    C4 3845   4.151   3.814  12.236  0.2555 -0.2695  0.0289
  250MPD2    C5 3846   4.246   3.773  12.327 -0.2506 -0.6147  0.2033
  250MPD2     H 3847   3.901   3.862  12.449  0.3413 -0.0343 -0.3896
  250MPD2    H1 3848   4.178   3.813  12.131 -1.1954 -0.8991 -0.3426
  250MPD2    H2 3849   4.306   3.729  12.515 -0.5603 -3.8096 -1.0775
  250MPD2    H3 3850   4.344   3.741  12.293  0.2342  1.5372 -0.4723
  250MPD2     N 3851   3.923   3.897  12.185 -0.1543  0.2245  0.2584
  250MPD2    H5 3852   3.960   3.915  12.092  0.7662  1.2979  0.8159
  250MPD2    N1 3853   4.082   3.793  12.650  0.5568  0.5564 -0.6626
  250MPD2    H7 3854   4.153   3.741  12.701 -0.0654  0.1342 -0.2296
  251TMC3    C1 3855   3.952   3.772  12.855 -0.5131 -0.1373 -0.3800
  251TMC3    C2 3856   3.826   3.796  12.899 -0.2820  1.1590  0.0088
  251TMC3    C3 3857   3.798   3.836  13.021  0.0617  0.9518 -0.3197
  251TMC3    C4 3858   4.056   3.794  12.939  0.5116  0.0771  0.0995
  251TMC3    C5 3859   4.024   3.838  13.066  0.0392  0.4845 -0.4996
  251TMC3    C6 3860   3.897   3.860  13.113  0.8497  1.1858 -0.9391
  251TMC3     C 3861   3.961   3.819  12.717  0.5636 -0.6544  0.1664
  251TMC3     O 3862   3.862   3.882  12.675  0.0376 -0.1142  0.1038
  251TMC3     H 3863   3.744   3.758  12.839 -0.1035 -2.3201  1.9341
  251TMC3    H1 3864   4.158   3.767  12.916  0.4778 -0.5405  0.6713
  251TMC3    H2 3865   3.875   3.888  13.215 -1.5044 -0.1784 -1.0573
  251TMC3    C7 3866   4.128   3.931  13.103 -0.1143  0.5898  0.0707
  251TMC3    C8 3867   3.663   3.896  13.049 -0.3446  1.2162 -0.5891
  251TMC3    O1 3868   4.244   3.899  13.098 -0.4289 -0.3509  0.3244
  251TMC3    O2 3869   3.634   3.925  13.166 -0.1199 -0.4231  0.6699
  252TMC3    C1 3870   3.915   0.803   9.570 -0.1385  0.5241 -0.7546
  252TMC3    C2 3871   4.038   0.826   9.619 -0.1970 -0.4823 -0.4092
  252TMC3    C3 3872   4.096   0.745   9.710  0.3087 -0.6800  1.0931
  252TMC3    C4 3873   3.846   0.692   9.610 -0.4812 -0.5017 -0.1854
  252TMC3    C5 3874   3.904   0.604   9.698  0.5627 -0.0139 -0.1859
  252TMC3    C6 3875   4.023   0.635   9.757  0.0596  0.1064  0.1424
  252TMC3     C 3876   3.861   0.908   9.496 -0.1894  0.0011 -0.3016
  252TMC3     O 3877   3.934   1.001   9.464 -0.1580  0.7190  0.5308
  252TMC3     H 3878   4.088   0.919   9.594  0.1451  0.2075  2.7911
  252TMC3    H1 3879   3.761   0.655   9.554 -1.5112 -0.7424  1.5494
  252TMC3    H2 3880   4.071   0.563   9.822  0.5249  1.2487  1.0671
  252TMC3    C7 3881   3.852   0.469   9.717 -0.4490 -1.0510  0.0926
  252TMC3    C8 3882   4.231   0.779   9.738  0.6040 -0.2067 -0.2831
  252TMC3    O1 3883   3.921   0.380   9.773 -0.3277  0.8907  1.1228
  252TMC3    O2 3884   4.293   0.859   9.668  0.0915 -0.3075 -0.5263
  253MPD2     C 3885   0.668   3.840  14.793 -0.6120  0.1455 -0.3999
  253MPD2    C1 3886   0.531   3.847  14.817 -0.0568  0.3349 -0.3365
  253MPD2    C2 3887   0.489   3.882  14.942  0.2157 -0.3861  0.5166
  253MPD2    C3 3888   0.582   3.920  15.040  0.2564  0.3672  0.3093
  253MPD2    C4 3889   0.715   3.941  15.005 -0.4081 -0.4172  0.8145
  253MPD2    C5 3890   0.750   3.896  14.884  0.4028  0.2135  0.1631
  253MPD2     H 3891   0.383   3.883  14.964  0.1144  1.7053  0.0034
  253MPD2    H1 3892   0.787   3.997  15.064  0.3878 -1.1765  0.5636
  253MPD2    H2 3893   0.718   3.795  14.708  2.4678  1.1775  0.8658
  253MPD2    H3 3894   0.854   3.899  14.852  1.4730 -1.4810  3.3876
  253MPD2     N 3895   0.535   3.962  15.167 -0.1178  0.3360  0.3306
  253MPD2    H5 3896   0.613   3.980  15.229 -0.3444  1.3517  0.3096
  253MPD2    N1 3897   0.435   3.803  14.727 -0.2900  0.0895  0.2971
  253MPD2    H7 3898   0.339   3.805  14.761 -0.0102  1.7790  1.0014
  254TMC3    C1 3899   0.401   4.022  15.344 -0.1960  0.4921  0.3025
  254TMC3    C2 3900   0.317   4.122  15.385  0.2139  0.1329  0.3043
  254TMC3    C3 3901   0.345   4.195  15.501 -0.1356 -0.4791 -0.2476
  254TMC3    C4 3902   0.508   3.985  15.426 -0.6194  0.5267 -0.6547
  254TMC3    C5 3903   0.521   4.047  15.547 -0.0834  0.4277 -0.0702
  254TMC3    C6 3904   0.441   4.153  15.581 -0.4608 -0.1904 -0.0250
  254TMC3     C 3905   0.405   3.989  15.202 -0.2467  0.0518  0.1314
  254TMC3     O 3906   0.312   4.025  15.137  0.1155 -0.0294 -0.0300
  254TMC3     H 3907   0.242   4.154  15.314 -0.2361  3.0689  2.0861
  254TMC3    H1 3908   0.579   3.905  15.409  0.0960  1.2330 -0.9856
  254TMC3    H2 3909   0.467   4.217  15.665  0.4107 -0.0281 -0.4152
  254TMC3    C7 3910   0.645   4.054  15.620  1.3664 -0.3167 -0.5674
  254TMC3    C8 3911   0.292   4.331  15.530  0.4138  0.0231  0.7405
  254TMC3    O1 3912   0.745   4.025  15.555 -0.4149 -0.3162 -0.1150
  254TMC3    O2 3913   0.312   4.363  15.647  0.3184 -0.5888  0.4581
  255MPD2     C 3914   4.021   2.410  10.811  0.0525  0.1619  0.5840
  255MPD2    C1 3915   4.038   2.389  10.678  0.1699  0.2599  0.0289
  255MPD2    C2 3916   4.104   2.278  10.635  1.1663  0.4189 -0.1756
  255MPD2    C3 3917   4.146   2.185  10.723  0.2815  0.1369  0.7245
  255MPD2    C4 3918   4.130   2.205  10.861  0.0595 -0.0848 -0.0705
  255MPD2    C5 3919   4.064   2.318  10.903  0.2216  0.3959  0.7419
  255MPD2     H 3920   4.118   2.262  10.529 -1.4683 -3.0190 -0.0264
  255MPD2    H1 3921   4.155   2.126  10.930 -0.7738 -1.1720 -1.0291
  255MPD2    H2 3922   3.970   2.496  10.853  0.1320  0.7237 -0.4736
  255MPD2    H3 3923   4.045   2.331  11.009 -0.3343 -2.3052  0.9893
  255MPD2     N 3924   4.205   2.069  10.679  0.6684  0.3536 -0.1826
  255MPD2    H5 3925   4.225   2.068  10.580 -0.1074  2.8854 -0.3682
  255MPD2    N1 3926   3.996   2.494  10.594 -0.4481 -0.0771  0.8075
  255MPD2    H7 3927   3.960   2.580  10.635  0.3713  0.8289 -0.3774
  256TMC3    C1 3928   3.966   2.625  10.401  0.3697  0.3426 -0.4722
  256TMC3    C2 3929   3.964   2.741  10.482 -0.5864 -0.4104 -0.3472
  256TMC3    C3 3930   3.914   2.857  10.439 -0.0885 -0.3015 -0.0719
  256TMC3    C4 3931   3.930   2.633  10.269  0.0404  0.7430  0.2369
  256TMC3    C5 3932   3.886   2.757  10.230 -0.1808  0.3139  0.9302
  256TMC3    C6 3933   3.868   2.866  10.309 -0.4193  0.1713  0.0535
  256TMC3     C 3934   3.980   2.497  10.456 -0.0093  0.2582  0.3618
  256TMC3     O 3935   3.994   2.401  10.377  0.3219  0.3158 -0.5335
  256TMC3     H 3936   4.007   2.740  10.582 -1.3185  1.5364 -0.0172
  256TMC3    H1 3937   3.922   2.551  10.198  1.4548  0.0881  0.8290
  256TMC3    H2 3938   3.818   2.954  10.271  1.1158  0.8589 -0.3659
  256TMC3    C7 3939   3.780   2.750  10.128  0.4377  0.2501  1.1238
  256TMC3    C8 3940   3.922   2.979  10.522 -0.2857 -0.1878  0.1120
  256TMC3    O1 3941   3.801   2.663  10.041 -0.6624  0.1830  0.0068
  256TMC3    O2 3942   3.896   2.963  10.640 -0.6937  0.6127  0.9078
  257MPD2     C 3943   2.389   3.828  13.033 -0.3828 -1.0401  0.0396
  257MPD2    C1 3944   2.332   3.728  12.955  0.0057  0.1849  0.1738
  257MPD2    C2 3945   2.295   3.606  13.008 -0.4136  0.3814  0.0623
  257MPD2    C3 3946   2.322   3.571  13.139  0.1305 -0.4322  0.5172
  257MPD2    C4 3947   2.380   3.672  13.219 -0.3484  0.2696  0.2710
  257MPD2    C5 3948   2.407   3.799  13.166 -0.0078  0.1196 -0.0613
  257MPD2     H 3949   2.256   3.526  12.946  0.3089  0.3190 -0.3003
  257MPD2    H1 3950   2.420   3.670  13.320 -1.5126  0.5817  0.7403
  257MPD2    H2 3951   2.416   3.926  12.995 -1.9156 -2.0303 -3.6111
  257MPD2    H3 3952   2.463   3.872  13.223  3.0518  0.6625 -3.7525
  257MPD2     N 3953   2.293   3.444  13.184 -0.8759  0.3740  0.3769
  257MPD2    H5 3954   2.242   3.384  13.121 -0.5549  0.1717  0.3103
  257MPD2    N1 3955   2.310   3.735  12.819  0.5849 -0.2228 -0.6042
  257MPD2    H7 3956   2.268   3.650  12.781  0.4222 -0.4001 -0.0288
  258TMC3    C1 3957   2.309   3.254  13.329  0.6647  0.5852 -0.1502
  258TMC3    C2 3958   2.244   3.179  13.230  0.0518 -0.3770  0.4926
  258TMC3    C3 3959   2.262   3.045  13.233  0.8447  0.1786 -0.5123
  258TMC3    C4 3960   2.380   3.201  13.438  0.2698 -0.0378 -0.5637
  258TMC3    C5 3961   2.384   3.069  13.438 -1.7283  0.0670 -0.4719
  258TMC3    C6 3962   2.333   2.991  13.332  0.5052 -0.3351 -0.2273
  258TMC3     C 3963   2.314   3.400  13.313 -0.6707 -0.7468  0.1715
  258TMC3     O 3964   2.370   3.460  13.402  0.1321 -0.3144 -0.0174
  258TMC3     H 3965   2.199   3.224  13.142 -0.7492 -0.1421  1.0195
  258TMC3    H1 3966   2.440   3.267  13.500 -0.1061 -1.2283  1.0719
  258TMC3    H2 3967   2.344   2.884  13.338 -2.9392 -0.6505  0.5268
  258TMC3    C7 3968   2.441   2.996  13.549  0.2706  0.8737 -0.5337
  258TMC3    C8 3969   2.250   2.965  13.114  0.0517 -0.2744  0.4086
  258TMC3    O1 3970   2.372   2.898  13.576  0.1785 -0.1170  0.6066
  258TMC3    O2 3971   2.264   2.843  13.126 -0.1210  0.0275 -0.1781
  259MPD2     C 3972   1.416   1.621   0.927 -0.2783 -0.0009  0.0273
  259MPD2    C1 3973   1.507   1.526   0.893 -0.8709 -0.2084  0.1718
  259MPD2    C2 3974   1.533   1.508   0.761 -0.0709  0.2416  0.7370
  259MPD2    C3 3975   1.472   1.591   0.659 -0.4600 -0.2879  0.6734
  259MPD2    C4 3976   1.382   1.688   0.699 -0.0358 -0.4361 -0.0852
  259MPD2    C5 3977   1.355   1.706   0.834  0.3012  0.1839  0.3834
  259MPD2     H 3978   1.589   1.424   0.721 -1.5875 -1.2198  1.7009
  259MPD2    H1 3979   1.322   1.750   0.634 -1.3690 -1.3789  0.2491
  259MPD2    H2 3980   1.386   1.641   1.029 -2.3782  2.2077 -1.0369
  259MPD2    H3 3981   1.285   1.780   0.870  0.4139  0.2597  0.4501
  259MPD2     N 3982   1.492   1.548   0.528 -0.0436 -0.0745  0.4749
  259MPD2    H5 3983   1.552   1.467   0.517  0.1845 -0.0551  1.5705
  259MPD2    N1 3984   1.565   1.449   0.998 -0.2688  0.6412  0.0766
  259MPD2    H7 3985   1.522   1.468   1.088  0.0572  0.6192  0.2352
  260TMC3    C1 3986   1.496   1.558   0.287 -0.5342  0.7871 -0.0623
  260TMC3    C2 3987   1.496   1.632   0.174  0.4391 -0.1203 -0.7929
  260TMC3    C3 3988   1.492   1.570   0.054 -0.7141 -0.8166  0.6744
  260TMC3    C4 3989   1.498   1.423   0.279 -0.3106 -0.4372  0.5831
  260TMC3    C5 3990   1.477   1.362   0.160 -0.1616  0.7269  0.8539
  260TMC3    C6 3991   1.478   1.436   0.050  0.0299 -0.1511 -0.1588
  260TMC3     C 3992   1.457   1.622   0.411  1.1386  0.4457  0.2843
  260TMC3     O 3993   1.414   1.733   0.395 -0.2333 -0.6495  0.0801
  260TMC3     H 3994   1.526   1.736   0.172 -0.5154  0.1387 -1.6288
  260TMC3    H1 3995   1.485   1.365   0.369 -0.4676  3.1424  2.8787
  260TMC3    H2 3996   1.453   1.384  17.710  1.0808  0.5314 -0.8328
  260TMC3    C7 3997   1.529   1.231   0.144  0.2673 -0.2585 -0.4824
  260TMC3    C8 3998   1.582   1.629  17.706  0.0642 -0.1600 -0.5376
  260TMC3    O1 3999   1.558   1.203   0.028  0.0711  0.2340  0.0526
  260TMC3    O2 4000   1.584   1.752  17.696  0.4654  0.5040  0.1006
  261MPD2     C 4001   3.662   3.787  11.468  0.3281  0.2227  0.6365
  261MPD2    C1 4002   3.673   3.926  11.489  0.6779  0.2052 -0.2169
  261MPD2    C2 4003   3.672   4.017  11.384  0.4457 -0.6911 -0.3439
  261MPD2    C3 4004   3.658   3.967  11.257 -0.0977  0.1684  0.0744
  261MPD2    C4 4005   3.642   3.826  11.236  0.1886  0.4739 -0.4474
  261MPD2    C5 4006   3.650   3.738  11.340  1.0119  0.2802 -0.3583
  261MPD2     H 4007   3.684   4.122  11.408  4.3427 -0.5169 -3.0148
  261MPD2    H1 4008   3.630   3.785  11.136 -1.2162  0.5677 -0.3181
  261MPD2    H2 4009   3.671   3.717  11.550 -1.2195  2.0703  2.3777
  261MPD2    H3 4010   3.639   3.631  11.323  1.9883  0.0367  0.6103
  261MPD2     N 4011   3.658   4.062  11.150  0.1107 -0.2685 -0.3165
  261MPD2    H5 4012   3.698   4.155  11.162 -1.2851  0.6911 -3.0932
  261MPD2    N1 4013   3.688   3.979  11.622  0.2914  0.2282  0.3108
  261MPD2    H7 4014   3.690   4.080  11.623 -0.7658  0.2563 -0.8496
  262TMC3    C1 4015   3.549   4.179  10.993 -0.0689  0.4051 -0.5364
  262TMC3    C2 4016   3.416   4.220  11.011  0.0638 -0.0595 -0.4708
  262TMC3    C3 4017   3.400   4.355  10.989 -0.4013 -0.0661 -0.4610
  262TMC3    C4 4018   3.654   4.256  10.951 -0.1493  0.2391  0.7368
  262TMC3    C5 4019   3.625   4.383  10.922  0.2183 -0.1882 -0.5852
  262TMC3    C6 4020   3.502   4.435  10.947 -0.4134 -0.0887  0.5209
  262TMC3     C 4021   3.585   4.045  11.036  1.0587 -0.5026  0.9880
  262TMC3     O 4022   3.501   3.963  11.007  0.1658  0.0414 -0.0065
  262TMC3     H 4023   3.344   4.153  11.056  1.1540  0.4455  2.0076
  262TMC3    H1 4024   3.752   4.214  10.929 -0.4351  0.0767 -0.2267
  262TMC3    H2 4025   3.484   4.538  10.916 -1.3289 -0.0934  1.0327
  262TMC3    C7 4026   3.733   4.477  10.923 -0.1162  0.1331  0.2678
  262TMC3    C8 4027   3.305   4.428  11.069 -0.0210  0.3253 -0.6178
  262TMC3    O1 4028   3.830   4.442  10.862 -0.7105 -0.1375  0.4843
  262TMC3    O2 4029   3.318   4.551  11.081 -0.0696 -0.6324  0.0837
  263MPD2     C 4030   4.299   3.100  11.497 -0.5122  0.7103  0.2835
  263MPD2    C1 4031   4.401   3.081  11.407  0.0363  0.0204 -0.2101
  263MPD2    C2 4032   4.422   3.177  11.310  0.2501 -0.5748 -1.2321
  263MPD2    C3 4033   4.352   3.294  11.305  0.1074 -0.5916 -0.1607
  263MPD2    C4 4034   4.244   3.308  11.388  0.0492 -0.4855  0.2086
  263MPD2    C5 4035   4.223   3.214  11.485  1.0392 -0.5040 -0.0141
  263MPD2     H 4036   4.503   3.164  11.239  1.6862 -0.2944  0.3735
  263MPD2    H1 4037   4.185   3.399  11.395 -0.6178 -0.8006 -1.2679
  263MPD2    H2 4038   4.278   3.020  11.568  1.0078 -2.0031 -2.3127
  263MPD2    H3 4039   4.139   3.232  11.551 -0.6535  0.6672 -2.5197
  263MPD2     N 4040   4.412   3.399  11.228  0.6660  0.0171 -0.0875
  263MPD2    H5 4041   4.495   3.390  11.170  0.8596  4.3281 -0.4772
  263MPD2    N1 4042   4.483   2.968  11.414 -0.3837 -0.8176 -0.4345
  263MPD2    H7 4043   4.447   2.890  11.468  0.3285 -0.6231  0.3180
  264TMC3    C1 4044   4.440   3.611  11.143  0.2173 -0.4401  0.3850
  264TMC3    C2 4045   4.434   3.746  11.173  0.2657  0.4566 -0.5189
  264TMC3    C3 4046   4.527   3.823  11.110 -0.2057 -0.1926  0.1067
  264TMC3    C4 4047   4.511   3.563  11.036  0.4550 -0.6023  0.5794
  264TMC3    C5 4048   4.575   3.653  10.958 -0.4370  0.2234 -0.2922
  264TMC3    C6 4049   4.586   3.783  10.993 -0.0939 -0.3924  0.3303
  264TMC3     C 4050   4.365   3.523  11.235 -0.4238 -0.2763 -0.4071
  264TMC3     O 4051   4.293   3.579  11.315  0.0981 -0.2872  0.1692
  264TMC3     H 4052   4.381   3.773  11.263  2.0999  1.8961  0.1256
  264TMC3    H1 4053   4.494   3.464  10.996  0.4109  0.3194 -1.7208
  264TMC3    H2 4054   4.652   3.852  10.941 -1.5494 -0.2213 -1.2813
  264TMC3    C7 4055   4.646   3.613  10.840 -0.2702  0.0968  0.2342
  264TMC3    C8 4056   4.507   3.973  11.129  0.3302  0.7172  0.2402
  264TMC3    O1 4057   4.673   3.712  10.767 -0.1886  0.1829  0.5597
  264TMC3    O2 4058   4.552   4.051  11.048  0.0066 -0.0816  0.0588
  265MPD2     C 4059   1.717   4.004  15.928  0.0035 -0.0842 -0.0142
  265MPD2    C1 4060   1.650   4.034  15.810  0.6007 -0.5923  0.3780
  265MPD2    C2 4061   1.653   3.944  15.705 -0.3158  0.3594  0.0896
  265MPD2    C3 4062   1.726   3.825  15.716  0.6271 -0.7055 -0.2696
  265MPD2    C4 4063   1.784   3.798  15.836  0.1834 -0.2331  0.0015
  265MPD2    C5 4064   1.783   3.881  15.940 -0.1942  0.3574  0.1668
  265MPD2     H 4065   1.612   3.972  15.609 -0.0466  0.0625 -0.1097
  265MPD2    H1 4066   1.842   3.707  15.835  1.4117  0.5213  2.5075
  265MPD2    H2 4067   1.720   4.070  16.015 -2.5096 -0.0119  0.0378
  265MPD2    H3 4068   1.822   3.862  16.039 -1.2554 -0.9832  0.3221
  265MPD2     N 4069   1.745   3.726  15.619 -0.1493 -0.0705  0.5409
  265MPD2    H5 4070   1.789   3.640  15.650  2.8682  1.9953  2.0384
  265MPD2    N1 4071   1.581   4.151  15.790 -0.6810  1.0091  0.6057
  265MPD2    H7 4072   1.543   4.170  15.698 -0.6269  3.0429  0.9967
  266TMC3    C1 4073   1.470   4.349  15.844  0.3156  0.2461 -0.7148
  266TMC3    C2 4074   1.476   4.464  15.912  0.3835 -0.3640  0.1026
  266TMC3    C3 4075   1.364   4.539  15.911 -0.3642 -0.1272  0.2159
  266TMC3    C4 4076   1.361   4.304  15.772  0.2645 -0.0355  0.2479
  266TMC3    C5 4077   1.256   4.389  15.762  0.1406 -0.4598  0.0629
  266TMC3    C6 4078   1.249   4.508  15.837  0.5085 -0.5270 -0.2433
  266TMC3     C 4079   1.575   4.254  15.881  0.1705 -0.4156  0.7370
  266TMC3     O 4080   1.614   4.265  15.995  0.2666  0.0717 -0.1693
  266TMC3     H 4081   1.566   4.493  15.965 -0.7760  0.0698  1.8427
  266TMC3    H1 4082   1.347   4.211  15.719 -0.1655 -0.5817  1.3144
  266TMC3    H2 4083   1.165   4.575  15.825  2.0334  1.3376 -0.5927
  266TMC3    C7 4084   1.151   4.359  15.676  0.6271  0.0998 -0.1318
  266TMC3    C8 4085   1.363   4.670  15.979  0.2301 -0.1259  0.5928
  266TMC3    O1 4086   1.123   4.240  15.650 -0.3810  0.4852 -0.1787
  266TMC3    O2 4087   1.470   4.703  16.022 -0.5357 -0.2409  0.0939
  267MPD2     C 4088   4.369   0.429  17.534  0.1203 -0.4450  0.1194
  267MPD2    C1 4089   4.334   0.539  17.459 -0.0801 -0.4316  0.6099
  267MPD2    C2 4090   4.205   0.548  17.412 -0.2127 -0.7745 -0.0449
  267MPD2    C3 4091   4.115   0.448  17.430 -0.2428 -0.1503 -0.0262
  267MPD2    C4 4092   4.147   0.336  17.517 -0.1132  0.0850 -0.1450
  267MPD2    C5 4093   4.275   0.329  17.568 -0.3073  0.1142 -0.1269
  267MPD2     H 4094   4.172   0.630  17.349 -1.4257 -1.3840 -0.2046
  267MPD2    H1 4095   4.074   0.262  17.548  1.0007 -1.3521 -0.9495
  267MPD2    H2 4096   4.471   0.409  17.566  1.4749 -0.0407 -3.8582
  267MPD2    H3 4097   4.299   0.247  17.634  3.1293 -0.0655 -1.6075
  267MPD2     N 4098   3.988   0.459  17.369 -0.2610  0.2678  0.4033
  267MPD2    H5 4099   3.975   0.538  17.307 -0.3856  1.7707  2.3441
  267MPD2    N1 4100   4.445   0.625  17.433  0.6548 -0.5731 -0.2580
  267MPD2    H7 4101   4.538   0.593  17.460 -0.4580 -1.7572  2.1696
  268TMC3    C1 4102   4.539   0.827  17.363 -0.0282 -0.0696 -0.0761
  268TMC3    C2 4103   4.537   0.927  17.267 -0.5715  0.1733 -0.1381
  268TMC3    C3 4104   4.637   1.023  17.280 -0.6753 -0.4189 -0.0330
  268TMC3    C4 4105   4.619   0.823  17.470  0.3920 -0.0972  0.3799
  268TMC3    C5 4106   4.718   0.927  17.466 -0.4709  1.1907  0.8072
  268TMC3    C6 4107   4.736   1.015  17.368  0.3111 -0.2463  0.0928
  268TMC3     C 4108   4.428   0.737  17.354 -1.1386  0.1610  0.1105
  268TMC3     O 4109   4.325   0.778  17.301 -0.8203  0.0479  0.2050
  268TMC3     H 4110   4.466   0.913  17.187 -0.7731  0.7306 -0.0570
  268TMC3    H1 4111   4.610   0.757  17.556 -1.3148  0.4091  0.5847
  268TMC3    H2 4112   0.071   1.096  17.369 -1.7934  1.6747 -0.5212
  268TMC3    C7 4113   0.049   0.925  17.596 -0.2589 -0.1982 -0.0245
  268TMC3    C8 4114   4.644   1.132  17.178 -0.2504  0.0280 -0.5753
  268TMC3    O1 4115   0.080   0.813  17.636  0.6965 -0.1581  0.0769
  268TMC3    O2 4116   0.008   1.194  17.166  0.4853  0.1767  0.2181
  269MPD2     C 4117   4.404   4.636  15.096  0.0666  0.2058  0.1320
  269MPD2    C1 4118   4.323   4.678  15.199 -0.4095 -0.2565  0.6182
  269MPD2    C2 4119   4.305   0.074  15.227 -0.1565 -0.4686  0.1881
  269MPD2    C3 4120   4.359   0.165  15.146 -0.5167  0.1901  0.2674
  269MPD2    C4 4121   4.440   0.127  15.040 -0.7897 -0.3164  0.4604
  269MPD2    C5 4122   4.465   4.726  15.018  0.1647 -0.2328  0.7154
  269MPD2     H 4123   4.255   0.110  15.317  1.5352 -2.0223  1.7582
  269MPD2    H1 4124   4.468   0.198  14.963  2.4058  0.9754  2.7927
  269MPD2    H2 4125   4.410   4.528  15.085 -1.1902  0.0453  0.9908
  269MPD2    H3 4126   4.519   4.694  14.930  1.7606 -0.6476  1.8343
  269MPD2     N 4127   4.328   0.298  15.179  0.2836  0.0292  0.5648
  269MPD2    H5 4128   4.254   0.310  15.248 -0.3178  0.8045 -0.2146
  269MPD2    N1 4129   4.261   4.575  15.276  0.7915 -0.0452  0.4932
  269MPD2    H7 4130   4.293   4.483  15.246  2.3503  0.2084  1.3551
  270TMC3    C1 4131   4.128   4.482  15.439 -0.4435 -0.6738 -0.2148
  270TMC3    C2 4132   4.005   4.431  15.425  0.6430 -0.0238  0.1812
  270TMC3    C3 4133   3.982   4.304  15.474  0.2602 -0.3910 -0.1023
  270TMC3    C4 4134   4.233   4.415  15.494  0.4591 -0.1079  0.2284
  270TMC3    C5 4135   4.202   4.290  15.537  0.4257  0.0616 -0.4848
  270TMC3    C6 4136   4.082   4.230  15.522 -0.3119  0.1661 -0.5830
  270TMC3     C 4137   4.157   4.600  15.366 -0.8344 -0.2075  0.1651
  270TMC3     O 4138   4.079   4.699  15.376  0.4775 -0.1133  0.4636
  270TMC3     H 4139   3.925   4.489  15.381 -0.1214 -1.6671 -0.5871
  270TMC3    H1 4140   4.328   4.460  15.519  0.3613 -0.3578  1.0433
  270TMC3    H2 4141   4.064   4.128  15.553  0.0277 -0.0435 -1.0721
  270TMC3    C7 4142   4.312   4.197  15.537 -0.4321  1.2650  0.8189
  270TMC3    C8 4143   3.860   4.240  15.439 -0.1682  0.3603 -0.2036
  270TMC3    O1 4144   4.299   4.083  15.489 -0.2325 -0.2783  0.6277
  270TMC3    O2 4145   3.753   4.303  15.436  0.1347  0.2362 -0.2047
  271MPD2     C 4146   3.294   3.586  13.820  0.8372  0.5918 -0.1520
  271MPD2    C1 4147   3.259   3.620  13.947  0.5391  0.6364  0.1511
  271MPD2    C2 4148   3.135   3.668  13.977 -0.4113 -0.1657  0.0472
  271MPD2    C3 4149   3.040   3.681  13.874 -0.3148  0.2167 -0.7065
  271MPD2    C4 4150   3.079   3.646  13.746 -0.5139  0.7493  0.1147
  271MPD2    C5 4151   3.205   3.608  13.717  0.1109 -0.1018  0.0392
  271MPD2     H 4152   3.109   3.689  14.080  0.6962 -2.7827  0.8394
  271MPD2    H1 4153   3.011   3.643  13.662  0.0587 -0.0664 -0.3271
  271MPD2    H2 4154   3.391   3.550  13.787  0.2707 -1.9109  0.9131
  271MPD2    H3 4155   3.229   3.588  13.613  3.0967  2.6775  0.2044
  271MPD2     N 4156   2.911   3.727  13.895 -0.7815 -0.1490 -0.0951
  271MPD2    H5 4157   2.853   3.726  13.812 -1.2802  0.7696  0.2444
  271MPD2    N1 4158   3.352   3.608  14.053 -0.5517  0.0157 -0.8418
  271MPD2    H7 4159   3.315   3.630  14.145  0.4895  0.4056 -0.5187
  272TMC3    C1 4160   3.555   3.564  14.169 -0.3266  0.1698  0.7626
  272TMC3    C2 4161   3.659   3.488  14.180 -0.1867 -0.2574 -0.6287
  272TMC3    C3 4162   3.726   3.472  14.297  0.4539  0.0254  0.3498
  272TMC3    C4 4163   3.516   3.643  14.266  0.1869 -0.5007  0.0454
  272TMC3    C5 4164   3.585   3.633  14.382 -0.4077 -0.2896  0.4776
  272TMC3    C6 4165   3.692   3.546  14.398  0.6267 -0.1502 -0.1650
  272TMC3     C 4166   3.476   3.548  14.049  0.0207 -0.2233  0.6269
  272TMC3     O 4167   3.523   3.482  13.955 -0.0091  0.2193 -0.2418
  272TMC3     H 4168   3.692   3.445  14.086 -1.5447  0.0540 -1.2517
  272TMC3    H1 4169   3.437   3.718  14.259 -0.3414 -1.0910 -0.2718
  272TMC3    H2 4170   3.726   3.530  14.500  1.1455  0.2297 -0.2777
  272TMC3    C7 4171   3.520   3.698  14.495 -0.3441 -0.0441  0.8510
  272TMC3    C8 4172   3.841   3.384  14.303 -0.3240 -0.0622 -0.0846
  272TMC3    O1 4173   3.401   3.722  14.475 -0.1060 -0.1084  0.1865
  272TMC3    O2 4174   3.866   3.319  14.206 -0.8543  0.0685 -0.2865
  273MPD2     C 4175   0.251   2.018  11.276  0.3423 -0.3874 -0.0439
  273MPD2    C1 4176   0.312   2.135  11.309  0.2280  0.0891  0.6135
  273MPD2    C2 4177   0.379   2.199  11.204 -0.5902  0.4839 -0.0266
  273MPD2    C3 4178   0.399   2.127  11.083  0.2043 -0.5214  0.5371
  273MPD2    C4 4179   0.347   2.008  11.067 -0.4588 -0.4224 -0.1371
  273MPD2    C5 4180   0.274   1.949  11.162 -0.2893 -0.0696 -0.6971
  273MPD2     H 4181   0.433   2.291  11.222  0.8523 -0.1289 -1.2801
  273MPD2    H1 4182   0.353   1.953  10.974  2.3436 -0.6862  0.1798
  273MPD2    H2 4183   0.185   1.962  11.341  0.2061  0.2830  0.4072
  273MPD2    H3 4184   0.218   1.859  11.137  2.2531 -2.3432  1.8283
  273MPD2     N 4185   0.461   2.185  10.967 -0.3831  0.6088  0.6701
  273MPD2    H5 4186   0.440   2.138  10.880  1.0953  1.3713 -0.0915
  273MPD2    N1 4187   0.294   2.199  11.437 -0.4670 -0.2886 -0.4122
  273MPD2    H7 4188   0.233   2.155  11.505  0.0635  2.8541  2.1529
  274TMC3    C1 4189   0.569   2.347  10.843  0.7698 -0.0386 -0.3603
  274TMC3    C2 4190   0.486   2.336  10.737 -0.3458 -0.0702 -0.4559
  274TMC3    C3 4191   0.519   2.407  10.620  0.4447  0.1124 -0.7388
  274TMC3    C4 4192   0.672   2.431  10.846  0.2480 -0.0101  0.1616
  274TMC3    C5 4193   0.695   2.512  10.739 -0.6294 -0.2517 -0.0305
  274TMC3    C6 4194   0.624   2.501  10.625 -0.1579 -0.0605 -0.5434
  274TMC3     C 4195   0.526   2.300  10.973  0.7404 -0.3455  0.4184
  274TMC3     O 4196   0.572   2.366  11.064 -0.2915 -0.8736 -0.4087
  274TMC3     H 4197   0.399   2.271  10.742 -1.0048  0.6615 -2.6722
  274TMC3    H1 4198   0.741   2.430  10.929  0.6958 -0.6922 -0.2139
  274TMC3    H2 4199   0.622   2.587  10.558 -3.7555  1.5325  1.6000
  274TMC3    C7 4200   0.694   2.650  10.782  1.2645  0.2710 -0.1585
  274TMC3    C8 4201   0.431   2.380  10.501  0.1514  0.4705  0.4228
  274TMC3    O1 4202   0.733   2.738  10.710  0.4261  0.4626 -0.1096
  274TMC3    O2 4203   0.350   2.285  10.515  0.0367 -0.3283  0.1645
  275MPD2     C 4204   0.071   0.181  14.189  0.2276 -0.4722  0.2326
  275MPD2    C1 4205   0.047   0.082  14.279 -0.9428  0.8840 -0.3759
  275MPD2    C2 4206   4.693   4.720  14.245 -0.1073 -0.3780 -0.9963
  275MPD2    C3 4207   4.605   4.737  14.139  0.1560 -0.9154  0.1849
  275MPD2    C4 4208   4.626   0.107  14.056  0.1373 -0.2989  0.7161
  275MPD2    C5 4209   4.729   0.195  14.082 -0.0943 -0.1065 -0.1558
  275MPD2     H 4210   4.670   4.646  14.321  1.5803  0.1110 -0.0014
  275MPD2    H1 4211   4.565   0.132  13.971  2.4463 -0.7194 -1.0637
  275MPD2    H2 4212   0.130   0.270  14.212 -1.0252  0.6391 -0.8901
  275MPD2    H3 4213   0.001   0.281  14.017  1.7968 -1.1005 -1.1996
  275MPD2     N 4214   4.489   4.662  14.112 -0.4364  0.0596 -0.3000
  275MPD2    H5 4215   4.431   4.683  14.031  0.3370 -0.4813 -0.9861
  275MPD2    N1 4216   0.098   0.063  14.405  0.4972 -0.4653 -0.3884
  275MPD2    H7 4217   0.082   4.717  14.459  0.0155  1.5351  2.5946
  276TMC3    C1 4218   0.230   0.121  14.597 -0.1604 -0.2556 -0.3740
  276TMC3    C2 4219   0.288   0.001  14.612  0.4557  0.0235  0.2390
  276TMC3    C3 4220   0.356   4.719  14.736  0.1069 -0.3003  0.4978
  276TMC3    C4 4221   0.255   0.225  14.676  0.2333  0.4288  0.4456
  276TMC3    C5 4222   0.321   0.200  14.797  0.0728  0.3184  0.3639
  276TMC3    C6 4223   0.368   0.078  14.829 -0.1358  0.3855  0.5210
  276TMC3     C 4224   0.172   0.161  14.466 -0.2953  0.4361 -0.0763
  276TMC3     O 4225   0.165   0.278  14.435 -0.2189  0.4228 -0.0527
  276TMC3     H 4226   0.270   4.663  14.538  1.7309 -0.0946  0.0534
  276TMC3    H1 4227   0.202   0.318  14.657 -0.0861 -0.2846 -2.2748
  276TMC3    H2 4228   0.435   0.057  14.912  0.0692  0.7937  0.4622
  276TMC3    C7 4229   0.383   0.317  14.852  0.3021 -0.5094 -0.6277
  276TMC3    C8 4230   0.436   4.595  14.755 -0.6491  0.3888 -0.6498
  276TMC3    O1 4231   0.437   0.303  14.958  0.0304 -0.3896 -0.2569
  276TMC3    O2 4232   0.546   4.609  14.808  0.1740 -0.2555 -0.1646
  277MPD2     C 4233   1.568   3.270  13.412 -0.2217 -0.0774 -0.1479
  277MPD2    C1 4234   1.464   3.360  13.432  0.4125 -0.1905  0.5431
  277MPD2    C2 4235   1.376   3.331  13.528  0.8105 -0.0702  0.1519
  277MPD2    C3 4236   1.396   3.223  13.618 -0.0271 -0.6965  0.4058
  277MPD2    C4 4237   1.508   3.142  13.605  0.4013 -0.3412  0.2832
  277MPD2    C5 4238   1.585   3.159  13.490 -0.1025  0.4612  0.4691
  277MPD2     H 4239   1.302   3.407  13.548 -1.6110 -2.6049  0.9261
  277MPD2    H1 4240   1.523   3.060  13.674  2.0597 -0.6638 -0.4675
  277MPD2    H2 4241   1.632   3.285  13.326  1.4498 -2.4847  0.7083
  277MPD2    H3 4242   1.667   3.093  13.468  1.2956  2.8616 -1.5701
  277MPD2     N 4243   1.295   3.201  13.716 -0.0020  0.3004  0.1537
  277MPD2    H5 4244   1.222   3.272  13.716 -0.6683 -0.3853  1.7230
  277MPD2    N1 4245   1.455   3.482  13.362 -0.1767 -0.5812  0.0085
  277MPD2    H7 4246   1.376   3.537  13.392  0.1135  0.3040 -0.8497
  278TMC3    C1 4247   1.176   3.091  13.893 -0.1899 -0.6024 -0.0338
  278TMC3    C2 4248   1.121   2.971  13.927  0.7510  0.1215  0.3028
  278TMC3    C3 4249   1.001   2.959  13.991  0.1001  0.2497 -0.2988
  278TMC3    C4 4250   1.105   3.208  13.920 -0.1443  1.0040  0.3978
  278TMC3    C5 4251   0.980   3.191  13.975  0.2994  0.1751  0.7729
  278TMC3    C6 4252   0.926   3.073  14.014 -0.1880 -0.7967  0.2222
  278TMC3     C 4253   1.278   3.089  13.789  0.6616  0.6396 -0.6108
  278TMC3     O 4254   1.327   2.976  13.772 -0.0909  0.2796 -0.4266
  278TMC3     H 4255   1.173   2.877  13.914  3.1347  1.5841 -0.7367
  278TMC3    H1 4256   1.152   3.304  13.902 -0.9290  1.2792 -0.1752
  278TMC3    H2 4257   0.830   3.074  14.064 -0.9957 -1.5822 -1.3167
  278TMC3    C7 4258   0.899   3.309  13.975  0.3899 -0.2117 -0.3418
  278TMC3    C8 4259   0.931   2.832  14.010  0.3845  0.1449  0.0635
  278TMC3    O1 4260   0.959   3.415  13.972  0.0985  0.2020  0.0527
  278TMC3    O2 4261   0.833   2.835  14.080  0.1522 -0.6303 -0.2366
  279MPD2     C 4262   0.996   4.179   0.282  0.2055  0.0899  0.1707
  279MPD2    C1 4263   0.922   4.295   0.239 -0.6921  0.0697  0.0321
  279MPD2    C2 4264   0.939   4.340   0.109  0.8088 -0.4872 -0.3093
  279MPD2    C3 4265   1.014   4.266   0.017  0.6080  0.8718 -0.2131
  279MPD2    C4 4266   1.068   4.147   0.060  0.8839 -0.1683 -0.2176
  279MPD2    C5 4267   1.069   4.109   0.192 -0.4728 -0.5375 -0.4645
  279MPD2     H 4268   0.894   4.434   0.079  2.6670  0.1165 -1.1881
  279MPD2    H1 4269   1.122   4.088  17.739 -0.2544 -0.9522 -0.4275
  279MPD2    H2 4270   0.996   4.141   0.383 -0.1695  0.5202  0.3325
  279MPD2    H3 4271   1.114   4.018   0.230  0.3995  0.4062  0.7640
  279MPD2     N 4272   1.020   4.299  17.628 -0.3510 -0.1700 -0.0455
  279MPD2    H5 4273   1.062   4.225  17.573 -0.2371  0.7914 -1.2609
  279MPD2    N1 4274   0.857   4.375   0.342 -0.1782  0.4069 -0.1531
  279MPD2    H7 4275   0.880   4.348   0.438 -4.0456  2.8037  1.4426
  280TMC3    C1 4276   0.696   4.510   0.198 -0.5530  0.3503 -0.2578
  280TMC3    C2 4277   0.649   4.410   0.125 -0.6654 -0.0580 -0.7081
  280TMC3    C3 4278   0.572   4.436   0.012 -0.7640 -0.2602 -0.8967
  280TMC3    C4 4279   0.658   4.640   0.171  0.1531 -0.0540  0.0236
  280TMC3    C5 4280   0.575   4.665   0.067 -0.5440 -0.4776 -0.3966
  280TMC3    C6 4281   0.540   4.567  17.731  0.3951  0.4026  0.1489
  280TMC3     C 4282   0.760   4.473   0.325 -0.2293  0.7845 -0.4871
  280TMC3     O 4283   0.718   4.544   0.417 -0.3107 -0.0542 -0.2657
  280TMC3     H 4284   0.667   4.308   0.157  1.5187  0.5405 -0.0684
  280TMC3    H1 4285   0.699   4.717   0.235 -0.3307  2.4990 -2.7515
  280TMC3    H2 4286   0.478   4.579  17.642 -2.1623 -1.9956  1.5837
  280TMC3    C7 4287   0.594   0.063   0.018 -0.0936 -0.0924  0.1950
  280TMC3    C8 4288   0.550   4.329  17.667  0.2134  0.1908 -0.3249
  280TMC3    O1 4289   0.648   0.146   0.087 -1.0390  0.2987 -0.1530
  280TMC3    O2 4290   0.478   4.354  17.574 -0.1078  0.0453 -0.3433
  281TMC3    C1 4291   4.449   3.975  13.379  0.8050 -0.5282  0.0383
  281TMC3    C2 4292   4.480   4.093  13.319 -0.4611  0.3894  0.6075
  281TMC3    C3 4293   4.546   4.088  13.196 -0.8577 -0.6654 -0.4914
  281TMC3    C4 4294   4.492   3.853  13.327  0.3690  0.5561 -0.2797
  281TMC3    C5 4295   4.562   3.856  13.212 -0.5420  0.3989  0.4765
  281TMC3    C6 4296   4.593   3.970  13.145 -0.3877  1.0049 -0.3999
  281TMC3     C 4297   4.368   3.977  13.493  0.5587 -0.2913 -0.3859
  281TMC3     O 4298   4.401   3.903  13.584 -0.0159 -0.0816 -0.2860
  281TMC3     H 4299   4.462   4.188  13.367 -2.3244  1.3578 -2.0174
  281TMC3    H1 4300   4.463   3.761  13.375  1.4421  1.4540  2.0839
  281TMC3    H2 4301   4.656   3.958  13.058  0.1360  0.8269  0.0077
  281TMC3    C7 4302   4.595   3.727  13.150  0.5594 -0.1287  0.0445
  281TMC3    C8 4303   4.572   4.212  13.109  0.4657  0.1058  0.5089
  281TMC3    O1 4304   4.714   3.702  13.133  0.1789  0.6872 -0.2201
  281TMC3    O2 4305   4.683   4.220  13.056  0.4847  0.3325 -0.4793
  282MPD2     C 4306   1.750   0.695  14.956 -0.4443 -0.2690  0.1232
  282MPD2    C1 4307   1.640   0.771  14.990  0.0206  0.7339  0.0196
  282MPD2    C2 4308   1.554   0.804  14.887 -0.3049  0.0790  0.5352
  282MPD2    C3 4309   1.579   0.757  14.761  0.5793 -0.6383  0.1237
  282MPD2    C4 4310   1.682   0.674  14.733  0.1216 -0.5180 -0.3589
  282MPD2    C5 4311   1.775   0.642  14.827 -0.1568  0.0694  0.3474
  282MPD2     H 4312   1.478   0.877  14.913  1.0253  1.3920  0.7660
  282MPD2    H1 4313   1.675   0.632  14.634  0.3362 -1.0004 -0.1712
  282MPD2    H2 4314   1.824   0.667  15.031 -0.5688 -0.8207  0.0397
  282MPD2    H3 4315   1.867   0.588  14.807 -0.8824 -0.8509 -0.5604
  282MPD2     N 4316   1.498   0.797  14.651  0.2498  0.6036  0.1808
  282MPD2    H5 4317   1.497   0.730  14.575 -1.0102  1.4198 -0.5044
  282MPD2    N1 4318   1.593   0.804  15.122  0.1111 -0.3049  0.7630
  282MPD2    H7 4319   1.497   0.833  15.139 -0.2303 -0.0050 -1.5943
  283TMC3    C1 4320   1.619   0.844  15.348 -0.2767  0.3129 -0.1213
  283TMC3    C2 4321   1.678   0.934  15.438 -0.0609 -0.0732  0.8673
  283TMC3    C3 4322   1.620   0.951  15.562  0.4374  0.3417  0.1584
  283TMC3    C4 4323   1.501   0.778  15.373  0.5405  0.2414  0.6311
  283TMC3    C5 4324   1.454   0.789  15.503  0.3147 -0.1413 -0.2355
  283TMC3    C6 4325   1.521   0.868  15.598 -0.4885  0.3461 -0.0945
  283TMC3     C 4326   1.684   0.796  15.233  0.1956  0.4824 -0.3569
  283TMC3     O 4327   1.807   0.800  15.231 -0.6833  0.3165 -0.1382
  283TMC3     H 4328   1.771   0.983  15.413 -2.3085  3.0200 -1.3333
  283TMC3    H1 4329   1.461   0.706  15.303 -0.0854 -1.0345  2.3092
  283TMC3    H2 4330   1.461   0.892  15.685  0.0267  4.4158 -0.8909
  283TMC3    C7 4331   1.328   0.724  15.536 -0.2205 -0.3218 -0.0865
  283TMC3    C8 4332   1.649   1.077  15.650  0.1999  0.2838 -0.4301
  283TMC3    O1 4333   1.301   0.719  15.659  0.4824 -0.3241 -0.4431
  283TMC3    O2 4334   1.597   1.084  15.758  0.5369 -0.2252  0.4545
  284MPD2     C 4335   4.386   4.518  12.348 -0.0077  0.1416  0.3011
  284MPD2    C1 4336   4.448   4.539  12.226  0.2960 -0.8132 -0.1849
  284MPD2    C2 4337   4.455   4.435  12.137  0.2126  0.6841  0.8742
  284MPD2    C3 4338   4.389   4.316  12.164  0.5723  0.4543 -0.9367
  284MPD2    C4 4339   4.324   4.299  12.282  0.0743  0.1218 -0.3403
  284MPD2    C5 4340   4.323   4.398  12.374  0.6422  0.3011 -0.0619
  284MPD2     H 4341   4.522   4.444  12.052 -1.2586 -1.7305 -0.5639
  284MPD2    H1 4342   4.271   4.207  12.302  0.9186  0.1633  2.0676
  284MPD2    H2 4343   4.376   4.589  12.429  0.4599  0.3433  0.1816
  284MPD2    H3 4344   4.270   4.393  12.468 -0.6042  0.7357 -0.7405
  284MPD2     N 4345   4.405   4.206  12.080 -0.4725  0.5314 -0.6617
  284MPD2    H5 4346   4.374   4.118  12.118  2.1722 -0.3437 -0.5795
  284MPD2    N1 4347   4.512   4.665  12.195 -0.4139  0.3949 -0.0106
  284MPD2    H7 4348   4.562   4.674  12.107 -1.2107 -0.7387 -0.5858
  285TMC3    C1 4349   4.572   0.143  12.198 -0.2095  0.1093  0.7699
  285TMC3    C2 4350   4.679   0.109  12.122  0.5268  0.9043  0.0637
  285TMC3    C3 4351   0.001   0.208  12.048  0.1008 -0.2482 -0.4765
  285TMC3    C4 4352   4.518   0.269  12.186 -0.1336 -0.1344 -0.1299
  285TMC3    C5 4353   4.568   0.355  12.095  0.1732  0.3123  0.2327
  285TMC3    C6 4354   4.674   0.321  12.015  0.6566  0.8938  0.1386
  285TMC3     C 4355   4.496   0.042  12.271  0.5204 -0.0396 -0.3227
  285TMC3     O 4356   4.418   0.074  12.359 -0.4727 -0.2603 -0.5287
  285TMC3     H 4357   4.735   0.016  12.133 -0.1507  0.3326 -1.3057
  285TMC3    H1 4358   4.438   0.308  12.248 -0.6656  0.5609 -1.2570
  285TMC3    H2 4359   4.715   0.390  11.941 -0.6403  0.1902 -1.2382
  285TMC3    C7 4360   4.498   0.474  12.057  0.1524 -0.4202  0.8683
  285TMC3    C8 4361   0.100   0.164  11.955 -0.4288  0.3992 -0.0482
  285TMC3    O1 4362   4.556   0.561  11.994  0.1514  0.3187 -0.1745
  285TMC3    O2 4363   0.068   0.056  11.901 -0.0475  0.0098  0.7081
  286MPD2     C 4364   0.015   4.037   1.310 -0.2879  1.0577 -0.1457
  286MPD2    C1 4365   0.023   4.025   1.173  0.2320  0.1393  0.6062
  286MPD2    C2 4366   0.105   3.930   1.117 -0.4127  0.1102 -0.6072
  286MPD2    C3 4367   0.170   3.831   1.197 -0.0993 -0.0070  0.1755
  286MPD2    C4 4368   0.156   3.846   1.335 -0.1988 -0.7025  0.0261
  286MPD2    C5 4369   0.074   3.943   1.387 -0.6961 -0.1088  1.1360
  286MPD2     H 4370   0.106   3.931   1.008  1.0998  0.2050 -0.5917
  286MPD2    H1 4371   0.209   3.778   1.401 -0.8564 -0.0564  1.2025
  286MPD2    H2 4372   4.702   4.117   1.362 -0.9950  1.8291 -2.0419
  286MPD2    H3 4373   0.073   3.961   1.494 -0.3839  0.2843  1.0739
  286MPD2     N 4374   0.230   3.717   1.142  0.2350  0.6342  0.3414
  286MPD2    H5 4375   0.270   3.652   1.209  0.1513 -0.1502 -0.3871
  286MPD2    N1 4376   4.686   4.120   1.094 -0.2918 -0.0634 -0.4234
  286MPD2    H7 4377   4.710   4.112   0.996 -2.2501  0.0735 -0.9147
  287TMC3    C1 4378   0.310   3.564   0.985 -0.2161 -0.4860  0.6510
  287TMC3    C2 4379   0.295   3.516   0.858 -1.2278  0.5538  0.1159
  287TMC3    C3 4380   0.392   3.432   0.804 -0.3842 -0.2465  0.3744
  287TMC3    C4 4381   0.418   3.522   1.061  0.0333 -0.2685 -0.3488
  287TMC3    C5 4382   0.510   3.436   1.012  0.5539 -0.5957  0.5665
  287TMC3    C6 4383   0.500   3.398   0.879  0.2026 -0.0999 -0.4833
  287TMC3     C 4384   0.235   3.679   1.008 -0.2386  0.3032  0.5911
  287TMC3     O 4385   0.203   3.746   0.910 -0.5704  0.1822 -0.7440
  287TMC3     H 4386   0.208   3.546   0.801 -0.9901  1.3019  0.1517
  287TMC3    H1 4387   0.433   3.551   1.164 -0.3567  0.0606 -0.3872
  287TMC3    H2 4388   0.570   3.322   0.848 -0.3914 -0.4110 -1.0747
  287TMC3    C7 4389   0.630   3.407   1.092 -0.5589 -0.0209 -0.1076
  287TMC3    C8 4390   0.366   3.346   0.699  0.3387  0.6113  0.1405
  287TMC3    O1 4391   0.629   3.446   1.206 -0.0514 -0.3197  0.2109
  287TMC3    O2 4392   0.421   3.235   0.696  0.3318 -0.4090 -0.5625
  288TMC3    C1 4393   1.955   3.305  14.407  0.4335 -0.6218  0.0535
  288TMC3    C2 4394   1.914   3.337  14.533  0.0766  0.1876 -0.3333
  288TMC3    C3 4395   1.815   3.426  14.542  0.4307  0.1036  0.0994
  288TMC3    C4 4396   1.887   3.351  14.291  0.1486  0.3197 -0.0694
  288TMC3    C5 4397   1.777   3.426  14.310 -0.2300  0.1439 -0.2483
  288TMC3    C6 4398   1.734   3.465  14.441 -0.1917 -0.1093  0.8498
  288TMC3     C 4399   2.072   3.217  14.387 -1.0776  0.9735 -0.1039
  288TMC3     O 4400   2.108   3.136  14.473 -0.2173 -0.2649 -0.4943
  288TMC3     H 4401   1.976   3.302  14.615 -0.5406 -2.1491 -0.8581
  288TMC3    H1 4402   1.915   3.319  14.191 -0.0972 -0.3494  0.0768
  288TMC3    H2 4403   1.658   3.540  14.463  0.0780  0.2895  0.4266
  288TMC3    C7 4404   1.710   3.468  14.196  0.4580 -0.2648 -0.1749
  288TMC3    C8 4405   1.750   3.440  14.670 -0.6107 -0.4158  0.0676
  288TMC3    O1 4406   1.756   3.423  14.093  0.2961 -0.4833  0.1013
  288TMC3    O2 4407   1.703   3.549  14.701 -0.2429  0.9078 -0.4702
  289MPD2     C 4408   2.231   2.726  14.503 -0.2342 -0.0269  0.4125
  289MPD2    C1 4409   2.129   2.730  14.409  0.5274 -0.8724  0.6058
  289MPD2    C2 4410   2.008   2.665  14.438 -0.1884 -0.4977 -0.2962
  289MPD2    C3 4411   1.996   2.577  14.549  0.2101 -0.3271 -0.1835
  289MPD2    C4 4412   2.107   2.573  14.635 -0.0720 -0.5835  0.3998
  289MPD2    C5 4413   2.220   2.646  14.616 -1.0107 -0.5999 -0.0748
  289MPD2     H 4414   1.932   2.658  14.361  1.8333 -2.8239 -2.0588
  289MPD2    H1 4415   2.108   2.520  14.730 -0.2206  0.8464  1.2058
  289MPD2    H2 4416   2.330   2.768  14.493  0.6618 -1.9979  1.0474
  289MPD2    H3 4417   2.310   2.647  14.677 -1.9746  1.0442  1.3429
  289MPD2     N 4418   1.874   2.523  14.578 -0.1307 -0.2923 -0.2549
  289MPD2    H5 4419   1.798   2.545  14.515 -0.9715 -3.6576 -0.3992
  289MPD2    N1 4420   2.154   2.803  14.294 -0.9098  0.1695 -0.0182
  289MPD2    H7 4421   2.252   2.820  14.277 -1.3116 -1.7132 -4.1108
  290TMC3    C1 4422   1.715   2.366  14.666 -0.3133 -0.1425 -0.5274
  290TMC3    C2 4423   1.621   2.450  14.616 -0.0002 -0.3763 -0.3967
  290TMC3    C3 4424   1.506   2.387  14.574 -0.0733  0.2955  0.1974
  290TMC3    C4 4425   1.717   2.230  14.670  0.1469  0.1731  0.1150
  290TMC3    C5 4426   1.600   2.177  14.626 -0.1731 -0.0676  0.3971
  290TMC3    C6 4427   1.498   2.250  14.571  0.6307 -0.7851  0.0860
  290TMC3     C 4428   1.846   2.429  14.675 -0.3923  0.1366 -0.7388
  290TMC3     O 4429   1.921   2.373  14.753 -0.4357 -0.1923 -0.0105
  290TMC3     H 4430   1.636   2.554  14.642 -0.2156 -0.1148 -1.3052
  290TMC3    H1 4431   1.796   2.173  14.718 -0.2497  1.0005  1.7373
  290TMC3    H2 4432   1.410   2.204  14.528  0.8407 -0.9847 -0.1347
  290TMC3    C7 4433   1.585   2.034  14.608 -0.0035 -0.9034  0.4593
  290TMC3    C8 4434   1.415   2.460  14.491  0.0945  0.2895 -0.3554
  290TMC3    O1 4435   1.682   1.966  14.594  0.0882  0.0496 -0.4056
  290TMC3    O2 4436   1.356   2.401  14.400 -0.2562  0.3301  0.2874
  291MPD2     C 4437   0.835   3.229   0.137 -0.1312 -0.0017  0.5009
  291MPD2    C1 4438   0.939   3.173   0.198 -0.1571 -0.8425  0.1916
  291MPD2    C2 4439   1.035   3.250   0.246 -0.5368  0.0629  0.1771
  291MPD2    C3 4440   1.040   3.388   0.232  0.5800  0.0227 -0.2847
  291MPD2    C4 4441   0.932   3.445   0.164 -0.3882 -0.1467  0.0902
  291MPD2    C5 4442   0.833   3.364   0.119 -0.3834 -0.5651 -0.0569
  291MPD2     H 4443   1.123   3.203   0.290  0.0380  2.2444  1.3813
  291MPD2    H1 4444   0.929   3.551   0.141  1.8608 -0.0048  0.4338
  291MPD2    H2 4445   0.762   3.160   0.097 -0.9259  0.7215  0.7044
  291MPD2    H3 4446   0.758   3.408   0.055  0.4706  3.2912  1.6011
  291MPD2     N 4447   1.148   3.473   0.258  0.4925  0.3565  0.3839
  291MPD2    H5 4448   1.143   3.570   0.228  1.8244  0.2455 -0.1952
  291MPD2    N1 4449   0.953   3.035   0.210 -0.0610  0.8278  0.6438
  291MPD2    H7 4450   1.027   3.013   0.275  0.9451  1.8767 -0.1297
  292TMC3    C1 4451   0.904   2.804   0.214 -0.1623  0.1654  0.4354
  292TMC3    C2 4452   0.882   2.787   0.348 -0.6051  0.8819 -0.0493
  292TMC3    C3 4453   0.856   2.661   0.393  0.2119  0.0837 -0.1434
  292TMC3    C4 4454   0.900   2.703   0.125  0.0565  0.0513 -0.5540
  292TMC3    C5 4455   0.883   2.580   0.178  0.2493  0.3689  0.1432
  292TMC3    C6 4456   0.848   2.553   0.308 -0.2931  0.1881 -1.0623
  292TMC3     C 4457   0.872   2.932   0.164 -0.4496  0.0782  0.2298
  292TMC3     O 4458   0.795   2.942   0.070  0.4708  0.6540 -0.2889
  292TMC3     H 4459   0.869   2.875   0.410  0.2717  0.4463  0.7582
  292TMC3    H1 4460   0.911   2.725   0.020  0.1040  0.2655 -0.5050
  292TMC3    H2 4461   0.819   2.452   0.334  0.9788  0.4663  1.5041
  292TMC3    C7 4462   0.898   2.463   0.093 -0.3147 -0.1542 -0.6388
  292TMC3    C8 4463   0.772   2.663   0.514 -0.1524  0.1543 -0.3544
  292TMC3    O1 4464   0.955   2.374   0.149 -0.2018  0.4697 -0.4951
  292TMC3    O2 4465   0.755   2.770   0.574  0.1787  0.1101 -0.7745
  293MPD2     C 4466   2.715   3.530  12.601  0.2510  0.8252 -0.7083
  293MPD2    C1 4467   2.585   3.521  12.648  0.2779  0.2668 -0.1403
  293MPD2    C2 4468   2.562   3.534  12.784 -0.1320 -0.4581 -0.3154
  293MPD2    C3 4469   2.664   3.560  12.869  0.1566 -0.3822  0.0576
  293MPD2    C4 4470   2.793   3.566  12.823  0.1847  0.1951 -0.0198
  293MPD2    C5 4471   2.814   3.558  12.688  0.2090  0.2078  0.2360
  293MPD2     H 4472   2.462   3.520  12.823 -0.4643  1.8273 -0.3441
  293MPD2    H1 4473   2.878   3.609  12.876 -0.4481 -0.4085  1.4601
  293MPD2    H2 4474   2.738   3.533  12.495  0.2045 -0.1988 -0.7542
  293MPD2    H3 4475   2.916   3.566  12.651  1.2108 -1.9689  2.4559
  293MPD2     N 4476   2.645   3.557  13.007 -0.0645  0.0411 -0.1719
  293MPD2    H5 4477   2.549   3.551  13.039 -0.4757  1.9966 -1.0428
  293MPD2    N1 4478   2.489   3.505  12.556  0.4513  0.0295  0.3920
  293MPD2    H7 4479   2.526   3.500  12.461 -0.8960 -0.8350 -0.0837
  294TMC3    C1 4480   2.298   3.440  12.449 -0.3930 -0.1601 -0.7671
  294TMC3    C2 4481   2.181   3.373  12.460 -0.5283  0.4028 -0.3637
  294TMC3    C3 4482   2.108   3.347  12.350 -0.2291  0.6646 -0.5668
  294TMC3    C4 4483   2.352   3.478  12.327  0.4005  0.0136 -0.3286
  294TMC3    C5 4484   2.274   3.446  12.219 -0.2874 -0.9795 -0.4872
  294TMC3    C6 4485   2.152   3.388  12.230 -0.0251  0.3369  0.5638
  294TMC3     C 4486   2.352   3.489  12.567 -0.0062  0.0985 -0.4651
  294TMC3     O 4487   2.279   3.486  12.665 -0.3689 -0.2270  0.2014
  294TMC3     H 4488   2.157   3.345  12.562 -0.2349 -3.7531 -1.4342
  294TMC3    H1 4489   2.444   3.533  12.312 -0.6912  1.2918 -2.4088
  294TMC3    H2 4490   2.089   3.382  12.141 -0.4032  1.8857  0.7243
  294TMC3    C7 4491   2.286   3.531  12.102 -0.1215 -0.2228  0.0312
  294TMC3    C8 4492   2.031   3.223  12.363  0.8913 -0.2825  0.5783
  294TMC3    O1 4493   2.189   3.596  12.073  0.2722 -0.6355 -0.1999
  294TMC3    O2 4494   1.971   3.216  12.474 -0.3558  0.6200 -0.0488
  295MPD2     C 4495   4.327   2.729   0.893 -0.7003  0.3711  0.0856
  295MPD2    C1 4496   4.270   2.625   0.827 -0.0794 -0.4144 -0.5053
  295MPD2    C2 4497   4.266   2.496   0.884  0.0609 -0.3879 -0.2280
  295MPD2    C3 4498   4.324   2.481   1.007  0.4149  0.2166  0.4270
  295MPD2    C4 4499   4.382   2.586   1.075 -0.6406 -0.1989  0.8095
  295MPD2    C5 4500   4.384   2.706   1.018  0.4157  0.0559  0.2945
  295MPD2     H 4501   4.210   2.409   0.852 -0.1472  0.2235 -1.5392
  295MPD2    H1 4502   4.426   2.581   1.174  1.7145 -0.3282 -0.2384
  295MPD2    H2 4503   4.327   2.831   0.857 -0.1955  1.1050  2.1920
  295MPD2    H3 4504   4.426   2.788   1.075  3.3482  0.1566 -1.9438
  295MPD2     N 4505   4.316   2.357   1.078 -0.3490 -0.2788 -0.2570
  295MPD2    H5 4506   4.357   2.367   1.170  1.0506 -0.6660 -0.8343
  295MPD2    N1 4507   4.216   2.641   0.693  0.5338 -0.3826 -0.2485
  295MPD2    H7 4508   4.172   2.564   0.645 -1.7415 -0.5946  2.1721
  296TMC3    C1 4509   4.313   2.130   1.111 -0.4009  0.6239  0.0027
  296TMC3    C2 4510   4.388   2.147   1.228  0.4839 -0.0612  0.6803
  296TMC3    C3 4511   4.416   2.039   1.319  0.1654 -0.9318 -0.6356
  296TMC3    C4 4512   4.277   1.997   1.076 -0.5291 -0.5542 -0.3906
  296TMC3    C5 4513   4.316   1.898   1.163 -0.7965 -0.0142  0.2658
  296TMC3    C6 4514   4.375   1.913   1.292 -0.1498 -0.2089 -0.5425
  296TMC3     C 4515   4.276   2.234   1.022 -0.4349  0.0466  0.3106
  296TMC3     O 4516   4.238   2.208   0.912 -0.0358 -0.7102 -0.3430
  296TMC3     H 4517   4.437   2.240   1.254 -1.3970  1.3562 -0.8076
  296TMC3    H1 4518   4.235   1.984   0.976 -2.1230  1.4381  0.0138
  296TMC3    H2 4519   4.387   1.823   1.351 -0.7613  0.5647  0.7718
  296TMC3    C7 4520   4.314   1.764   1.109  0.2849  0.1068  1.2926
  296TMC3    C8 4521   4.513   2.064   1.433  0.0135 -0.3306 -0.1182
  296TMC3    O1 4522   4.337   1.761   0.987 -0.7054  0.2138  0.3560
  296TMC3    O2 4523   4.551   1.960   1.487 -0.1599  0.7890 -0.7358
  297MPD2     C 4524   0.495   4.638  15.480  0.0947  0.0351 -0.3625
  297MPD2    C1 4525   0.481   0.035  15.487 -0.7479 -0.0269 -0.1443
  297MPD2    C2 4526   0.569   0.108  15.556  0.2408 -0.5062  0.4789
  297MPD2    C3 4527   0.675   0.048  15.624 -0.2127 -0.3199  0.5697
  297MPD2    C4 4528   0.687   4.653  15.609 -0.2389 -0.0653 -0.1334
  297MPD2    C5 4529   0.601   4.578  15.540  0.3434  0.0579 -0.0876
  297MPD2     H 4530   0.559   0.216  15.564  0.0611 -0.4554 -0.4165
  297MPD2    H1 4531   0.767   4.600  15.659 -1.6319 -0.7778  1.3351
  297MPD2    H2 4532   0.429   4.577  15.420  0.4118 -1.1313  0.4678
  297MPD2    H3 4533   0.629   4.473  15.534 -0.5986 -0.3686  3.1052
  297MPD2     N 4534   0.776   0.121  15.699 -0.3803  0.5927  0.9181
  297MPD2    H5 4535   0.853   0.061  15.726  0.3947 -0.0327 -2.6685
  297MPD2    N1 4536   0.383   0.110  15.416 -0.2195  0.0313  0.0711
  297MPD2    H7 4537   0.372   0.205  15.450 -0.4194 -0.1492  0.5063
  298TMC3    C1 4538   0.191   0.155  15.295  0.1293  0.1555  0.3051
  298TMC3    C2 4539   0.172   0.188  15.165  0.0984  0.0036 -0.1069
  298TMC3    C3 4540   0.089   0.285  15.133  0.4253  0.1244 -0.5350
  298TMC3    C4 4541   0.134   0.223  15.401 -0.6040 -0.3303  0.3469
  298TMC3    C5 4542   0.056   0.328  15.362  0.1496  0.1376 -0.4035
  298TMC3    C6 4543   0.024   0.357  15.226 -0.0458  0.9740 -0.3528
  298TMC3     C 4544   0.297   0.061  15.324 -0.2669  0.6453 -0.0045
  298TMC3     O 4545   0.325   4.719  15.238 -0.3021 -0.3460  0.3303
  298TMC3     H 4546   0.231   0.135  15.090  1.1263  1.2816 -0.2056
  298TMC3    H1 4547   0.142   0.192  15.504 -3.5800  0.2978  0.7654
  298TMC3    H2 4548   4.700   0.439  15.195 -0.1237  1.7334  1.8340
  298TMC3    C7 4549   4.732   0.410  15.463 -0.3705 -0.0214 -0.5400
  298TMC3    C8 4550   0.058   0.328  14.996  0.3735  0.5687  0.0549
  298TMC3    O1 4551   4.690   0.361  15.567  0.2236 -0.0047 -0.0015
  298TMC3    O2 4552   0.036   0.442  14.974 -0.3257 -0.2124  0.0853
  299MPD2     C 4553   1.235   3.844  10.935 -0.7722  0.6039 -0.5486
  299MPD2    C1 4554   1.255   3.985  10.952 -0.5094 -0.0604  0.0945
  299MPD2    C2 4555   1.172   4.065  10.870  0.0490 -0.1742 -0.6902
  299MPD2    C3 4556   1.077   4.019  10.789 -0.4417 -0.3700  0.5549
  299MPD2    C4 4557   1.077   3.881  10.764 -0.0143 -0.0291  0.9496
  299MPD2    C5 4558   1.151   3.795  10.841 -0.2604 -0.0342  0.1088
  299MPD2     H 4559   1.178   4.171  10.888  1.2704 -0.6012  1.4238
  299MPD2    H1 4560   1.007   3.829  10.698 -0.3081  2.4147 -0.6637
  299MPD2    H2 4561   1.292   3.781  11.002 -2.5588 -0.6288 -0.1964
  299MPD2    H3 4562   1.127   3.690  10.835 -0.7853  0.0625  0.5417
  299MPD2     N 4563   0.985   4.093  10.717  0.0480  0.3448  0.2177
  299MPD2    H5 4564   0.915   4.040  10.666  0.0771  1.1789 -0.6965
  299MPD2    N1 4565   1.335   4.038  11.057 -0.2043 -0.4160  0.1764
  299MPD2    H7 4566   1.363   3.971  11.127  0.9988 -0.1437 -0.0551
  300TMC3    C1 4567   0.868   4.273  10.621 -0.3701 -0.0039 -0.2136
  300TMC3    C2 4568   0.870   4.385  10.546 -0.3800  0.5610 -0.6892
  300TMC3    C3 4569   0.760   4.428  10.479  0.0216  1.1689 -0.8298
  300TMC3    C4 4570   0.759   4.192  10.619  0.1937 -0.3210  0.0864
  300TMC3    C5 4571   0.643   4.241  10.565 -0.2567 -0.2595  0.5545
  300TMC3    C6 4572   0.641   4.359  10.497 -0.0831 -0.1216 -0.4311
  300TMC3     C 4573   0.983   4.228  10.691  0.2637 -0.3388  0.4401
  300TMC3     O 4574   1.063   4.315  10.721 -0.2075 -0.4845 -0.1102
  300TMC3     H 4575   0.962   4.440  10.529  0.6191 -0.0682  2.5645
  300TMC3    H1 4576   0.744   4.116  10.695 -0.4686 -0.1303  0.1451
  300TMC3    H2 4577   0.552   4.410  10.461 -0.0452 -1.0399 -1.8411
  300TMC3    C7 4578   0.519   4.205  10.633 -0.1814  0.7924  0.0886
  300TMC3    C8 4579   0.747   4.564  10.442 -0.1650 -0.7296 -0.0647
  300TMC3    O1 4580   0.500   4.085  10.655 -0.1250 -0.2857  0.0299
  300TMC3    O2 4581   0.666   4.582  10.350 -0.2840  0.2594 -0.3510
  301MPD2     C 4582   3.482   1.026   1.034 -0.5878 -0.0575  0.4506
  301MPD2    C1 4583   3.375   1.006   0.952 -0.9027  0.4108  0.6618
  301MPD2    C2 4584   3.372   0.885   0.878  0.2773 -0.4255  0.1529
  301MPD2    C3 4585   3.472   0.792   0.888 -0.1276  0.1426 -0.3771
  301MPD2    C4 4586   3.585   0.821   0.954 -0.5166  0.2398 -0.1503
  301MPD2    C5 4587   3.593   0.938   1.026  1.0617 -0.2497 -0.8644
  301MPD2     H 4588   3.285   0.859   0.819  0.3143 -2.1941  0.8686
  301MPD2    H1 4589   3.671   0.755   0.950  0.8173  2.0055 -0.6129
  301MPD2    H2 4590   3.484   1.113   1.099 -1.0973  0.4608 -0.2323
  301MPD2    H3 4591   3.672   0.952   1.098  1.4995  0.3628 -1.4675
  301MPD2     N 4592   3.460   0.656   0.837 -0.1401 -0.1129 -0.0084
  301MPD2    H5 4593   3.539   0.595   0.858  1.1572  1.2275 -0.9538
  301MPD2    N1 4594   3.266   1.091   0.951 -0.3824  0.3803  1.2365
  301MPD2    H7 4595   3.187   1.053   0.899 -0.5508  0.5415  1.3769
  302TMC3    C1 4596   3.357   0.463   0.741  0.1576 -0.0408  0.5533
  302TMC3    C2 4597   3.437   0.381   0.815  0.0095 -0.3127 -0.0547
  302TMC3    C3 4598   3.425   0.246   0.803  0.5101  0.5645 -0.0488
  302TMC3    C4 4599   3.254   0.418   0.665 -0.0063 -0.0569  0.2610
  302TMC3    C5 4600   3.250   0.281   0.649  0.0139  0.3015  0.2544
  302TMC3    C6 4601   3.334   0.195   0.718  0.5094 -0.1053  0.1427
  302TMC3     C 4602   3.348   0.603   0.772  0.5262 -0.0024  0.0204
  302TMC3     O 4603   3.247   0.662   0.742  0.0150  0.0276  0.1676
  302TMC3     H 4604   3.495   0.429   0.892  1.4627 -1.6718 -0.3016
  302TMC3    H1 4605   3.213   0.494   0.599  0.7181 -0.4636 -0.6660
  302TMC3    H2 4606   3.326   0.088   0.703  0.5613 -0.4502  2.5470
  302TMC3    C7 4607   3.137   0.224   0.582  0.3911 -0.8012 -0.3698
  302TMC3    C8 4608   3.537   0.168   0.853  0.3108  0.0082 -0.0166
  302TMC3    O1 4609   3.148   0.112   0.536  0.0826  0.3584 -0.2811
  302TMC3    O2 4610   3.636   0.224   0.896 -0.3773  0.2058  0.6564
  303MPD2     C 4611   3.682   3.439  10.414  0.0740 -0.0424 -0.7526
  303MPD2    C1 4612   3.663   3.310  10.376  0.1067  0.1939 -0.6056
  303MPD2    C2 4613   3.666   3.274  10.244 -0.2075 -0.5543 -0.5806
  303MPD2    C3 4614   3.698   3.370  10.146 -0.1173  0.5530  0.4062
  303MPD2    C4 4615   3.720   3.502  10.188 -0.1137 -0.5049  0.3398
  303MPD2    C5 4616   3.713   3.536  10.321  0.0441 -0.0076 -0.0845
  303MPD2     H 4617   3.662   3.170  10.216  2.1797 -1.0182  0.7539
  303MPD2    H1 4618   3.738   3.577  10.112 -0.4108 -0.2088  0.5640
  303MPD2    H2 4619   3.680   3.469  10.518 -0.0542  0.5213 -0.9214
  303MPD2    H3 4620   3.736   3.633  10.362 -1.0270 -0.4525  1.5545
  303MPD2     N 4621   3.698   3.350  10.006 -0.6132  0.4592 -0.0944
  303MPD2    H5 4622   3.732   3.429   9.953  1.2253 -0.5487 -0.4255
  303MPD2    N1 4623   3.609   3.231  10.477  0.1838 -0.1713  0.3381
  303MPD2    H7 4624   3.585   3.282  10.561  1.7378  1.3651 -0.1466
  304TMC3    C1 4625   3.490   3.055  10.570 -0.2440  0.5083  0.0362
  304TMC3    C2 4626   3.373   3.131  10.591 -0.2930 -0.0309  0.4944
  304TMC3    C3 4627   3.265   3.075  10.640  0.7584 -0.6445 -0.5641
  304TMC3    C4 4628   3.486   2.913  10.587  0.1380  0.4456  0.0328
  304TMC3    C5 4629   3.374   2.864  10.647 -0.3643  0.0013 -0.4353
  304TMC3    C6 4630   3.277   2.946  10.691  0.7172 -0.2222  0.2942
  304TMC3     C 4631   3.573   3.102  10.463 -0.2870 -0.1911 -0.4066
  304TMC3     O 4632   3.614   3.021  10.382 -0.1784  0.2622  0.2191
  304TMC3     H 4633   3.368   3.235  10.560  0.8269 -0.7404 -2.0551
  304TMC3    H1 4634   3.567   2.849  10.553 -0.7707 -0.7532  0.1585
  304TMC3    H2 4635   3.187   2.902  10.733  0.8368  1.4082  2.2341
  304TMC3    C7 4636   3.324   2.736  10.595 -0.1390  0.2349  0.2921
  304TMC3    C8 4637   3.150   3.089  10.547 -0.3247 -0.1631 -0.3412
  304TMC3    O1 4638   3.208   2.708  10.622  0.4470  0.1403 -0.0394
  304TMC3    O2 4639   3.058   3.015  10.574  0.0906  0.2731  0.2509
  305MPD2     C 4640   1.785   0.921  14.002  0.4189  0.1043 -0.0110
  305MPD2    C1 4641   1.911   0.864  13.996 -0.3328 -0.4189  0.4889
  305MPD2    C2 4642   1.956   0.816  13.875  0.2185 -0.4347  0.2078
  305MPD2    C3 4643   1.887   0.840  13.758  0.1229 -0.6509 -0.8416
  305MPD2    C4 4644   1.763   0.903  13.766 -0.3612  0.3491 -0.4357
  305MPD2    C5 4645   1.714   0.937  13.886 -0.2289 -0.2300 -0.3850
  305MPD2     H 4646   2.052   0.766  13.877 -0.8084 -2.3007  2.8832
  305MPD2    H1 4647   1.706   0.905  13.674  0.9248  0.7866 -1.2246
  305MPD2    H2 4648   1.725   0.943  14.089  0.6655 -3.2862  1.0228
  305MPD2    H3 4649   1.614   0.973  13.908  1.2086  2.1000  2.3909
  305MPD2     N 4650   1.936   0.798  13.631 -0.5474  0.5809 -0.7242
  305MPD2    H5 4651   1.872   0.825  13.556  0.6862 -2.4283 -2.8492
  305MPD2    N1 4652   1.981   0.852  14.115  0.0792 -0.5670  0.2387
  305MPD2    H7 4653   1.930   0.887  14.196 -0.4891  0.7628 -0.7040
  306TMC3    C1 4654   2.149   0.791  14.266 -0.4279  0.2176 -0.1196
  306TMC3    C2 4655   2.226   0.681  14.289 -0.0611  0.0094  0.2450
  306TMC3    C3 4656   2.223   0.633  14.416 -0.2966 -0.6437 -0.1564
  306TMC3    C4 4657   2.060   0.844  14.364  0.3713  0.4267 -0.9853
  306TMC3    C5 4658   2.069   0.787  14.487  0.0423 -0.5011  0.2003
  306TMC3    C6 4659   2.144   0.678  14.516 -0.2958  0.1853 -0.0076
  306TMC3     C 4660   2.108   0.803  14.130 -0.0874 -0.1821 -0.0220
  306TMC3     O 4661   2.195   0.777  14.049 -0.4447 -0.4221  0.5956
  306TMC3     H 4662   2.280   0.624  14.215  2.7293  1.6714  0.9965
  306TMC3    H1 4663   2.032   0.949  14.364  1.2941  0.6664 -2.2163
  306TMC3    H2 4664   2.136   0.628  14.612 -0.6680 -0.6482 -0.4698
  306TMC3    C7 4665   1.978   0.834  14.579  0.0739  0.1831  0.8477
  306TMC3    C8 4666   2.236   0.494  14.405 -0.8239  0.2705 -0.2983
  306TMC3    O1 4667   1.878   0.861  14.517 -0.5471  0.1505 -0.2632
  306TMC3    O2 4668   2.163   0.446  14.318  0.4407 -0.4078  0.5523
  307MPD2     C 4669   4.433   0.289   0.113  0.0088  0.2700  0.8255
  307MPD2    C1 4670   4.338   0.358   0.194 -0.6281  0.6623  0.2704
  307MPD2    C2 4671   4.262   0.280   0.275 -0.2438  0.4403  0.0577
  307MPD2    C3 4672   4.285   0.143   0.291 -0.1585 -0.3697  0.6428
  307MPD2    C4 4673   4.386   0.083   0.222 -0.3205  0.1811  0.2639
  307MPD2    C5 4674   4.457   0.157   0.127  0.3722  0.3193  0.6673
  307MPD2     H 4675   4.192   0.331   0.340 -0.8176  0.9151 -0.9324
  307MPD2    H1 4676   4.405   4.715   0.225  1.1469  0.4920  2.4478
  307MPD2    H2 4677   4.489   0.344   0.037  2.2117 -0.9395  1.6008
  307MPD2    H3 4678   4.531   0.099   0.072  0.5278  0.6180  0.5590
  307MPD2     N 4679   4.189   0.082   0.373  0.1306 -0.4144 -0.1707
  307MPD2    H5 4680   4.117   0.141   0.413  0.4194  0.0031 -0.2558
  307MPD2    N1 4681   4.305   0.491   0.180 -0.2997 -0.6214 -0.3097
  307MPD2    H7 4682   4.217   0.520   0.221  0.0053 -0.1761  0.0260
  308TMC3    C1 4683   3.864   4.557   0.497  0.2637 -0.0173 -0.8162
  308TMC3    C2 4684   3.800   4.664   0.562 -0.5492 -0.5031 -0.0071
  308TMC3    C3 4685   3.871   0.036   0.593 -0.1223 -0.0113  0.8415
  308TMC3    C4 4686   3.994   4.557   0.466 -1.2219 -0.2746 -0.5086
  308TMC3    C5 4687   4.070   4.662   0.501 -0.3206 -0.5666  0.0999
  308TMC3    C6 4688   4.013   0.033   0.568 -0.4265 -0.4592  0.5842
  308TMC3     C 4689   3.793   4.432   0.481  0.1668 -0.5672 -0.2335
  308TMC3     O 4690   3.853   4.326   0.453 -0.4462 -0.3363 -0.0348
  308TMC3     H 4691   3.697   4.663   0.595 -0.1288 -0.2252  1.3114
  308TMC3    H1 4692   4.044   4.476   0.413  0.1506  1.2691 -1.5869
  308TMC3    H2 4693   4.068   0.117   0.606 -0.5677  0.1100 -0.4786
  308TMC3    C7 4694   4.173   4.687   0.401 -0.2325 -0.1733 -0.0653
  308TMC3    C8 4695   3.813   0.162   0.600 -0.2959 -0.0916 -0.2219
  308TMC3    O1 4696   4.221   4.591   0.336 -0.3903 -0.2720  0.3708
  308TMC3    O2 4697   3.885   0.249   0.649  0.4578  0.3156 -0.4064
  309MPD2     C 4698   3.154   4.234  17.219 -0.0336  0.0358  0.1883
  309MPD2    C1 4699   3.086   4.280  17.105 -0.3425 -0.7603 -0.2411
  309MPD2    C2 4700   2.961   4.335  17.113  0.1336 -0.0076  0.4864
  309MPD2    C3 4701   2.908   4.361  17.242 -0.2234 -0.1949 -0.6536
  309MPD2    C4 4702   2.986   4.329  17.353 -0.1387  0.0159  0.1051
  309MPD2    C5 4703   3.105   4.260  17.340 -0.1317  0.3423 -0.4830
  309MPD2     H 4704   2.904   4.355  17.023  0.9377  1.7412  0.3733
  309MPD2    H1 4705   2.940   4.354  17.448  1.3383  0.0780  0.8007
  309MPD2    H2 4706   3.243   4.172  17.212 -1.3103 -1.8293  0.2790
  309MPD2    H3 4707   3.162   4.231  17.428 -0.4312  0.2538 -0.3191
  309MPD2     N 4708   2.789   4.444  17.259 -0.2463  0.3954 -0.4209
  309MPD2    H5 4709   2.761   4.465  17.354 -0.9446  2.9226 -1.1882
  309MPD2    N1 4710   3.141   4.259  16.975  0.5847  0.2599 -0.4026
  309MPD2    H7 4711   3.086   4.282  16.892  0.5284 -0.1445 -0.4769
  310TMC3    C1 4712   3.283   4.174  16.811  0.4071 -0.3962 -0.1999
  310TMC3    C2 4713   3.224   4.254  16.719  0.1793 -0.9636  0.2756
  310TMC3    C3 4714   3.232   4.225  16.584 -0.8796  0.1068  0.2386
  310TMC3    C4 4715   3.348   4.059  16.779  0.5618 -0.7737 -0.0612
  310TMC3    C5 4716   3.349   4.028  16.646 -0.0202  0.4195  0.7171
  310TMC3    C6 4717   3.289   4.108  16.546 -0.1224 -0.3095  0.2576
  310TMC3     C 4718   3.265   4.204  16.952 -0.1354  0.2471 -0.0620
  310TMC3     O 4719   3.359   4.176  17.024  0.3273 -0.3646  0.0143
  310TMC3     H 4720   3.182   4.350  16.750 -0.0659 -0.5289 -1.4115
  310TMC3    H1 4721   3.408   4.002  16.849 -0.8546 -0.2917  1.5454
  310TMC3    H2 4722   3.282   4.079  16.442 -0.2544  1.1399 -0.1310
  310TMC3    C7 4723   3.426   3.913  16.605 -0.0373 -0.2101 -0.8786
  310TMC3    C8 4724   3.172   4.310  16.487 -0.5497  0.4330 -0.5262
  310TMC3    O1 4725   3.488   3.857  16.692  0.3681  0.0687  0.0966
  310TMC3    O2 4726   3.209   4.288  16.372 -0.2518  0.2992  0.5908
  311MPD2     C 4727   0.211   0.366  12.794 -0.2524  0.2213  0.6974
  311MPD2    C1 4728   0.207   0.495  12.846 -0.2173 -0.1016  0.1165
  311MPD2    C2 4729   0.087   0.553  12.895  0.3652  0.2184  0.2342
  311MPD2    C3 4730   4.713   0.479  12.896  0.5209  0.5800  0.1180
  311MPD2    C4 4731   4.709   0.351  12.848  0.3096 -0.8395  0.2317
  311MPD2    C5 4732   0.088   0.305  12.802  0.0093 -0.1936  0.1322
  311MPD2     H 4733   0.079   0.658  12.922  2.7367  0.7038 -0.9322
  311MPD2    H1 4734   4.635   0.272  12.853  1.6945 -2.1553 -0.0113
  311MPD2    H2 4735   0.305   0.324  12.760 -0.5453  0.9228 -0.9812
  311MPD2    H3 4736   0.075   0.203  12.770  1.4781 -0.5897  0.7868
  311MPD2     N 4737   4.598   0.538  12.944 -1.3635 -0.2639 -0.4780
  311MPD2    H5 4738   4.607   0.626  12.992 -0.1196 -0.3075 -0.6343
  311MPD2    N1 4739   0.325   0.578  12.834 -0.0153 -0.3348  0.6540
  311MPD2    H7 4740   0.312   0.673  12.866 -1.1046 -0.2396 -0.0696
  312TMC3    C1 4741   4.381   0.554  13.025  0.0578 -0.1292 -0.5067
  312TMC3    C2 4742   4.251   0.505  13.013 -0.0382 -0.0704  0.1469
  312TMC3    C3 4743   4.160   0.535  13.106  0.0998 -0.0219  0.1128
  312TMC3    C4 4744   4.418   0.636  13.129  0.3060 -0.0220  0.4928
  312TMC3    C5 4745   4.327   0.658  13.226 -0.2466 -0.6460  0.1108
  312TMC3    C6 4746   4.196   0.616  13.215 -0.2545 -0.1756  0.1331
  312TMC3     C 4747   4.471   0.487  12.931  0.3963 -0.6318 -0.5993
  312TMC3     O 4748   4.436   0.392  12.863 -0.2046  0.2067  0.7447
  312TMC3     H 4749   4.230   0.444  12.927  0.1471 -1.0571  0.8064
  312TMC3    H1 4750   4.519   0.676  13.136 -0.2262  1.2508  0.7967
  312TMC3    H2 4751   4.125   0.635  13.294 -0.0810  0.0167  0.2407
  312TMC3    C7 4752   4.356   0.733  13.351 -0.1068  0.0779  0.8994
  312TMC3    C8 4753   4.023   0.499  13.085  0.7619 -0.1489  0.0604
  312TMC3    O1 4754   4.262   0.791  13.407  0.5914 -0.8534 -0.1226
  312TMC3    O2 4755   4.008   0.420  12.995 -0.6972 -0.6161 -0.0326
  313MPD2     C 4756   4.105   0.079  11.648  0.1907 -0.4542  0.2576
  313MPD2    C1 4757   4.143   0.155  11.545  0.0481 -1.0471 -0.1625
  313MPD2    C2 4758   4.155   0.097  11.423  0.4090 -0.3725 -0.4363
  313MPD2    C3 4759   4.121   4.700  11.396 -0.7492 -0.6076 -0.3960
  313MPD2    C4 4760   4.068   4.632  11.506 -0.2258  0.4698  0.5905
  313MPD2    C5 4761   4.063   4.691  11.630 -0.5044 -0.5775  0.0840
  313MPD2     H 4762   4.189   0.160  11.342  0.5724 -0.4012 -0.3893
  313MPD2    H1 4763   4.037   4.528  11.506 -0.4681  0.5360 -0.9207
  313MPD2    H2 4764   4.095   0.124  11.746  0.4981 -0.5967  0.3541
  313MPD2    H3 4765   4.040   4.636  11.721 -0.7116 -0.8844 -0.1545
  313MPD2     N 4766   4.140   4.642  11.271  0.2819 -0.1589  0.2848
  313MPD2    H5 4767   4.188   4.697  11.200 -0.0530 -0.8939 -0.5214
  313MPD2    N1 4768   4.204   0.279  11.562 -0.5391  0.7577 -0.0788
  313MPD2    H7 4769   4.228   0.324  11.475 -0.1734  0.2707 -0.2287
  314TMC3    C1 4770   4.266   0.484  11.651  0.5092 -0.0510 -0.2958
  314TMC3    C2 4771   4.395   0.529  11.690  0.1603  0.4280  0.0692
  314TMC3    C3 4772   4.441   0.639  11.622  0.8961 -0.9863  0.4196
  314TMC3    C4 4773   4.187   0.555  11.566 -0.0951  0.2209  0.0453
  314TMC3    C5 4774   4.242   0.660  11.503  0.2250 -0.5002 -0.3477
  314TMC3    C6 4775   4.365   0.698  11.528  0.3071 -0.6109 -0.1554
  314TMC3     C 4776   4.232   0.344  11.678 -0.7777  0.1247 -0.0781
  314TMC3     O 4777   4.269   0.306  11.784 -0.1774  0.4144 -0.5707
  314TMC3     H 4778   4.464   0.463  11.742  1.8491  2.4358  0.3545
  314TMC3    H1 4779   4.090   0.515  11.541  0.7256 -1.3416 -0.6117
  314TMC3    H2 4780   4.399   0.781  11.468 -0.8676 -0.4679 -0.6277
  314TMC3    C7 4781   4.173   0.711  11.386  0.2903  0.0069 -0.5966
  314TMC3    C8 4782   4.585   0.646  11.605 -0.2736  0.2728 -0.8408
  314TMC3    O1 4783   4.055   0.733  11.390 -0.6023 -0.6889  0.2032
  314TMC3    O2 4784   4.624   0.683  11.495  0.7124 -0.1375  0.1288
  315MPD2     C 4785   4.445   4.463  17.199 -0.5792 -0.1885 -0.3116
  315MPD2    C1 4786   4.574   4.492  17.245  1.0564  0.3196 -0.0596
  315MPD2    C2 4787   4.647   4.595  17.199 -1.0275 -0.0399  0.3275
  315MPD2    C3 4788   4.594   4.675  17.099  0.4948  0.4125  0.4425
  315MPD2    C4 4789   4.460   4.658  17.059  0.1907  0.3336  0.0043
  315MPD2    C5 4790   4.385   4.552  17.109  0.0546 -0.5157 -0.1857
  315MPD2     H 4791   0.011   4.604  17.234 -0.5470 -3.5698 -0.2440
  315MPD2    H1 4792   4.396   4.724  17.001 -0.7018  0.8291  1.5704
  315MPD2    H2 4793   4.384   4.385  17.243 -0.3848 -0.5565 -0.6935
  315MPD2    H3 4794   4.279   4.536  17.090 -0.1376  2.5513 -1.6348
  315MPD2     N 4795   4.681   0.043  17.061 -0.2886  0.3645  0.9052
  315MPD2    H5 4796   0.020   0.052  17.127  0.4683  0.3583  0.0205
  315MPD2    N1 4797   4.639   4.428  17.355  0.5815 -0.3624 -0.6618
  315MPD2    H7 4798   4.729   4.465  17.384  1.2372  0.0020 -3.1308
  316TMC3    C1 4799   0.025   0.243  16.964  1.0812 -0.3166  1.2524
  316TMC3    C2 4800   0.130   0.247  17.056 -0.2753 -0.0292  0.1625
  316TMC3    C3 4801   0.218   0.352  17.057 -0.2291 -1.0929  0.0168
  316TMC3    C4 4802   0.012   0.343  16.873 -0.2867 -0.1581  0.2175
  316TMC3    C5 4803   0.101   0.451  16.873  0.1876 -0.1568 -1.5535
  316TMC3    C6 4804   0.203   0.453  16.967  0.4585 -0.0111 -0.4676
  316TMC3     C 4805   4.659   0.138  16.963  0.6040  0.2041  0.3051
  316TMC3     O 4806   4.566   0.149  16.876 -0.3097 -0.7782 -0.4656
  316TMC3     H 4807   0.147   0.159  17.117 -0.2574 -0.2901 -0.2196
  316TMC3    H1 4808   4.668   0.341  16.802 -1.4162 -0.1356  1.5286
  316TMC3    H2 4809   0.272   0.535  16.954  0.9434 -0.5089 -1.0749
  316TMC3    C7 4810   0.128   0.532  16.756 -0.4349  0.0129  0.5376
  316TMC3    C8 4811   0.312   0.390  17.161  0.2288  0.8962  0.2282
  316TMC3    O1 4812   0.221   0.609  16.762 -0.0112 -0.4724  0.1462
  316TMC3    O2 4813   0.359   0.501  17.150  0.2792 -0.3559 -0.5023
  317MPD2     C 4814   2.080   1.975  12.604 -0.5517 -0.6366 -0.2509
  317MPD2    C1 4815   2.195   1.898  12.607  0.5703 -0.3380 -0.7176
  317MPD2    C2 4816   2.243   1.844  12.719  0.8382  0.7852  0.5941
  317MPD2    C3 4817   2.173   1.876  12.841  0.0395 -0.1437  0.5653
  317MPD2    C4 4818   2.056   1.947  12.834 -0.5939 -0.0132 -0.4654
  317MPD2    C5 4819   2.005   1.994  12.714 -0.8277 -0.7017 -0.4227
  317MPD2     H 4820   2.333   1.784  12.722 -0.4909 -1.2674 -0.0737
  317MPD2    H1 4821   2.011   1.979  12.927  0.4734 -0.1335  0.0947
  317MPD2    H2 4822   2.054   2.042  12.524 -0.1898 -0.9825 -0.6556
  317MPD2    H3 4823   1.910   2.047  12.709 -1.0726 -1.3130 -2.1049
  317MPD2     N 4824   2.229   1.828  12.965 -1.0924  0.0950  0.1948
  317MPD2    H5 4825   2.313   1.773  12.954 -0.5632  0.5769  1.8413
  317MPD2    N1 4826   2.281   1.890  12.492 -0.3588 -0.4617 -0.2132
  317MPD2    H7 4827   2.370   1.842  12.498 -0.5333 -0.7473  0.0434
  318TMC3    C1 4828   2.266   1.814  13.189  0.3056  0.0411 -0.5966
  318TMC3    C2 4829   2.299   1.685  13.166 -0.5641  0.4069 -0.9766
  318TMC3    C3 4830   2.384   1.623  13.258  0.1378 -0.4079  0.4162
  318TMC3    C4 4831   2.300   1.892  13.294  0.0569 -0.1122  0.9110
  318TMC3    C5 4832   2.390   1.831  13.376 -0.1710 -0.4338 -0.3677
  318TMC3    C6 4833   2.418   1.695  13.365 -0.3976  0.0136 -0.1037
  318TMC3     C 4834   2.185   1.871  13.088 -0.4486  0.4303 -0.9651
  318TMC3     O 4835   2.091   1.945  13.116  0.2696 -0.3855  0.7695
  318TMC3     H 4836   2.262   1.634  13.078  2.9535 -1.4559 -1.3772
  318TMC3    H1 4837   2.262   1.990  13.319 -0.9590 -0.5002  0.8566
  318TMC3    H2 4838   2.483   1.640  13.432  0.1948  2.0417  1.0067
  318TMC3    C7 4839   2.440   1.899  13.491  0.1073 -0.3666 -0.2423
  318TMC3    C8 4840   2.381   1.479  13.281 -0.0926  0.1565 -0.0354
  318TMC3    O1 4841   2.352   1.969  13.545 -0.3537  0.2669  0.1137
  318TMC3    O2 4842   2.464   1.430  13.360  0.0400  0.6900  0.0122
  319MPD2     C 4843   2.476   4.248  17.065  0.7066  0.7356 -0.3240
  319MPD2    C1 4844   2.502   4.111  17.052  0.1470 -0.9581 -0.5717
  319MPD2    C2 4845   2.480   4.048  16.933  0.0030  0.4302 -0.1518
  319MPD2    C3 4846   2.445   4.116  16.817  0.2091  0.6636 -0.6478
  319MPD2    C4 4847   2.415   4.248  16.828  0.0215  0.1619  0.0495
  319MPD2    C5 4848   2.422   4.307  16.956 -0.0078  0.0201 -0.2227
  319MPD2     H 4849   2.505   3.942  16.931 -0.9753  0.2076 -0.9870
  319MPD2    H1 4850   2.374   4.302  16.742  1.7856  3.0253  1.0022
  319MPD2    H2 4851   2.493   4.303  17.157  1.5225  1.3991 -0.8798
  319MPD2    H3 4852   2.389   4.409  16.968 -0.8273 -0.4429  1.4113
  319MPD2     N 4853   2.426   4.052  16.689 -0.2441  0.2440 -0.0108
  319MPD2    H5 4854   2.385   4.102  16.611 -0.9341 -1.0762 -0.4890
  319MPD2    N1 4855   2.560   4.033  17.149 -0.3247 -0.1636 -0.0131
  319MPD2    H7 4856   2.591   3.940  17.122  0.6623 -0.2828  1.4998
  320TMC3    C1 4857   2.430   3.878  16.532 -0.1266  0.7821 -0.2123
  320TMC3    C2 4858   2.373   3.959  16.436  0.3210  0.6692 -0.3323
  320TMC3    C3 4859   2.333   3.905  16.320 -0.8601 -0.0966 -0.2483
  320TMC3    C4 4860   2.435   3.737  16.518  0.1658  0.7955  0.4025
  320TMC3    C5 4861   2.403   3.686  16.395 -0.8434  0.2084 -0.7575
  320TMC3    C6 4862   2.351   3.767  16.298  0.2942 -0.3927  0.5714
  320TMC3     C 4863   2.463   3.923  16.667 -0.4444 -0.4475 -0.1101
  320TMC3     O 4864   2.522   3.838  16.733 -0.1162 -0.0904 -0.1117
  320TMC3     H 4865   2.349   4.064  16.444  2.7093  1.0819  1.5406
  320TMC3    H1 4866   2.446   3.672  16.604  0.6714 -1.0896 -1.1144
  320TMC3    H2 4867   2.317   3.717  16.208 -1.7250  2.3533 -0.1856
  320TMC3    C7 4868   2.427   3.549  16.356 -0.5738  0.1150  0.0738
  320TMC3    C8 4869   2.260   3.986  16.214 -0.8514 -0.3199 -0.0992
  320TMC3    O1 4870   2.393   3.511  16.243  0.0910  0.0035 -0.5798
  320TMC3    O2 4871   2.193   4.082  16.250 -0.1026 -0.1125 -0.3739
  321TMC3    C1 4872   2.615   3.960  17.364  0.4272 -0.1441  0.9471
  321TMC3    C2 4873   2.618   3.828  17.319  0.0389 -0.3140  0.0669
  321TMC3    C3 4874   2.652   3.734  17.404  0.0459  0.1856 -0.3272
  321TMC3    C4 4875   2.662   3.992  17.487 -0.1857  0.1092 -0.4317
  321TMC3    C5 4876   2.697   3.892  17.569  0.0646  0.0599  0.1282
  321TMC3    C6 4877   2.692   3.766  17.530  0.3019 -0.4590  0.3876
  321TMC3     C 4878   2.575   4.074  17.281 -0.0617 -0.1038  0.2155
  321TMC3     O 4879   2.547   4.181  17.335 -0.5703 -0.5415  0.0707
  321TMC3     H 4880   2.591   3.800  17.218  1.2213 -1.1049 -0.0257
  321TMC3    H1 4881   2.661   4.094  17.523 -0.9575  0.9254 -2.7403
  321TMC3    H2 4882   2.728   3.681  17.586  0.1863 -1.2253 -0.6913
  321TMC3    C7 4883   2.773   3.926  17.683 -0.5102  0.2784  0.0538
  321TMC3    C8 4884   2.720   3.617  17.357 -0.1761  0.1664 -0.2022
  321TMC3    O1 4885   2.866   4.007  17.672  0.3879  0.4126  0.1902
  321TMC3    O2 4886   2.722   3.519  17.430 -0.7034 -0.0925 -0.1724
  322MPD2     C 4887   1.249   4.482  13.632 -1.7520 -1.0170  0.1031
  322MPD2    C1 4888   1.313   4.445  13.753  0.0713 -0.1881  0.3398
  322MPD2    C2 4889   1.325   4.312  13.789  0.6848 -0.4707  0.4251
  322MPD2    C3 4890   1.288   4.211  13.700 -0.6002 -0.2316  0.5053
  322MPD2    C4 4891   1.242   4.247  13.575  0.1219  0.1502 -0.1752
  322MPD2    C5 4892   1.224   4.381  13.541 -0.3098  0.1780  0.1214
  322MPD2     H 4893   1.368   4.283  13.884  1.4760 -1.1168 -0.1317
  322MPD2    H1 4894   1.215   4.177  13.497  0.2828  0.2433 -0.3152
  322MPD2    H2 4895   1.225   4.584  13.604 -0.8369 -0.5811  0.8836
  322MPD2    H3 4896   1.180   4.399  13.443 -0.2976  0.3482  0.1466
  322MPD2     N 4897   1.311   4.080  13.733 -0.7469 -0.5749  0.1833
  322MPD2    H5 4898   1.345   4.073  13.829  1.1238 -0.3054 -0.4708
  322MPD2    N1 4899   1.358   4.549  13.840  0.2798 -0.6199 -0.4240
  322MPD2    H7 4900   1.342   4.643  13.806  0.2792 -0.7546 -0.7906
  323TMC3    C1 4901   1.475   4.657  14.007 -0.3881 -0.1665 -0.3444
  323TMC3    C2 4902   1.486   0.028  13.931  0.5048 -0.5819  0.1685
  323TMC3    C3 4903   1.559   0.131  13.978 -0.0469  0.2605  0.0067
  323TMC3    C4 4904   1.531   4.647  14.131 -0.7230  0.1016 -0.3856
  323TMC3    C5 4905   1.595   0.024  14.177  0.2318  0.0191 -0.9879
  323TMC3    C6 4906   1.608   0.137  14.099  0.5303  0.5597  0.5759
  323TMC3     C 4907   1.439   4.531  13.951  0.0108  0.1758  0.2374
  323TMC3     O 4908   1.509   4.437  13.989 -0.0177  0.8687 -0.6284
  323TMC3     H 4909   1.458   0.030  13.826  3.1921 -0.4924 -0.5389
  323TMC3    H1 4910   1.542   4.554  14.185  0.8762  0.9574  0.7765
  323TMC3    H2 4911   1.667   0.222  14.131  0.4411  0.2579  1.5278
  323TMC3    C7 4912   1.650   0.019  14.316 -0.3049  0.3401  0.3617
  323TMC3    C8 4913   1.575   0.244  13.893  0.6593 -0.6667 -0.6948
  323TMC3    O1 4914   1.593   4.678  14.385 -0.2459  0.3778  0.5726
  323TMC3    O2 4915   1.673   0.316  13.911 -0.5671 -1.0456  0.1387
  324MPD2     C 4916   3.860   1.519  14.354  0.5115  0.6964 -0.1678
  324MPD2    C1 4917   3.800   1.634  14.401 -0.5697 -0.2198 -0.1800
  324MPD2    C2 4918   3.668   1.642  14.434  0.5215 -0.2567 -0.3105
  324MPD2    C3 4919   3.588   1.525  14.426 -0.3617 -0.4132 -0.4803
  324MPD2    C4 4920   3.657   1.404  14.403  0.8307  0.5613  0.5162
  324MPD2    C5 4921   3.792   1.406  14.376  0.2100 -0.5463 -0.1316
  324MPD2     H 4922   3.621   1.735  14.463 -2.4851 -1.0993 -2.5219
  324MPD2    H1 4923   3.608   1.308  14.405 -0.3757  1.1755 -0.0300
  324MPD2    H2 4924   3.960   1.523  14.314  0.9184 -1.9228  0.5769
  324MPD2    H3 4925   3.846   1.316  14.351 -0.9159 -1.6527  1.4124
  324MPD2     N 4926   3.445   1.520  14.434 -0.5229  0.8213 -0.1919
  324MPD2    H5 4927   3.399   1.430  14.425  0.9531  0.0010  0.3559
  324MPD2    N1 4928   3.869   1.759  14.407  0.7600 -0.1712 -0.3199
  324MPD2    H7 4929   3.813   1.840  14.429  0.4480  0.2166 -2.5934
  325TMC3    C1 4930   3.228   1.612  14.427 -0.4305  0.2091 -0.1339
  325TMC3    C2 4931   3.184   1.487  14.422  0.3434 -0.5140  1.1445
  325TMC3    C3 4932   3.047   1.472  14.423 -0.0241 -0.1467 -0.1280
  325TMC3    C4 4933   3.150   1.720  14.406  0.2208 -0.7309 -0.1232
  325TMC3    C5 4934   3.015   1.701  14.390  0.8977 -0.7163  0.1401
  325TMC3    C6 4935   2.958   1.577  14.400 -0.2411 -0.0045 -0.6942
  325TMC3     C 4936   3.368   1.633  14.444 -0.1218  0.5778 -0.2295
  325TMC3     O 4937   3.394   1.748  14.485  0.7122  0.1064 -0.5638
  325TMC3     H 4938   3.245   1.399  14.438  1.6099  0.2079  0.3538
  325TMC3    H1 4939   3.180   1.824  14.409 -0.7561 -0.4202 -1.1826
  325TMC3    H2 4940   2.850   1.567  14.405 -0.0570 -1.2274  0.6171
  325TMC3    C7 4941   2.932   1.810  14.363  0.3686  0.0186  0.6590
  325TMC3    C8 4942   2.998   1.339  14.404  0.1253 -0.9359  0.4385
  325TMC3    O1 4943   2.990   1.918  14.351  0.2895 -0.7186  0.1938
  325TMC3    O2 4944   3.063   1.252  14.455  0.2094  0.1246  0.3113
  326MPD2     C 4945   0.058   2.349  10.819  0.0279 -0.5340 -0.3349
  326MPD2    C1 4946   0.036   2.436  10.708 -0.5276 -0.1448  0.2863
  326MPD2    C2 4947   0.122   2.540  10.694  0.3414 -0.1895 -0.8603
  326MPD2    C3 4948   0.213   2.580  10.783  0.5406 -0.1394  0.1418
  326MPD2    C4 4949   0.232   2.495  10.889 -0.6470 -0.0816  1.2871
  326MPD2    C5 4950   0.160   2.383  10.907 -0.1697 -0.4569  0.5736
  326MPD2     H 4951   0.122   2.597  10.602 -0.0217 -1.6005 -1.7405
  326MPD2    H1 4952   0.303   2.532  10.962 -1.2657  1.2908  1.1786
  326MPD2    H2 4953   0.003   2.257  10.833  2.1411 -1.7369 -0.0688
  326MPD2    H3 4954   0.168   2.316  10.992 -1.2842 -0.7373  0.4551
  326MPD2     N 4955   0.291   2.698  10.767  0.3185  0.3140 -0.3058
  326MPD2    H5 4956   0.343   2.745  10.841  1.7012  1.1464 -1.7796
  326MPD2    N1 4957   4.682   2.405  10.605 -0.0349 -0.1058 -0.4896
  326MPD2    H7 4958   4.686   2.455  10.517  1.4587  0.9080  0.1597
  327TMC3    C1 4959   4.505   2.314  10.488  0.4049 -0.7537 -0.3228
  327TMC3    C2 4960   4.384   2.380  10.502  0.2869 -1.0164  0.3096
  327TMC3    C3 4961   4.351   2.454  10.393 -0.1129  0.9625  0.5246
  327TMC3    C4 4962   4.572   2.306  10.369 -0.5564  0.5270 -0.3462
  327TMC3    C5 4963   4.534   2.382  10.258  0.0924 -0.4393  0.4011
  327TMC3    C6 4964   4.419   2.457  10.270 -0.6236 -0.1573  0.6281
  327TMC3     C 4965   4.571   2.322  10.617 -0.4964  0.3120  0.2949
  327TMC3     O 4966   4.522   2.261  10.711  0.7190  0.7819  0.1474
  327TMC3     H 4967   4.330   2.387  10.596  0.6669  2.4570  0.2771
  327TMC3    H1 4968   4.657   2.239  10.365  0.4874  1.7492  1.1085
  327TMC3    H2 4969   4.382   2.519  10.189 -0.4719 -0.2573  0.4824
  327TMC3    C7 4970   4.635   2.431  10.167  0.5243 -0.0130  0.0804
  327TMC3    C8 4971   4.301   2.595  10.421 -0.0930 -0.4605 -0.0182
  327TMC3    O1 4972   4.599   2.516  10.085 -0.5036  0.2118 -0.0393
  327TMC3    O2 4973   4.282   2.671  10.329  0.4896 -0.2644 -0.4192
  328MPD2     C 4974   2.492   3.052  17.014  0.0545 -0.3135  0.3022
  328MPD2    C1 4975   2.366   3.041  17.072 -0.3441 -0.3182  0.3920
  328MPD2    C2 4976   2.259   3.062  16.990 -0.3826  1.0128  0.4856
  328MPD2    C3 4977   2.270   3.108  16.863 -0.0738  0.2045  0.1723
  328MPD2    C4 4978   2.397   3.130  16.815 -0.2158  0.0217 -0.2700
  328MPD2    C5 4979   2.508   3.101  16.892  0.1458  0.0156  0.4602
  328MPD2     H 4980   2.162   3.048  17.037 -0.2205 -3.9748 -0.7590
  328MPD2    H1 4981   2.407   3.203  16.736 -1.5331  0.8494  0.3461
  328MPD2    H2 4982   2.576   3.022  17.075  2.4570  1.8471 -2.0078
  328MPD2    H3 4983   2.607   3.105  16.848  0.4298 -0.7871  1.0236
  328MPD2     N 4984   2.150   3.120  16.783  0.2710 -0.0436 -0.5434
  328MPD2    H5 4985   2.150   3.167  16.693  1.9606 -1.4389 -1.2684
  328MPD2    N1 4986   2.362   3.012  17.210  0.0436  0.8556  0.4250
  328MPD2    H7 4987   2.451   2.984  17.249 -0.8964 -0.3941  1.6679
  329TMC3    C1 4988   2.295   2.999  17.435  0.6670  1.2768 -0.4545
  329TMC3    C2 4989   2.240   3.068  17.546  0.0860  0.2237 -0.5318
  329TMC3    C3 4990   2.295   3.041  17.671  0.5950 -0.3966  0.1616
  329TMC3    C4 4991   2.382   2.895  17.455  0.6095 -0.8193 -0.2460
  329TMC3    C5 4992   2.432   2.879  17.576 -0.0106  0.1759 -0.3320
  329TMC3    C6 4993   2.393   2.944  17.692  0.8198  0.4684  0.0233
  329TMC3     C 4994   2.259   3.050  17.300  0.6152 -0.2484  0.5542
  329TMC3     O 4995   2.175   3.139  17.287 -0.0636 -0.1119  0.1909
  329TMC3     H 4996   2.175   3.155  17.543  1.8554  1.5292 -1.0718
  329TMC3    H1 4997   2.410   2.837  17.368  0.7929  0.8293 -1.3048
  329TMC3    H2 4998   2.439   2.935   0.038 -0.2311 -0.7706  0.4150
  329TMC3    C7 4999   2.486   2.749  17.601 -0.9475  0.0508 -0.3199
  329TMC3    C8 5000   2.253   3.109   0.044 -0.3325 -0.2747 -0.5891
  329TMC3    O1 5001   2.470   2.661  17.518  0.2774 -0.6817 -0.5428
  329TMC3    O2 5002   2.345   3.136   0.125 -0.4465  0.3346  1.0290
  330TMC3    C1 5003   0.375   1.813   9.554  0.1793  0.2257  0.2433
  330TMC3    C2 5004   0.279   1.739   9.495 -0.3365 -0.6987 -0.5761
  330TMC3    C3 5005   0.247   1.612   9.547  0.1372  0.0831 -0.0383
  330TMC3    C4 5006   0.456   1.753   9.647  0.5535 -0.8169  0.9578
  330TMC3    C5 5007   0.439   1.621   9.685 -0.0398  0.1416 -0.0482
  330TMC3    C6 5008   0.332   1.552   9.636  0.4201 -0.2725  0.1915
  330TMC3     C 5009   0.401   1.960   9.535  0.0001 -0.3524 -0.4000
  330TMC3     O 5010   0.495   2.005   9.602  0.2091 -0.2323  0.1117
  330TMC3     H 5011   0.228   1.780   9.408  0.8053  0.4028 -0.7253
  330TMC3    H1 5012   0.552   1.799   9.669  1.4492 -1.0341 -2.5313
  330TMC3    H2 5013   0.333   1.445   9.650  1.7331 -0.6905 -3.0664
  330TMC3    C7 5014   0.524   1.576   9.800 -0.3649 -0.5748  0.4773
  330TMC3    C8 5015   0.151   1.538   9.468 -1.0808 -0.7040  0.3713
  330TMC3    O1 5016   0.609   1.652   9.843  0.4487  0.3352  0.3540
  330TMC3    O2 5017   0.125   1.584   9.361  0.6459 -0.1800  0.3172
  331MPD2     C 5018   1.713   0.612  12.687 -0.0836 -0.6988 -0.3239
  331MPD2    C1 5019   1.828   0.651  12.632  1.3364 -0.4254 -0.0666
  331MPD2    C2 5020   1.933   0.560  12.627 -0.3202 -0.5928  0.6173
  331MPD2    C3 5021   1.932   0.435  12.681  0.4118 -0.6528 -0.0655
  331MPD2    C4 5022   1.814   0.391  12.736  0.5098 -0.2464 -0.4303
  331MPD2    C5 5023   1.710   0.486  12.743  0.7897  0.0170  0.5244
  331MPD2     H 5024   2.027   0.581  12.577 -1.9097  2.5087 -1.1391
  331MPD2    H1 5025   1.788   0.289  12.765 -2.2222  1.2936  2.5541
  331MPD2    H2 5026   1.633   0.681  12.711  0.5509 -0.0726 -0.0074
  331MPD2    H3 5027   1.617   0.450  12.786  0.3184  0.2724 -0.2898
  331MPD2     N 5028   2.050   0.357  12.663 -0.1967  0.0940 -0.0510
  331MPD2    H5 5029   2.123   0.401  12.607 -1.1014 -0.1881 -1.4606
  331MPD2    N1 5030   1.839   0.791  12.630 -0.2045 -0.3421  0.1508
  331MPD2    H7 5031   1.753   0.845  12.639  0.3160  0.5167 -0.0691
  332TMC3    C1 5032   2.222   0.206  12.702  0.3537 -0.1987  0.3771
  332TMC3    C2 5033   2.311   0.275  12.626  0.2775  0.3027  0.4817
  332TMC3    C3 5034   2.439   0.237  12.613  0.2694  0.1626  0.5547
  332TMC3    C4 5035   2.266   0.087  12.751  0.4386 -0.7126 -0.7981
  332TMC3    C5 5036   2.393   0.045  12.735  0.0923  0.3864 -0.8699
  332TMC3    C6 5037   2.484   0.113  12.652  0.1087 -0.1587 -1.1401
  332TMC3     C 5038   2.081   0.242  12.724 -0.2370 -0.2638  0.4165
  332TMC3     O 5039   2.013   0.167  12.793  0.0485 -0.2740 -0.0241
  332TMC3     H 5040   2.283   0.373  12.587 -2.1926 -0.7480 -0.3782
  332TMC3    H1 5041   2.192   0.037  12.813 -0.1646  0.7884 -0.3084
  332TMC3    H2 5042   2.591   0.094  12.655  0.1708  0.2154 -0.9281
  332TMC3    C7 5043   2.440   4.704  12.844 -0.2851  0.9974  0.1316
  332TMC3    C8 5044   2.513   0.305  12.505 -0.2855 -0.0569 -0.5438
  332TMC3    O1 5045   2.380   4.724  12.949 -0.0356 -0.3194 -0.3171
  332TMC3    O2 5046   2.496   0.422  12.494  0.4067 -0.2781  0.3507
  333MPD2     C 5047   3.328   0.924  11.843 -0.2108  0.6950  0.7566
  333MPD2    C1 5048   3.295   0.983  11.717  0.2672 -0.4872 -0.1037
  333MPD2    C2 5049   3.191   0.926  11.652 -0.2115  0.2506 -0.4611
  333MPD2    C3 5050   3.122   0.809  11.694 -0.3721  0.2084  0.0070
  333MPD2    C4 5051   3.147   0.776  11.824  0.5289  0.3785  0.1228
  333MPD2    C5 5052   3.246   0.831  11.894 -0.2983 -0.3041 -0.0957
  333MPD2     H 5053   3.157   0.966  11.557  1.4722  0.8535 -0.8079
  333MPD2    H1 5054   3.097   0.693  11.873  1.1221 -0.4488 -0.6749
  333MPD2    H2 5055   3.406   0.971  11.903 -1.5015  1.9875  1.4171
  333MPD2    H3 5056   3.276   0.802  11.994  1.9598  2.9719  0.1598
  333MPD2     N 5057   3.034   0.728  11.609 -0.6395 -0.4115  0.4149
  333MPD2    H5 5058   3.027   0.757  11.512 -1.5183 -0.7725  0.3746
  333MPD2    N1 5059   3.377   1.092  11.667 -0.4608 -0.0405 -0.1612
  333MPD2    H7 5060   3.456   1.118  11.725 -0.5889  1.0877 -0.4787
  334TMC3    C1 5061   3.454   1.252  11.510  0.4061  0.6177  0.2468
  334TMC3    C2 5062   3.589   1.219  11.526  1.1552  0.2254  0.1033
  334TMC3    C3 5063   3.682   1.300  11.467 -0.6043 -1.2352  0.4173
  334TMC3    C4 5064   3.421   1.358  11.428 -0.3514  0.2462 -0.0750
  334TMC3    C5 5065   3.521   1.433  11.370 -0.4316 -0.1495 -0.2053
  334TMC3    C6 5066   3.652   1.416  11.393  0.0700  0.2889 -0.8184
  334TMC3     C 5067   3.350   1.167  11.552  0.7419 -0.5075  0.7148
  334TMC3     O 5068   3.242   1.176  11.497 -0.1903  0.8011  0.2510
  334TMC3     H 5069   3.616   1.126  11.575  1.9219 -0.0096 -0.7711
  334TMC3    H1 5070   3.314   1.373  11.415 -0.6101  0.2291  2.1572
  334TMC3    H2 5071   3.726   1.489  11.360  1.7814 -0.5846  1.0946
  334TMC3    C7 5072   3.487   1.562  11.306 -0.7717  0.5487  0.0728
  334TMC3    C8 5073   3.818   1.259  11.486 -0.4622  0.2854  0.1575
  334TMC3    O1 5074   3.582   1.614  11.246  0.7498  0.0324  0.5777
  334TMC3    O2 5075   3.843   1.186  11.583  0.7311  0.2085  0.4190
  335TMC3    C1 5076   3.018   2.724  17.459  0.1398 -0.8347 -0.0608
  335TMC3    C2 5077   2.964   2.651  17.356  0.7262 -0.9070 -0.5005
  335TMC3    C3 5078   3.042   2.561  17.292 -0.5272  1.0216  0.2415
  335TMC3    C4 5079   3.151   2.728  17.499  0.4109  0.0548 -0.0579
  335TMC3    C5 5080   3.232   2.651  17.420  0.5844  0.3762  0.0962
  335TMC3    C6 5081   3.177   2.571  17.319  0.8809  0.3596  0.5487
  335TMC3     C 5082   2.934   2.831  17.511  0.3008  0.4252  0.5483
  335TMC3     O 5083   2.850   2.871  17.435  0.2073  0.0078 -0.4948
  335TMC3     H 5084   2.856   2.650  17.343  0.3752  0.9314  2.4319
  335TMC3    H1 5085   3.196   2.806  17.560 -2.4706  0.3342  1.6615
  335TMC3    H2 5086   3.246   2.509  17.263  0.3439  1.2749 -1.1351
  335TMC3    C7 5087   3.372   2.637  17.457 -0.0577 -0.2045 -0.2191
  335TMC3    C8 5088   2.996   2.526  17.159  0.1974  0.3258  0.0020
  335TMC3    O1 5089   3.435   2.537  17.422  0.1078 -0.5756  0.0346
  335TMC3    O2 5090   3.080   2.521  17.072  0.0594 -0.7520 -0.3102
  336MPD2     C 5091   2.539   0.390  15.952 -0.2455  0.7793 -0.1044
  336MPD2    C1 5092   2.409   0.344  15.951 -0.3400 -0.1265  0.4431
  336MPD2    C2 5093   2.390   0.204  15.937 -0.7323 -0.2756  0.6100
  336MPD2    C3 5094   2.495   0.109  15.943 -0.2537  0.1441  0.2200
  336MPD2    C4 5095   2.626   0.167  15.945  0.4028  0.1214  0.3172
  336MPD2    C5 5096   2.648   0.301  15.943 -0.1372 -0.3298  0.3158
  336MPD2     H 5097   2.287   0.168  15.934 -2.0379  3.1474  4.0028
  336MPD2    H1 5098   2.714   0.104  15.942  1.2058  1.2839 -0.6543
  336MPD2    H2 5099   2.563   0.495  15.944  1.2883  0.6244  2.3165
  336MPD2    H3 5100   2.753   0.329  15.937 -0.5711  0.8030 -2.0686
  336MPD2     N 5101   2.466   4.708  15.945  0.1013  0.1682 -0.0886
  336MPD2    H5 5102   2.367   4.691  15.956  0.3705  0.2357  2.5783
  336MPD2    N1 5103   2.295   0.426  15.953 -0.3086 -0.4542 -0.6006
  336MPD2    H7 5104   2.205   0.398  15.916 -1.4250 -0.2251  1.9207
  337TMC3    C1 5105   2.192   0.632  15.922 -0.4317  0.0873  0.0164
  337TMC3    C2 5106   2.103   0.558  15.849 -0.1499 -0.7519  0.2915
  337TMC3    C3 5107   2.101   0.582  15.714 -0.1616  0.6333  0.0830
  337TMC3    C4 5108   2.252   0.746  15.862  0.3701  0.7063  0.4717
  337TMC3    C5 5109   2.237   0.766  15.730 -1.1404 -0.7779 -0.4182
  337TMC3    C6 5110   2.169   0.678  15.655  0.0840  0.0540 -0.0496
  337TMC3     C 5111   2.300   0.559  15.986  0.1666 -0.1102 -0.9012
  337TMC3     O 5112   2.400   0.623  16.023  0.0941  0.2555 -0.4924
  337TMC3     H 5113   2.059   0.462  15.873 -0.3219 -0.8736 -0.5048
  337TMC3    H1 5114   2.322   0.807  15.918  1.8510  0.5864 -1.2202
  337TMC3    H2 5115   2.163   0.692  15.548  0.0315 -0.1496 -0.0736
  337TMC3    C7 5116   2.348   0.832  15.665 -0.1436 -0.1888 -0.7837
  337TMC3    C8 5117   2.010   0.518  15.627 -0.2754  0.3866 -0.4355
  337TMC3    O1 5118   2.448   0.855  15.734 -0.2504  0.1809 -0.5818
  337TMC3    O2 5119   2.050   0.486  15.519 -0.5865  0.0347 -0.4943
  338MPD2     C 5120   2.340   4.196   0.770  0.4825 -0.4271 -0.1382
  338MPD2    C1 5121   2.384   4.306   0.702  0.2301  0.2924  0.2557
  338MPD2    C2 5122   2.302   4.407   0.668  0.1175 -0.3597  0.4596
  338MPD2    C3 5123   2.164   4.404   0.694 -0.0453  0.6742  0.2766
  338MPD2    C4 5124   2.115   4.297   0.766  0.0243 -0.1500 -0.6402
  338MPD2    C5 5125   2.206   4.196   0.795 -0.9935 -0.0220 -0.2425
  338MPD2     H 5126   2.342   4.494   0.619 -1.5475  0.0599 -0.1673
  338MPD2    H1 5127   2.011   4.295   0.796  0.2448  2.3913  0.3145
  338MPD2    H2 5128   2.403   4.110   0.793  0.2667 -0.1842  1.3706
  338MPD2    H3 5129   2.164   4.105   0.838 -0.5055 -1.2451 -2.3526
  338MPD2     N 5130   2.080   4.512   0.651 -0.2147  0.1032 -0.1352
  338MPD2    H5 5131   1.986   4.525   0.688 -1.1166 -1.0799 -2.0703
  338MPD2    N1 5132   2.515   4.316   0.665 -0.1382 -0.5313  0.3557
  338MPD2    H7 5133   2.531   4.404   0.616 -1.6268 -0.3077  0.2625
  339TMC3    C1 5134   2.041   4.729   0.585 -0.1158  0.1020  0.7272
  339TMC3    C2 5135   1.975   0.024   0.704  1.0252 -0.7945 -0.5380
  339TMC3    C3 5136   1.908   0.147   0.716  0.3453  0.1243 -0.6467
  339TMC3    C4 5137   2.046   0.087   0.490  0.1822  0.1580 -0.4239
  339TMC3    C5 5138   1.988   0.210   0.505 -0.8106 -0.0997 -0.1158
  339TMC3    C6 5139   1.916   0.240   0.619 -0.1947  0.0913 -0.0654
  339TMC3     C 5140   2.122   4.613   0.575  0.1783  0.0350 -0.2487
  339TMC3     O 5141   2.201   4.604   0.480  0.1752  0.6148 -0.2124
  339TMC3     H 5142   1.968   4.690   0.784 -2.3972 -0.7368 -0.7683
  339TMC3    H1 5143   2.106   0.052   0.407 -1.0216 -1.1567 -0.7494
  339TMC3    H2 5144   1.875   0.339   0.635 -0.7449  0.0613 -1.2751
  339TMC3    C7 5145   2.021   0.316   0.412  0.3227 -0.8749  0.6972
  339TMC3    C8 5146   1.828   0.175   0.836 -0.0088 -0.5306 -0.7508
  339TMC3    O1 5147   1.972   0.428   0.426 -0.1742  0.5546 -0.0420
  339TMC3    O2 5148   1.816   0.295   0.868  0.1336  0.6302 -0.2136
  340MPD2     C 5149   3.269   2.705  10.072 -0.0726  0.5046 -0.3872
  340MPD2    C1 5150   3.369   2.649   9.991 -0.2935 -0.6905  0.2291
  340MPD2    C2 5151   3.500   2.682  10.028  0.0316  0.3205  0.6640
  340MPD2    C3 5152   3.535   2.775  10.123  0.0000  0.1767  0.3165
  340MPD2    C4 5153   3.431   2.846  10.184  0.6754  0.2298 -0.3012
  340MPD2    C5 5154   3.301   2.805  10.159 -0.4976  0.1569 -0.6736
  340MPD2     H 5155   3.578   2.617   9.989  0.9320  1.1820  1.0412
  340MPD2    H1 5156   3.452   2.928  10.252  0.6785 -0.4542  0.5179
  340MPD2    H2 5157   3.167   2.666  10.070 -1.0868  3.2008 -1.2872
  340MPD2    H3 5158   3.227   2.865  10.211 -1.1459 -2.7199  1.6787
  340MPD2     N 5159   3.666   2.815  10.162 -0.1939 -0.0204 -0.4882
  340MPD2    H5 5160   3.676   2.894  10.225 -2.4994 -0.4800  0.4713
  340MPD2    N1 5161   3.355   2.546   9.900  1.1597 -0.4514 -0.3880
  340MPD2    H7 5162   3.264   2.500   9.894 -0.1534  2.1370 -0.5543
  341TMC3    C1 5163   3.384   2.422   9.693  0.3697 -0.0480  0.1989
  341TMC3    C2 5164   3.278   2.335   9.722  1.0759  0.9283 -0.1418
  341TMC3    C3 5165   3.268   2.221   9.648 -0.4367 -0.1056 -0.5920
  341TMC3    C4 5166   3.474   2.390   9.592  0.5008 -0.6559  0.6894
  341TMC3    C5 5167   3.457   2.271   9.513  0.5690  0.0630  0.3068
  341TMC3    C6 5168   3.351   2.184   9.542 -0.2150  0.1097  0.4150
  341TMC3     C 5169   3.441   2.513   9.796  0.0487 -0.0150  0.1911
  341TMC3     O 5170   3.553   2.562   9.770 -0.1482 -0.2837 -0.0996
  341TMC3     H 5171   3.202   2.365   9.794 -0.9120  0.7976 -2.2130
  341TMC3    H1 5172   3.557   2.457   9.571 -0.0245  0.0776  0.9626
  341TMC3    H2 5173   3.341   2.085   9.499 -0.4832  0.8152 -1.1844
  341TMC3    C7 5174   3.584   2.214   9.483  0.1141  0.1189 -0.7416
  341TMC3    C8 5175   3.160   2.131   9.701  0.7251  0.6795 -0.0658
  341TMC3    O1 5176   3.685   2.266   9.535 -0.1965  0.2598  0.4267
  341TMC3    O2 5177   3.137   2.131   9.818 -0.0954 -0.3370 -0.3789
  342MPD2     C 5178   0.843   1.070  17.560  0.5123 -0.0339 -0.5466
  342MPD2    C1 5179   0.956   1.086  17.475 -0.1287 -0.0112  0.3218
  342MPD2    C2 5180   1.014   1.213  17.465 -0.5928 -0.2318  0.0809
  342MPD2    C3 5181   0.964   1.322  17.531  0.4057 -0.3415  0.1512
  342MPD2    C4 5182   0.847   1.307  17.606 -0.1510 -0.6406 -0.2935
  342MPD2    C5 5183   0.792   1.185  17.630  0.2867 -1.0517 -0.7078
  342MPD2     H 5184   1.103   1.218  17.404  0.7434 -0.0581  2.0233
  342MPD2    H1 5185   0.802   1.397  17.645 -1.2698 -1.2604 -0.1682
  342MPD2    H2 5186   0.796   0.974  17.581  1.1555  0.0607  1.3880
  342MPD2    H3 5187   0.698   1.181  17.685 -0.6935 -1.6761 -2.4222
  342MPD2     N 5188   1.016   1.457  17.526  0.1946  0.0463  0.2452
  342MPD2    H5 5189   0.957   1.530  17.565 -1.4264 -0.0963 -1.9520
  342MPD2    N1 5190   1.014   0.985  17.392 -0.9728 -0.3142 -0.0934
  342MPD2    H7 5191   1.087   1.020  17.331  0.1143  0.0443  1.4148
  343TMC3    C1 5192   1.066   0.765  17.326  0.0406 -0.0976  0.6942
  343TMC3    C2 5193   1.143   0.812  17.221  0.0365 -0.1873  0.5624
  343TMC3    C3 5194   1.167   0.726  17.124 -0.1273 -0.3771 -0.2700
  343TMC3    C4 5195   1.027   0.634  17.336  0.1557  0.6178  0.3076
  343TMC3    C5 5196   1.057   0.552  17.230 -0.3190 -1.4773  0.1288
  343TMC3    C6 5197   1.123   0.593  17.118  0.4503 -0.5143  0.3690
  343TMC3     C 5198   0.969   0.856  17.398 -0.3969  0.1093  0.1818
  343TMC3     O 5199   0.887   0.798  17.468  0.3329  0.0850  0.5845
  343TMC3     H 5200   1.167   0.915  17.199  0.4840 -0.7973 -1.8568
  343TMC3    H1 5201   0.986   0.603  17.431  0.9272 -1.4427 -0.0492
  343TMC3    H2 5202   1.154   0.512  17.054  1.6249  0.4423 -0.2767
  343TMC3    C7 5203   1.004   0.417  17.233 -0.7758  0.1486  0.0534
  343TMC3    C8 5204   1.267   0.760  17.025  0.0493 -0.8527 -0.3657
  343TMC3    O1 5205   0.969   0.374  17.125 -0.4143 -0.3522 -0.2503
  343TMC3    O2 5206   1.329   0.861  17.046 -0.1688  0.5229 -0.2335
  344MPD2     C 5207   1.932   4.559  11.356  0.9362 -0.0144 -0.9793
  344MPD2    C1 5208   1.854   4.540  11.239 -0.2978 -0.5031 -0.5079
  344MPD2    C2 5209   1.873   4.620  11.127 -0.2613  0.4519 -0.2239
  344MPD2    C3 5210   1.971   4.722  11.131 -0.2314 -0.5206  0.0478
  344MPD2    C4 5211   2.047   4.737  11.235  0.2396  0.0780  0.5643
  344MPD2    C5 5212   2.039   4.645  11.339 -0.3051 -0.1863  0.6251
  344MPD2     H 5213   1.818   4.615  11.034  0.6462  1.5494 -0.8231
  344MPD2    H1 5214   2.128   0.071  11.241 -0.0923  0.4923  0.0439
  344MPD2    H2 5215   1.928   4.493  11.441 -2.6272  0.8181 -0.5165
  344MPD2    H3 5216   2.115   4.662  11.414  2.8074  1.0574 -2.7937
  344MPD2     N 5217   1.998   0.058  11.018 -0.0351 -0.6768 -0.9911
  344MPD2    H5 5218   2.079   0.119  11.016 -0.6399  0.2063  1.9135
  344MPD2    N1 5219   1.751   4.447  11.235 -0.5988  0.1156  0.5119
  344MPD2    H7 5220   1.691   4.439  11.153 -1.1700 -0.5506  0.9918
  345TMC3    C1 5221   2.003   0.174  10.825  0.2054  0.3032  0.2787
  345TMC3    C2 5222   2.136   0.196  10.852 -0.6905 -0.3118 -0.4075
  345TMC3    C3 5223   2.202   0.299  10.794  0.9507 -0.6254 -0.4415
  345TMC3    C4 5224   1.932   0.255  10.740  0.5560 -0.0852  0.2248
  345TMC3    C5 5225   1.997   0.364  10.689 -0.0119  0.3456 -0.7610
  345TMC3    C6 5226   2.129   0.389  10.723 -0.2312  0.9365  0.2249
  345TMC3     C 5227   1.928   0.070  10.897  0.5008 -0.6163  0.2826
  345TMC3     O 5228   1.816   0.037  10.868 -0.1317 -0.1957  0.2814
  345TMC3     H 5229   2.191   0.117  10.904 -0.6938  0.1137  0.2457
  345TMC3    H1 5230   1.825   0.242  10.742  0.9093 -3.5479 -2.8879
  345TMC3    H2 5231   2.179   0.471  10.671  0.5441 -1.0263 -2.1049
  345TMC3    C7 5232   1.934   0.454  10.596  0.6145  0.2868  0.5567
  345TMC3    C8 5233   2.337   0.340  10.837  0.2055 -0.1517 -0.1812
  345TMC3    O1 5234   2.008   0.533  10.546 -0.4552  1.0838 -0.1608
  345TMC3    O2 5235   2.357   0.462  10.840 -0.1023  0.3593 -0.0358
  346MPD2     C 5236   1.837   1.237  13.997  0.1681 -0.0012  0.7432
  346MPD2    C1 5237   1.969   1.276  14.013 -0.3129  0.2725 -0.8354
  346MPD2    C2 5238   1.998   1.363  14.110 -0.1524  0.6676  0.2631
  346MPD2    C3 5239   1.906   1.398  14.202  0.3682  0.4534  0.2101
  346MPD2    C4 5240   1.773   1.357  14.192  0.3531  0.3571 -0.6673
  346MPD2    C5 5241   1.739   1.278  14.087  0.1866 -0.3698 -0.8282
  346MPD2     H 5242   2.101   1.391  14.127 -0.2710  1.1039  0.2749
  346MPD2    H1 5243   1.694   1.366  14.266 -1.9606 -1.4106 -2.9073
  346MPD2    H2 5244   1.814   1.158  13.926  3.1441 -0.4946  0.3109
  346MPD2    H3 5245   1.637   1.243  14.070  0.2132 -0.4059 -0.9152
  346MPD2     N 5246   1.946   1.493  14.301 -0.8963 -0.8759 -0.2475
  346MPD2    H5 5247   2.047   1.504  14.301 -0.9553 -0.3146 -1.4582
  346MPD2    N1 5248   2.065   1.246  13.919  0.7593  0.0033  0.1146
  346MPD2    H7 5249   2.160   1.273  13.945  0.3960  2.4394 -1.0945
  347TMC3    C1 5250   1.953   1.656  14.461 -0.1514 -1.1649 -0.1281
  347TMC3    C2 5251   2.071   1.694  14.407 -0.0370  0.4859 -0.6037
  347TMC3    C3 5252   2.150   1.785  14.474  0.4868 -0.2040  0.2180
  347TMC3    C4 5253   1.918   1.684  14.592  0.5828 -0.5369  0.0343
  347TMC3    C5 5254   1.999   1.776  14.657  0.0982  0.3828  0.4264
  347TMC3    C6 5255   2.114   1.828  14.598 -0.1311  0.0931 -0.4370
  347TMC3     C 5256   1.867   1.570  14.384 -0.3135  0.1894  0.2104
  347TMC3     O 5257   1.749   1.562  14.416 -0.4599  0.1342 -0.3847
  347TMC3     H 5258   2.091   1.683  14.301 -1.2764  2.3562 -1.0358
  347TMC3    H1 5259   1.823   1.648  14.630 -0.5253  0.5751 -1.6777
  347TMC3    H2 5260   2.173   1.905  14.647  2.5810 -0.5424 -2.6697
  347TMC3    C7 5261   1.963   1.820  14.789  0.2767  0.4431 -0.0745
  347TMC3    C8 5262   2.285   1.808  14.431 -1.0003 -0.3735  0.4777
  347TMC3    O1 5263   1.893   1.749  14.861 -0.0591  0.5531  0.6708
  347TMC3    O2 5264   2.329   1.735  14.341 -0.0928 -0.4644  0.1092
  348MPD2     C 5265   0.800   1.799  11.995  0.4780 -0.6802 -0.1548
  348MPD2    C1 5266   0.802   1.697  11.901 -1.0899  0.2167  0.2071
  348MPD2    C2 5267   0.822   1.721  11.765  0.7305  0.1718  0.1248
  348MPD2    C3 5268   0.813   1.853  11.720 -0.0140 -0.0624  0.3947
  348MPD2    C4 5269   0.797   1.954  11.817 -0.4356 -0.9148 -0.2039
  348MPD2    C5 5270   0.783   1.925  11.950 -0.5853 -0.5728 -0.0786
  348MPD2     H 5271   0.821   1.642  11.690 -1.7073  0.8787 -0.5947
  348MPD2    H1 5272   0.789   2.059  11.788  1.4390 -0.6646  0.1919
  348MPD2    H2 5273   0.783   1.781  12.100 -0.4466 -1.0636 -0.3643
  348MPD2    H3 5274   0.769   2.002  12.025  2.2573 -0.4115  0.2734
  348MPD2     N 5275   0.814   1.898  11.586 -0.1197  0.2968 -0.4733
  348MPD2    H5 5276   0.811   1.998  11.566 -0.5889  0.7498  1.8611
  348MPD2    N1 5277   0.771   1.561  11.940 -0.5181  0.1774 -0.6794
  348MPD2    H7 5278   0.757   1.496  11.863  1.0742  1.6896 -2.2452
  349TMC3    C1 5279   0.702   1.384  12.065  0.3555  0.5142 -0.2626
  349TMC3    C2 5280   0.732   1.303  12.172 -0.4426 -0.3500  0.0966
  349TMC3    C3 5281   0.651   1.190  12.181 -0.5241 -0.2421  0.6141
  349TMC3    C4 5282   0.605   1.364  11.967 -0.1915 -0.3969  0.5311
  349TMC3    C5 5283   0.547   1.238  11.971  0.3414 -0.5442  0.1991
  349TMC3    C6 5284   0.571   1.158  12.074 -0.0929  0.9592  0.5132
  349TMC3     C 5285   0.767   1.514  12.064  0.0322  0.1650  0.3235
  349TMC3     O 5286   0.793   1.559  12.177  0.2860  0.7796  0.3983
  349TMC3     H 5287   0.809   1.323  12.246 -2.5508  1.3396  1.8324
  349TMC3    H1 5288   0.565   1.436  11.897  2.3925  1.8710  1.3494
  349TMC3    H2 5289   0.504   1.073  12.068 -1.3226  1.8666  1.2648
  349TMC3    C7 5290   0.416   1.214  11.902  0.6853  0.3468 -0.0333
  349TMC3    C8 5291   0.694   1.091  12.278  0.0419  0.2553 -0.8751
  349TMC3    O1 5292   0.331   1.157  11.967  0.5605 -0.5538  0.1010
  349TMC3    O2 5293   0.795   1.128  12.337 -0.6540 -0.1849  0.2033
  350MPD2     C 5294   0.096   4.709  10.668 -0.7831  0.4802 -0.2036
  350MPD2    C1 5295   0.076   4.579  10.635  0.0805  0.0274  1.1251
  350MPD2    C2 5296   4.696   4.512  10.671 -0.2091  0.0913  0.3238
  350MPD2    C3 5297   4.611   4.585  10.748 -0.3471 -0.0276  0.2393
  350MPD2    C4 5298   4.624   4.725  10.768 -0.7198  0.0774 -0.5621
  350MPD2    C5 5299   0.006   0.041  10.737  0.0420  0.0716  0.4782
  350MPD2     H 5300   4.669   4.409  10.649 -0.1756 -0.4019  2.5632
  350MPD2    H1 5301   4.552   0.054  10.814  0.0486  0.9732 -0.6868
  350MPD2    H2 5302   0.196   0.012  10.655 -1.8710  2.9724 -0.7152
  350MPD2    H3 5303   0.012   0.149  10.747  0.1133  0.3128 -2.1054
  350MPD2     N 5304   4.497   4.517  10.803  0.9223 -0.1250 -0.4032
  350MPD2    H5 5305   4.485   4.417  10.786 -0.1939 -0.2355  1.0638
  350MPD2    N1 5306   0.171   4.516  10.550  0.3957  0.0192 -0.1729
  350MPD2    H7 5307   0.243   4.581  10.523  0.9701 -0.6571 -0.2797
  351TMC3    C1 5308   0.244   4.372  10.375 -0.1204 -0.3785 -0.1680
  351TMC3    C2 5309   0.265   4.245  10.329 -0.0777  0.1917  0.1458
  351TMC3    C3 5310   0.356   4.216  10.234  0.5566  0.4841  0.4362
  351TMC3    C4 5311   0.314   4.482  10.326 -0.1007  0.1373  0.3923
  351TMC3    C5 5312   0.404   4.452  10.224 -0.8315  0.0073 -0.3313
  351TMC3    C6 5313   0.418   4.326  10.178 -0.3169 -0.1789 -1.0114
  351TMC3     C 5314   0.150   4.391  10.486  0.3678  0.0382 -0.6782
  351TMC3     O 5315   0.062   4.310  10.507 -0.0385  0.2789 -0.1259
  351TMC3     H 5316   0.202   4.162  10.359 -2.2478  1.7789  0.0051
  351TMC3    H1 5317   0.277   4.583  10.316  1.0868  0.4988 -0.4350
  351TMC3    H2 5318   0.479   4.315  10.088 -0.0428  1.6050 -1.0306
  351TMC3    C7 5319   0.430   4.556  10.125 -0.4725  0.4472  0.4425
  351TMC3    C8 5320   0.346   4.105  10.149 -0.3108  0.4372 -0.5225
  351TMC3    O1 5321   0.436   4.524  10.005 -0.0005 -0.0422  0.2685
  351TMC3    O2 5322   0.235   4.064  10.111  0.5485  0.2239  0.1020
  352MPD2     C 5323   2.983   2.033   1.121  0.5748  0.4328  0.2386
  352MPD2    C1 5324   2.907   1.990   1.022  0.3882  0.2424 -0.0217
  352MPD2    C2 5325   2.925   1.864   0.977  0.6799 -0.3257 -0.3092
  352MPD2    C3 5326   3.014   1.775   1.037  0.2388  0.3833  0.2285
  352MPD2    C4 5327   3.101   1.827   1.132  0.2132 -0.0863  0.6465
  352MPD2    C5 5328   3.085   1.954   1.182 -0.2223  0.0263 -0.1140
  352MPD2     H 5329   2.866   1.831   0.892 -3.1238  1.8508  1.4844
  352MPD2    H1 5330   3.158   1.754   1.187  0.5394 -0.3225  0.0039
  352MPD2    H2 5331   2.961   2.126   1.173 -1.8268  0.2543 -0.4800
  352MPD2    H3 5332   3.146   2.001   1.258  0.5488  0.1621 -0.8142
  352MPD2     N 5333   3.041   1.642   0.995 -0.6555 -0.9667 -0.0154
  352MPD2    H5 5334   3.109   1.596   1.055 -2.3825 -4.0342 -0.3940
  352MPD2    N1 5335   2.803   2.078   0.981 -1.0044 -0.2765  0.3081
  352MPD2    H7 5336   2.790   2.164   1.034 -1.3672 -1.3209  1.9000
  353TMC3    C1 5337   2.994   1.435   0.894  0.0322  0.3410  0.1983
  353TMC3    C2 5338   3.109   1.394   0.953  0.0090  0.0334 -0.4501
  353TMC3    C3 5339   3.126   1.262   0.975 -0.3499  0.1300  0.1077
  353TMC3    C4 5340   2.888   1.354   0.873 -0.8005 -0.2717  0.2921
  353TMC3    C5 5341   2.908   1.222   0.915 -0.6132  0.2928  0.3051
  353TMC3    C6 5342   3.020   1.182   0.978 -0.1012 -0.3512 -0.2472
  353TMC3     C 5343   2.965   1.574   0.900  0.2823 -0.7201 -0.2701
  353TMC3     O 5344   2.869   1.611   0.831  0.3000 -0.3987  0.5271
  353TMC3     H 5345   3.191   1.464   0.952 -1.5976  1.9330 -0.1900
  353TMC3    H1 5346   2.800   1.373   0.812  0.6970  3.5655 -0.6274
  353TMC3    H2 5347   3.027   1.077   1.002  4.4299 -0.2721 -1.2015
  353TMC3    C7 5348   2.803   1.125   0.894  0.2708  1.0724  0.1283
  353TMC3    C8 5349   3.257   1.213   1.007  0.3175  0.3672 -0.1364
  353TMC3    O1 5350   2.831   1.004   0.895  0.2440  0.3761  0.4510
  353TMC3    O2 5351   3.348   1.287   1.055  0.0872  0.4115  0.0146
  354TMC3    C1 5352   4.572   2.694  13.200  0.4747 -0.1833  0.9791
  354TMC3    C2 5353   4.633   2.813  13.235 -0.1096 -0.5626  0.1676
  354TMC3    C3 5354   4.627   2.922  13.157 -0.4106  0.5658 -0.5169
  354TMC3    C4 5355   4.496   2.678  13.086  0.5916 -0.4986  0.1158
  354TMC3    C5 5356   4.501   2.793  13.006  0.3370  0.9457  0.3612
  354TMC3    C6 5357   4.550   2.914  13.042 -0.2766  0.2417  0.1241
  354TMC3     C 5358   4.560   2.581  13.296 -0.2062 -0.7618 -0.1396
  354TMC3     O 5359   4.461   2.511  13.284 -0.3310 -0.0044 -0.3362
  354TMC3     H 5360   4.698   2.815  13.321 -0.2523 -1.0607  0.2859
  354TMC3    H1 5361   4.475   2.587  13.032  2.4054 -1.3480  0.8520
  354TMC3    H2 5362   4.560   2.986  12.962  0.3981  0.1592  0.1361
  354TMC3    C7 5363   4.486   2.774  12.860  0.5135  0.3523 -0.0341
  354TMC3    C8 5364   0.024   2.968  13.115  0.1189  0.4502  0.3735
  354TMC3    O1 5365   4.435   2.866  12.797  0.4423 -0.0443 -0.3214
  354TMC3    O2 5366   0.033   3.087  13.081 -0.1896  0.9086 -0.5137
  355MPD2     C 5367   4.550   3.258  11.679  0.1861 -0.0939  0.9205
  355MPD2    C1 5368   4.635   3.285  11.574  0.1367 -0.4845  0.0727
  355MPD2    C2 5369   4.734   3.185  11.561  0.4632  0.6794  0.1867
  355MPD2    C3 5370   0.015   3.080  11.650  0.2647  0.4022 -0.6193
  355MPD2    C4 5371   4.658   3.061  11.745 -0.1279 -0.4895 -0.2457
  355MPD2    C5 5372   4.553   3.142  11.752  0.4334  0.2881  0.4257
  355MPD2     H 5373   0.062   3.192  11.476  0.7051  2.5504  0.5206
  355MPD2    H1 5374   4.658   2.975  11.812  0.6325  0.8473  1.4693
  355MPD2    H2 5375   4.467   3.325  11.699  0.1225 -0.1530  0.8516
  355MPD2    H3 5376   4.477   3.125  11.826  0.0342  0.7762  0.1228
  355MPD2     N 5377   0.130   2.997  11.651  0.8528  0.5866  0.8667
  355MPD2    H5 5378   0.136   2.939  11.734 -1.4541 -0.2342  0.4476
  355MPD2    N1 5379   4.636   3.410  11.501 -0.2714  0.2735 -0.5048
  355MPD2    H7 5380   4.587   3.490  11.540 -1.3177 -0.8801  0.5280
  356TMC3    C1 5381   0.341   3.062  11.627  0.6751 -0.5604 -0.5673
  356TMC3    C2 5382   0.403   3.158  11.552 -0.4649  0.5149  0.8153
  356TMC3    C3 5383   0.457   3.268  11.609  0.1032 -0.0278 -0.3749
  356TMC3    C4 5384   0.340   3.079  11.763  0.5081  0.6365  0.3635
  356TMC3    C5 5385   0.390   3.196  11.814 -0.3763  0.2472  0.0361
  356TMC3    C6 5386   0.449   3.294  11.743 -0.0083  0.2640 -0.4719
  356TMC3     C 5387   0.231   3.012  11.559 -0.2519 -0.3088 -0.4264
  356TMC3     O 5388   0.216   3.041  11.442 -0.0674 -0.2628 -0.0580
  356TMC3     H 5389   0.412   3.141  11.445 -0.7068 -3.1419  1.3671
  356TMC3    H1 5390   0.304   3.006  11.834  0.3366  0.2909 -0.0738
  356TMC3    H2 5391   0.501   3.376  11.791  0.5654 -0.7084  0.5610
  356TMC3    C7 5392   0.406   3.198  11.957 -0.5573 -0.6042 -0.0436
  356TMC3    C8 5393   0.493   3.377  11.519  0.3505 -0.4452  0.0087
  356TMC3    O1 5394   0.428   3.093  12.009 -1.0725  0.5860 -0.3448
  356TMC3    O2 5395   0.461   3.356  11.404 -0.3752 -0.4262 -0.1556
  357MPD2     C 5396   4.339   3.739   0.705  0.9087  0.2575  0.2188
  357MPD2    C1 5397   4.442   3.665   0.755 -0.1417 -0.5882 -0.0154
  357MPD2    C2 5398   4.488   3.688   0.880  0.0764  0.1600 -0.2427
  357MPD2    C3 5399   4.424   3.765   0.973 -0.3278  0.6109  0.2172
  357MPD2    C4 5400   4.317   3.841   0.925  0.0830  0.5117 -0.4242
  357MPD2    C5 5401   4.276   3.824   0.796 -0.1082  0.4755  0.6049
  357MPD2     H 5402   4.572   3.633   0.919 -0.3277  0.8703  1.6186
  357MPD2    H1 5403   4.257   3.903   0.991 -2.8312 -2.0989 -0.6106
  357MPD2    H2 5404   4.307   3.715   0.604 -0.2658  3.8058 -0.2452
  357MPD2    H3 5405   4.190   3.879   0.759 -0.7016 -0.6338  0.3569
  357MPD2     N 5406   4.462   3.778   1.114  0.0238 -0.5405  0.2347
  357MPD2    H5 5407   4.398   3.830   1.173  1.4677 -1.4709  2.6239
  357MPD2    N1 5408   4.491   3.552   0.675  0.2454  0.2038  0.1678
  357MPD2    H7 5409   4.440   3.524   0.591  1.0885 -2.1549  0.4445
  358TMC3    C1 5410   4.645   3.361   0.647 -0.4650 -0.0434 -0.0882
  358TMC3    C2 5411   4.544   3.282   0.591 -0.0886  0.5792 -0.7213
  358TMC3    C3 5412   4.564   3.152   0.603 -0.5453 -0.0542 -0.5496
  358TMC3    C4 5413   0.011   3.310   0.723  0.0327 -0.1684 -0.1664
  358TMC3    C5 5414   0.021   3.175   0.730 -0.5873  0.0947  0.3975
  358TMC3    C6 5415   4.663   3.092   0.679  0.5803  0.0592  0.8631
  358TMC3     C 5416   4.615   3.492   0.698  0.2179  0.4358 -0.0045
  358TMC3     O 5417   4.705   3.547   0.757 -0.2658  0.5059  0.1026
  358TMC3     H 5418   4.455   3.322   0.544 -0.0540  2.0997  0.4941
  358TMC3    H1 5419   0.092   3.370   0.762 -1.9631  1.6301  1.2305
  358TMC3    H2 5420   4.696   2.994   0.645 -0.6631 -0.2608  0.5960
  358TMC3    C7 5421   0.122   3.118   0.812  0.3026  0.3158  0.0221
  358TMC3    C8 5422   4.499   3.083   0.483  0.3614 -0.4219 -0.0691
  358TMC3    O1 5423   0.130   2.998   0.791  0.1093 -0.5671 -0.2381
  358TMC3    O2 5424   4.445   3.159   0.403  0.0263 -0.4412  0.1103
  359MPD2     C 5425   4.474   2.360  11.931 -0.3961  0.0022 -0.2584
  359MPD2    C1 5426   4.585   2.319  12.009  0.7327 -0.1688  0.2922
  359MPD2    C2 5427   4.579   2.324  12.150 -0.8377 -0.0749 -0.2357
  359MPD2    C3 5428   4.462   2.370  12.209 -0.2528 -0.4167  0.5012
  359MPD2    C4 5429   4.351   2.398  12.134  0.0202  0.2420  0.0969
  359MPD2    C5 5430   4.355   2.401  11.996  0.5933  0.8998  0.3822
  359MPD2     H 5431   4.657   2.279  12.211  0.5134  2.2986 -0.2312
  359MPD2    H1 5432   4.260   2.436  12.178  0.1769 -1.5814  1.9591
  359MPD2    H2 5433   4.474   2.364  11.822 -2.1849  0.5221 -0.2363
  359MPD2    H3 5434   4.277   2.448  11.938 -0.6584 -2.1892 -0.4196
  359MPD2     N 5435   4.437   2.365  12.347 -0.1126  0.5238 -0.3411
  359MPD2    H5 5436   4.342   2.383  12.377  0.3631  2.3226  0.1278
  359MPD2    N1 5437   4.714   2.295  11.959 -0.4738 -0.2091 -0.3222
  359MPD2    H7 5438   0.029   2.230  12.017 -1.0591  0.3378  0.8234
  360TMC3    C1 5439   0.151   2.290  11.796 -0.4818 -0.0118 -0.4916
  360TMC3    C2 5440   0.239   2.314  11.897 -0.0838 -0.1688 -0.5650
  360TMC3    C3 5441   0.362   2.353  11.853 -0.0609 -0.9683 -1.1338
  360TMC3    C4 5442   0.181   2.286  11.660  1.2977 -0.2547 -0.0311
  360TMC3    C5 5443   0.310   2.317  11.623  0.2979  0.0761 -0.0425
  360TMC3    C6 5444   0.399   2.354  11.719  0.1646 -0.2611  0.6242
  360TMC3     C 5445   0.013   2.318  11.826  0.7177 -0.1498  0.1150
  360TMC3     O 5446   4.689   2.370  11.736  0.1961 -0.3739  0.0070
  360TMC3     H 5447   0.201   2.335  11.997 -0.4359 -3.1554 -0.0792
  360TMC3    H1 5448   0.105   2.266  11.585 -0.7981  0.2983  1.9513
  360TMC3    H2 5449   0.499   2.367  11.679 -1.0435  2.2642 -1.5626
  360TMC3    C7 5450   0.355   2.307  11.485  0.2825  0.0789  0.0226
  360TMC3    C8 5451   0.462   2.360  11.953 -0.3501 -0.0431  0.5771
  360TMC3    O1 5452   0.462   2.350  11.454 -0.1547 -0.4373 -0.1205
  360TMC3    O2 5453   0.420   2.382  12.063  0.0952  0.0448 -0.6399
  361MPD2     C 5454   2.295   1.376  16.463  0.2892 -0.0447 -0.3809
  361MPD2    C1 5455   2.258   1.433  16.580 -0.2611 -0.2654 -0.0161
  361MPD2    C2 5456   2.240   1.350  16.696  0.1781  0.3324  0.2904
  361MPD2    C3 5457   2.268   1.215  16.686  0.0360 -0.6946  0.1946
  361MPD2    C4 5458   2.311   1.165  16.568  0.5545  0.2891  0.3675
  361MPD2    C5 5459   2.328   1.243  16.462  0.1681  0.2653 -0.4440
  361MPD2     H 5460   2.193   1.396  16.782  0.6633  1.4818 -0.0717
  361MPD2    H1 5461   2.326   1.058  16.561  1.3831  0.4463 -0.3263
  361MPD2    H2 5462   2.307   1.434  16.372 -0.0784  1.2018  0.3596
  361MPD2    H3 5463   2.374   1.211  16.369  1.6463  0.7179  0.1189
  361MPD2     N 5464   2.275   1.133  16.801  0.7144 -0.5957  0.0134
  361MPD2    H5 5465   2.313   1.040  16.782  0.6412 -0.4471 -0.8608
  361MPD2    N1 5466   2.243   1.577  16.580 -0.0180  0.5164 -0.0957
  361MPD2    H7 5467   2.259   1.630  16.495 -2.8337  0.4819 -0.6556
  362TMC3    C1 5468   2.182   1.792  16.675  0.0208 -0.3328 -0.0111
  362TMC3    C2 5469   2.168   1.854  16.800  0.3424  0.1658 -0.4796
  362TMC3    C3 5470   2.075   1.957  16.798  0.0846  0.0723  0.4072
  362TMC3    C4 5471   2.139   1.833  16.554  0.1107  0.3418 -0.5269
  362TMC3    C5 5472   2.046   1.941  16.567  0.1834  0.0484 -0.5557
  362TMC3    C6 5473   2.014   2.002  16.684  0.0653 -0.4077  0.0577
  362TMC3     C 5474   2.203   1.650  16.694  0.2371  0.9722  0.6831
  362TMC3     O 5475   2.173   1.611  16.804  0.0447  0.6358 -0.4066
  362TMC3     H 5476   2.219   1.827  16.892 -0.3849  1.5576  0.3275
  362TMC3    H1 5477   2.139   1.760  16.473  0.7062  1.5194 -1.5970
  362TMC3    H2 5478   1.946   2.087  16.678 -0.2977 -0.6967  0.0737
  362TMC3    C7 5479   1.960   1.978  16.455 -0.3200  0.4518  0.0429
  362TMC3    C8 5480   2.053   2.031  16.918 -0.4215  0.5615  0.2490
  362TMC3    O1 5481   1.839   2.005  16.477 -0.2005 -0.2847 -0.6051
  362TMC3    O2 5482   2.145   2.048  16.993 -0.1236  0.0246  0.0394
  363TMC3    C1 5483   0.090   2.684   8.688  1.0630  0.3260  0.5087
  363TMC3    C2 5484   0.223   2.716   8.713  0.0660  0.3296 -0.3053
  363TMC3    C3 5485   0.257   2.852   8.715  0.1899  0.2276  0.1330
  363TMC3    C4 5486   4.736   2.781   8.657 -0.1629  0.6498  0.2144
  363TMC3    C5 5487   0.034   2.914   8.663  0.0912 -0.5383  0.7553
  363TMC3    C6 5488   0.161   2.947   8.682 -0.3279 -0.0181  0.8837
  363TMC3     C 5489   0.052   2.550   8.662 -0.0375 -0.3321  0.6695
  363TMC3     O 5490   0.150   2.477   8.641  0.2651 -0.4452  0.0904
  363TMC3     H 5491   0.304   2.643   8.720  0.0075  0.3622  0.7379
  363TMC3    H1 5492   4.634   2.756   8.631  0.5155 -0.5186 -1.3062
  363TMC3    H2 5493   0.207   3.046   8.683 -4.6446  1.9873  1.6198
  363TMC3    C7 5494   4.674   3.025   8.675 -0.3398  0.4292  0.1567
  363TMC3    C8 5495   0.384   2.896   8.774  0.1404  0.0202  1.0157
  363TMC3    O1 5496   4.720   3.135   8.700  0.0613 -0.1191  0.5284
  363TMC3    O2 5497   0.388   3.012   8.816  0.2356 -0.5202 -0.6257
  364MPD2     C 5498   4.267   3.017  10.710 -0.2489 -0.1226 -0.1125
  364MPD2    C1 5499   4.317   3.001  10.581  0.1354  0.1972 -0.0617
  364MPD2    C2 5500   4.319   2.870  10.523 -0.4637  0.6020  0.2592
  364MPD2    C3 5501   4.276   2.765  10.600  0.2730  0.5283  0.2949
  364MPD2    C4 5502   4.229   2.783  10.725  0.7723  0.2613  0.5431
  364MPD2    C5 5503   4.219   2.909  10.776  0.4886  0.0284 -0.0333
  364MPD2     H 5504   4.356   2.855  10.423 -1.7534  1.1675 -0.3048
  364MPD2    H1 5505   4.197   2.706  10.795  0.1208 -0.9459 -1.0481
  364MPD2    H2 5506   4.267   3.114  10.758 -0.6090  0.7785 -1.9438
  364MPD2    H3 5507   4.188   2.909  10.880 -2.0059  2.5179 -0.8078
  364MPD2     N 5508   4.289   2.626  10.553 -0.1103  0.0022 -0.6449
  364MPD2    H5 5509   4.303   2.555  10.624  0.2788 -0.2360 -0.9595
  364MPD2    N1 5510   4.376   3.114  10.515 -0.3353 -0.6564 -0.4751
  364MPD2    H7 5511   4.380   3.204  10.562  1.7312  1.0471 -3.8911
  365TMC3    C1 5512   4.464   3.244  10.338  0.2935  0.2867  0.5647
  365TMC3    C2 5513   4.531   3.236  10.220 -0.6274  0.8222  0.0633
  365TMC3    C3 5514   4.588   3.347  10.174  0.4870 -0.5240 -0.1547
  365TMC3    C4 5515   4.432   3.360  10.401 -0.2166  0.3296 -0.0709
  365TMC3    C5 5516   4.493   3.474  10.344 -0.3260  0.0457  0.1740
  365TMC3    C6 5517   4.566   3.468  10.232 -0.2331  0.1157  0.1138
  365TMC3     C 5518   4.414   3.116  10.382  0.1421 -0.4792  0.6697
  365TMC3     O 5519   4.419   3.020  10.308  0.2752 -0.1237  1.1518
  365TMC3     H 5520   4.549   3.139  10.174  0.1192  1.2154 -0.4760
  365TMC3    H1 5521   4.357   3.368  10.478 -1.2798 -3.0334 -0.7751
  365TMC3    H2 5522   4.613   3.556  10.189  0.9864 -0.2353  0.7283
  365TMC3    C7 5523   4.479   3.607  10.393  0.0396 -0.1053  0.7424
  365TMC3    C8 5524   4.690   3.342  10.070 -0.0574 -0.6314 -0.3366
  365TMC3    O1 5525   4.540   3.695  10.332 -0.1986  0.0795 -0.2052
  365TMC3    O2 5526   0.029   3.441  10.060  0.3385 -0.1241  0.3878
  366MPD2     C 5527   2.242   3.794  15.289  0.7551 -0.2490 -1.0591
  366MPD2    C1 5528   2.318   3.905  15.318  0.0498 -0.6445  0.3580
  366MPD2    C2 5529   2.450   3.893  15.309  0.1604 -0.1913  0.2781
  366MPD2    C3 5530   2.515   3.786  15.255  0.0193 -0.3462 -0.3262
  366MPD2    C4 5531   2.437   3.680  15.217  0.6063  0.9723 -0.4441
  366MPD2    C5 5532   2.305   3.680  15.240 -0.4607 -0.0269  0.2552
  366MPD2     H 5533   2.510   3.980  15.332 -0.2988  0.4726 -1.0292
  366MPD2    H1 5534   2.477   3.589  15.172 -0.6815  0.4470 -0.5348
  366MPD2    H2 5535   2.133   3.786  15.292  0.8846 -1.8535 -0.2845
  366MPD2    H3 5536   2.253   3.585  15.232 -2.2032  1.0763 -1.4011
  366MPD2     N 5537   2.651   3.797  15.220 -0.5395  0.5315 -0.3383
  366MPD2    H5 5538   2.690   3.891  15.216 -1.6086  1.0109  0.4787
  366MPD2    N1 5539   2.272   4.037  15.356  0.0367  0.9338  0.1501
  366MPD2    H7 5540   2.347   4.105  15.353  2.8691 -2.1992  0.1958
  367TMC3    C1 5541   2.121   4.216  15.365 -0.3175  0.3091  0.0241
  367TMC3    C2 5542   2.207   4.285  15.439 -0.1542 -0.8820 -0.1160
  367TMC3    C3 5543   2.190   4.419  15.456  0.6467  0.4571  0.0447
  367TMC3    C4 5544   2.011   4.276  15.306 -0.2061  0.0546 -0.4270
  367TMC3    C5 5545   1.987   4.408  15.339 -0.3454 -0.5426  0.2682
  367TMC3    C6 5546   2.074   4.486  15.406 -0.4479  0.3808  0.0241
  367TMC3     C 5547   2.136   4.073  15.354 -0.4469  0.4074 -0.1836
  367TMC3     O 5548   2.039   4.007  15.328 -0.5691  0.1221 -0.2865
  367TMC3     H 5549   2.281   4.232  15.497  0.6303  0.0919 -0.2165
  367TMC3    H1 5550   1.940   4.217  15.250  1.3062 -0.4590 -1.8155
  367TMC3    H2 5551   2.060   4.593  15.409 -2.0369  0.2290 -1.5623
  367TMC3    C7 5552   1.858   4.473  15.302  0.2455 -0.0885  0.0495
  367TMC3    C8 5553   2.287   4.492  15.529  0.3292 -0.1701 -0.4717
  367TMC3    O1 5554   1.851   4.592  15.335  0.3313 -0.5440 -0.3620
  367TMC3    O2 5555   2.357   4.428  15.607 -0.0211 -0.1795 -0.0235
  368MPD2     C 5556   3.801   1.023  13.521  0.8268 -0.4299 -0.7381
  368MPD2    C1 5557   3.725   1.089  13.427  0.3535  0.5333 -0.0100
  368MPD2    C2 5558   3.767   1.211  13.377 -0.4384 -0.0302  0.8640
  368MPD2    C3 5559   3.887   1.265  13.429 -0.6854  0.1177  1.1629
  368MPD2    C4 5560   3.961   1.192  13.518  0.4706 -0.8071  0.5577
  368MPD2    C5 5561   3.917   1.073  13.563  0.9045 -0.8591  0.3047
  368MPD2     H 5562   3.706   1.264  13.304 -1.1843 -1.0708  0.7347
  368MPD2    H1 5563   4.053   1.224  13.566 -0.4118 -0.6154  2.1043
  368MPD2    H2 5564   3.772   0.925  13.557 -2.1965  1.1851  1.1475
  368MPD2    H3 5565   3.976   1.028  13.642 -3.0409 -2.6588  2.2117
  368MPD2     N 5566   3.938   1.395  13.395  0.5682  0.1899 -0.2553
  368MPD2    H5 5567   4.038   1.410  13.403  0.4177  0.3945  1.2218
  368MPD2    N1 5568   3.597   1.043  13.384  0.3255  0.5282 -0.2382
  368MPD2    H7 5569   3.559   1.087  13.301 -1.1611 -1.0500 -0.4083
  369TMC3    C1 5570   3.423   0.886  13.348 -0.3238 -0.0024  0.4272
  369TMC3    C2 5571   3.461   0.878  13.214  0.0920 -0.6462  0.0249
  369TMC3    C3 5572   3.387   0.798  13.137 -0.3241 -0.2683 -0.0149
  369TMC3    C4 5573   3.331   0.798  13.403  0.2009  0.3469  0.5775
  369TMC3    C5 5574   3.271   0.709  13.316  0.1182  0.5892 -0.0228
  369TMC3    C6 5575   3.292   0.711  13.181  0.2672 -0.3083 -0.1010
  369TMC3     C 5576   3.528   0.932  13.437 -0.0321 -0.1552 -0.4484
  369TMC3     O 5577   3.550   0.854  13.532  0.8202 -0.7089  0.4637
  369TMC3     H 5578   3.533   0.949  13.173  0.3998 -1.4795 -0.8822
  369TMC3    H1 5579   3.312   0.800  13.510  0.4047  1.5739  0.5916
  369TMC3    H2 5580   3.243   0.641  13.115 -2.4133  0.2533  1.2565
  369TMC3    C7 5581   3.178   0.596  13.350  0.5257  0.2678 -0.7004
  369TMC3    C8 5582   3.392   0.821  12.995  1.0019 -0.0335  0.1897
  369TMC3    O1 5583   3.126   0.523  13.268  0.0274  0.5976 -0.5069
  369TMC3    O2 5584   3.289   0.792  12.936 -0.5923  0.1582 -0.2209
  370TMC3    C1 5585   3.004   2.245  16.051 -0.4574  0.3335 -0.2256
  370TMC3    C2 5586   2.887   2.185  16.084 -0.2845 -0.8932 -0.7101
  370TMC3    C3 5587   2.852   2.060  16.046  0.4364  0.4996  0.2393
  370TMC3    C4 5588   3.084   2.179  15.960  0.0158  0.0680  0.6961
  370TMC3    C5 5589   3.034   2.060  15.907  0.2338  0.3614  0.0606
  370TMC3    C6 5590   2.926   1.995  15.949  0.4408 -0.2458 -0.1087
  370TMC3     C 5591   3.083   2.286  16.167  0.6225 -0.1556  0.2006
  370TMC3     O 5592   3.030   2.270  16.278  0.5480  0.0322 -0.0468
  370TMC3     H 5593   2.817   2.243  16.143  0.0282  0.5753 -1.8006
  370TMC3    H1 5594   3.181   2.215  15.930 -0.5411  0.6483 -0.4196
  370TMC3    H2 5595   2.883   1.912  15.894 -1.7983  1.8700 -1.5594
  370TMC3    C7 5596   3.112   2.019  15.784  0.0544 -0.1479  1.1763
  370TMC3    C8 5597   2.828   1.975  16.160  0.4476  0.4020 -0.0731
  370TMC3    O1 5598   3.180   2.114  15.749  1.0559 -0.1211  0.7362
  370TMC3    O2 5599   2.806   1.855  16.140  0.0840  0.1730 -0.5039
  371TMC3    C1 5600   4.332   0.530  15.210 -0.3695  0.3778 -0.2008
  371TMC3    C2 5601   4.280   0.514  15.332 -0.2481  0.1776  0.6871
  371TMC3    C3 5602   4.243   0.619  15.403 -0.2555  0.0887  0.2553
  371TMC3    C4 5603   4.340   0.656  15.150 -0.6798 -0.4702  0.0994
  371TMC3    C5 5604   4.304   0.763  15.226  0.2148  0.4240  0.0805
  371TMC3    C6 5605   4.253   0.745  15.354  0.8964  0.5893  0.8550
  371TMC3     C 5606   4.375   0.417  15.124  0.4625  0.1139 -0.7080
  371TMC3     O 5607   4.448   0.441  15.028  0.4679  0.6350  0.0827
  371TMC3     H 5608   4.276   0.423  15.391  1.1380 -0.8912 -0.8909
  371TMC3    H1 5609   4.379   0.678  15.051  1.0011  0.8859  1.0685
  371TMC3    H2 5610   4.250   0.830  15.422 -0.1414  0.7792  0.5630
  371TMC3    C7 5611   4.339   0.897  15.200  0.4654 -0.6370 -0.6192
  371TMC3    C8 5612   4.168   0.601  15.523  0.2120  0.2004  0.8957
  371TMC3    O1 5613   4.256   0.980  15.242 -0.2753  0.0021 -0.4629
  371TMC3    O2 5614   4.174   0.489  15.576 -0.0115  0.0936  0.8415
  372MPD2     C 5615   3.218   0.975  13.818  0.8014 -0.4037 -0.1309
  372MPD2    C1 5616   3.354   0.973  13.797 -0.3091  0.4584 -0.5412
  372MPD2    C2 5617   3.425   0.863  13.825 -0.4022 -0.7538  0.8849
  372MPD2    C3 5618   3.366   0.746  13.871 -0.5354  0.0533 -0.1146
  372MPD2    C4 5619   3.230   0.739  13.897  1.3984 -0.0862 -0.9722
  372MPD2    C5 5620   3.162   0.860  13.873 -0.1577 -0.6505 -0.5396
  372MPD2     H 5621   3.531   0.862  13.805 -0.9389 -1.0320 -2.0041
  372MPD2    H1 5622   3.174   0.650  13.925 -0.9332  1.9350  0.8283
  372MPD2    H2 5623   3.162   1.067  13.805  0.3386 -0.8980 -1.5465
  372MPD2    H3 5624   3.055   0.867  13.890  0.3926 -1.2909  3.2570
  372MPD2     N 5625   3.453   0.636  13.876 -0.8092 -0.2874 -0.0012
  372MPD2    H5 5626   3.550   0.645  13.845 -0.9850 -1.9062 -1.0357
  372MPD2    N1 5627   3.424   1.074  13.732 -0.6410 -0.1209  0.4063
  372MPD2    H7 5628   3.525   1.067  13.727 -0.6578  0.6281 -1.0482
  373TMC3    C1 5629   3.525   0.414  13.923 -0.4949  0.1084  0.6413
  373TMC3    C2 5630   3.655   0.456  13.930  0.2524 -0.3721  0.0581
  373TMC3    C3 5631   3.754   0.364  13.897  0.0739  0.7658 -0.3835
  373TMC3    C4 5632   3.496   0.280  13.899  0.3053  0.8733 -0.2141
  373TMC3    C5 5633   3.597   0.196  13.875 -0.0982 -0.7583 -0.2441
  373TMC3    C6 5634   3.730   0.235  13.871 -0.2964 -0.1733 -0.2420
  373TMC3     C 5635   3.415   0.512  13.924 -0.8015  0.4190 -0.5907
  373TMC3     O 5636   3.303   0.475  13.958  0.3897  0.3431 -0.0405
  373TMC3     H 5637   3.672   0.549  13.983  0.6359  1.0880 -2.6358
  373TMC3    H1 5638   3.397   0.244  13.872  1.4175 -1.6817 -0.9779
  373TMC3    H2 5639   3.804   0.166  13.832 -2.0250 -0.8462 -2.3383
  373TMC3    C7 5640   3.567   0.063  13.837  0.2981  0.2045  0.1514
  373TMC3    C8 5641   3.884   0.407  13.940  0.5707  0.5699 -0.2816
  373TMC3    O1 5642   3.627   0.019  13.740  0.1597 -0.2244 -0.4493
  373TMC3    O2 5643   3.903   0.529  13.935  0.3010 -0.1521 -0.7743
  374TMC3    C1 5644   4.256   1.459   9.756 -0.2386 -0.0650  0.5142
  374TMC3    C2 5645   4.384   1.514   9.749 -0.5158  0.5565  0.3269
  374TMC3    C3 5646   4.440   1.545   9.626  0.1007 -0.0843 -0.1307
  374TMC3    C4 5647   4.189   1.441   9.639 -0.5842  0.4697  0.1487
  374TMC3    C5 5648   4.251   1.487   9.521  0.1848 -0.1133 -0.1045
  374TMC3    C6 5649   4.381   1.534   9.506 -0.9268 -0.2305 -0.8666
  374TMC3     C 5650   4.182   1.453   9.880  0.0607  1.0421  0.3839
  374TMC3     O 5651   4.060   1.441   9.872 -0.2447 -0.2549  0.5193
  374TMC3     H 5652   4.435   1.536   9.842  0.4065 -0.9617  0.1777
  374TMC3    H1 5653   4.097   1.382   9.646  1.1813 -2.1977  1.0803
  374TMC3    H2 5654   4.423   1.542   9.407  0.0551  0.0777 -0.4233
  374TMC3    C7 5655   4.171   1.497   9.402  0.6571  0.1313 -0.0419
  374TMC3    C8 5656   4.548   1.641   9.623  0.6210 -0.3813  0.2698
  374TMC3    O1 5657   4.233   1.493   9.297 -0.1135  0.2775  0.4695
  374TMC3    O2 5658   4.556   1.721   9.532  0.2133 -0.3776  0.4606
  375MPD2     C 5659   4.668   2.229  17.392 -0.0084 -0.5140  0.0911
  375MPD2    C1 5660   4.589   2.279  17.292  0.4057  0.0384  0.7287
  375MPD2    C2 5661   4.641   2.282  17.164  0.4774 -0.5064  0.0451
  375MPD2    C3 5662   0.026   2.237  17.136  0.0081  0.3422  0.0194
  375MPD2    C4 5663   0.110   2.201  17.245  0.1790  1.3665  0.5297
  375MPD2    C5 5664   0.060   2.187  17.368 -0.0431 -0.6490 -0.1680
  375MPD2     H 5665   4.580   2.316  17.081 -0.8124  3.3488  2.5241
  375MPD2    H1 5666   0.204   2.156  17.216 -0.0144  0.3943  1.4487
  375MPD2    H2 5667   4.626   2.206  17.488  0.4796  0.5021  0.5555
  375MPD2    H3 5668   0.109   2.136  17.450 -0.6695  1.7060  1.6448
  375MPD2     N 5669   0.084   2.218  17.009  0.1809  0.5528  0.5238
  375MPD2    H5 5670   0.177   2.178  17.010 -1.5268 -3.4335  0.8048
  375MPD2    N1 5671   4.464   2.337  17.313 -0.2517  0.1290  0.8694
  375MPD2    H7 5672   4.409   2.371  17.234  1.2613 -3.9032 -1.9635
  376TMC3    C1 5673   0.062   2.155  16.777 -0.8875  0.0157 -0.4228
  376TMC3    C2 5674   0.175   2.078  16.786 -0.7890  0.2184 -0.3159
  376TMC3    C3 5675   0.231   2.021  16.674 -0.3273  0.4654  0.4383
  376TMC3    C4 5676   0.004   2.186  16.655 -0.2126 -0.0824  0.8319
  376TMC3    C5 5677   0.060   2.120  16.547 -0.1970  0.0606  1.0888
  376TMC3    C6 5678   0.168   2.031  16.553 -0.1001 -0.9359  0.5587
  376TMC3     C 5679   0.016   2.235  16.888  0.0270  0.2295  0.4081
  376TMC3     O 5680   4.650   2.299  16.871 -0.8169 -0.1929  0.1069
  376TMC3     H 5681   0.237   2.062  16.873  1.2272  1.8942 -1.4480
  376TMC3    H1 5682   4.657   2.251  16.642 -0.7712 -1.2654 -1.3739
  376TMC3    H2 5683   0.225   2.005  16.465 -1.5044  1.3383 -1.0315
  376TMC3    C7 5684   4.733   2.153  16.417 -0.2354 -1.0387 -0.2486
  376TMC3    C8 5685   0.363   2.066  16.643 -0.0730 -0.0409 -0.1249
  376TMC3    O1 5686   4.629   2.217  16.420  0.6504 -0.7623 -0.0148
  376TMC3    O2 5687   0.365   2.157  16.561 -0.3473 -0.2038  0.8397
  377MPD2     C 5688   3.418   1.403  12.565 -0.3733 -0.1166  0.0599
  377MPD2    C1 5689   3.289   1.359  12.553  0.0732 -0.1670 -0.0208
  377MPD2    C2 5690   3.224   1.289  12.650  0.6216  0.1937  0.1462
  377MPD2    C3 5691   3.298   1.264  12.770 -0.0240  0.1368  0.6797
  377MPD2    C4 5692   3.426   1.314  12.779  0.6355  0.6366 -0.1336
  377MPD2    C5 5693   3.482   1.382  12.678 -0.0356 -0.1582  0.2440
  377MPD2     H 5694   3.120   1.260  12.650  0.0861  2.1007 -1.5106
  377MPD2    H1 5695   3.476   1.306  12.874  0.4348 -0.5890 -0.1339
  377MPD2    H2 5696   3.461   1.465  12.487 -1.9469  2.4585  1.2509
  377MPD2    H3 5697   3.587   1.407  12.673 -0.2077  0.2868 -1.1972
  377MPD2     N 5698   3.242   1.208  12.884  0.0207 -0.1259 -0.4421
  377MPD2    H5 5699   3.301   1.192  12.965  0.0218  2.3461  0.0174
  377MPD2    N1 5700   3.228   1.378  12.433 -0.0634  0.2673  0.3762
  377MPD2    H7 5701   3.287   1.417  12.360 -0.6353  3.9787  1.9246
  378TMC3    C1 5702   2.886   1.511  12.160 -0.0899 -0.1156 -0.6218
  378TMC3    C2 5703   2.936   1.417  12.240  1.0831  0.1292  0.1404
  378TMC3    C3 5704   3.067   1.414  12.274 -0.2851  0.1468  0.3058
  378TMC3    C4 5705   2.965   1.588  12.082  0.2412 -0.8865  0.5710
  378TMC3    C5 5706   3.099   1.588  12.119 -0.0155 -0.2336 -0.1978
  378TMC3    C6 5707   3.141   1.518  12.224 -0.0618 -0.2116  0.2771
  378TMC3     C 5708   2.740   1.526  12.144  0.7939  0.1436 -0.1619
  378TMC3     O 5709   2.695   1.580  12.045  0.1975  0.5643 -0.0795
  378TMC3     H 5710   2.877   1.339  12.287  0.8294  1.1171  1.4299
  378TMC3    H1 5711   2.924   1.674  12.030  0.0211 -1.8750 -0.8867
  378TMC3    H2 5712   3.248   1.533  12.238 -0.4723  0.4104  2.7499
  378TMC3    C7 5713   3.184   1.701  12.075 -0.9277  0.0327 -0.0339
  378TMC3    C8 5714   3.101   1.348  12.394 -0.6597  0.4758  0.0068
  378TMC3    O1 5715   3.287   1.724  12.136 -0.0560  0.5795  0.2532
  378TMC3    O2 5716   3.011   1.291  12.451 -0.5260 -0.1633 -0.0226
  379MPD2     C 5717   2.781   4.566  16.275 -0.2719 -0.7053  1.1602
  379MPD2    C1 5718   2.904   4.547  16.224  0.6331  0.4595  0.8173
  379MPD2    C2 5719   3.001   4.486  16.303 -0.1681  0.4950  0.2052
  379MPD2    C3 5720   2.970   4.447  16.433  0.2705  0.2946  0.1109
  379MPD2    C4 5721   2.848   4.472  16.491 -0.3103  0.1429  0.2809
  379MPD2    C5 5722   2.753   4.532  16.407 -1.0303 -0.3535 -0.1862
  379MPD2     H 5723   3.101   4.459  16.272 -0.8899 -0.8315 -0.9401
  379MPD2    H1 5724   2.818   4.439  16.590 -0.0265 -0.8123  0.0440
  379MPD2    H2 5725   2.700   4.599  16.210  4.2287  0.4916 -3.7956
  379MPD2    H3 5726   2.650   4.552  16.435 -1.2904 -3.6812  1.2265
  379MPD2     N 5727   3.054   4.376  16.522 -0.0752 -0.3426  0.0909
  379MPD2    H5 5728   3.016   4.353  16.613 -1.0445  0.4376 -0.1255
  379MPD2    N1 5729   2.929   4.573  16.091 -0.0261  0.1693  0.5157
  379MPD2    H7 5730   2.858   4.627  16.043 -0.4546 -1.9374 -1.2134
  380TMC3    C1 5731   3.056   4.649  15.913 -0.1162 -0.1174 -0.0604
  380TMC3    C2 5732   3.181   4.700  15.876 -0.6679  0.7923  0.1922
  380TMC3    C3 5733   3.199   0.027  15.765 -0.0275 -1.0996 -0.1541
  380TMC3    C4 5734   2.949   4.665  15.822  0.0698  0.4528 -0.3665
  380TMC3    C5 5735   2.975   0.004  15.714 -0.5820 -0.2711 -0.5234
  380TMC3    C6 5736   3.096   0.051  15.678 -0.3435 -0.0915 -0.1748
  380TMC3     C 5737   3.048   4.556  16.025 -0.1212  0.2374  0.2697
  380TMC3     O 5738   3.142   4.486  16.060  0.0372  0.5865  0.4143
  380TMC3     H 5739   3.264   4.682  15.944 -0.4080  1.7197  0.1147
  380TMC3    H1 5740   2.858   4.607  15.831  0.9192 -0.7785  0.2984
  380TMC3    H2 5741   3.099   0.123  15.597 -1.7321  3.0350  2.5170
  380TMC3    C7 5742   2.865   0.081  15.658 -0.0207  0.0647 -0.0588
  380TMC3    C8 5743   3.326   0.047  15.707  0.0227  0.8046  0.0269
  380TMC3    O1 5744   2.875   0.188  15.605 -0.2346 -0.4994  0.5065
  380TMC3    O2 5745   3.334   0.134  15.622  0.0434  0.1711 -0.2225
  381TMC3    C1 5746   2.842   1.209  15.930 -0.5812  0.5727 -0.2586
  381TMC3    C2 5747   2.920   1.316  15.909  0.1504 -0.4543 -0.4092
  381TMC3    C3 5748   2.943   1.408  16.011 -0.2983  0.3056 -0.9819
  381TMC3    C4 5749   2.789   1.187  16.053 -0.3709 -0.5070  0.1900
  381TMC3    C5 5750   2.802   1.285  16.154 -0.0015 -0.6770 -0.0408
  381TMC3    C6 5751   2.885   1.395  16.135 -0.4001 -0.0076  0.3233
  381TMC3     C 5752   2.849   1.102  15.827  0.2071  0.1245 -0.3433
  381TMC3     O 5753   2.843   1.139  15.708  0.2336 -0.1703 -0.1992
  381TMC3     H 5754   2.952   1.323  15.805  2.0068  2.9616  0.3808
  381TMC3    H1 5755   2.733   1.099  16.083 -1.9568  0.5012  0.1616
  381TMC3    H2 5756   2.910   1.451  16.225  3.2579 -0.7407 -0.2491
  381TMC3    C7 5757   2.748   1.254  16.285 -0.2760 -0.7757  0.1283
  381TMC3    C8 5758   3.054   1.495  15.987 -0.5052 -0.7189  0.4694
  381TMC3    O1 5759   2.729   1.141  16.314 -0.1726 -0.1647 -0.0762
  381TMC3    O2 5760   3.133   1.458  15.900 -0.2189  0.2569 -0.2555
  382MPD2     C 5761   2.028   4.100  16.624 -0.7341 -0.0704  0.3569
  382MPD2    C1 5762   2.058   4.120  16.759  0.3363  0.5060  0.3482
  382MPD2    C2 5763   2.111   4.022  16.834 -0.5327 -0.3225 -0.1777
  382MPD2    C3 5764   2.123   3.891  16.780  0.4053  0.0981 -0.1197
  382MPD2    C4 5765   2.100   3.871  16.644  0.4684 -0.2538 -0.3446
  382MPD2    C5 5766   2.055   3.979  16.567 -0.3940 -0.0327 -0.5266
  382MPD2     H 5767   2.138   4.049  16.935  0.8321 -1.0459 -0.3425
  382MPD2    H1 5768   2.124   3.780  16.591  3.0977  1.2962 -1.8013
  382MPD2    H2 5769   2.014   4.185  16.558 -1.6030  0.5000  1.2902
  382MPD2    H3 5770   2.054   3.974  16.459  0.0473 -0.2599 -0.5184
  382MPD2     N 5771   2.160   3.776  16.854  0.0347 -0.1910  0.5557
  382MPD2    H5 5772   2.155   3.687  16.805  1.3077  0.0065  0.0684
  382MPD2    N1 5773   2.040   4.246  16.815  0.0273 -0.4600 -0.7333
  382MPD2    H7 5774   2.074   4.256  16.910 -3.2464 -0.6775  0.4578
  383TMC3    C1 5775   2.159   3.656  17.062 -0.0105  0.0828 -0.2927
  383TMC3    C2 5776   2.073   3.557  17.019  0.4736 -0.5707 -0.1227
  383TMC3    C3 5777   2.062   3.447  17.100  0.7162 -0.4393  0.1332
  383TMC3    C4 5778   2.221   3.646  17.189  0.2162  0.4270  0.6315
  383TMC3    C5 5779   2.203   3.532  17.265  0.3162 -0.8158  0.1002
  383TMC3    C6 5780   2.125   3.428  17.221 -0.8463  0.5725 -0.2204
  383TMC3     C 5781   2.188   3.781  16.988 -0.0878 -0.6343  0.1867
  383TMC3     O 5782   2.242   3.869  17.054 -0.4571 -0.1052  0.2446
  383TMC3     H 5783   2.028   3.562  16.921 -2.2892 -0.3027  1.1587
  383TMC3    H1 5784   2.298   3.716  17.218 -0.5682  1.4020  0.3851
  383TMC3    H2 5785   2.117   3.340  17.283  0.4655  0.7203  0.1670
  383TMC3    C7 5786   2.257   3.531  17.403 -0.1218 -0.1627 -0.7334
  383TMC3    C8 5787   1.959   3.347  17.049 -0.5432 -0.1608 -0.5089
  383TMC3    O1 5788   2.355   3.597  17.424 -0.7344  0.1046 -0.1616
  383TMC3    O2 5789   1.903   3.384  16.949 -0.3342  0.0498 -0.5539
  384MPD2     C 5790   3.273   4.663  11.769 -0.4685 -0.3044  0.0653
  384MPD2    C1 5791   3.321   4.653  11.896  0.4120  0.0198  0.1652
  384MPD2    C2 5792   3.446   4.599  11.918  0.1015  0.5055  0.0057
  384MPD2    C3 5793   3.535   4.573  11.820  0.9490 -0.2399  0.6861
  384MPD2    C4 5794   3.495   4.592  11.690 -0.2966  0.5073  0.2573
  384MPD2    C5 5795   3.358   4.625  11.663 -0.3173  0.1211 -0.0680
  384MPD2     H 5796   3.492   4.598  12.017  1.0987 -0.5195 -0.4655
  384MPD2    H1 5797   3.571   4.577  11.615  0.0345  1.2325  0.4502
  384MPD2    H2 5798   3.169   4.681  11.744 -0.3951 -1.6419 -1.1763
  384MPD2    H3 5799   3.333   4.634  11.558 -2.7973 -0.2025  0.4962
  384MPD2     N 5800   3.663   4.532  11.863 -0.6334 -0.0100  0.3753
  384MPD2    H5 5801   3.675   4.503  11.959 -1.5632  0.1008  0.5328
  384MPD2    N1 5802   3.238   4.682  12.011 -0.0559 -0.3028 -0.3116
  384MPD2    H7 5803   3.284   4.666  12.100 -0.9844  1.2630  0.4374
  385TMC3    C1 5804   3.883   4.456  11.879 -0.4870 -0.6626  0.3345
  385TMC3    C2 5805   3.945   4.335  11.841 -1.0528  0.5983  0.0381
  385TMC3    C3 5806   3.986   4.248  11.937  0.0429  0.3507 -0.2605
  385TMC3    C4 5807   3.857   4.487  12.012 -0.4977 -0.2397 -0.0537
  385TMC3    C5 5808   3.880   4.383  12.101 -0.0649 -0.3580 -0.2439
  385TMC3    C6 5809   3.948   4.272  12.065  0.7323 -0.2079  0.5915
  385TMC3     C 5810   3.779   4.516  11.791 -0.3328 -0.4263  0.0621
  385TMC3     O 5811   3.801   4.524  11.673 -0.7378 -0.4454  0.0102
  385TMC3     H 5812   3.964   4.324  11.735  0.3612  1.8653  0.1631
  385TMC3    H1 5813   3.802   4.574  12.045  0.3861  0.1615  0.3318
  385TMC3    H2 5814   4.003   4.222  12.144 -0.9241 -1.5629  0.8742
  385TMC3    C7 5815   3.756   4.353  12.167  0.9448 -0.2569 -0.9288
  385TMC3    C8 5816   4.075   4.139  11.907 -0.9217  0.5181  0.6543
  385TMC3    O1 5817   3.657   4.399  12.110  0.0307 -0.0815  0.2375
  385TMC3    O2 5818   4.109   4.089  12.010  0.5114 -0.2305 -0.1278
  386TMC3    C1 5819   3.539   1.562  11.767  0.2465 -0.4187 -0.5985
  386TMC3    C2 5820   3.560   1.660  11.673 -0.4065 -0.3642 -0.4045
  386TMC3    C3 5821   3.692   1.713  11.659 -0.4218 -0.2871 -0.3867
  386TMC3    C4 5822   3.646   1.509  11.828  0.1452  1.1922  0.0956
  386TMC3    C5 5823   3.766   1.565  11.822 -0.2307 -0.0180  0.0369
  386TMC3    C6 5824   3.794   1.673  11.745  0.0011 -0.7542 -0.5449
  386TMC3     C 5825   3.400   1.511  11.786 -0.2496  0.1306  0.9817
  386TMC3     O 5826   3.329   1.549  11.692 -0.0283 -0.5294  0.2272
  386TMC3     H 5827   3.481   1.701  11.611 -0.9184 -0.1187  0.4025
  386TMC3    H1 5828   3.631   1.424  11.893  0.6532  0.1889 -1.0867
  386TMC3    H2 5829   3.895   1.699  11.714  0.4998  1.2900  2.7604
  386TMC3    C7 5830   3.876   1.524  11.914  0.3207  0.3272  0.0640
  386TMC3    C8 5831   3.707   1.819  11.561 -0.0451  0.7033  0.1294
  386TMC3    O1 5832   3.855   1.417  11.971  0.2928 -0.2207 -0.2612
  386TMC3    O2 5833   3.616   1.834  11.479  0.2696 -0.1697  0.0428
  387MPD2     C 5834   1.514   1.854   9.949 -0.1461  0.2750  0.0802
  387MPD2    C1 5835   1.543   1.838  10.080  0.2737 -0.2339 -0.5077
  387MPD2    C2 5836   1.571   1.708  10.123  0.4967  0.6839 -0.6762
  387MPD2    C3 5837   1.562   1.605  10.035  0.1903  0.0635 -0.3515
  387MPD2    C4 5838   1.509   1.620   9.910  1.1299  0.0902  0.0603
  387MPD2    C5 5839   1.484   1.749   9.862 -0.3851 -0.2598 -0.1358
  387MPD2     H 5840   1.618   1.694  10.220 -0.9280  1.7603  0.1651
  387MPD2    H1 5841   1.486   1.542   9.838  0.0239  1.4967 -1.1221
  387MPD2    H2 5842   1.495   1.950   9.903 -0.9466  0.5111  0.8861
  387MPD2    H3 5843   1.439   1.756   9.764 -3.5302 -0.2927  1.3098
  387MPD2     N 5844   1.619   1.482  10.086  0.3636  0.1267  0.5061
  387MPD2    H5 5845   1.645   1.478  10.184 -0.9658  2.0292  0.9388
  387MPD2    N1 5846   1.566   1.946  10.162  0.3284 -0.6093 -0.2351
  387MPD2    H7 5847   1.602   1.928  10.255  0.7368  1.5750  0.0457
  388TMC3    C1 5848   1.664   2.158  10.228  0.0357 -0.3283  0.0422
  388TMC3    C2 5849   1.684   2.288  10.205  0.4087  0.4719 -0.5153
  388TMC3    C3 5850   1.804   2.346  10.241 -1.1562  0.5064 -0.4649
  388TMC3    C4 5851   1.754   2.081  10.307 -0.0278  0.2958  0.1429
  388TMC3    C5 5852   1.860   2.142  10.362 -0.0777  0.5850  0.3203
  388TMC3    C6 5853   1.887   2.269  10.316  0.5990  0.5016  0.4009
  388TMC3     C 5854   1.583   2.081  10.127  0.7851  0.3328  0.2820
  388TMC3     O 5855   1.567   2.142  10.021 -0.0722 -0.4076  0.7990
  388TMC3     H 5856   1.616   2.345  10.143  2.0813  0.3203 -2.5016
  388TMC3    H1 5857   1.729   1.979  10.337 -2.2261  0.4336 -1.2198
  388TMC3    H2 5858   1.989   2.299  10.340  0.3936 -0.4269  2.5262
  388TMC3    C7 5859   1.967   2.055  10.406 -0.7217 -0.0639 -0.2540
  388TMC3    C8 5860   1.850   2.452  10.158  0.6469 -0.1610  0.1028
  388TMC3    O1 5861   2.036   2.094  10.500 -0.0833  0.2118 -0.0178
  388TMC3    O2 5862   1.779   2.480  10.061  0.3956 -0.4015  0.1592
  389MPD2     C 5863   1.223   0.176  11.444  0.3370  0.5454  0.5715
  389MPD2    C1 5864   1.121   0.183  11.349 -0.5365  0.2446 -0.2338
  389MPD2    C2 5865   1.011   0.110  11.381 -0.7738  0.3468  0.3816
  389MPD2    C3 5866   1.000   0.022  11.492 -0.2529 -0.0649 -0.0590
  389MPD2    C4 5867   1.103   0.021  11.589  0.2328 -0.1861 -0.1218
  389MPD2    C5 5868   1.213   0.103  11.560  0.1443  0.6815 -1.1534
  389MPD2     H 5869   0.923   0.123  11.318 -1.1425 -1.3344  0.5390
  389MPD2    H1 5870   1.096   4.681  11.663 -0.8079 -1.8637 -1.9918
  389MPD2    H2 5871   1.315   0.228  11.420  1.0891 -0.9598  0.1691
  389MPD2    H3 5872   1.299   0.092  11.625  0.5332  2.1462 -1.4207
  389MPD2     N 5873   0.882   4.682  11.516  0.2130 -0.1105  0.0626
  389MPD2    H5 5874   0.888   4.629  11.602 -1.2005 -1.2611 -0.5465
  389MPD2    N1 5875   1.142   0.265  11.229  0.1607 -0.7809 -0.2074
  389MPD2    H7 5876   1.223   0.321  11.206 -1.1423  0.1126 -2.6145
  390TMC3    C1 5877   0.652   4.598  11.506 -0.0225 -0.1320  0.2517
  390TMC3    C2 5878   0.671   4.524  11.624  0.4033  0.0490  0.3936
  390TMC3    C3 5879   0.567   4.475  11.689 -1.1686  0.1128 -0.4526
  390TMC3    C4 5880   0.526   4.620  11.458 -0.5408 -0.3606 -0.0905
  390TMC3    C5 5881   0.420   4.556  11.518 -0.7396  0.3272  0.4333
  390TMC3    C6 5882   0.443   4.502  11.640  0.4918 -0.1306  0.4799
  390TMC3     C 5883   0.763   4.676  11.443 -0.0234  0.5882 -0.6140
  390TMC3     O 5884   0.733   4.730  11.341  0.2213 -0.4347  0.3181
  390TMC3     H 5885   0.770   4.479  11.627  0.4009  0.1388  2.1011
  390TMC3    H1 5886   0.505   4.675  11.367 -2.1084  0.0114  0.4894
  390TMC3    H2 5887   0.360   4.465  11.700 -0.9926  0.6855 -1.0874
  390TMC3    C7 5888   0.349   4.474  11.425  1.4288  0.2816  0.7651
  390TMC3    C8 5889   0.566   4.330  11.698 -0.4121 -0.3258  0.4676
  390TMC3    O1 5890   0.389   4.460  11.307 -0.4171 -0.0684  0.3077
  390TMC3    O2 5891   0.603   4.260  11.601  0.6806 -0.0361 -0.0651
  391MPD2     C 5892   0.478   1.531  10.989  0.1107 -0.0694  0.0372
  391MPD2    C1 5893   0.556   1.634  10.947  0.4278  0.0068 -0.2599
  391MPD2    C2 5894   0.583   1.647  10.809  0.0484  0.3674  0.2437
  391MPD2    C3 5895   0.531   1.558  10.720 -0.5056  0.1713  0.2670
  391MPD2    C4 5896   0.460   1.455  10.768 -0.0185 -0.8016 -0.3552
  391MPD2    C5 5897   0.439   1.437  10.901 -0.1895 -0.1313  0.3063
  391MPD2     H 5898   0.649   1.726  10.776  0.8000 -0.8887 -1.2268
  391MPD2    H1 5899   0.422   1.377  10.703 -0.0963  1.0330 -2.5059
  391MPD2    H2 5900   0.449   1.528  11.093  0.2638 -2.3251  0.0142
  391MPD2    H3 5901   0.384   1.350  10.936 -0.3527 -0.4517 -0.7374
  391MPD2     N 5902   0.560   1.571  10.583  0.2103  0.6677  0.1914
  391MPD2    H5 5903   0.612   1.652  10.550  1.0153  0.3140  0.6019
  391MPD2    N1 5904   0.620   1.726  11.040 -0.7065  0.2045  0.1618
  391MPD2    H7 5905   0.586   1.719  11.135 -0.6619 -2.1911 -0.0097
  392TMC3    C1 5906   0.539   1.543  10.346  0.0998  1.1739 -0.1648
  392TMC3    C2 5907   0.429   1.541  10.262 -0.3040 -0.3833  0.6809
  392TMC3    C3 5908   0.416   1.635  10.160 -0.2761  0.3702  0.4532
  392TMC3    C4 5909   0.633   1.641  10.323 -0.8354 -0.4856 -0.1705
  392TMC3    C5 5910   0.619   1.718  10.209 -0.1814  0.3877  0.1736
  392TMC3    C6 5911   0.509   1.728  10.134  0.3498 -0.0258 -0.2570
  392TMC3     C 5912   0.513   1.490  10.480  0.4781  0.9703  0.1562
  392TMC3     O 5913   0.436   1.395  10.484 -0.0702 -0.2823  0.5198
  392TMC3     H 5914   0.344   1.480  10.289 -0.0459 -0.9456  0.2316
  392TMC3    H1 5915   0.728   1.645  10.376  0.1441 -3.2516 -1.6897
  392TMC3    H2 5916   0.501   1.796  10.049  0.2609 -1.6797 -1.5599
  392TMC3    C7 5917   0.730   1.812  10.188  0.6729  0.0984 -0.5102
  392TMC3    C8 5918   0.293   1.630  10.076  0.7730 -0.3553  0.0078
  392TMC3    O1 5919   0.803   1.842  10.280  0.0546 -0.3869 -0.1953
  392TMC3    O2 5920   0.211   1.538  10.094  0.2213 -0.1912 -0.4018
  393TMC3    C1 5921   3.575   4.135  10.208 -0.2623 -0.5197 -0.4890
  393TMC3    C2 5922   3.503   4.054  10.122 -0.0273 -0.4754 -0.1696
  393TMC3    C3 5923   3.491   3.920  10.149  0.9587  0.3303  0.0739
  393TMC3    C4 5924   3.632   4.083  10.319  0.0049  0.0137  0.3485
  393TMC3    C5 5925   3.633   3.947  10.336 -0.3808 -0.4894  0.0220
  393TMC3    C6 5926   3.566   3.864  10.252  0.2305  0.2272  0.0653
  393TMC3     C 5927   3.592   4.276  10.182  0.4133  0.0532 -0.0602
  393TMC3     O 5928   3.516   4.323  10.095  0.2551 -0.0172  0.3792
  393TMC3     H 5929   3.447   4.093  10.037 -1.0283 -1.9770 -0.1992
  393TMC3    H1 5930   3.681   4.144  10.394  1.2485 -0.3385 -0.1824
  393TMC3    H2 5931   3.561   3.759  10.280  2.0780  0.6002  1.7286
  393TMC3    C7 5932   3.660   3.894  10.470 -0.7607 -0.2244 -0.1687
  393TMC3    C8 5933   3.443   3.833  10.044 -0.9937 -0.8227 -0.0283
  393TMC3    O1 5934   3.603   3.795  10.505 -0.1086  0.2834  0.1913
  393TMC3    O2 5935   3.415   3.887   9.936 -0.2359 -0.4951 -0.1018
  394TMC3    C1 5936   1.093   0.355  11.014 -0.4402  0.0304  0.4598
  394TMC3    C2 5937   1.002   0.413  10.931  0.5399  0.7825  0.8277
  394TMC3    C3 5938   1.044   0.493  10.836  0.3381  0.0719 -0.1879
  394TMC3    C4 5939   1.230   0.362  10.985 -0.2895  0.9032  0.2867
  394TMC3    C5 5940   1.264   0.441  10.883 -0.3994  0.1252  0.2453
  394TMC3    C6 5941   1.176   0.520  10.816  0.4913 -0.1915 -0.3385
  394TMC3     C 5942   1.046   0.293  11.136 -0.1252 -0.2460 -0.2144
  394TMC3     O 5943   0.930   0.247  11.130  0.0057  0.2138  0.1649
  394TMC3     H 5944   0.898   0.384  10.942  0.0570  2.8985  1.9170
  394TMC3    H1 5945   1.306   0.323  11.051 -0.4517  0.0401 -0.0293
  394TMC3    H2 5946   1.215   0.558  10.722  4.1977 -1.1114  0.8218
  394TMC3    C7 5947   1.403   0.483  10.856  0.6461  0.2595 -0.1562
  394TMC3    C8 5948   0.984   0.460  10.703  0.0178  0.0863 -0.2830
  394TMC3    O1 5949   1.411   0.597  10.813  0.7382  0.6416 -0.7161
  394TMC3    O2 5950   1.003   0.549  10.613  0.2356  0.1553 -0.3716
  395TMC3    C1 5951   0.595   2.027  15.000  0.2694 -0.3863 -0.0466
  395TMC3    C2 5952   0.488   2.048  14.914 -0.6309 -0.6640  0.1151
  395TMC3    C3 5953   0.521   2.117  14.800 -0.9884 -0.5214  0.3144
  395TMC3    C4 5954   0.723   2.035  14.952 -0.0225  0.0098  0.4297
  395TMC3    C5 5955   0.746   2.106  14.838  0.7864 -0.0372 -0.3349
  395TMC3    C6 5956   0.648   2.156  14.760 -0.8184  0.1358  0.0950
  395TMC3     C 5957   0.553   1.951  15.120  0.0802 -0.4032  0.7876
  395TMC3     O 5958   0.443   1.965  15.167  0.1879 -0.7894  0.3641
  395TMC3     H 5959   0.390   2.012  14.943  0.4086 -0.8659  3.3144
  395TMC3    H1 5960   0.806   2.028  15.021  1.7232  1.8407 -1.4835
  395TMC3    H2 5961   0.673   2.206  14.667 -1.5550  0.8699  0.2947
  395TMC3    C7 5962   0.865   2.181  14.824 -0.1519  0.3623 -0.0572
  395TMC3    C8 5963   0.428   2.135  14.690  0.0527  0.4439  0.4070
  395TMC3    O1 5964   0.845   2.292  14.781 -0.4539 -0.3475  0.1073
  395TMC3    O2 5965   0.468   2.198  14.594 -0.1699 -0.0168 -0.5349
  396MPD2     C 5966   0.477   3.088  16.750  0.6010 -0.0359 -0.2039
  396MPD2    C1 5967   0.527   3.169  16.846  0.0660  0.1040 -0.0241
  396MPD2    C2 5968   0.563   3.299  16.808 -0.3948  0.4680 -0.3280
  396MPD2    C3 5969   0.559   3.343  16.678  0.3086 -0.4435  0.8396
  396MPD2    C4 5970   0.507   3.256  16.580 -0.1408  0.2946  0.0572
  396MPD2    C5 5971   0.463   3.134  16.618  0.7756  0.1017 -0.2409
  396MPD2     H 5972   0.612   3.358  16.885 -0.4979  0.3651 -0.1820
  396MPD2    H1 5973   0.487   3.288  16.479 -2.4270  0.6240  0.6136
  396MPD2    H2 5974   0.434   2.991  16.771  0.4028  0.1929  0.4488
  396MPD2    H3 5975   0.408   3.072  16.549  0.4043 -0.7412  0.7984
  396MPD2     N 5976   0.613   3.472  16.648  0.5074 -0.1486  0.5614
  396MPD2    H5 5977   0.640   3.533  16.724 -1.0033  2.0601 -0.6826
  396MPD2    N1 5978   0.523   3.120  16.981 -0.4701  0.0540  0.0636
  396MPD2    H7 5979   0.507   3.020  16.985  2.3800 -0.3525  0.8875
  397TMC3    C1 5980   0.586   3.107  17.209  0.5918  0.3284  0.4120
  397TMC3    C2 5981   0.727   3.113  17.223 -0.3047  0.2336  0.1470
  397TMC3    C3 5982   0.795   2.991  17.218  0.0185 -0.7233  0.1908
  397TMC3    C4 5983   0.521   2.987  17.208  0.1823 -1.0096 -0.0782
  397TMC3    C5 5984   0.592   2.870  17.205 -0.9966 -0.3354 -0.7173
  397TMC3    C6 5985   0.728   2.871  17.216 -0.0060 -0.0193 -1.0707
  397TMC3     C 5986   0.543   3.188  17.098  0.2467  0.2158  0.0871
  397TMC3     O 5987   0.559   3.309  17.112  0.5548 -0.7753 -0.0001
  397TMC3     H 5988   0.778   3.197  17.177 -1.7350  2.7313  3.1238
  397TMC3    H1 5989   0.413   2.983  17.214  0.2475  2.1085  3.5381
  397TMC3    H2 5990   0.785   2.783  17.186  1.0754  0.5433 -0.6788
  397TMC3    C7 5991   0.529   2.743  17.239  0.4220  0.5953  0.9043
  397TMC3    C8 5992   0.883   2.998  17.100 -0.3365  0.3427 -0.6293
  397TMC3    O1 5993   0.586   2.639  17.210 -0.3058  0.1125 -0.1576
  397TMC3    O2 5994   0.840   2.941  16.999  0.6337  0.0934  0.1601
  398MPD2     C 5995   3.636   4.573  17.561  0.6046 -0.9438 -0.5285
  398MPD2    C1 5996   3.557   4.567  17.678 -0.5314  0.1434  0.8716
  398MPD2    C2 5997   3.450   4.655  17.691  0.1345  0.3657 -0.7565
  398MPD2    C3 5998   3.411   0.003  17.594 -0.1592  0.0163 -0.1634
  398MPD2    C4 5999   3.493   0.016  17.482 -0.1785  0.3615  0.2641
  398MPD2    C5 6000   3.610   4.675  17.474 -0.2859  0.4168  0.0568
  398MPD2     H 6001   3.382   4.642   0.023  0.6871 -1.2804 -0.5697
  398MPD2    H1 6002   3.471   0.096  17.413 -0.3197 -0.5964 -0.8106
  398MPD2    H2 6003   3.712   4.498  17.542  1.4691  0.8147 -3.8947
  398MPD2    H3 6004   3.684   4.687  17.396  1.0631  1.2510  1.4505
  398MPD2     N 6005   3.297   0.088  17.626  0.3885  0.0862  0.2726
  398MPD2    H5 6006   3.244   0.083  17.713  1.4432  0.9315  0.9675
  398MPD2    N1 6007   3.573   4.472   0.023  0.4099  0.5718  0.0388
  398MPD2    H7 6008   3.507   4.473   0.100  0.6035 -1.3884  0.2441
  399TMC3    C1 6009   3.641   4.271   0.128 -0.0054 -0.4454 -0.0509
  399TMC3    C2 6010   3.742   4.217   0.193  0.0899  0.2540  0.2081
  399TMC3    C3 6011   3.722   4.107   0.268 -0.6362 -0.0845  0.6376
  399TMC3    C4 6012   3.517   4.218   0.134 -0.3416  0.1641  0.5735
  399TMC3    C5 6013   3.500   4.104   0.198 -0.5154  0.2381 -1.2680
  399TMC3    C6 6014   3.601   4.040   0.266  1.1021 -0.2795 -0.2598
  399TMC3     C 6015   3.674   4.378   0.033  0.1485 -0.3414  0.1848
  399TMC3     O 6016   3.785   4.377  17.726 -0.3023  0.5220  0.5069
  399TMC3     H 6017   3.844   4.252   0.177  0.2334 -0.0507  0.4613
  399TMC3    H1 6018   3.440   4.267   0.076  1.0526  1.7410  0.0624
  399TMC3    H2 6019   3.594   3.951   0.326  0.4312 -2.2864 -3.3054
  399TMC3    C7 6020   3.360   4.070   0.230  0.6638  0.3577 -0.1304
  399TMC3    C8 6021   3.832   4.013   0.285 -0.6711  0.1885 -0.6281
  399TMC3    O1 6022   3.275   4.138   0.175  0.5620  0.0381  0.6602
  399TMC3    O2 6023   3.806   3.894   0.286 -0.2759  0.2951 -0.3239
  400TMC3    C1 6024   1.935   3.097  16.729  1.0992 -0.0175 -0.2836
  400TMC3    C2 6025   1.839   3.007  16.698  0.7236 -0.1256  0.1543
  400TMC3    C3 6026   1.753   3.042  16.596 -0.7698  0.4155  0.3341
  400TMC3    C4 6027   1.935   3.225  16.689 -0.5614  0.4128 -0.2153
  400TMC3    C5 6028   1.849   3.256  16.589  0.2010 -0.2595  0.5854
  400TMC3    C6 6029   1.756   3.167  16.535  0.1127  0.5258  0.3935
  400TMC3     C 6030   2.032   3.063  16.818  0.3025 -0.9743  0.7444
  400TMC3     O 6031   2.011   2.964  16.882 -0.0543  0.5080 -0.7272
  400TMC3     H 6032   1.848   2.901  16.719  0.1255 -0.2634 -0.2814
  400TMC3    H1 6033   1.995   3.304  16.734 -0.2164 -0.4266  0.7980
  400TMC3    H2 6034   1.697   3.201  16.451 -0.2294  1.0218  0.8265
  400TMC3    C7 6035   1.802   3.397  16.571  0.1438 -0.7098  0.7159
  400TMC3    C8 6036   1.656   2.948  16.542  0.3527  0.7261  0.6696
  400TMC3    O1 6037   1.729   3.426  16.473  0.3620  0.3927  0.2066
  400TMC3    O2 6038   1.607   2.977  16.432 -0.6522 -0.1389 -0.4445
  401MPD2     C 6039   0.316   1.524   0.090  0.2006  0.1655 -0.2519
  401MPD2    C1 6040   0.358   1.519   0.222 -0.4995 -0.0566 -0.5452
  401MPD2    C2 6041   0.412   1.404   0.267  0.2116 -0.2241  0.1477
  401MPD2    C3 6042   0.433   1.295   0.182  0.5501 -0.2566 -0.5087
  401MPD2    C4 6043   0.397   1.306   0.046 -0.9266 -0.6011 -1.0471
  401MPD2    C5 6044   0.338   1.421   0.007  0.7290  0.0425 -0.2999
  401MPD2     H 6045   0.441   1.388   0.370 -3.1996 -1.4860  0.8883
  401MPD2    H1 6046   0.409   1.224  17.727  2.2851 -1.2458  0.2564
  401MPD2    H2 6047   0.271   1.611   0.043 -0.8372  0.1599  0.7302
  401MPD2    H3 6048   0.323   1.429  17.651  2.1656  0.6951 -0.4449
  401MPD2     N 6049   0.502   1.183   0.239  1.0157  0.0445  0.1159
  401MPD2    H5 6050   0.531   1.190   0.335 -1.0906 -0.1516  0.7655
  401MPD2    N1 6051   0.341   1.624   0.317 -0.3638 -0.5514  0.2309
  401MPD2    H7 6052   0.382   1.607   0.408  2.3766 -0.8116 -1.0430
  402TMC3    C1 6053   0.638   0.984   0.252  0.7346  0.4804 -0.7980
  402TMC3    C2 6054   0.619   0.986   0.390 -0.6452 -0.4156  0.2762
  402TMC3    C3 6055   0.708   0.902   0.459  0.3940  0.4677  1.4716
  402TMC3    C4 6056   0.724   0.890   0.192 -0.1154  0.4533 -0.3030
  402TMC3    C5 6057   0.798   0.806   0.264  0.5527  0.3043  0.4387
  402TMC3    C6 6058   0.797   0.820   0.403 -0.0288 -0.2621  0.4036
  402TMC3     C 6059   0.559   1.075   0.172  0.8535 -0.1979  0.1315
  402TMC3     O 6060   0.551   1.039   0.056 -0.6999  0.2862  0.8591
  402TMC3     H 6061   0.537   1.037   0.440 -0.5247 -1.1184  1.1966
  402TMC3    H1 6062   0.738   0.881   0.085 -0.0624  0.6862 -0.3158
  402TMC3    H2 6063   0.860   0.770   0.475 -1.0288 -0.1705  1.3468
  402TMC3    C7 6064   0.883   0.704   0.209  0.0519 -0.9761 -0.2217
  402TMC3    C8 6065   0.679   0.879   0.599 -0.1510 -0.4920  0.1071
  402TMC3    O1 6066   0.883   0.707   0.087 -0.2446  0.6357 -0.5800
  402TMC3    O2 6067   0.682   0.767   0.645  0.6149  0.6464 -0.1862
  403MPD2     C 6068   3.188   3.739  13.193 -0.2288  0.2683 -0.0460
  403MPD2    C1 6069   3.129   3.779  13.312 -0.3622  0.7351  0.1745
  403MPD2    C2 6070   3.206   3.794  13.427  0.8583 -1.2181  0.4911
  403MPD2    C3 6071   3.341   3.778  13.425 -0.4582  0.2615  0.0862
  403MPD2    C4 6072   3.405   3.746  13.308  0.0708  0.9356 -0.5294
  403MPD2    C5 6073   3.324   3.731  13.194 -0.0070  0.6298 -0.4102
  403MPD2     H 6074   3.164   3.821  13.523 -0.9747 -0.0071 -0.6581
  403MPD2    H1 6075   3.512   3.731  13.295  0.5884  2.6512  1.6961
  403MPD2    H2 6076   3.138   3.743  13.097 -0.7950 -2.0994  0.1506
  403MPD2    H3 6077   3.375   3.712  13.100 -2.3215  0.3405 -1.6154
  403MPD2     N 6078   3.407   3.788  13.551 -0.0085 -0.0899 -0.3842
  403MPD2    H5 6079   3.345   3.822  13.624  0.4455 -0.5099  0.1974
  403MPD2    N1 6080   2.991   3.797  13.305 -0.3627  0.0874  0.0060
  403MPD2    H7 6081   2.947   3.773  13.217  0.2623  2.5895 -0.9795
  404TMC3    C1 6082   2.770   3.758  13.393  0.2161 -0.0052  0.3660
  404TMC3    C2 6083   2.742   3.671  13.490  0.4607  0.3379 -0.8743
  404TMC3    C3 6084   2.690   3.550  13.454 -0.4080 -0.8612 -0.1564
  404TMC3    C4 6085   2.732   3.735  13.264 -0.0769 -0.8660  0.0894
  404TMC3    C5 6086   2.682   3.614  13.233  0.4318 -0.4634 -0.7976
  404TMC3    C6 6087   2.670   3.517  13.324 -0.8902 -0.2720  0.1320
  404TMC3     C 6088   2.906   3.814  13.413  0.4832 -0.5306  0.9332
  404TMC3     O 6089   2.936   3.837  13.529 -0.1813  0.0886 -0.4679
  404TMC3     H 6090   2.761   3.704  13.591 -1.7067 -0.5956 -0.1655
  404TMC3    H1 6091   2.762   3.806  13.188  1.3805 -0.7886  0.7275
  404TMC3    H2 6092   2.650   3.416  13.291 -1.1942  0.7480 -2.8654
  404TMC3    C7 6093   2.740   3.581  13.101  0.1159 -0.2995 -1.3530
  404TMC3    C8 6094   2.701   3.434  13.553 -0.2496 -0.1165  0.3879
  404TMC3    O1 6095   2.857   3.610  13.089  0.5482  0.2947  0.1413
  404TMC3    O2 6096   2.727   3.321  13.515  0.0568  0.0431 -0.2455
  405MPD2     C 6097   3.354   0.462  14.623  0.8875  0.7007  0.3281
  405MPD2    C1 6098   3.316   0.342  14.582 -0.0627 -0.9308 -0.2540
  405MPD2    C2 6099   3.184   0.328  14.558 -0.1433  0.5085 -0.1929
  405MPD2    C3 6100   3.090   0.417  14.597  0.0859 -0.1939 -0.7110
  405MPD2    C4 6101   3.129   0.544  14.645 -0.2496  0.1239 -0.0255
  405MPD2    C5 6102   3.262   0.557  14.665  0.4537  0.1569 -0.0435
  405MPD2     H 6103   3.141   0.241  14.509  2.2989 -0.8861  0.0947
  405MPD2    H1 6104   3.057   0.616  14.681  0.5739  1.5864 -1.3157
  405MPD2    H2 6105   3.457   0.493  14.631  1.0189 -0.3544  2.7090
  405MPD2    H3 6106   3.297   0.654  14.697 -0.4260  0.1789  0.8371
  405MPD2     N 6107   2.957   0.375  14.583  0.5664  0.1050  0.1668
  405MPD2    H5 6108   2.940   0.275  14.572 -0.3530  0.1286  1.4017
  405MPD2    N1 6109   3.419   0.247  14.551 -0.0846 -0.1472  0.2351
  405MPD2    H7 6110   3.513   0.268  14.583 -0.5698  2.3215 -0.0207
  406TMC3    C1 6111   2.628   0.339  14.362  0.4166 -0.3719  0.1712
  406TMC3    C2 6112   2.652   0.210  14.381  0.7103 -0.2401 -0.2149
  406TMC3    C3 6113   2.709   0.174  14.499  0.5722 -0.3346  0.4508
  406TMC3    C4 6114   2.671   0.437  14.446 -0.5482  0.2866  0.2324
  406TMC3    C5 6115   2.730   0.392  14.565 -0.5648 -0.1524  0.7586
  406TMC3    C6 6116   2.752   0.261  14.587  0.2418 -0.2333 -0.0431
  406TMC3     C 6117   2.559   0.378  14.240 -0.0611  0.5175  0.4648
  406TMC3     O 6118   2.531   0.497  14.228 -0.0276 -0.0919  0.3924
  406TMC3     H 6119   2.614   0.128  14.320  3.4402 -0.0425 -2.1737
  406TMC3    H1 6120   2.652   0.542  14.427 -2.0255  0.1231  0.7789
  406TMC3    H2 6121   2.768   0.230  14.690  2.5516 -1.6970 -0.8524
  406TMC3    C7 6122   2.850   0.463  14.595  0.0865  0.4408  0.1429
  406TMC3    C8 6123   2.814   0.078  14.482  0.4501 -0.5464 -0.9907
  406TMC3    O1 6124   2.831   0.583  14.612  0.5853 -0.7150 -0.2826
  406TMC3    O2 6125   2.913   0.115  14.545 -0.1475 -0.3156  0.2726
  407MPD2     C 6126   1.198   1.079  10.015 -0.5337  0.5191  0.4006
  407MPD2    C1 6127   1.280   1.173   9.946  0.4269  0.1510 -0.2809
  407MPD2    C2 6128   1.265   1.308   9.966  0.1183 -0.2858 -0.1521
  407MPD2    C3 6129   1.180   1.354  10.067  0.2349 -0.4966 -0.2136
  407MPD2    C4 6130   1.107   1.265  10.138 -0.1732  0.4925 -0.8300
  407MPD2    C5 6131   1.116   1.131  10.107 -0.0422  0.1257  0.5552
  407MPD2     H 6132   1.327   1.375   9.908 -0.1057  0.3454  0.3439
  407MPD2    H1 6133   1.036   1.297  10.213  0.9703  0.3307  0.3123
  407MPD2    H2 6134   1.209   0.972   9.999  1.0330  0.7270  0.1071
  407MPD2    H3 6135   1.057   1.057  10.159  1.3802 -0.3923  1.4033
  407MPD2     N 6136   1.176   1.496  10.068  0.0656 -0.3335  0.5900
  407MPD2    H5 6137   1.233   1.552  10.006 -1.0103 -0.4337 -0.4687
  407MPD2    N1 6138   1.380   1.136   9.855  0.2202 -0.4531 -0.2593
  407MPD2    H7 6139   1.450   1.207   9.836 -0.0075  0.3878  2.1354
  408TMC3    C1 6140   1.560   1.011   9.778  0.2313  0.3513 -1.3476
  408TMC3    C2 6141   1.652   0.931   9.836  0.1721  0.2118 -0.1596
  408TMC3    C3 6142   1.785   0.939   9.806 -0.4958  0.2013 -0.2667
  408TMC3    C4 6143   1.593   1.109   9.692  0.4368  0.2117  0.3990
  408TMC3    C5 6144   1.727   1.113   9.651 -0.5502 -0.0181 -0.4515
  408TMC3    C6 6145   1.816   1.018   9.696 -0.1438  0.0833  0.6978
  408TMC3     C 6146   1.430   1.011   9.833  0.2100 -0.0851  0.1259
  408TMC3     O 6147   1.394   0.903   9.879 -0.0176  0.7302 -0.1893
  408TMC3     H 6148   1.624   0.863   9.916 -0.0961 -0.3803 -0.7599
  408TMC3    H1 6149   1.511   1.166   9.651  0.0408 -0.0320  0.8550
  408TMC3    H2 6150   1.914   1.018   9.652 -0.4272  1.6259  0.0478
  408TMC3    C7 6151   1.789   1.240   9.679 -0.4604  0.1442 -0.3281
  408TMC3    C8 6152   1.886   0.933   9.918  0.0049 -0.0389 -0.2845
  408TMC3    O1 6153   1.907   1.232   9.720  0.7514  1.2208  0.0685
  408TMC3    O2 6154   1.858   0.860  10.006 -0.5095 -0.3291  0.7020
  409MPD2     C 6155   0.874   2.434  16.780 -0.0935 -1.1700 -0.2436
  409MPD2    C1 6156   0.986   2.460  16.851  0.3744  0.3382  0.4254
  409MPD2    C2 6157   1.053   2.579  16.837  0.3485  0.0035 -0.4079
  409MPD2    C3 6158   1.009   2.674  16.745 -0.3427 -0.1771  0.4871
  409MPD2    C4 6159   0.900   2.643  16.663 -0.7419 -0.4143 -0.0102
  409MPD2    C5 6160   0.831   2.529  16.687 -0.3535  0.4828  0.2416
  409MPD2     H 6161   1.143   2.591  16.896 -0.9615 -1.3762  1.8557
  409MPD2    H1 6162   0.862   2.715  16.592  0.8892 -0.0935 -0.5553
  409MPD2    H2 6163   0.809   2.347  16.784 -0.2808 -0.9188  2.0987
  409MPD2    H3 6164   0.743   2.492  16.635 -0.8433  3.2294 -0.8620
  409MPD2     N 6165   1.079   2.796  16.718 -0.1924  0.1233  0.0488
  409MPD2    H5 6166   1.049   2.861  16.646 -0.7300  0.6572  0.7493
  409MPD2    N1 6167   1.035   2.376  16.951 -0.5189 -0.6598  0.1987
  409MPD2    H7 6168   1.121   2.402  16.998 -0.6017 -0.7855  0.4202
  410TMC3    C1 6169   1.244   2.953  16.737 -0.1655 -0.0657  0.3123
  410TMC3    C2 6170   1.310   3.031  16.821  0.0242  0.0186  0.5925
  410TMC3    C3 6171   1.388   3.136  16.777 -0.4560  0.7259  0.1475
  410TMC3    C4 6172   1.253   2.975  16.602  0.3988  0.4588 -0.3247
  410TMC3    C5 6173   1.323   3.086  16.551  0.0335 -0.1405  0.4565
  410TMC3    C6 6174   1.387   3.166  16.646 -0.1964  0.0844 -0.0999
  410TMC3     C 6175   1.190   2.834  16.793  0.4030  0.4994 -0.4343
  410TMC3     O 6176   1.249   2.793  16.891 -0.1015 -0.0362 -0.3958
  410TMC3     H 6177   1.294   3.024  16.928 -1.4061  3.1644  0.5860
  410TMC3    H1 6178   1.206   2.914  16.526 -1.0570  1.1938 -0.0200
  410TMC3    H2 6179   1.441   3.257  16.618  0.9346 -0.6007 -0.1599
  410TMC3    C7 6180   1.302   3.130  16.411 -0.0699 -0.3410 -0.3299
  410TMC3    C8 6181   1.504   3.175  16.857 -0.2499  0.0430  0.2863
  410TMC3    O1 6182   1.212   3.075  16.358  0.5644  0.3291  0.1711
  410TMC3    O2 6183   1.561   3.279  16.838 -0.4617 -0.5064 -0.0683
  411MPD2     C 6184   1.004   2.429  14.520 -0.3862 -0.1007  0.6697
  411MPD2    C1 6185   0.904   2.515  14.486  0.4743 -0.4389 -0.7634
  411MPD2    C2 6186   0.804   2.472  14.409 -0.4819 -0.2132  0.9041
  411MPD2    C3 6187   0.782   2.339  14.390 -0.0347  0.0530 -0.1275
  411MPD2    C4 6188   0.877   2.254  14.436  0.3165 -0.1758 -0.1572
  411MPD2    C5 6189   0.998   2.299  14.488  0.3125 -0.3647  0.3205
  411MPD2     H 6190   0.736   2.544  14.363  1.6131  1.9148  1.1772
  411MPD2    H1 6191   0.881   2.147  14.421  1.9936 -0.2124  0.4959
  411MPD2    H2 6192   1.094   2.466  14.567  0.2660 -0.2530 -0.4516
  411MPD2    H3 6193   1.078   2.233  14.520  0.6119 -0.7649 -1.2623
  411MPD2     N 6194   0.670   2.280  14.327  0.5054 -0.4044  0.2938
  411MPD2    H5 6195   0.663   2.182  14.303  0.9887 -0.0116 -1.4663
  411MPD2    N1 6196   0.917   2.659  14.496 -0.1695  0.1876 -0.7037
  411MPD2    H7 6197   0.840   2.713  14.457 -0.1843 -0.9397 -2.2421
  412TMC3    C1 6198   0.459   2.276  14.232  0.1621  0.1254 -0.1536
  412TMC3    C2 6199   0.331   2.329  14.238 -0.4121  0.1875 -0.0743
  412TMC3    C3 6200   0.247   2.305  14.129 -0.6208 -0.4860 -0.5395
  412TMC3    C4 6201   0.503   2.194  14.130  0.3043  0.9675  0.5539
  412TMC3    C5 6202   0.413   2.170  14.027 -0.4391  0.4446  0.3916
  412TMC3    C6 6203   0.287   2.228  14.027  0.2123  0.4062  0.6096
  412TMC3     C 6204   0.558   2.351  14.308  0.1317  0.5336 -0.0698
  412TMC3     O 6205   0.529   2.461  14.352  0.1164 -0.1115  0.3022
  412TMC3     H 6206   0.298   2.381  14.327 -2.2014 -2.9098  1.0781
  412TMC3    H1 6207   0.602   2.152  14.112  0.0494  0.9634 -0.8486
  412TMC3    H2 6208   0.223   2.209  13.941 -0.5589 -1.1234  1.5100
  412TMC3    C7 6209   0.470   2.158  13.894 -0.0725  0.0531  0.1283
  412TMC3    C8 6210   0.186   2.429  14.087 -0.5157  0.3111  0.1842
  412TMC3    O1 6211   0.529   2.057  13.863 -0.1642  0.4402  0.0996
  412TMC3    O2 6212   0.256   2.527  14.084 -0.4314  0.5252 -0.1971
  413MPD2     C 6213   2.800   1.413  15.500  1.2044 -0.4154 -0.0792
  413MPD2    C1 6214   2.758   1.357  15.380  0.4920  0.3783  0.5787
  413MPD2    C2 6215   2.859   1.335  15.290  0.1096 -0.1428 -0.2248
  413MPD2    C3 6216   2.992   1.357  15.309 -0.1919 -1.0786  0.5678
  413MPD2    C4 6217   3.027   1.394  15.443 -0.1648  0.1608  0.2618
  413MPD2    C5 6218   2.936   1.443  15.527 -0.1093 -0.4450  0.8228
  413MPD2     H 6219   2.821   1.277  15.207 -0.2935  0.0219 -0.1577
  413MPD2    H1 6220   3.131   1.419  15.460 -0.5098  1.3423  0.6288
  413MPD2    H2 6221   2.728   1.447  15.573  0.7323  2.6302 -1.9769
  413MPD2    H3 6222   2.954   1.489  15.623  1.3920  0.9140 -0.0977
  413MPD2     N 6223   3.088   1.318  15.214 -0.4837  0.0442  0.1049
  413MPD2    H5 6224   3.047   1.269  15.135  1.6735 -1.5526 -0.0318
  413MPD2    N1 6225   2.623   1.335  15.342 -0.1343 -0.1301  0.2544
  413MPD2    H7 6226   2.594   1.288  15.257  1.5827 -0.0943 -0.3440
  414TMC3    C1 6227   3.270   1.213  15.116  0.2905 -0.6509  0.5353
  414TMC3    C2 6228   3.344   1.096  15.157 -0.3464  0.4070  0.4861
  414TMC3    C3 6229   3.348   0.984  15.085 -0.2751  0.0017 -0.4964
  414TMC3    C4 6230   3.199   1.210  14.992 -0.5191 -0.1277 -0.7804
  414TMC3    C5 6231   3.215   1.091  14.920  0.2660 -0.0069 -0.3398
  414TMC3    C6 6232   3.284   0.977  14.963 -0.8217 -0.2104  0.6021
  414TMC3     C 6233   3.221   1.305  15.227  0.2045  0.3537  0.2277
  414TMC3     O 6234   3.293   1.324  15.321 -0.0082 -0.1638  0.1497
  414TMC3     H 6235   3.388   1.085  15.255  2.4304  2.3056 -0.5379
  414TMC3    H1 6236   3.151   1.298  14.950 -2.4632 -0.5873  0.4851
  414TMC3    H2 6237   3.285   0.885  14.906 -1.4115  0.1487  0.0230
  414TMC3    C7 6238   3.150   1.096  14.785 -0.3155  0.6527  0.4306
  414TMC3    C8 6239   3.455   0.890  15.101 -0.0205  0.2974 -0.0987
  414TMC3    O1 6240   3.051   1.159  14.776  0.2776 -0.2497  0.8172
  414TMC3    O2 6241   3.447   0.798  15.023  0.1185 -0.3675  0.0878
  415TMC3    C1 6242   3.635   3.257   9.801 -0.1930 -0.1268  0.7303
  415TMC3    C2 6243   3.656   3.377   9.737  0.3254  0.2375  0.2022
  415TMC3    C3 6244   3.665   3.382   9.607 -0.4295 -0.2006  1.0026
  415TMC3    C4 6245   3.604   3.151   9.729 -0.0586 -0.1164 -0.2467
  415TMC3    C5 6246   3.601   3.157   9.595 -0.3911  0.1994  0.4443
  415TMC3    C6 6247   3.632   3.271   9.527 -0.5730  0.2118  0.0984
  415TMC3     C 6248   3.631   3.248   9.949 -0.1479  0.0978  0.5561
  415TMC3     O 6249   3.577   3.152  10.007 -0.6933  0.0227  0.0589
  415TMC3     H 6250   3.651   3.466   9.798  1.8567  0.8068 -0.5054
  415TMC3    H1 6251   3.586   3.056   9.780 -1.5969  0.7805  0.8715
  415TMC3    H2 6252   3.604   3.281   9.423 -0.1744  1.4993  0.1182
  415TMC3    C7 6253   3.551   3.043   9.529  0.5983 -0.1857 -0.4152
  415TMC3    C8 6254   3.649   3.512   9.545 -1.2166 -0.0580  0.3226
  415TMC3    O1 6255   3.598   3.024   9.416  0.1362 -0.1426 -0.1543
  415TMC3    O2 6256   3.611   3.517   9.428 -0.0732 -0.2223 -0.2432
  416MPD2     C 6257   0.429   2.973  11.068 -0.1239  0.3258  0.1391
  416MPD2    C1 6258   0.394   2.850  11.107 -0.0222 -0.0915 -0.3639
  416MPD2    C2 6259   0.468   2.748  11.054  0.3043  0.4752  0.5810
  416MPD2    C3 6260   0.562   2.771  10.952 -0.9446 -0.5109  0.0353
  416MPD2    C4 6261   0.592   2.898  10.911 -0.5895  0.0436 -0.0298
  416MPD2    C5 6262   0.522   3.000  10.972 -1.1701 -0.6389 -0.9371
  416MPD2     H 6263   0.462   2.645  11.089  0.8817  1.0846  2.4561
  416MPD2    H1 6264   0.663   2.913  10.831  1.4711 -2.5549  1.3035
  416MPD2    H2 6265   0.373   3.055  11.111 -0.3301 -0.1411  0.7599
  416MPD2    H3 6266   0.548   3.104  10.953  0.3266 -0.3307  2.7736
  416MPD2     N 6267   0.617   2.653  10.897  0.0644 -0.2977 -1.0730
  416MPD2    H5 6268   0.596   2.560  10.931 -0.0150  1.1357  2.7369
  416MPD2    N1 6269   0.303   2.834  11.215  0.0464  0.4614 -0.2687
  416MPD2    H7 6270   0.276   2.921  11.259 -2.8591  0.8101 -2.7414
  417TMC3    C1 6271   0.126   2.713  11.329 -0.0338  0.3085 -0.4642
  417TMC3    C2 6272   0.135   2.668  11.457  0.4975 -0.0337  1.1577
  417TMC3    C3 6273   0.034   2.705  11.539 -0.5314 -0.4365  0.2882
  417TMC3    C4 6274   0.022   2.792  11.282  0.7854  0.8196 -1.0446
  417TMC3    C5 6275   4.655   2.817  11.366 -0.2203 -0.3355  0.5336
  417TMC3    C6 6276   4.661   2.771  11.494  0.0668  0.4248  0.4885
  417TMC3     C 6277   0.253   2.708  11.258 -0.2593 -0.8135  0.5468
  417TMC3     O 6278   0.283   2.590  11.225 -0.6332 -0.5127  0.3002
  417TMC3     H 6279   0.205   2.591  11.487 -0.2528 -0.2511  2.3386
  417TMC3    H1 6280   0.021   2.827  11.179  0.4641  0.5750 -1.1227
  417TMC3    H2 6281   4.599   2.818  11.570  1.5612  0.7900  1.4799
  417TMC3    C7 6282   4.591   2.943  11.335  0.2878  0.4280  0.5079
  417TMC3    C8 6283   0.055   2.702  11.681 -0.5884  0.4076 -0.0274
  417TMC3    O1 6284   4.640   3.005  11.240  0.4996  0.5907 -0.4257
  417TMC3    O2 6285   4.693   2.715  11.748 -0.0742 -0.1714 -0.5746
  418TMC3    C1 6286   3.255   0.506  17.637  0.0419  0.1934 -0.1990
  418TMC3    C2 6287   3.180   0.405  17.575 -0.0008 -0.4298  0.3597
  418TMC3    C3 6288   3.167   0.286  17.627 -0.1901  0.0218 -0.0828
  418TMC3    C4 6289   3.289   0.487   0.016 -1.0843 -0.3427  0.7138
  418TMC3    C5 6290   3.255   0.366   0.073 -0.3026 -0.0727 -0.2630
  418TMC3    C6 6291   3.187   0.267   0.004  0.6157  0.3111 -0.1734
  418TMC3     C 6292   3.331   0.603  17.550 -0.1583 -0.6540 -0.0919
  418TMC3     O 6293   3.262   0.656  17.467  0.0283  0.2018  0.6078
  418TMC3     H 6294   3.149   0.423  17.473  0.7681 -1.2067 -0.0045
  418TMC3    H1 6295   3.343   0.561   0.074 -1.3014 -0.2104  0.7495
  418TMC3    H2 6296   3.163   0.177   0.060 -1.7179  1.2908  0.3928
  418TMC3    C7 6297   3.321   0.330   0.199  0.8498  0.2805 -0.1493
  418TMC3    C8 6298   3.262   0.207  17.555 -0.4841 -0.4444  0.1203
  418TMC3    O1 6299   3.356   0.213   0.203 -0.0281  0.6211 -0.0220
  418TMC3    O2 6300   3.320   0.256  17.455  0.1493 -0.6877  0.0308
  419MPD2     C 6301   2.570   2.185  12.439  0.2145 -0.3250 -0.2865
  419MPD2    C1 6302   2.441   2.231  12.406 -0.4510  0.3405 -0.3207
  419MPD2    C2 6303   2.352   2.248  12.514 -0.5507  0.5197 -0.2322
  419MPD2    C3 6304   2.385   2.210  12.642  0.0352 -0.0152 -0.3153
  419MPD2    C4 6305   2.508   2.147  12.667  0.1990 -0.4798  0.6091
  419MPD2    C5 6306   2.592   2.144  12.561  0.4960  0.0256 -0.2039
  419MPD2     H 6307   2.262   2.305  12.493  0.2219  2.0864  0.7291
  419MPD2    H1 6308   2.537   2.113  12.766  1.1191 -0.9743  0.1775
  419MPD2    H2 6309   2.648   2.186  12.363 -0.2250  1.7891 -0.7028
  419MPD2    H3 6310   2.684   2.104  12.601 -1.6335 -1.3582  3.2920
  419MPD2     N 6311   2.294   2.258  12.740 -0.0708  0.3900 -0.3896
  419MPD2    H5 6312   2.216   2.313  12.707 -1.5787 -1.3274  0.3330
  419MPD2    N1 6313   2.402   2.275  12.273 -0.4465  0.0923  0.0420
  419MPD2    H7 6314   2.315   2.325  12.263 -0.7819 -0.1214  1.8943
  420TMC3    C1 6315   2.179   2.255  12.942  0.1247 -0.3908  0.8106
  420TMC3    C2 6316   2.066   2.286  12.868  0.4836 -0.6643 -0.2892
  420TMC3    C3 6317   1.955   2.340  12.933  0.1973 -0.4419  0.0828
  420TMC3    C4 6318   2.181   2.269  13.076  0.1029 -0.6879 -0.2084
  420TMC3    C5 6319   2.064   2.315  13.138 -0.3430  0.3585 -0.1363
  420TMC3    C6 6320   1.951   2.347  13.069  0.0834 -0.3443  0.2481
  420TMC3     C 6321   2.303   2.235  12.872  0.1133  0.1165 -0.2699
  420TMC3     O 6322   2.395   2.184  12.939  0.2502  0.2563 -0.3543
  420TMC3     H 6323   2.063   2.284  12.760 -0.1999 -0.2155 -0.2863
  420TMC3    H1 6324   2.267   2.243  13.137 -0.4736 -1.9273  0.0693
  420TMC3    H2 6325   1.860   2.382  13.118  0.0397  0.5980 -0.5105
  420TMC3    C7 6326   2.080   2.344  13.281  0.0806 -0.4519  0.1412
  420TMC3    C8 6327   1.860   2.423  12.869  1.0159  0.6272  0.2797
  420TMC3    O1 6328   2.129   2.264  13.358  0.4322  0.1195 -0.4160
  420TMC3    O2 6329   1.789   2.489  12.939 -1.1653 -0.0131 -0.6802
  421TMC3    C1 6330   3.563   3.788  13.715 -0.8438 -0.0142 -0.3988
  421TMC3    C2 6331   3.508   3.898  13.773 -0.0055  0.1750  0.0999
  421TMC3    C3 6332   3.539   3.929  13.903 -0.6479  0.5873  0.0324
  421TMC3    C4 6333   3.661   3.718  13.780 -0.5030  0.4018 -0.5712
  421TMC3    C5 6334   3.700   3.758  13.905  0.2591 -0.2542 -0.4314
  421TMC3    C6 6335   3.634   3.858  13.970 -0.2702 -0.3254 -0.7375
  421TMC3     C 6336   3.536   3.751  13.579 -0.1809 -0.7942 -0.3291
  421TMC3     O 6337   3.615   3.681  13.520  0.1947 -0.2356  0.1364
  421TMC3     H 6338   3.442   3.968  13.722  0.9977  1.3672  0.4456
  421TMC3    H1 6339   3.721   3.645  13.727 -1.1783 -0.6948  0.1916
  421TMC3    H2 6340   3.660   3.883  14.072 -1.5892  0.3783 -0.5800
  421TMC3    C7 6341   3.831   3.719  13.958  0.4027  0.3189  0.6071
  421TMC3    C8 6342   3.577   4.076  13.905 -0.0890 -0.2042 -0.6146
  421TMC3    O1 6343   3.884   3.794  14.037 -1.0161  0.3433 -0.1432
  421TMC3    O2 6344   3.581   4.136  13.799 -0.0301 -0.5716  0.2393
  422TMC3    C1 6345   0.560   0.889  12.780  0.5343 -0.3517 -0.0330
  422TMC3    C2 6346   0.671   0.887  12.862  0.3731 -0.2291 -0.0899
  422TMC3    C3 6347   0.715   0.765  12.912 -0.6438 -0.0268  0.8857
  422TMC3    C4 6348   0.483   0.783  12.759 -0.0945 -0.1480  1.0015
  422TMC3    C5 6349   0.533   0.663  12.812  0.9502 -0.1147 -0.4026
  422TMC3    C6 6350   0.648   0.653  12.881 -0.3260  0.3417 -0.1172
  422TMC3     C 6351   0.532   1.012  12.715 -0.1272 -0.5950 -0.5660
  422TMC3     O 6352   0.607   1.105  12.751  0.3144  0.1327  0.3678
  422TMC3     H 6353   0.733   0.975  12.871 -2.1987  1.4128  1.6583
  422TMC3    H1 6354   0.394   0.792  12.697  0.2881  1.5600  0.6974
  422TMC3    H2 6355   0.684   0.554  12.907 -1.6387 -0.3252 -0.8542
  422TMC3    C7 6356   0.449   0.549  12.798  0.0658  0.5779 -0.1241
  422TMC3    C8 6357   0.836   0.763  12.997 -0.0662  0.7315  0.7050
  422TMC3    O1 6358   0.498   0.440  12.776 -0.2978 -0.4309  0.0453
  422TMC3    O2 6359   0.909   0.861  12.984  0.3158  0.4515 -0.2976
  423MPD2     C 6360   2.329   2.268   0.270  0.1036 -0.0413 -0.4231
  423MPD2    C1 6361   2.406   2.173   0.335  1.0686 -0.0857 -0.3460
  423MPD2    C2 6362   2.468   2.076   0.259  0.2903  0.0764  0.9928
  423MPD2    C3 6363   2.459   2.082   0.116 -0.1506 -0.0410 -0.8272
  423MPD2    C4 6364   2.390   2.184   0.057 -0.5104  0.5283 -0.2987
  423MPD2    C5 6365   2.317   2.272   0.135 -0.2456  0.1052 -0.4284
  423MPD2     H 6366   2.537   2.003   0.301  2.4302  1.4580 -0.1254
  423MPD2    H1 6367   2.373   2.181  17.701 -0.1490  1.6250 -0.3824
  423MPD2    H2 6368   2.294   2.358   0.318  1.7617  0.5568 -0.3354
  423MPD2    H3 6369   2.258   2.349   0.087  0.6444  2.0109  1.5532
  423MPD2     N 6370   2.532   2.004   0.024 -0.0877 -0.1444 -0.3665
  423MPD2    H5 6371   2.528   2.026  17.677 -3.0580 -1.5850 -0.5879
  423MPD2    N1 6372   2.445   2.176   0.469 -0.2196 -0.2224 -0.3810
  423MPD2    H7 6373   2.512   2.103   0.494  1.7914  2.1647  1.1823
  424TMC3    C1 6374   2.457   2.236   0.694  0.9808 -0.3678  0.0753
  424TMC3    C2 6375   2.575   2.167   0.716  0.3054 -0.0376  0.0104
  424TMC3    C3 6376   2.633   2.171   0.840  1.0253 -0.8453 -0.5510
  424TMC3    C4 6377   2.389   2.309   0.794 -0.5601  0.3079  0.2474
  424TMC3    C5 6378   2.454   2.303   0.913 -0.5841  0.1463  0.3888
  424TMC3    C6 6379   2.570   2.233   0.941 -0.4358 -0.8487  0.2251
  424TMC3     C 6380   2.409   2.262   0.567  0.0602  0.2516  0.4729
  424TMC3     O 6381   2.326   2.355   0.560  0.2439 -0.0386 -0.1057
  424TMC3     H 6382   2.627   2.125   0.630  1.0765 -0.5942  0.7431
  424TMC3    H1 6383   2.294   2.361   0.786  0.3906  2.0349  0.2469
  424TMC3    H2 6384   2.606   2.205   1.039 -1.0033 -2.1350  0.0512
  424TMC3    C7 6385   2.394   2.361   1.034  0.2833  0.0360  0.0001
  424TMC3    C8 6386   2.728   2.063   0.863 -0.6588 -0.5100 -0.3955
  424TMC3    O1 6387   2.471   2.378   1.130 -0.2570  0.7757  0.2273
  424TMC3    O2 6388   2.735   1.977   0.777  0.0574  0.1840 -0.5393
  425MPD2     C 6389   1.867   1.721  17.194 -0.2961  0.6445  0.1396
  425MPD2    C1 6390   1.778   1.612  17.199 -0.9043  0.3160 -0.4344
  425MPD2    C2 6391   1.649   1.629  17.246  0.1712  0.5903 -0.1069
  425MPD2    C3 6392   1.620   1.753  17.293  0.2296 -0.0413  0.5113
  425MPD2    C4 6393   1.707   1.860  17.302  1.3092  0.0672  0.4917
  425MPD2    C5 6394   1.831   1.839  17.248  0.5327  0.0470 -0.0810
  425MPD2     H 6395   1.567   1.559  17.238  0.1270  0.5463  0.7548
  425MPD2    H1 6396   1.690   1.959  17.343 -0.9829  0.1291 -0.6002
  425MPD2    H2 6397   1.968   1.716  17.155 -0.0945 -1.5058  0.9327
  425MPD2    H3 6398   1.902   1.921  17.258  1.9864 -0.8683 -2.7898
  425MPD2     N 6399   1.491   1.758  17.348  0.6644 -0.0926 -0.1636
  425MPD2    H5 6400   1.431   1.678  17.330  1.1272 -0.7093  1.0021
  425MPD2    N1 6401   1.829   1.485  17.163 -0.1866  0.3870  0.2268
  425MPD2    H7 6402   1.922   1.491  17.123 -0.0945 -1.8399  0.0934
  426TMC3    C1 6403   1.845   1.256  17.135 -0.4487 -0.3161  0.7032
  426TMC3    C2 6404   1.867   1.246  17.001  0.9270  0.6307  0.2477
  426TMC3    C3 6405   1.880   1.116  16.951  0.5259 -0.3870 -0.7968
  426TMC3    C4 6406   1.838   1.148  17.216  0.3808  0.3720  0.5732
  426TMC3    C5 6407   1.856   1.023  17.168  0.0637  0.3893 -0.3927
  426TMC3    C6 6408   1.873   1.006  17.037 -0.3125 -0.0158 -0.0976
  426TMC3     C 6409   1.763   1.365  17.183 -0.4547 -0.4249 -0.4042
  426TMC3     O 6410   1.659   1.342  17.251 -0.5462 -0.3790  0.0871
  426TMC3     H 6411   1.851   1.336  16.942 -3.2177 -0.8282 -0.8841
  426TMC3    H1 6412   1.830   1.156  17.324 -0.5655  1.1064  0.4401
  426TMC3    H2 6413   1.899   0.908  17.000  1.4595  0.3714  0.0793
  426TMC3    C7 6414   1.783   0.913  17.226  0.1041 -1.1177  0.0918
  426TMC3    C8 6415   1.872   1.083  16.813  0.2784 -0.1087  0.5011
  426TMC3    O1 6416   1.825   0.801  17.201  0.0595  0.0845  0.0402
  426TMC3    O2 6417   1.840   0.968  16.789  0.1007  0.6776 -0.4502
  427MPD2     C 6418   0.322   2.997  14.932 -0.2572  0.4822  0.2397
  427MPD2    C1 6419   0.270   3.019  15.060  0.2840  0.1345  0.7144
  427MPD2    C2 6420   0.149   3.087  15.073 -0.3151  0.1915 -0.5944
  427MPD2    C3 6421   0.078   3.136  14.960 -0.5763 -0.3156  0.2476
  427MPD2    C4 6422   0.138   3.119  14.838 -0.6325 -0.3922  0.3811
  427MPD2    C5 6423   0.260   3.060  14.830  0.0628  0.1796  0.6548
  427MPD2     H 6424   0.096   3.094  15.167  0.4309  0.3523 -0.1832
  427MPD2    H1 6425   0.102   3.166  14.748  0.4772 -0.1900  0.0409
  427MPD2    H2 6426   0.409   2.934  14.920 -1.8037 -1.5088 -0.4549
  427MPD2    H3 6427   0.307   3.035  14.735  0.8295  0.0743  1.0688
  427MPD2     N 6428   4.687   3.204  14.968 -0.3677 -0.1295  0.1365
  427MPD2    H5 6429   4.631   3.208  14.883 -3.0426  1.1430  1.9518
  427MPD2    N1 6430   0.346   2.978  15.170 -0.7515  1.1371  0.6117
  427MPD2    H7 6431   0.444   2.961  15.149 -1.1568  1.1340 -1.2799
  428TMC3    C1 6432   0.389   2.924  15.403  0.6149  0.3534  0.5274
  428TMC3    C2 6433   0.340   2.855  15.506  0.4831 -0.5410 -0.2302
  428TMC3    C3 6434   0.429   2.822  15.603  0.3216  0.1646 -0.2422
  428TMC3    C4 6435   0.528   2.950  15.385  0.3209  0.5582  0.6360
  428TMC3    C5 6436   0.611   2.904  15.480  0.1586 -0.7161 -0.1385
  428TMC3    C6 6437   0.567   2.842  15.591 -0.1484  0.0459  0.1314
  428TMC3     C 6438   0.295   2.963  15.300  0.4402 -0.4293 -0.3823
  428TMC3     O 6439   0.178   2.955  15.333 -0.4972 -0.0675 -0.4443
  428TMC3     H 6440   0.244   2.804  15.499 -0.1949  1.0510 -2.9851
  428TMC3    H1 6441   0.574   3.017  15.314 -0.6215  0.9601  0.4035
  428TMC3    H2 6442   0.634   2.819  15.673 -0.7259 -0.0944  0.5585
  428TMC3    C7 6443   0.746   2.957  15.496 -0.2592  0.5303  0.7151
  428TMC3    C8 6444   0.386   2.710  15.680  0.5054  0.4950 -0.3203
  428TMC3    O1 6445   0.783   2.993  15.605  0.0212  0.2789  0.5075
  428TMC3    O2 6446   0.457   2.608  15.674  0.0857 -0.2618  0.3204
  429MPD2     C 6447   1.313   3.562  17.617  0.3362  0.1404 -0.4537
  429MPD2    C1 6448   1.439   3.526  17.580  0.6014  0.0412  0.2493
  429MPD2    C2 6449   1.512   3.613  17.504  0.5130  0.0831  0.5262
  429MPD2    C3 6450   1.464   3.739  17.467  0.8814  0.4572  0.1147
  429MPD2    C4 6451   1.338   3.768  17.513  0.0078  0.2457  0.4638
  429MPD2    C5 6452   1.260   3.685  17.585 -0.3560 -0.0055  0.5158
  429MPD2     H 6453   1.610   3.577  17.477  0.2958 -2.0428  2.5062
  429MPD2    H1 6454   1.300   3.864  17.483 -1.2220  0.0110  1.2840
  429MPD2    H2 6455   1.245   3.495  17.669 -0.9728  2.6733  1.1077
  429MPD2    H3 6456   1.155   3.705  17.601 -0.3932 -0.3838  0.7617
  429MPD2     N 6457   1.540   3.824  17.382 -0.5143  0.4460 -0.5059
  429MPD2    H5 6458   1.635   3.796  17.359 -0.0083  3.1168 -1.6177
  429MPD2    N1 6459   1.500   3.396  17.610  0.2043 -0.3189 -0.5804
  429MPD2    H7 6460   1.591   3.373  17.572  0.9863  0.2950  0.9143
  430TMC3    C1 6461   1.601   3.998  17.242 -0.2927 -0.5509  0.0676
  430TMC3    C2 6462   1.571   4.109  17.178  0.3115  0.1460 -0.2251
  430TMC3    C3 6463   1.667   4.153  17.087 -0.4591 -0.2161 -0.6982
  430TMC3    C4 6464   1.727   3.927  17.215  0.6110 -0.9205  0.4949
  430TMC3    C5 6465   1.811   3.972  17.116 -0.1900  0.3947  0.7279
  430TMC3    C6 6466   1.787   4.089  17.055 -0.5667 -0.3913  0.4916
  430TMC3     C 6467   1.498   3.941  17.318  0.0759 -0.6687  0.0365
  430TMC3     O 6468   1.386   3.998  17.318 -0.0067  0.5150 -0.1064
  430TMC3     H 6469   1.481   4.165  17.199  1.1128  0.6159  1.8855
  430TMC3    H1 6470   1.744   3.836  17.271 -1.0991 -1.6059 -0.0733
  430TMC3    H2 6471   1.855   4.132  16.983 -0.8623  0.3524  0.6608
  430TMC3    C7 6472   1.826   3.868  17.019  0.0942 -0.0836  0.1713
  430TMC3    C8 6473   1.617   4.205  16.959 -0.1977  0.0988 -0.1745
  430TMC3    O1 6474   1.836   3.760  17.072 -0.3551 -0.5943  0.1438
  430TMC3    O2 6475   1.693   4.192  16.862  0.0469 -0.1505  0.2390
  431MPD2     C 6476   1.915   2.953  12.340  0.6427  0.2092  0.4222
  431MPD2    C1 6477   2.017   3.001  12.266  0.3950 -0.1200  0.0950
  431MPD2    C2 6478   2.094   2.904  12.202 -0.3867 -0.1383 -0.2869
  431MPD2    C3 6479   2.073   2.766  12.214 -0.7270 -0.7572  0.3548
  431MPD2    C4 6480   1.975   2.722  12.297 -0.5160  0.1429  0.9783
  431MPD2    C5 6481   1.904   2.814  12.367  1.0926 -0.7072 -0.6449
  431MPD2     H 6482   2.173   2.940  12.137 -0.4962 -0.9868 -0.8915
  431MPD2    H1 6483   1.946   2.618  12.311 -1.6356  0.4456  0.9038
  431MPD2    H2 6484   1.846   3.016  12.394  0.6753 -1.1951  2.1000
  431MPD2    H3 6485   1.827   2.777  12.434  0.1904 -1.1814 -1.9507
  431MPD2     N 6486   2.147   2.670  12.146  0.3006 -0.4414  0.7572
  431MPD2    H5 6487   2.119   2.575  12.169 -0.7357 -0.2184  0.4388
  431MPD2    N1 6488   2.055   3.133  12.259  0.3349  0.4355  0.1621
  431MPD2    H7 6489   2.111   3.160  12.179  0.3712 -0.4613 -0.1176
  432TMC3    C1 6490   2.313   2.574  12.009  0.2277 -0.5208 -0.1046
  432TMC3    C2 6491   2.356   2.566  11.881 -0.7143  0.2210  0.1208
  432TMC3    C3 6492   2.414   2.449  11.843  0.2872  0.2120 -0.3211
  432TMC3    C4 6493   2.344   2.479  12.104 -0.0342  0.0375  0.4858
  432TMC3    C5 6494   2.425   2.375  12.067 -0.7733  0.5524 -0.0048
  432TMC3    C6 6495   2.445   2.355  11.940 -0.3254 -0.3741  0.0353
  432TMC3     C 6496   2.232   2.689  12.042 -0.4544 -0.3025  0.1798
  432TMC3     O 6497   2.248   2.788  11.972 -0.2064 -0.6878  0.2521
  432TMC3     H 6498   2.322   2.643  11.813 -2.2692  0.0183  0.6736
  432TMC3    H1 6499   2.343   2.512  12.207  0.4951  0.5374  0.3322
  432TMC3    H2 6500   2.486   2.257  11.916 -0.6839 -0.7758  1.0991
  432TMC3    C7 6501   2.483   2.291  12.166 -0.1446 -0.0722  0.1759
  432TMC3    C8 6502   2.466   2.422  11.709 -0.3764  0.2752  0.0640
  432TMC3    O1 6503   2.591   2.241  12.141 -0.3363  0.0552  0.2305
  432TMC3    O2 6504   2.485   2.300  11.691 -0.5329  0.4205  0.1941
  433MPD2     C 6505   1.168   1.924  10.879 -0.0360  0.2326  0.0303
  433MPD2    C1 6506   1.118   1.819  10.959  0.0115  0.1648 -0.6432
  433MPD2    C2 6507   1.137   1.824  11.096  0.7936  0.0838 -0.3898
  433MPD2    C3 6508   1.204   1.929  11.162 -0.1204  0.1814  0.2511
  433MPD2    C4 6509   1.252   2.031  11.069 -0.0209  0.2843  0.2983
  433MPD2    C5 6510   1.226   2.033  10.939  0.4191  0.2983 -0.4318
  433MPD2     H 6511   1.102   1.742  11.159 -0.1913  0.3595 -0.5769
  433MPD2    H1 6512   1.290   2.122  11.113  1.1840  0.0416 -0.2389
  433MPD2    H2 6513   1.160   1.934  10.771  0.8692  0.9471  0.0289
  433MPD2    H3 6514   1.278   2.109  10.883 -2.7220  1.7496 -1.4017
  433MPD2     N 6515   1.216   1.939  11.299  0.2187 -0.0422 -0.7831
  433MPD2    H5 6516   1.184   1.855  11.346 -0.2396  1.4038  1.5352
  433MPD2    N1 6517   1.054   1.709  10.888  0.0913 -0.2145 -0.1036
  433MPD2    H7 6518   1.064   1.710  10.787  0.4382 -0.6741 -0.0729
  434TMC3    C1 6519   1.035   1.483  10.860 -0.1943  0.2409  0.3583
  434TMC3    C2 6520   1.080   1.365  10.922 -0.9508 -0.5895 -0.0715
  434TMC3    C3 6521   1.176   1.290  10.861 -0.3543 -0.4140 -0.3268
  434TMC3    C4 6522   1.056   1.503  10.728 -0.1448  0.0908  0.4539
  434TMC3    C5 6523   1.144   1.415  10.672 -0.1869  0.3522  0.1397
  434TMC3    C6 6524   1.213   1.318  10.733  0.4781  0.0295 -0.7707
  434TMC3     C 6525   1.017   1.597  10.955 -0.0850  1.2502 -0.2361
  434TMC3     O 6526   0.997   1.570  11.072 -0.1794 -0.2082 -0.3904
  434TMC3     H 6527   1.031   1.347  11.017  0.2337 -0.6874  0.5160
  434TMC3    H1 6528   0.995   1.567  10.664  0.1204  0.1540  0.2636
  434TMC3    H2 6529   1.276   1.256  10.670  0.7397  0.4519 -0.9270
  434TMC3    C7 6530   1.150   1.425  10.524  0.2267  0.5477 -0.1456
  434TMC3    C8 6531   1.260   1.224  10.957  0.4912  0.4055  0.3954
  434TMC3    O1 6532   1.229   1.503  10.476 -0.3570  0.2571 -0.4483
  434TMC3    O2 6533   1.214   1.206  11.070  0.2608  0.1945 -0.3511
  435MPD2     C 6534   3.412   2.111  15.218 -0.1584 -0.1770  0.1426
  435MPD2    C1 6535   3.391   2.161  15.344  0.1507  0.3965  0.1613
  435MPD2    C2 6536   3.481   2.131  15.438  0.1180  0.0460  0.3816
  435MPD2    C3 6537   3.586   2.048  15.414  0.0109  0.4156 -0.4549
  435MPD2    C4 6538   3.609   1.998  15.285  0.0980  0.3043 -0.2146
  435MPD2    C5 6539   3.514   2.023  15.187  0.6033  0.0954 -1.0972
  435MPD2     H 6540   3.476   2.178  15.536 -0.5573  1.3206 -0.2786
  435MPD2    H1 6541   3.694   1.934  15.262  0.3948  0.8412 -0.6366
  435MPD2    H2 6542   3.340   2.132  15.139 -0.9334 -0.4726  0.7762
  435MPD2    H3 6543   3.531   1.983  15.088 -3.1785  0.5139 -1.9033
  435MPD2     N 6544   3.648   2.003  15.530  0.6090 -0.4600  0.4599
  435MPD2    H5 6545   3.606   2.033  15.617 -0.2526  0.2774 -0.2136
  435MPD2    N1 6546   3.279   2.228  15.388  0.3700  0.5380 -0.3031
  435MPD2    H7 6547   3.269   2.242  15.489  1.7146  1.9718 -0.3656
  436TMC3    C1 6548   3.012   2.356  15.621  1.0763 -0.0239 -0.1385
  436TMC3    C2 6549   3.094   2.365  15.515 -0.5309  0.3847  0.2362
  436TMC3    C3 6550   3.061   2.286  15.404  0.6110  0.1608  0.4002
  436TMC3    C4 6551   2.899   2.277  15.622 -0.0459 -0.6583 -0.2143
  436TMC3    C5 6552   2.878   2.202  15.504 -0.1512 -0.2177  0.1463
  436TMC3    C6 6553   2.950   2.212  15.390 -0.2141  0.3449 -0.0821
  436TMC3     C 6554   3.057   2.423  15.742 -0.0719 -0.0591  1.1600
  436TMC3     O 6555   3.174   2.420  15.768  0.5303  0.2395 -0.3471
  436TMC3     H 6556   3.193   2.405  15.531  0.2617 -0.5156 -2.3364
  436TMC3    H1 6557   2.836   2.268  15.711  0.2299 -2.0030 -0.1587
  436TMC3    H2 6558   2.924   2.157  15.301 -1.4708 -1.2056  1.2395
  436TMC3    C7 6559   2.750   2.131  15.488 -0.4491 -0.0438 -0.6664
  436TMC3    C8 6560   3.163   2.241  15.312  0.2143  0.8275  0.3017
  436TMC3    O1 6561   2.721   2.064  15.587 -0.2328  0.4835 -0.2804
  436TMC3    O2 6562   3.139   2.204  15.197 -0.5341  0.6693  0.0171
  437TMC3    C1 6563   1.334   3.640  12.728  0.4781  0.0533 -0.7961
  437TMC3    C2 6564   1.250   3.749  12.748 -0.2457 -0.5317 -0.2153
  437TMC3    C3 6565   1.177   3.798  12.637  0.0397  0.3419 -0.1638
  437TMC3    C4 6566   1.362   3.588  12.604 -0.1591 -0.0269  0.0152
  437TMC3    C5 6567   1.291   3.643  12.498 -0.3750 -0.1419  0.4787
  437TMC3    C6 6568   1.201   3.750  12.511 -0.5013 -0.2038 -0.6233
  437TMC3     C 6569   1.329   3.544  12.837 -0.2280  0.1724 -0.2299
  437TMC3     O 6570   1.238   3.539  12.924  0.4838  0.0801  0.2829
  437TMC3     H 6571   1.219   3.774  12.849  1.9313  0.0259  0.3202
  437TMC3    H1 6572   1.420   3.497  12.590  0.8808  0.9637 -2.1265
  437TMC3    H2 6573   1.175   3.799  12.418 -1.9932  1.0141  0.4411
  437TMC3    C7 6574   1.359   3.638  12.366  0.4450  0.4934 -0.0984
  437TMC3    C8 6575   1.058   3.868  12.665 -0.3934 -0.0331  0.2672
  437TMC3    O1 6576   1.306   3.678  12.264  0.7466  0.3353  0.4829
  437TMC3    O2 6577   1.057   3.931  12.770 -0.2771  0.3673  0.0471
  438MPD2     C 6578   4.329   0.317  16.261 -0.2114  0.0437  0.0415
  438MPD2    C1 6579   4.421   0.243  16.332  0.2657 -0.3816 -0.4756
  438MPD2    C2 6580   4.413   0.233  16.474  0.5107 -0.1324  0.1532
  438MPD2    C3 6581   4.305   0.278  16.540  0.0019  0.7418 -0.4208
  438MPD2    C4 6582   4.213   0.353  16.467 -0.4722 -0.1441 -0.0587
  438MPD2    C5 6583   4.230   0.376  16.333 -0.2362 -0.3856 -0.2725
  438MPD2     H 6584   4.492   0.184  16.529  1.2332 -0.7209 -1.3967
  438MPD2    H1 6585   4.129   0.408  16.509 -1.4032 -0.2885 -1.7215
  438MPD2    H2 6586   4.326   0.317  16.153 -0.0288 -0.5175  0.0360
  438MPD2    H3 6587   4.160   0.426  16.267  0.9734  1.2609 -0.2947
  438MPD2     N 6588   4.289   0.269  16.682  0.2832 -0.0262  0.0160
  438MPD2    H5 6589   4.372   0.240  16.733  0.4985 -2.4494 -1.7213
  438MPD2    N1 6590   4.532   0.183  16.266 -0.3273 -0.3243  0.5579
  438MPD2    H7 6591   4.585   0.128  16.332  1.2615  0.7156  0.1616
  439TMC3    C1 6592   4.672   0.082  16.102 -0.4360 -0.9211 -0.2437
  439TMC3    C2 6593   4.702   0.083  15.967  0.4847 -0.4149 -0.4351
  439TMC3    C3 6594   0.096   0.051  15.933 -0.2325  0.6925  0.0493
  439TMC3    C4 6595   0.026   0.054  16.198  0.0178  0.6631 -0.0026
  439TMC3    C5 6596   0.147   0.015  16.154 -0.4999 -0.3838  0.3939
  439TMC3    C6 6597   0.178   0.000  16.026 -0.9052  0.4739 -0.2245
  439TMC3     C 6598   4.556   0.169  16.136  0.5626 -0.4308 -0.3117
  439TMC3     O 6599   4.498   0.226  16.041  0.1205  0.0234  0.9855
  439TMC3     H 6600   4.622   0.103  15.897  0.4904 -0.1684 -0.3730
  439TMC3    H1 6601   0.014   0.084  16.301 -0.0137  0.2869  0.1058
  439TMC3    H2 6602   0.273   4.696  15.995 -0.4533  1.0408  0.3667
  439TMC3    C7 6603   0.245   4.717  16.257 -0.1952 -0.3846 -1.2438
  439TMC3    C8 6604   0.133   0.036  15.793  0.4205  0.2171 -0.9490
  439TMC3    O1 6605   0.210   4.678  16.366  0.0322  0.3725  0.1577
  439TMC3    O2 6606   0.253   0.001  15.772 -0.3328  0.4156 -0.1799
  440MPD2     C 6607   3.040   0.214  14.870  0.1304  0.0242  0.5058
  440MPD2    C1 6608   3.108   0.319  14.929  0.3437 -0.0800  0.3564
  440MPD2    C2 6609   3.248   0.301  14.947 -0.2314 -0.5737 -1.4317
  440MPD2    C3 6610   3.315   0.187  14.904  0.4485  0.9011  0.2715
  440MPD2    C4 6611   3.243   0.086  14.858  0.4193  0.6416  0.6997
  440MPD2    C5 6612   3.108   0.094  14.840  0.7403  0.2452 -0.7286
  440MPD2     H 6613   3.300   0.383  14.995 -0.8396 -0.0209 -1.7173
  440MPD2    H1 6614   3.288   4.728  14.835  1.2705  0.3837  3.4434
  440MPD2    H2 6615   2.932   0.205  14.867  0.4249 -3.1263 -0.0651
  440MPD2    H3 6616   3.048   0.018  14.792  2.8474 -1.4908 -0.6096
  440MPD2     N 6617   3.451   0.166  14.928  0.1383 -0.6402  0.1466
  440MPD2    H5 6618   3.490   0.074  14.909  0.4268 -0.0248 -2.1576
  440MPD2    N1 6619   3.049   0.445  14.961  0.0579  0.0970  0.0168
  440MPD2    H7 6620   3.119   0.514  14.989 -0.1604 -0.0306  0.8572
  441TMC3    C1 6621   3.659   0.205  15.006 -0.1597 -0.5429 -0.3659
  441TMC3    C2 6622   3.759   0.292  15.004  0.6128 -0.9717 -0.4376
  441TMC3    C3 6623   3.857   0.281  15.106  0.1516  0.1762 -0.2178
  441TMC3    C4 6624   3.652   0.102  15.093  0.4133  0.6144 -1.1934
  441TMC3    C5 6625   3.743   0.102  15.197  0.4070 -0.1403 -0.7854
  441TMC3    C6 6626   3.848   0.187  15.203 -1.1353  0.5223  0.4365
  441TMC3     C 6627   3.540   0.262  14.954  0.1663  0.4651 -0.1279
  441TMC3     O 6628   3.532   0.386  14.959  0.2764  0.3269  0.3408
  441TMC3     H 6629   3.774   0.359  14.921  0.9495  0.5141  0.8217
  441TMC3    H1 6630   3.571   0.030  15.094  0.6912  0.2949 -1.5874
  441TMC3    H2 6631   3.907   0.183  15.294  0.4091  0.2120 -0.5867
  441TMC3    C7 6632   3.677   0.050  15.313  0.1207 -0.2581  0.2530
  441TMC3    C8 6633   3.905   0.410  15.156 -0.4582  0.9547  0.2719
  441TMC3    O1 6634   3.555   0.043  15.316  0.0895  0.2892 -0.2354
  441TMC3    O2 6635   4.017   0.418  15.205  0.3008 -0.1487 -0.1376
  442MPD2     C 6636   1.324   0.944  16.163  0.5694 -0.6744  0.1808
  442MPD2    C1 6637   1.206   0.883  16.209  0.8380  0.9421  0.0586
  442MPD2    C2 6638   1.142   0.796  16.125  0.0081  1.0768 -0.4162
  442MPD2    C3 6639   1.188   0.773  15.999  0.1010 -0.0388  0.4744
  442MPD2    C4 6640   1.297   0.837  15.952  0.5099  0.1536  0.2241
  442MPD2    C5 6641   1.368   0.914  16.037  0.0400 -0.2120 -0.2494
  442MPD2     H 6642   1.053   0.746  16.161 -1.9593  2.6526 -3.0962
  442MPD2    H1 6643   1.322   0.830  15.847 -1.1866 -0.1249 -0.1565
  442MPD2    H2 6644   1.378   1.021  16.216 -0.1854 -0.0757  0.0830
  442MPD2    H3 6645   1.458   0.956  15.993  0.8917 -0.4199  1.2963
  442MPD2     N 6646   1.130   0.680  15.911 -0.0535 -0.0623 -0.4130
  442MPD2    H5 6647   1.183   0.669  15.825  2.6573  1.9532  1.0026
  442MPD2    N1 6648   1.156   0.908  16.337  0.2092  0.3953  0.0752
  442MPD2    H7 6649   1.103   0.828  16.373 -0.4088  0.2318 -1.1907
  443TMC3    C1 6650   1.138   1.029  16.544  0.2982  0.2471  0.1449
  443TMC3    C2 6651   1.087   1.154  16.575  0.1396 -1.2670 -0.3570
  443TMC3    C3 6652   0.996   1.174  16.671  0.4609  0.0258 -0.3453
  443TMC3    C4 6653   1.098   0.919  16.619 -0.0051  0.6399 -0.1909
  443TMC3    C5 6654   1.004   0.941  16.716  0.8523  0.0251  0.2158
  443TMC3    C6 6655   0.957   1.064  16.748  0.4807  0.0923  0.3728
  443TMC3     C 6656   1.188   1.022  16.406  0.4240  0.5369  0.3116
  443TMC3     O 6657   1.235   1.130  16.361  0.0191  0.0753 -0.2241
  443TMC3     H 6658   1.118   1.242  16.520 -2.6980 -1.0736 -1.6171
  443TMC3    H1 6659   1.128   0.817  16.600  1.5824  0.4484  3.5090
  443TMC3    H2 6660   0.869   1.076  16.810 -0.2522  0.4738 -0.7281
  443TMC3    C7 6661   0.952   0.830  16.791  0.1253  0.6276 -0.2286
  443TMC3    C8 6662   0.882   1.237  16.624 -0.6895 -0.2241  0.3090
  443TMC3    O1 6663   0.955   0.721  16.739  0.3067 -0.5334 -0.1244
  443TMC3    O2 6664   0.807   1.288  16.705 -0.1200 -0.3098 -0.5339
  444MPD2     C 6665   1.484   0.765  16.819 -0.5116 -0.3256 -0.0188
  444MPD2    C1 6666   1.388   0.672  16.829  0.7861  0.2680 -0.9925
  444MPD2    C2 6667   1.396   0.566  16.741  0.4196  0.9893 -0.1815
  444MPD2    C3 6668   1.507   0.548  16.656 -0.2640 -0.4121 -0.6241
  444MPD2    C4 6669   1.607   0.647  16.649 -0.0035 -0.1868 -0.0731
  444MPD2    C5 6670   1.588   0.751  16.730  0.2196 -0.0851 -0.0799
  444MPD2     H 6671   1.318   0.492  16.742  0.2425  1.1855  0.5487
  444MPD2    H1 6672   1.702   0.626  16.601 -0.7616  1.1083 -2.1377
  444MPD2    H2 6673   1.472   0.856  16.876  0.0465 -1.0746  1.3010
  444MPD2    H3 6674   1.664   0.828  16.734  1.3272 -1.1510 -0.6817
  444MPD2     N 6675   1.491   0.437  16.567 -0.0870  0.4400 -0.4969
  444MPD2    H5 6676   1.417   0.368  16.582  0.6687 -0.1448  0.5734
  444MPD2    N1 6677   1.287   0.669  16.926 -0.4817  0.0021 -0.4119
  444MPD2    H7 6678   1.225   0.589  16.923 -1.1346  0.5227 -0.7625
  445TMC3    C1 6679   1.566   0.266  16.417  0.2330  0.3037 -0.1798
  445TMC3    C2 6680   1.446   0.203  16.422 -0.0537 -0.2554  0.3549
  445TMC3    C3 6681   1.446   0.071  16.391  0.1047  0.4470 -0.5522
  445TMC3    C4 6682   1.682   0.199  16.385 -0.4110  0.0171  0.2023
  445TMC3    C5 6683   1.675   0.071  16.346  0.7806 -0.2333  0.2958
  445TMC3    C6 6684   1.552   0.002  16.338  0.2547  0.2263 -0.3210
  445TMC3     C 6685   1.584   0.404  16.469 -0.7445  0.5659 -0.0479
  445TMC3     O 6686   1.689   0.462  16.443 -0.0778  0.4658  0.2911
  445TMC3     H 6687   1.354   0.256  16.443 -0.0492 -0.3585  0.6323
  445TMC3    H1 6688   1.773   0.249  16.414  0.2279 -0.0912 -1.5812
  445TMC3    H2 6689   1.536   4.639  16.303  0.2329  0.1950 -0.2197
  445TMC3    C7 6690   1.786   4.718  16.366 -0.0771  0.3530 -0.5441
  445TMC3    C8 6691   1.321   4.736  16.412  0.8208 -0.3058  0.8890
  445TMC3    O1 6692   1.775   4.612  16.306 -0.2661  0.7115 -0.0417
  445TMC3    O2 6693   1.315   4.625  16.368 -0.3905 -0.3450  0.3987
  446MPD2     C 6694   0.978   1.274  11.573  0.3393  0.0404  0.1127
  446MPD2    C1 6695   0.958   1.264  11.439 -0.7266 -0.0661  0.2284
  446MPD2    C2 6696   1.056   1.298  11.349  0.1605  0.2343 -0.5588
  446MPD2    C3 6697   1.181   1.346  11.389 -0.8683  0.0444  0.1574
  446MPD2    C4 6698   1.201   1.358  11.519  0.0369  0.5906  0.0449
  446MPD2    C5 6699   1.100   1.324  11.612  0.0233 -0.6521 -0.2658
  446MPD2     H 6700   1.052   1.288  11.241 -0.2730  0.1528 -0.5359
  446MPD2    H1 6701   1.302   1.381  11.553  0.1810  0.1882 -0.1026
  446MPD2    H2 6702   0.906   1.247  11.649 -0.4274 -0.4417 -0.7906
  446MPD2    H3 6703   1.109   1.336  11.720 -1.0868  1.3359 -0.3938
  446MPD2     N 6704   1.280   1.378  11.292 -0.1653 -0.2917  0.4531
  446MPD2    H5 6705   1.247   1.372  11.196  0.8313  2.7252 -0.1109
  446MPD2    N1 6706   0.839   1.205  11.380  0.1825  0.0823  0.0995
  446MPD2    H7 6707   0.843   1.179  11.282  2.4169  5.4645 -1.2913
  447TMC3    C1 6708   1.473   1.450  11.191  0.0554  0.2260 -0.1434
  447TMC3    C2 6709   1.415   1.506  11.080  0.1245  0.5270  0.2164
  447TMC3    C3 6710   1.495   1.545  10.980  0.4092 -0.3145  0.1018
  447TMC3    C4 6711   1.611   1.442  11.202 -0.2716 -0.5949  0.6455
  447TMC3    C5 6712   1.689   1.509  11.104  0.1103  0.6806  0.0569
  447TMC3    C6 6713   1.629   1.551  10.982 -0.3815 -0.1747  0.2695
  447TMC3     C 6714   1.403   1.426  11.314 -0.2559 -0.9279 -0.1196
  447TMC3     O 6715   1.469   1.413  11.417 -0.1138 -0.2712  0.4255
  447TMC3     H 6716   1.310   1.531  11.073 -0.0416  0.1247  1.2830
  447TMC3    H1 6717   1.657   1.380  11.278 -0.1302 -0.1762  0.9059
  447TMC3    H2 6718   1.687   1.581  10.895  1.5076 -1.2286  1.1678
  447TMC3    C7 6719   1.837   1.503  11.116 -0.0830  0.1070  0.3787
  447TMC3    C8 6720   1.445   1.627  10.869  0.1196  0.1429  0.6977
  447TMC3    O1 6721   1.893   1.516  11.012  0.3014 -0.1350 -0.2155
  447TMC3    O2 6722   1.349   1.583  10.809 -0.3705 -0.6754 -0.5343
  448TMC3    C1 6723   3.817   1.599  16.701  0.2469  1.0886  0.3142
  448TMC3    C2 6724   3.766   1.485  16.644  0.1455 -0.6322 -0.0748
  448TMC3    C3 6725   3.832   1.366  16.641 -0.0112  0.2860 -0.3157
  448TMC3    C4 6726   3.940   1.604  16.753  0.5511 -0.0731 -0.2018
  448TMC3    C5 6727   4.003   1.481  16.762  0.5618  0.3672 -0.0755
  448TMC3    C6 6728   3.958   1.363  16.708  0.2281  0.6092 -0.6349
  448TMC3     C 6729   3.716   1.696  16.738 -0.0822 -0.1048  0.2762
  448TMC3     O 6730   3.606   1.667  16.704  0.0812 -0.1852  0.3242
  448TMC3     H 6731   3.671   1.493  16.592  0.9188  0.8539 -1.2556
  448TMC3    H1 6732   3.980   1.684  16.814 -3.7777  0.4608  1.9440
  448TMC3    H2 6733   4.014   1.272  16.721 -0.5640  0.2868  0.4611
  448TMC3    C7 6734   4.142   1.492  16.789 -0.5724 -0.7046  0.1650
  448TMC3    C8 6735   3.825   1.276  16.531  0.2566  0.0034 -0.9235
  448TMC3    O1 6736   4.189   1.606  16.795  0.0865 -0.0318  0.3822
  448TMC3    O2 6737   3.858   1.163  16.562  0.1794  0.0679 -0.7539
  449MPD2     C 6738   0.900   4.299  13.742  0.0658  0.3531 -0.1242
  449MPD2    C1 6739   0.770   4.282  13.712  0.9908  0.6666  0.3526
  449MPD2    C2 6740   0.686   4.235  13.814 -0.0075 -0.2922 -0.1826
  449MPD2    C3 6741   0.730   4.213  13.946 -0.2706 -0.1269  0.2830
  449MPD2    C4 6742   0.862   4.248  13.975 -0.2992  0.3366 -0.2303
  449MPD2    C5 6743   0.944   4.290  13.875 -0.8057  0.1333  0.5019
  449MPD2     H 6744   0.580   4.227  13.792 -0.0108  0.4724 -0.4408
  449MPD2    H1 6745   0.906   4.248  14.074 -1.7049 -1.7551  0.3663
  449MPD2    H2 6746   0.966   4.323  13.659  0.4403  1.2655  0.4371
  449MPD2    H3 6747   1.044   4.317  13.908 -0.9274 -0.4494  1.3567
  449MPD2     N 6748   0.638   4.161  14.041  0.0246  0.2580 -0.1000
  449MPD2    H5 6749   0.552   4.118  14.010 -0.2344  0.7608 -0.0909
  449MPD2    N1 6750   0.715   4.309  13.581  0.3708  1.2488 -0.0577
  449MPD2    H7 6751   0.616   4.295  13.568  0.3417  1.4701 -0.0798
  450TMC3    C1 6752   0.684   4.353  13.356  0.4802  0.2448 -0.5564
  450TMC3    C2 6753   0.692   4.257  13.261 -0.0712  0.5936 -0.5116
  450TMC3    C3 6754   0.578   4.200  13.201  0.5031 -0.3908 -0.1952
  450TMC3    C4 6755   0.562   4.389  13.398  0.5467 -0.6821  0.0120
  450TMC3    C5 6756   0.451   4.327  13.355  0.5988 -0.0080 -0.6961
  450TMC3    C6 6757   0.453   4.240  13.241 -0.5727  0.7517 -1.2611
  450TMC3     C 6758   0.782   4.346  13.462 -0.1889  0.2284  0.1751
  450TMC3     O 6759   0.900   4.332  13.433 -0.2803  0.1003 -0.2430
  450TMC3     H 6760   0.793   4.237  13.227 -0.3574  1.0412 -1.6171
  450TMC3    H1 6761   0.559   4.455  13.485 -1.4698 -0.0147 -0.5663
  450TMC3    H2 6762   0.369   4.185  13.202 -1.0409  0.9468 -0.5186
  450TMC3    C7 6763   0.387   4.258  13.470  0.3191 -0.2803 -1.0523
  450TMC3    C8 6764   0.586   4.075  13.135 -0.2471  0.0654  0.2275
  450TMC3    O1 6765   0.457   4.253  13.572 -0.7653  0.0196  0.3270
  450TMC3    O2 6766   0.493   4.045  13.058  0.0280 -0.0393 -0.1081
  451MPD2     C 6767   1.745   2.979   1.002 -0.8634 -0.5167 -0.2434
  451MPD2    C1 6768   1.788   3.089   0.936 -0.2555  0.7719 -0.3618
  451MPD2    C2 6769   1.909   3.083   0.864  0.1597  0.5535 -0.3689
  451MPD2    C3 6770   1.983   2.968   0.868  0.0640  0.5926 -0.0141
  451MPD2    C4 6771   1.946   2.862   0.944  0.9600  0.5668  0.9259
  451MPD2    C5 6772   1.829   2.869   1.011  0.4583 -0.5813  0.3222
  451MPD2     H 6773   1.948   3.168   0.809  1.2842  0.2885  0.0261
  451MPD2    H1 6774   2.006   2.771   0.945  1.5059  0.9341  1.6453
  451MPD2    H2 6775   1.643   2.968   1.037 -0.0398 -0.0104  2.3054
  451MPD2    H3 6776   1.801   2.783   1.070  1.8438 -1.3696 -0.1702
  451MPD2     N 6777   2.111   2.958   0.812 -0.0200  0.2241  0.2505
  451MPD2    H5 6778   2.156   2.868   0.811  0.7090  0.5813  1.7456
  451MPD2    N1 6779   1.714   3.206   0.945 -0.1223  0.3856 -0.5088
  451MPD2    H7 6780   1.620   3.201   0.981 -0.1509  1.7379 -0.3900
  452TMC3    C1 6781   2.305   3.023   0.680 -0.0088  0.5992  0.1597
  452TMC3    C2 6782   2.279   2.938   0.572 -0.1681  0.0894  0.6726
  452TMC3    C3 6783   2.364   2.947   0.462  0.2191  0.0350 -0.4085
  452TMC3    C4 6784   2.397   3.128   0.658 -0.2483  0.7157  0.4557
  452TMC3    C5 6785   2.454   3.146   0.532  0.2502 -0.2812  0.4950
  452TMC3    C6 6786   2.448   3.050   0.437 -0.1563  0.4988 -0.2917
  452TMC3     C 6787   2.182   3.064   0.757  0.0532 -0.1748 -0.1123
  452TMC3     O 6788   2.163   3.185   0.757  0.6530 -0.7630  0.3839
  452TMC3     H 6789   2.199   2.867   0.588  1.9143 -1.7387  2.9628
  452TMC3    H1 6790   2.403   3.195   0.743  0.5204  1.4014 -0.1492
  452TMC3    H2 6791   2.503   3.066   0.345 -1.6670  1.1174 -1.0732
  452TMC3    C7 6792   2.453   3.285   0.489  0.6828  0.7266 -0.3528
  452TMC3    C8 6793   2.333   2.871   0.348 -0.4129 -0.3005 -0.0166
  452TMC3    O1 6794   2.512   3.303   0.383  0.2261  0.2780  0.1961
  452TMC3    O2 6795   2.430   2.844   0.274 -0.2052  0.0165  0.2300
  453TMC3    C1 6796   3.216   0.299  11.678  0.0315  0.2691  0.1304
  453TMC3    C2 6797   3.094   0.231  11.670 -0.4071 -0.1858 -0.1730
  453TMC3    C3 6798   3.065   0.189  11.545 -0.7215  0.1522 -0.3966
  453TMC3    C4 6799   3.277   0.358  11.573  0.3608 -0.2387 -0.8683
  453TMC3    C5 6800   3.234   0.319  11.447  0.2558 -0.3375 -0.4037
  453TMC3    C6 6801   3.127   0.233  11.429 -0.6693 -0.9752 -0.6735
  453TMC3     C 6802   3.260   0.336  11.809  1.0815 -0.4076  0.0945
  453TMC3     O 6803   3.378   0.367  11.826  0.5762 -0.1022  0.0956
  453TMC3     H 6804   3.051   0.174  11.751  2.2344 -1.1376  0.5601
  453TMC3    H1 6805   3.372   0.408  11.583  0.3115 -0.3575  0.1743
  453TMC3    H2 6806   3.095   0.196  11.332 -1.3156 -2.2721  0.0288
  453TMC3    C7 6807   3.316   0.326  11.329 -0.3433 -0.4408 -0.1072
  453TMC3    C8 6808   3.014   0.050  11.537  1.2088 -0.5836  0.3503
  453TMC3    O1 6809   3.313   0.230  11.249  0.3210  0.2954  0.8582
  453TMC3    O2 6810   2.947   0.007  11.632  0.0811  0.5716 -0.2143
  454MPD2     C 6811   2.105   0.162  16.166  0.3357 -0.1257  0.0652
  454MPD2    C1 6812   2.018   0.189  16.063  0.2460  0.5820 -0.3066
  454MPD2    C2 6813   1.943   0.305  16.064 -0.4948  0.0431  0.3576
  454MPD2    C3 6814   1.945   0.396  16.169 -0.5495 -0.8821  0.1665
  454MPD2    C4 6815   2.036   0.367  16.273 -0.7913  1.1748  0.6282
  454MPD2    C5 6816   2.120   0.252  16.269  0.5643 -0.7915 -0.2780
  454MPD2     H 6817   1.883   0.331  15.978  0.0904  1.0137  0.2339
  454MPD2    H1 6818   2.054   0.437  16.353 -1.9102  0.6673  1.3218
  454MPD2    H2 6819   2.170   0.075  16.178  0.5998  0.2328  1.2163
  454MPD2    H3 6820   2.191   0.235  16.349 -0.8953  0.6741  1.3297
  454MPD2     N 6821   1.879   0.524  16.176 -0.2960  0.3809 -0.8842
  454MPD2    H5 6822   1.883   0.577  16.263  2.0233 -0.3068 -0.5786
  454MPD2    N1 6823   2.012   0.105  15.945  0.1091 -0.0554  0.5930
  454MPD2    H7 6824   1.948   0.137  15.873  1.4835 -0.5722 -0.8678
  455TMC3    C1 6825   1.692   0.657  16.117  0.0991 -0.1833  0.2917
  455TMC3    C2 6826   1.729   0.759  16.208  1.2416 -1.0540 -0.3847
  455TMC3    C3 6827   1.629   0.790  16.295 -0.3937 -0.0085  0.3480
  455TMC3    C4 6828   1.571   0.597  16.104 -0.2398 -0.7467  0.2163
  455TMC3    C5 6829   1.475   0.628  16.198 -0.1700  0.0377 -0.0871
  455TMC3    C6 6830   1.509   0.723  16.297 -0.4810  0.2556  0.3838
  455TMC3     C 6831   1.796   0.573  16.070  0.0326  0.0262  0.2677
  455TMC3     O 6832   1.801   0.560  15.950  0.3631 -0.3331 -0.2250
  455TMC3     H 6833   1.833   0.780  16.230  0.5008  1.2038  0.8966
  455TMC3    H1 6834   1.552   0.529  16.022 -0.9370 -0.2205 -0.0616
  455TMC3    H2 6835   1.434   0.745  16.372 -0.9136  1.3299 -0.3643
  455TMC3    C7 6836   1.360   0.544  16.220 -0.2244  1.1236 -0.1899
  455TMC3    C8 6837   1.652   0.910  16.378 -0.1358  0.0080 -0.8703
  455TMC3    O1 6838   1.276   0.575  16.299 -0.3405  0.1547 -0.0715
  455TMC3    O2 6839   1.601   0.912  16.488 -0.1862  0.0112 -0.5773
  456MPD2     C 6840   4.619   0.751  15.421 -0.5678 -0.2039 -0.3287
  456MPD2    C1 6841   4.621   0.630  15.481  0.9760  0.5457  0.8400
  456MPD2    C2 6842   4.548   0.616  15.601 -0.6671  0.1227 -0.6478
  456MPD2    C3 6843   4.480   0.725  15.657 -0.4451  0.1153 -1.1548
  456MPD2    C4 6844   4.478   0.848  15.593  0.4656  0.2186  0.0970
  456MPD2    C5 6845   4.553   0.861  15.479  0.1667  0.1923  0.3861
  456MPD2     H 6846   4.549   0.522  15.653  1.4655  0.8065  0.5638
  456MPD2    H1 6847   4.430   0.937  15.631 -0.5340 -0.2229 -0.1408
  456MPD2    H2 6848   4.681   0.758  15.333 -0.9704  0.1763 -0.5813
  456MPD2    H3 6849   4.552   0.957  15.428  0.8123 -0.6736 -1.2631
  456MPD2     N 6850   4.420   0.707  15.783 -0.1814 -0.5736 -0.3608
  456MPD2    H5 6851   4.434   0.621  15.836  0.4128 -0.8354 -0.9530
  456MPD2    N1 6852   4.705   0.531  15.416 -0.0599 -0.6498  0.0979
  456MPD2    H7 6853   0.018   0.562  15.334  0.3675  2.6500  1.6026
  457TMC3    C1 6854   4.284   0.757  15.965  0.3291  0.3127  0.0204
  457TMC3    C2 6855   4.165   0.813  16.011 -0.3519  0.1082 -0.2269
  457TMC3    C3 6856   4.121   0.805  16.140 -0.5889  0.5268 -0.4772
  457TMC3    C4 6857   4.362   0.691  16.053  0.0930  0.2154 -0.3681
  457TMC3    C5 6858   4.328   0.691  16.185 -0.4240  0.3074 -0.1277
  457TMC3    C6 6859   4.206   0.743  16.228  0.1562 -0.2550  0.7759
  457TMC3     C 6860   4.319   0.789  15.832 -0.2604 -0.2589  0.8432
  457TMC3     O 6861   4.271   0.890  15.781 -0.5412  0.0919 -0.3324
  457TMC3     H 6862   4.095   0.845  15.934 -1.1092  1.3415  0.9744
  457TMC3    H1 6863   4.454   0.653  16.012 -0.4107  1.8350 -3.0017
  457TMC3    H2 6864   4.176   0.741  16.332  1.0770  1.4850  1.0837
  457TMC3    C7 6865   4.424   0.650  16.288 -0.1070  0.5894 -0.0620
  457TMC3    C8 6866   4.015   0.888  16.200  0.7508  0.8656 -0.1232
  457TMC3    O1 6867   4.387   0.653  16.407 -0.1349  0.3562  0.6367
  457TMC3    O2 6868   3.996   0.875  16.320 -0.1167 -0.2506  0.0301
  458MPD2     C 6869   1.811   3.685  12.126  0.2864 -0.1354 -0.3630
  458MPD2    C1 6870   1.828   3.693  12.261 -0.5976  0.7883  0.0765
  458MPD2    C2 6871   1.724   3.659  12.348  0.5799  0.2016  0.1966
  458MPD2    C3 6872   1.598   3.634  12.297 -0.4340 -0.6354 -0.9164
  458MPD2    C4 6873   1.592   3.609  12.159  0.5175  0.6433 -0.5816
  458MPD2    C5 6874   1.693   3.640  12.076 -0.7532  0.4699 -0.6334
  458MPD2     H 6875   1.740   3.661  12.456 -0.2474  2.0647  0.2827
  458MPD2    H1 6876   1.500   3.577  12.111  1.2057  0.3230 -1.6821
  458MPD2    H2 6877   1.890   3.706  12.054  0.8388 -0.9327  0.0058
  458MPD2    H3 6878   1.668   3.623  11.972 -0.9592 -2.0521 -0.1663
  458MPD2     N 6879   1.496   3.621  12.388  0.4493  0.2336  0.0668
  458MPD2    H5 6880   1.523   3.624  12.486  0.2075  1.4480  0.0964
  458MPD2    N1 6881   1.958   3.723  12.311  1.1703  0.7835  0.0844
  458MPD2    H7 6882   2.014   3.766  12.239 -0.4433  0.5934 -1.2934
  459TMC3    C1 6883   2.134   3.773  12.458  0.1074 -0.6988  0.0252
  459TMC3    C2 6884   2.217   3.807  12.354  0.0459  0.6798 -0.0527
  459TMC3    C3 6885   2.336   3.860  12.377  1.3272 -0.2197 -0.2667
  459TMC3    C4 6886   2.177   3.776  12.586 -0.8567 -0.5643  0.6739
  459TMC3    C5 6887   2.304   3.826  12.598  0.1784 -0.3221  0.1429
  459TMC3    C6 6888   2.388   3.871  12.500 -0.4378  0.4859 -0.2032
  459TMC3     C 6889   2.001   3.720  12.442 -0.5995  0.1509 -0.1219
  459TMC3     O 6890   1.954   3.674  12.543  0.3246 -0.3300  0.5227
  459TMC3     H 6891   2.173   3.836  12.260  0.0785 -3.0683 -1.2153
  459TMC3    H1 6892   2.129   3.738  12.675  1.2652  0.0402  2.0916
  459TMC3    H2 6893   2.493   3.886  12.523 -0.2748 -1.7175  0.4346
  459TMC3    C7 6894   2.354   3.837  12.735  0.4707  0.6369 -0.4046
  459TMC3    C8 6895   2.412   3.901  12.261 -0.8283  0.0540  0.2212
  459TMC3    O1 6896   2.429   3.927  12.757 -0.3245  0.0926 -0.1799
  459TMC3    O2 6897   2.373   3.854  12.151  0.2015  0.4098 -0.3227
  460MPD2     C 6898   1.591   1.926  10.724  0.4014 -0.2608  0.1047
  460MPD2    C1 6899   1.495   1.826  10.740 -0.2967 -0.3457  0.8081
  460MPD2    C2 6900   1.406   1.806  10.632 -0.4926  0.3335  0.4851
  460MPD2    C3 6901   1.406   1.897  10.526 -0.1118 -0.5772 -0.1260
  460MPD2    C4 6902   1.492   2.009  10.528  0.4090 -0.2798  0.0199
  460MPD2    C5 6903   1.584   2.019  10.628 -0.3165  0.2410  1.2495
  460MPD2     H 6904   1.328   1.731  10.627  0.4224 -0.5330 -0.6750
  460MPD2    H1 6905   1.491   2.086  10.452  2.1938 -0.1303  0.1468
  460MPD2    H2 6906   1.681   1.936  10.784  0.4357 -0.8849  0.1595
  460MPD2    H3 6907   1.642   2.110  10.631  0.6662 -0.4027  2.0844
  460MPD2     N 6908   1.309   1.880  10.428  0.1755 -0.0453  0.4367
  460MPD2    H5 6909   1.275   1.784  10.436 -2.3265  0.6690 -1.5317
  460MPD2    N1 6910   1.509   1.747  10.853  0.5584  0.3638  0.0145
  460MPD2    H7 6911   1.578   1.778  10.921  0.6435 -2.9975  1.4819
  461TMC3    C1 6912   1.209   1.894  10.219 -0.0945 -0.1827  0.0207
  461TMC3    C2 6913   1.144   1.776  10.247  0.0816  0.8675  1.0364
  461TMC3    C3 6914   1.105   1.711  10.132  0.4145  1.2327 -0.6320
  461TMC3    C4 6915   1.229   1.957  10.102  0.4779 -0.1998 -0.2835
  461TMC3    C5 6916   1.181   1.888   9.993  0.2131 -0.3237 -0.3591
  461TMC3    C6 6917   1.135   1.757  10.009  0.0394  0.0019 -0.6656
  461TMC3     C 6918   1.275   1.967  10.328  0.1850 -0.2272 -0.3086
  461TMC3     O 6919   1.308   2.085  10.312 -0.0934  0.0672  0.3305
  461TMC3     H 6920   1.115   1.736  10.343 -0.4273  0.1299  0.5721
  461TMC3    H1 6921   1.270   2.057  10.094 -0.7031  0.4357  1.7212
  461TMC3    H2 6922   1.084   1.721   9.920  0.8492 -3.8890  0.4351
  461TMC3    C7 6923   1.189   1.937   9.854 -0.2308  0.4994 -0.3191
  461TMC3    C8 6924   1.090   1.565  10.148  0.2283 -0.0241  0.1184
  461TMC3    O1 6925   1.130   1.880   9.760 -0.9081  0.4643 -0.0875
  461TMC3    O2 6926   1.018   1.531  10.241 -0.0991  0.2919 -0.0757
  462TMC3    C1 6927   1.459   3.694   0.159 -0.5492 -0.2051 -0.0134
  462TMC3    C2 6928   1.575   3.624   0.134  0.6800  0.0990  0.0251
  462TMC3    C3 6929   1.588   3.501   0.191 -0.2514  0.0482 -0.7492
  462TMC3    C4 6930   1.359   3.646   0.236  0.3279  0.8353 -0.6607
  462TMC3    C5 6931   1.377   3.524   0.301  0.0571  0.9736  0.2039
  462TMC3    C6 6932   1.499   3.460   0.295  0.1288  0.3260 -0.4138
  462TMC3     C 6933   1.433   3.817   0.094  0.1332 -0.1430 -0.3528
  462TMC3     O 6934   1.322   3.860   0.101 -0.2510 -0.1321 -0.3101
  462TMC3     H 6935   1.656   3.663   0.073  0.2447  0.9815  0.0140
  462TMC3    H1 6936   1.260   3.691   0.235 -0.3203 -0.5444  0.8507
  462TMC3    H2 6937   1.492   3.356   0.324  2.0727  1.1445  2.8598
  462TMC3    C7 6938   1.266   3.429   0.316  0.3961 -0.1193  0.4035
  462TMC3    C8 6939   1.716   3.435   0.171 -0.9052 -0.3529 -0.0505
  462TMC3    O1 6940   1.273   3.324   0.379  0.3654  0.3205  0.0207
  462TMC3    O2 6941   1.778   3.453   0.068 -0.2534  0.2617  0.2214
  463MPD2     C 6942   3.254   0.666   1.166 -0.2941  0.3548  0.0475
  463MPD2    C1 6943   3.224   0.773   1.251  0.3149  0.1436  0.1981
  463MPD2    C2 6944   3.327   0.821   1.329  0.4603 -0.6546  0.3244
  463MPD2    C3 6945   3.460   0.788   1.314  0.0619 -0.1706  0.6198
  463MPD2    C4 6946   3.486   0.675   1.236  0.6889  0.2616  0.6942
  463MPD2    C5 6947   3.384   0.614   1.163  0.9048  0.0050  0.0701
  463MPD2     H 6948   3.295   0.903   1.393  0.5580 -0.9620  0.7645
  463MPD2    H1 6949   3.589   0.645   1.220 -0.8401 -3.1028 -2.6648
  463MPD2    H2 6950   3.191   0.617   1.092 -0.0604  1.7087 -1.0565
  463MPD2    H3 6951   3.404   0.529   1.099  0.4362  0.4327 -0.6385
  463MPD2     N 6952   3.569   0.861   1.370  0.5610  0.0068  0.1150
  463MPD2    H5 6953   3.661   0.828   1.344  0.7413  1.4305 -1.0159
  463MPD2    N1 6954   3.094   0.830   1.259  0.5649 -0.1898  0.0003
  463MPD2    H7 6955   3.088   0.914   1.317 -1.1958 -0.8670  0.7943
  464TMC3    C1 6956   2.860   0.854   1.219 -0.4242 -0.3474  0.0199
  464TMC3    C2 6957   2.861   0.992   1.222 -0.1083  0.8263 -0.8804
  464TMC3    C3 6958   2.742   1.061   1.242  1.8046 -0.3979 -0.2196
  464TMC3    C4 6959   2.742   0.784   1.230 -0.3490  0.4095  0.6048
  464TMC3    C5 6960   2.631   0.859   1.256 -0.1123  0.0127  0.7716
  464TMC3    C6 6961   2.625   0.999   1.261 -0.0902  0.4666 -0.0795
  464TMC3     C 6962   2.976   0.767   1.206  0.1771 -0.4635  0.8778
  464TMC3     O 6963   2.964   0.655   1.154  0.2847  0.2124 -0.3507
  464TMC3     H 6964   2.951   1.048   1.197  1.1098 -0.9355 -0.4624
  464TMC3    H1 6965   2.730   0.678   1.214 -2.5377  0.4657  1.9560
  464TMC3    H2 6966   2.544   1.058   1.300  1.3209  0.1164  3.4175
  464TMC3    C7 6967   2.509   0.785   1.281 -0.5828  0.6356  0.2255
  464TMC3    C8 6968   2.743   1.201   1.271 -0.9033 -0.1652  0.8446
  464TMC3    O1 6969   2.516   0.666   1.293 -0.4018 -0.1872 -0.3773
  464TMC3    O2 6970   2.635   1.261   1.277  0.4202 -0.4310 -0.4469
  465MPD2     C 6971   3.403   4.555  16.626  0.4086  0.2790  0.1677
  465MPD2    C1 6972   3.288   4.610  16.680 -0.5218 -0.9078  0.4275
  465MPD2    C2 6973   3.210   4.691  16.601  0.1017  0.2070 -0.1412
  465MPD2    C3 6974   3.231   4.707  16.471 -0.3866 -0.4768 -0.4193
  465MPD2    C4 6975   3.333   4.639  16.413 -0.5618 -0.2463 -0.4803
  465MPD2    C5 6976   3.421   4.565  16.489  0.2336  0.4765 -0.1080
  465MPD2     H 6977   3.126   0.007  16.642 -1.5885 -1.4086 -1.4215
  465MPD2    H1 6978   3.361   4.637  16.308  3.6092  1.8502  0.5899
  465MPD2    H2 6979   3.483   4.502  16.678  1.2243  0.1555 -1.2162
  465MPD2    H3 6980   3.501   4.518  16.433 -0.2339 -1.1356  0.5726
  465MPD2     N 6981   3.131   0.046  16.401 -0.2671 -0.0379  0.0208
  465MPD2    H5 6982   3.050   0.085  16.449 -1.9046 -1.8460 -1.2590
  465MPD2    N1 6983   3.263   4.604  16.818  0.3089  0.2065  0.6689
  465MPD2    H7 6984   3.183   4.656  16.853 -0.4959  0.5996 -1.7205
  466TMC3    C1 6985   2.842   0.276  16.279  0.1717  0.5403  0.2149
  466TMC3    C2 6986   2.881   0.401  16.235 -0.3678 -0.1438  0.6530
  466TMC3    C3 6987   3.010   0.414  16.188 -0.3521  0.1402  0.1233
  466TMC3    C4 6988   2.928   0.167  16.292  0.6897 -0.4223  0.0334
  466TMC3    C5 6989   3.052   0.185  16.236  0.2225 -0.1380  0.0481
  466TMC3    C6 6990   3.097   0.303  16.181 -0.8225  0.4068  0.2734
  466TMC3     C 6991   2.724   0.265  16.360  0.2801 -0.4714  0.3029
  466TMC3     O 6992   2.717   0.164  16.436  0.1414  0.1771  0.2171
  466TMC3     H 6993   2.819   0.489  16.223 -1.2941 -0.5960  2.0989
  466TMC3    H1 6994   2.906   0.069  16.332  2.3490 -0.6597  0.3566
  466TMC3    H2 6995   3.203   0.317  16.162 -0.6511 -0.1891  0.7640
  466TMC3    C7 6996   3.155   0.094  16.275  0.4514  0.9664  0.6913
  466TMC3    C8 6997   3.066   0.539  16.136  0.3154  0.5391  0.0583
  466TMC3    O1 6998   3.253   0.076  16.208  0.7023 -0.5774 -0.0879
  466TMC3    O2 6999   3.165   0.529  16.063  0.0036 -0.2097 -0.5200
  467TMC3    C1 7000   3.922   3.055  13.150 -0.8776 -0.1945 -0.2448
  467TMC3    C2 7001   4.000   3.114  13.051  0.7743 -0.3241  0.3813
  467TMC3    C3 7002   3.966   3.248  13.023  0.7219  0.7095 -0.0828
  467TMC3    C4 7003   3.806   3.105  13.196 -0.3435 -0.0095 -0.2687
  467TMC3    C5 7004   3.771   3.233  13.153  0.0801 -0.6284  1.0450
  467TMC3    C6 7005   3.855   3.307  13.080  0.4741  0.4989  0.8207
  467TMC3     C 7006   3.990   2.956  13.232 -0.4295  0.5460 -0.3041
  467TMC3     O 7007   3.944   2.846  13.254  0.4045 -0.3916  0.0147
  467TMC3     H 7008   4.086   3.057  13.017  1.0991 -0.2994  1.1557
  467TMC3    H1 7009   3.749   3.055  13.274 -1.4395 -0.0625 -1.0967
  467TMC3    H2 7010   3.832   3.411  13.059 -1.1706  0.2209  1.2808
  467TMC3    C7 7011   3.660   3.299  13.208 -0.2737  0.6492 -0.0992
  467TMC3    C8 7012   4.077   3.347  12.994 -0.4220 -0.4973 -0.6918
  467TMC3    O1 7013   3.622   3.402  13.158 -0.0843  0.1046 -0.0032
  467TMC3    O2 7014   4.052   3.468  13.009 -0.3212  0.3892 -0.4340
  468MPD2     C 7015   3.183   1.861  11.025  0.8947 -0.0660 -0.0360
  468MPD2    C1 7016   3.313   1.877  11.068 -0.2292 -0.4370 -0.0260
  468MPD2    C2 7017   3.373   1.793  11.164  0.2023  0.3097  0.4099
  468MPD2    C3 7018   3.298   1.688  11.215 -0.0527 -0.9223 -0.2435
  468MPD2    C4 7019   3.164   1.679  11.187 -1.2914  0.3389  0.0552
  468MPD2    C5 7020   3.106   1.762  11.092  0.4335 -0.2626 -0.1545
  468MPD2     H 7021   3.472   1.819  11.197 -0.3734  2.1301  0.7185
  468MPD2    H1 7022   3.105   1.595  11.222 -0.0254 -0.8830 -0.7668
  468MPD2    H2 7023   3.147   1.924  10.945 -0.8406  0.2887  1.0161
  468MPD2    H3 7024   3.000   1.752  11.074 -0.4044  1.8981  3.4319
  468MPD2     N 7025   3.353   1.586  11.300 -0.2275 -0.2943  0.6028
  468MPD2    H5 7026   3.294   1.521  11.350 -1.2184 -0.7567 -1.1780
  468MPD2    N1 7027   3.390   1.991  11.044 -0.5543 -0.1807  0.6517
  468MPD2    H7 7028   3.465   2.013  11.108 -0.9630  1.0907  0.6965
  469TMC3    C1 7029   3.479   2.182  10.947 -0.1586  0.1364  0.0127
  469TMC3    C2 7030   3.600   2.164  11.005 -0.2793  0.1382  0.0215
  469TMC3    C3 7031   3.692   2.263  11.005 -0.1222 -0.4649 -0.1877
  469TMC3    C4 7032   3.449   2.305  10.890 -0.4998 -0.2364  0.3269
  469TMC3    C5 7033   3.544   2.408  10.899 -0.2430  0.2021  0.0665
  469TMC3    C6 7034   3.661   2.394  10.963  0.2951 -0.5385  0.0720
  469TMC3     C 7035   3.373   2.083  10.947  0.0453 -0.1601 -0.3491
  469TMC3     O 7036   3.286   2.100  10.866  0.5400 -0.0592  0.3449
  469TMC3     H 7037   3.628   2.065  11.041  0.1442  0.3818  0.3661
  469TMC3    H1 7038   3.349   2.326  10.855 -0.5657 -1.4168 -0.1715
  469TMC3    H2 7039   3.733   2.475  10.967 -1.5565  1.1296 -0.3798
  469TMC3    C7 7040   3.499   2.543  10.907  0.2428  0.2269  0.0739
  469TMC3    C8 7041   3.794   2.263  11.105 -0.0386 -0.2283 -0.4165
  469TMC3    O1 7042   3.588   2.622  10.885 -0.1219  0.6998  0.0764
  469TMC3    O2 7043   3.852   2.371  11.121  0.0779  0.5021  0.4008
  470TMC3    C1 7044   0.559   3.110   0.433  0.2684  0.3592 -0.1426
  470TMC3    C2 7045   0.600   3.231   0.390  0.2110 -0.7242 -0.0196
  470TMC3    C3 7046   0.694   3.301   0.458  0.2010  0.6641  0.1078
  470TMC3    C4 7047   0.615   3.048   0.543  0.7596 -0.1867 -0.3128
  470TMC3    C5 7048   0.711   3.121   0.609  0.3986 -0.2376  1.1423
  470TMC3    C6 7049   0.760   3.245   0.563  0.4803  0.3747 -0.2684
  470TMC3     C 7050   0.517   3.023   0.318 -0.0731  0.2013 -0.1171
  470TMC3     O 7051   0.522   3.070   0.205  0.5067  0.0489  0.4083
  470TMC3     H 7052   0.559   3.271   0.298  0.4267  0.9348  0.6151
  470TMC3    H1 7053   0.573   2.960   0.589  2.0351 -1.1566 -1.0155
  470TMC3    H2 7054   0.843   3.296   0.611  0.8638 -1.2668  0.8203
  470TMC3    C7 7055   0.741   3.092   0.749  0.0809 -0.1469  0.5005
  470TMC3    C8 7056   0.689   3.443   0.467  0.3237  0.4232  0.6283
  470TMC3    O1 7057   0.771   3.195   0.810 -0.1137 -0.2933 -0.3936
  470TMC3    O2 7058   0.765   3.494   0.548 -0.6486  0.0945  0.1295
  471MPD2     C 7059   1.220   4.218  16.643 -0.2868 -0.4650  0.3042
  471MPD2    C1 7060   1.356   4.199  16.623  0.3988 -0.2616 -0.3669
  471MPD2    C2 7061   1.443   4.205  16.729 -0.5760 -0.1402  0.3987
  471MPD2    C3 7062   1.402   4.249  16.852 -0.5212  0.3991 -0.6840
  471MPD2    C4 7063   1.271   4.281  16.870  0.2990 -0.5402 -0.6253
  471MPD2    C5 7064   1.183   4.258  16.771 -0.3105 -0.2717 -0.8530
  471MPD2     H 7065   1.549   4.185  16.711 -0.7390 -0.3863 -0.3011
  471MPD2    H1 7066   1.237   4.313  16.968  1.8400 -1.9282  0.3560
  471MPD2    H2 7067   1.151   4.198  16.562 -1.4461  2.5254  0.5911
  471MPD2    H3 7068   1.077   4.272  16.786 -0.3986 -0.2779 -1.4836
  471MPD2     N 7069   1.485   4.236  16.968 -0.1292 -0.1974 -0.8482
  471MPD2    H5 7070   1.444   4.254  17.058 -2.3704 -1.6906 -1.5725
  471MPD2    N1 7071   1.399   4.149  16.499 -0.5615 -0.5043  0.4015
  471MPD2    H7 7072   1.495   4.122  16.481 -0.7129 -1.8464  1.6914
  472TMC3    C1 7073   1.390   4.078  16.269 -0.8710  0.0725  0.0564
  472TMC3    C2 7074   1.352   4.111  16.143  0.2101  0.2854  0.0155
  472TMC3    C3 7075   1.369   4.022  16.037 -0.1961  0.2468  0.0266
  472TMC3    C4 7076   1.458   3.964  16.294  0.3207  0.4588 -0.4601
  472TMC3    C5 7077   1.471   3.874  16.192  0.9942  0.0275  0.2104
  472TMC3    C6 7078   1.438   3.906  16.062  0.1790 -0.2411  0.5019
  472TMC3     C 7079   1.335   4.163  16.374 -0.8945  0.1298  0.3515
  472TMC3     O 7080   1.244   4.238  16.346 -0.2459 -0.2624  0.2132
  472TMC3     H 7081   1.299   4.204  16.129  0.9741  0.6829 -0.2274
  472TMC3    H1 7082   1.489   3.938  16.395 -0.2151  0.6927 -0.2374
  472TMC3    H2 7083   1.466   3.843  15.978  0.4421  0.1173  0.3209
  472TMC3    C7 7084   1.488   3.733  16.218  0.4117  0.4586 -0.1998
  472TMC3    C8 7085   1.246   3.985  15.964 -0.0324 -0.2437  0.0845
  472TMC3    O1 7086   1.518   3.698  16.330 -0.0968  0.1448  0.0616
  472TMC3    O2 7087   1.232   4.050  15.857  0.0057 -0.1282 -0.0063
  473MPD2     C 7088   1.580   0.569  14.147  0.0831 -0.4151 -0.3262
  473MPD2    C1 7089   1.501   0.674  14.116 -0.0147  1.0691 -0.1071
  473MPD2    C2 7090   1.523   0.793  14.188 -0.1800  0.4907  0.2720
  473MPD2    C3 7091   1.625   0.799  14.288 -0.1221  0.3460  0.4724
  473MPD2    C4 7092   1.698   0.692  14.315 -0.2317  0.2807 -0.1398
  473MPD2    C5 7093   1.668   0.573  14.251  0.2540  0.5359  0.2639
  473MPD2     H 7094   1.467   0.884  14.170  0.7824  0.6297 -2.0460
  473MPD2    H1 7095   1.780   0.690  14.385  1.1198 -2.1250 -1.8172
  473MPD2    H2 7096   1.569   0.469  14.105  1.8755 -0.5411 -0.5110
  473MPD2    H3 7097   1.717   0.481  14.282 -1.3856 -0.2900  0.3724
  473MPD2     N 7098   1.661   0.922  14.356  0.0584  0.4963  0.2059
  473MPD2    H5 7099   1.738   0.910  14.421  0.5084  0.0802 -0.4032
  473MPD2    N1 7100   1.388   0.656  14.039  0.0910  0.0150 -0.2955
  473MPD2    H7 7101   1.324   0.732  14.021 -1.0646 -0.1782  2.8684
  474TMC3    C1 7102   1.645   1.134  14.448  0.3189 -0.0654  0.8857
  474TMC3    C2 7103   1.554   1.215  14.507 -0.1381 -0.4092  0.5193
  474TMC3    C3 7104   1.593   1.317  14.593 -0.0252  0.1224 -1.0326
  474TMC3    C4 7105   1.776   1.147  14.471  0.0319 -0.0216  0.2065
  474TMC3    C5 7106   1.816   1.245  14.559  0.3954  0.5709  0.2177
  474TMC3    C6 7107   1.726   1.333  14.619 -0.9960  0.1130  0.5508
  474TMC3     C 7108   1.594   1.037  14.357  0.2961  0.4430 -0.3620
  474TMC3     O 7109   1.479   1.045  14.315 -0.2499 -0.1010  0.1455
  474TMC3     H 7110   1.451   1.218  14.473 -0.8428 -0.8279  2.6006
  474TMC3    H1 7111   1.850   1.086  14.422 -0.5556  0.2629 -1.0423
  474TMC3    H2 7112   1.758   1.428  14.659 -1.7033  0.6844 -0.2293
  474TMC3    C7 7113   1.954   1.265  14.580 -0.8135  0.5816 -0.6743
  474TMC3    C8 7114   1.485   1.393  14.642 -0.1308 -0.0650 -1.2172
  474TMC3    O1 7115   2.027   1.210  14.502  0.6041 -0.6897 -0.4469
  474TMC3    O2 7116   1.373   1.344  14.655  0.2480 -0.3156 -0.6177
  475MPD2     C 7117   3.870   3.934  10.940  0.2542  0.5454  0.0207
  475MPD2    C1 7118   3.923   4.029  10.860  0.5701  0.0815 -0.5089
  475MPD2    C2 7119   3.883   4.032  10.721  0.2706  0.3167 -0.4718
  475MPD2    C3 7120   3.786   3.944  10.674  0.2406 -0.0767 -0.3421
  475MPD2    C4 7121   3.738   3.847  10.760  0.3184 -0.4750 -0.2197
  475MPD2    C5 7122   3.783   3.835  10.891 -0.2569 -0.3688 -0.6225
  475MPD2     H 7123   3.926   4.101  10.649 -0.3868  0.9973 -0.2186
  475MPD2    H1 7124   3.669   3.770  10.727  1.1759 -0.7456 -1.3793
  475MPD2    H2 7125   3.891   3.942  11.046  0.0115 -0.3694  0.1416
  475MPD2    H3 7126   3.750   3.759  10.960 -0.4175  0.6344  0.3995
  475MPD2     N 7127   3.753   3.963  10.539 -0.4946  0.2584 -0.0202
  475MPD2    H5 7128   3.802   4.038  10.490 -0.7764  1.1318  1.0193
  475MPD2    N1 7129   4.004   4.131  10.913  0.2943  0.0233  0.0378
  475MPD2    H7 7130   4.029   4.120  11.011 -1.5117  1.0562  0.6131
  476TMC3    C1 7131   4.157   4.317  10.923 -1.2020  0.8411 -0.1195
  476TMC3    C2 7132   4.255   4.380  10.861  0.8940 -0.4504 -0.6859
  476TMC3    C3 7133   4.312   4.478  10.946  0.4907  0.2366  0.4270
  476TMC3    C4 7134   4.103   4.358  11.045  0.5178  0.3489 -0.2211
  476TMC3    C5 7135   4.143   4.473  11.105 -0.5312  0.0532 -0.0767
  476TMC3    C6 7136   4.257   4.528  11.062 -0.2068  0.4018 -0.0725
  476TMC3     C 7137   4.081   4.227  10.840  0.0507  0.0727  0.4417
  476TMC3     O 7138   4.107   4.223  10.720 -0.1631  0.0251  0.3522
  476TMC3     H 7139   4.286   4.354  10.760 -0.9005  0.3397 -1.4343
  476TMC3    H1 7140   4.007   4.322  11.077  1.5408 -0.7948  1.5830
  476TMC3    H2 7141   4.308   4.607  11.117  3.0975 -0.6804 -1.5683
  476TMC3    C7 7142   4.093   4.513  11.235  0.0262  0.3674  0.2884
  476TMC3    C8 7143   4.417   4.569  10.899 -0.0459  0.3727  0.1091
  476TMC3    O1 7144   3.986   4.463  11.277 -0.4022  0.1359  0.1291
  476TMC3    O2 7145   4.428   4.683  10.953 -0.0496  0.0124 -0.2446
  477MPD2     C 7146   2.181   0.829  11.754  0.2491 -0.9026  0.4106
  477MPD2    C1 7147   2.057   0.821  11.816 -0.7430 -0.3085  0.2986
  477MPD2    C2 7148   2.046   0.749  11.933  0.4226 -0.6958 -0.3572
  477MPD2    C3 7149   2.152   0.677  11.983  0.8661  0.0533  0.3103
  477MPD2    C4 7150   2.267   0.679  11.900 -0.3422  0.5267 -0.5088
  477MPD2    C5 7151   2.282   0.759  11.795 -0.1958  0.7488 -0.5196
  477MPD2     H 7152   1.964   0.746  12.003  1.4419 -5.0873  0.6511
  477MPD2    H1 7153   2.348   0.610  11.920 -2.9281 -2.4480 -0.3074
  477MPD2    H2 7154   2.195   0.902  11.674 -0.7702  1.0027  1.9667
  477MPD2    H3 7155   2.380   0.765  11.749 -0.1242  3.1961 -0.0358
  477MPD2     N 7156   2.136   0.588  12.091 -0.1250 -0.5714  0.3662
  477MPD2    H5 7157   2.044   0.565  12.129 -0.6755 -0.0887 -0.6751
  477MPD2    N1 7158   1.951   0.897  11.773 -0.5578  0.2987 -0.2675
  477MPD2    H7 7159   1.957   0.941  11.681 -0.3397  1.1772  0.1692
  478TMC3    C1 7160   1.750   1.002  11.756 -0.7297 -0.4908  0.8538
  478TMC3    C2 7161   1.654   1.084  11.812  0.3028  0.2568  0.0089
  478TMC3    C3 7162   1.563   1.142  11.729  0.2979  0.2149  0.0762
  478TMC3    C4 7163   1.737   0.969  11.628  0.1019 -0.1408  0.2729
  478TMC3    C5 7164   1.652   1.035  11.549 -0.5508  0.2347 -0.3020
  478TMC3    C6 7165   1.565   1.125  11.596  0.2232  0.8101  0.4303
  478TMC3     C 7166   1.837   0.925  11.837 -0.1503 -1.0219  0.7795
  478TMC3     O 7167   1.811   0.923  11.960 -0.8253 -0.0232  0.9580
  478TMC3     H 7168   1.652   1.101  11.919 -1.4356  2.5608 -0.3851
  478TMC3    H1 7169   1.793   0.886  11.586  0.4976  0.3463 -0.1678
  478TMC3    H2 7170   1.515   1.196  11.530  0.6609  1.6710  1.0358
  478TMC3    C7 7171   1.698   1.047  11.411 -0.2596  0.0185 -0.7781
  478TMC3    C8 7172   1.514   1.270  11.778 -0.4207  0.0952  0.2115
  478TMC3    O1 7173   1.808   1.006  11.386 -0.1740  0.1235  0.1695
  478TMC3    O2 7174   1.541   1.351  11.691  0.9284  1.0954 -0.2822
  479MPD2     C 7175   0.972   3.018  15.224 -0.5129 -0.2524 -0.6413
  479MPD2    C1 7176   0.924   3.034  15.350 -0.0476  0.4901  0.2391
  479MPD2    C2 7177   0.995   3.114  15.445  0.1941  0.0643  0.0217
  479MPD2    C3 7178   1.099   3.187  15.399  0.1842 -0.2659 -0.0811
  479MPD2    C4 7179   1.159   3.157  15.280 -0.0963  0.6418  0.0597
  479MPD2    C5 7180   1.093   3.077  15.194  0.3650 -0.0380 -0.0988
  479MPD2     H 7181   0.962   3.121  15.548  2.0254  3.2301  0.3711
  479MPD2    H1 7182   1.258   3.197  15.260 -0.5090  1.8949  0.4943
  479MPD2    H2 7183   0.923   2.953  15.152  1.8397 -0.7087 -1.8226
  479MPD2    H3 7184   1.139   3.051  15.099  0.0018  1.9610 -0.8217
  479MPD2     N 7185   1.158   3.278  15.485 -0.2913  0.5273 -0.2337
  479MPD2    H5 7186   1.248   3.308  15.452  0.2075 -0.3292  0.3387
  479MPD2    N1 7187   0.802   2.972  15.376 -0.0841  0.1025 -0.2636
  479MPD2    H7 7188   0.749   2.929  15.300 -0.1712 -0.9525  0.4010
  480TMC3    C1 7189   0.829   3.282  15.779 -0.6086 -0.7333 -0.1031
  480TMC3    C2 7190   0.743   3.280  15.669  0.1232 -0.1291  0.5246
  480TMC3    C3 7191   0.778   3.323  15.545  0.1642 -0.2459 -0.2217
  480TMC3    C4 7192   0.955   3.334  15.769  0.2336  0.1526 -0.0155
  480TMC3    C5 7193   0.989   3.365  15.641 -0.2995  0.2645  0.6086
  480TMC3    C6 7194   0.898   3.380  15.535 -0.1475 -0.1814  0.0431
  480TMC3     C 7195   0.823   3.181  15.894 -0.2653 -0.3359  0.5608
  480TMC3     O 7196   0.928   3.140  15.935  0.3766 -0.6183 -0.1831
  480TMC3     H 7197   0.647   3.231  15.677  0.3860 -0.5101  1.2968
  480TMC3    H1 7198   1.023   3.326  15.853  1.3560  1.1077 -0.8376
  480TMC3    H2 7199   0.920   3.424  15.439 -0.5381  1.8774  0.8871
  480TMC3    C7 7200   1.125   3.328  15.607 -0.1272 -0.2742 -0.3207
  480TMC3    C8 7201   0.689   3.297  15.431 -0.4169  0.1202 -0.4938
  480TMC3    O1 7202   1.209   3.377  15.682  0.2524 -0.3376  0.1933
  480TMC3    O2 7203   0.583   3.244  15.463 -0.0814  0.1200  0.1520
  481MPD2     C 7204   2.538   2.570  14.196  0.5189 -0.2785 -0.7472
  481MPD2    C1 7205   2.460   2.502  14.291 -0.0789 -0.2788 -0.3892
  481MPD2    C2 7206   2.510   2.478  14.422  0.0167  0.7264 -0.1699
  481MPD2    C3 7207   2.636   2.525  14.457 -0.5447 -0.3740 -0.3583
  481MPD2    C4 7208   2.701   2.603  14.362  0.4062  0.0189 -0.1589
  481MPD2    C5 7209   2.656   2.622  14.231  0.2417 -0.1123 -0.1682
  481MPD2     H 7210   2.443   2.427  14.489 -0.4419  1.9249  0.2795
  481MPD2    H1 7211   2.797   2.645  14.391 -1.1078  2.1537  1.7028
  481MPD2    H2 7212   2.508   2.596  14.096 -2.8776  0.9535  0.6045
  481MPD2    H3 7213   2.715   2.686  14.166 -0.2551 -1.0419 -1.5403
  481MPD2     N 7214   2.692   2.505  14.584 -0.4982 -0.6770  0.0373
  481MPD2    H5 7215   2.789   2.533  14.595 -1.4692  3.0758 -1.0638
  481MPD2    N1 7216   2.332   2.456  14.240  0.3857 -0.0513  0.4238
  481MPD2    H7 7217   2.316   2.470  14.141 -4.9596 -0.2253  1.2303
  482TMC3    C1 7218   2.133   2.358  14.224 -0.4944  0.1624  1.1532
  482TMC3    C2 7219   2.105   2.223  14.210  0.5101  0.2446 -0.4656
  482TMC3    C3 7220   2.048   2.175  14.090 -0.5541  0.2715  0.0793
  482TMC3    C4 7221   2.090   2.439  14.130 -0.3940 -0.0240  0.5722
  482TMC3    C5 7222   2.033   2.390  14.015 -0.8397  0.3347 -0.2883
  482TMC3    C6 7223   2.012   2.256  13.993  0.6162  0.2946  0.2602
  482TMC3     C 7224   2.244   2.387  14.311  0.4169 -0.3128  0.4750
  482TMC3     O 7225   2.251   2.343  14.425  0.0171  0.2123  0.3586
  482TMC3     H 7226   2.137   2.157  14.290 -0.7631 -0.8500 -0.8648
  482TMC3    H1 7227   2.108   2.545  14.141 -2.5598  0.1609  2.1395
  482TMC3    H2 7228   1.943   2.219  13.918  0.8793  0.5953 -0.1296
  482TMC3    C7 7229   1.986   2.479  13.922 -0.3022  0.3345  0.2969
  482TMC3    C8 7230   1.998   2.037  14.099  0.6693 -0.2209  0.0094
  482TMC3    O1 7231   1.961   2.593  13.960 -0.1976 -0.4044  0.0974
  482TMC3    O2 7232   1.985   1.990  14.209  0.3094  0.1511 -0.0987
  483TMC3    C1 7233   0.276   1.825   0.420 -0.4742  0.7958  0.3295
  483TMC3    C2 7234   0.329   1.946   0.422  0.2254  0.1034  1.1225
  483TMC3    C3 7235   0.314   2.030   0.530  0.0979  0.5552 -0.3448
  483TMC3    C4 7236   0.236   1.760   0.539 -0.0937  0.9917  0.1543
  483TMC3    C5 7237   0.242   1.842   0.651  0.5557  0.0389  0.7649
  483TMC3    C6 7238   0.277   1.979   0.652  0.7647  0.2393  0.5003
  483TMC3     C 7239   0.289   1.752   0.299  0.6211 -0.1061  0.4899
  483TMC3     O 7240   0.291   1.816   0.196  0.4320 -0.2370  0.0851
  483TMC3     H 7241   0.356   1.993   0.328 -0.3440 -0.5551  0.6320
  483TMC3    H1 7242   0.217   1.653   0.541  0.1589  0.9946  2.7739
  483TMC3    H2 7243   0.251   2.045   0.734 -0.7369 -1.4211  1.3397
  483TMC3    C7 7244   0.293   1.778   0.766  0.7020 -0.0297 -0.2369
  483TMC3    C8 7245   0.374   2.160   0.517  0.1506 -0.2400  0.0005
  483TMC3    O1 7246   0.346   1.665   0.751 -0.3454  0.3153  0.7893
  483TMC3    O2 7247   0.440   2.182   0.413 -0.5350 -0.6148 -0.1924
  484MPD2     C 7248   2.600   3.999  12.052 -0.0973  0.1190 -0.3122
  484MPD2    C1 7249   2.603   4.039  12.187  0.1441 -0.0180  0.8301
  484MPD2    C2 7250   2.684   4.148  12.227 -0.5781  0.4574  0.4248
  484MPD2    C3 7251   2.758   4.216  12.131  0.0892 -1.1390 -0.6456
  484MPD2    C4 7252   2.740   4.179  12.002 -0.2061  0.3696 -0.0292
  484MPD2    C5 7253   2.671   4.072  11.961 -0.2839 -0.1633  0.3603
  484MPD2     H 7254   2.686   4.181  12.330 -1.9464 -0.4245  0.7335
  484MPD2    H1 7255   2.789   4.225  11.917  4.0286 -1.8742  1.2362
  484MPD2    H2 7256   2.540   3.919  12.011  0.3569 -0.7819  0.7527
  484MPD2    H3 7257   2.660   4.048  11.856 -0.6482 -0.1746  0.3994
  484MPD2     N 7258   2.847   4.322  12.155 -0.4954  0.4783 -0.5310
  484MPD2    H5 7259   2.892   4.370  12.078 -0.2303  1.2797  0.1264
  484MPD2    N1 7260   2.515   3.987  12.287  0.5854 -0.1477 -0.4753
  484MPD2    H7 7261   2.530   4.023  12.381  1.2404  0.1658 -0.6995
  485TMC3    C1 7262   2.959   4.497  12.260 -0.7747 -0.0002  0.1796
  485TMC3    C2 7263   3.065   4.493  12.348  0.1562 -0.5870 -0.1036
  485TMC3    C3 7264   3.164   4.583  12.335 -0.4403 -0.8127  0.0177
  485TMC3    C4 7265   2.961   4.573  12.146 -0.1682  0.5823  0.6438
  485TMC3    C5 7266   3.058   4.669  12.140  0.0297 -0.5554 -0.2941
  485TMC3    C6 7267   3.157   4.679  12.236  0.5871  0.2075 -0.4519
  485TMC3     C 7268   2.872   4.381  12.273 -0.7400 -0.4408  0.5260
  485TMC3     O 7269   2.840   4.358  12.389 -0.1468 -0.1078  0.0549
  485TMC3     H 7270   3.070   4.408  12.415  0.8869  0.1661  0.7957
  485TMC3    H1 7271   2.885   4.569  12.068 -0.6587 -2.1129  1.2607
  485TMC3    H2 7272   3.228   0.022  12.235  0.6233  0.2052  1.8657
  485TMC3    C7 7273   3.106   4.694  12.010  0.9943 -0.2069  0.0815
  485TMC3    C8 7274   3.304   4.547  12.353 -0.1404 -0.0242 -0.2494
  485TMC3    O1 7275   3.023   4.701  11.922 -0.1087  0.2997  0.6980
  485TMC3    O2 7276   3.377   4.593  12.267  0.8354 -0.5303 -0.5162
  486MPD2     C 7277   0.735   2.902  12.860 -1.0494 -0.3577  0.4217
  486MPD2    C1 7278   0.668   2.897  12.735  0.0114 -0.0210 -0.6730
  486MPD2    C2 7279   0.610   3.010  12.681 -0.9730 -0.6729  0.1082
  486MPD2    C3 7280   0.617   3.127  12.757 -1.3440  0.1720  0.4668
  486MPD2    C4 7281   0.682   3.132  12.880  0.4026 -0.7958 -0.0054
  486MPD2    C5 7282   0.747   3.022  12.927  0.2395  0.1947  0.2664
  486MPD2     H 7283   0.566   3.010  12.582 -1.4786 -0.0047  0.3262
  486MPD2    H1 7284   0.701   3.221  12.939  2.1521 -2.4354  1.9267
  486MPD2    H2 7285   0.797   2.817  12.882 -1.7591 -0.9765  0.0324
  486MPD2    H3 7286   0.818   3.027  13.009 -0.2506 -1.0543  0.7653
  486MPD2     N 7287   0.549   3.235  12.701  0.1102 -0.1439 -0.7983
  486MPD2    H5 7288   0.504   3.218  12.612  1.6139  0.4579 -1.6710
  486MPD2    N1 7289   0.666   2.769  12.669  0.1620 -0.9078 -0.2048
  486MPD2    H7 7290   0.698   2.687  12.720 -1.7566 -0.5482  1.5559
  487TMC3    C1 7291   0.599   2.606  12.513 -0.3506  0.1880  0.9026
  487TMC3    C2 7292   0.465   2.578  12.493  0.0001 -0.2390  0.4247
  487TMC3    C3 7293   0.414   2.472  12.565 -0.2157 -0.0732  0.8626
  487TMC3    C4 7294   0.674   2.532  12.599 -0.5345  0.5392  0.0006
  487TMC3    C5 7295   0.614   2.425  12.667 -0.4206 -0.0317  0.2108
  487TMC3    C6 7296   0.489   2.383  12.634  0.5889 -0.1288 -0.4184
  487TMC3     C 7297   0.611   2.749  12.538 -0.5325 -0.2100  0.2335
  487TMC3     O 7298   0.554   2.820  12.461  0.5651 -0.2445  0.0759
  487TMC3     H 7299   0.405   2.657  12.450  0.5564 -0.8212 -1.4303
  487TMC3    H1 7300   0.777   2.558  12.618 -0.9041  0.3289  2.2672
  487TMC3    H2 7301   0.447   2.301  12.691  0.1230  0.2139 -0.2724
  487TMC3    C7 7302   0.614   2.454  12.806  0.3861  0.0343 -0.0127
  487TMC3    C8 7303   0.276   2.476  12.606  0.9344  0.2526 -0.1425
  487TMC3    O1 7304   0.670   2.552  12.846 -0.2213 -0.2739  0.0986
  487TMC3    O2 7305   0.249   2.435  12.718  0.4550  0.1231  0.3389
  488MPD2     C 7306   0.228   0.440  16.099 -0.8521  1.0459 -0.1363
  488MPD2    C1 7307   0.354   0.483  16.143 -0.6270 -0.1619  0.0501
  488MPD2    C2 7308   0.405   0.441  16.269  0.7478  0.0071  0.0609
  488MPD2    C3 7309   0.319   0.365  16.345 -0.3524  0.4966  0.2916
  488MPD2    C4 7310   0.192   0.343  16.311 -0.2520 -0.0072 -0.0964
  488MPD2    C5 7311   0.149   0.371  16.183 -0.1130 -0.5363 -0.7346
  488MPD2     H 7312   0.504   0.465  16.305  0.0862  1.7621  0.7499
  488MPD2    H1 7313   0.126   0.289  16.379 -0.9475 -2.2259 -2.5528
  488MPD2    H2 7314   0.180   0.454  16.003  0.4858  1.1446 -0.7887
  488MPD2    H3 7315   0.049   0.341  16.152  0.7365 -1.2803 -2.7145
  488MPD2     N 7316   0.377   0.321  16.469 -0.4653 -0.0026  0.6334
  488MPD2    H5 7317   0.476   0.340  16.482 -0.0677 -2.6855  1.4941
  488MPD2    N1 7318   0.422   0.592  16.071  0.5020  0.0880 -0.3610
  488MPD2    H7 7319   0.504   0.633  16.115  0.0976  0.4247  0.0943
  489TMC3    C1 7320   0.403   0.225  16.674  0.0774 -0.3011 -0.3394
  489TMC3    C2 7321   0.482   0.328  16.714  0.7199  0.1612  0.0530
  489TMC3    C3 7322   0.521   0.332  16.845 -0.1887  0.5159  0.3289
  489TMC3    C4 7323   0.368   0.119  16.754 -0.3842 -0.4338 -0.2217
  489TMC3    C5 7324   0.414   0.122  16.884  0.4928  0.4410  0.1863
  489TMC3    C6 7325   0.494   0.222  16.931 -0.4654 -0.8179  0.7246
  489TMC3     C 7326   0.321   0.235  16.558 -0.2547 -0.1591  0.0844
  489TMC3     O 7327   0.205   0.195  16.571  0.0632 -0.3703  0.2711
  489TMC3     H 7328   0.494   0.418  16.655 -1.0410  0.0022 -0.5585
  489TMC3    H1 7329   0.298   0.044  16.719 -0.5498 -0.9028  1.1173
  489TMC3    H2 7330   0.535   0.224  17.031  1.7770 -5.2529 -0.1232
  489TMC3    C7 7331   0.367   0.027  16.987 -0.5755 -0.3602 -0.6805
  489TMC3    C8 7332   0.617   0.436  16.876 -0.3520  0.3223  0.1550
  489TMC3    O1 7333   0.385   0.055  17.104 -0.4905  0.3107  0.1499
  489TMC3    O2 7334   0.672   0.474  16.775 -0.9692  0.1023 -0.1588
  490MPD2     C 7335   1.251   0.174  17.130  0.6264 -0.3945 -0.1343
  490MPD2    C1 7336   1.262   0.108  17.252  0.4857 -0.8049  0.0460
  490MPD2    C2 7337   1.349   0.161  17.347  0.0552  0.1596  0.0266
  490MPD2    C3 7338   1.433   0.268  17.322  0.0379 -0.0782  0.0240
  490MPD2    C4 7339   1.428   0.324  17.193  1.1620 -0.0085 -0.6071
  490MPD2    C5 7340   1.328   0.287  17.107  0.4100  0.6381 -0.2792
  490MPD2     H 7341   1.361   0.108  17.441 -0.7777  1.4884  0.8787
  490MPD2    H1 7342   1.488   0.408  17.164  2.3351 -0.4436  0.5618
  490MPD2    H2 7343   1.187   0.136  17.051 -1.6564  1.6061  0.7452
  490MPD2    H3 7344   1.315   0.354  17.023  1.7165  3.0230  1.4123
  490MPD2     N 7345   1.540   0.319  17.406  0.8396 -0.4965 -0.0251
  490MPD2    H5 7346   1.605   0.382  17.360  1.6923 -1.1693  0.2754
  490MPD2    N1 7347   1.174   0.001  17.280 -0.0039  0.1497  0.1762
  490MPD2    H7 7348   1.164   4.719  17.379  1.7038 -1.5730 -0.0031
  491TMC3    C1 7349   1.026   4.560  17.251  0.0786 -0.5268 -0.3008
  491TMC3    C2 7350   1.019   4.549  17.388  0.7013 -0.0897  0.1082
  491TMC3    C3 7351   0.991   4.424  17.430 -0.0681  0.6050 -0.3149
  491TMC3    C4 7352   1.000   4.460  17.159  0.5853 -0.0267  0.0908
  491TMC3    C5 7353   0.978   4.336  17.214  0.1650  0.0826  0.1137
  491TMC3    C6 7354   0.968   4.315  17.353  0.5729 -0.4723  0.6121
  491TMC3     C 7355   1.098   4.668  17.190 -0.3933 -0.4990 -0.5278
  491TMC3     O 7356   1.112   4.675  17.065 -0.1326  0.4247  0.2244
  491TMC3     H 7357   1.045   4.623  17.462 -0.3084 -0.3835  0.7511
  491TMC3    H1 7358   1.022   4.465  17.053 -0.5406 -1.2257 -0.1981
  491TMC3    H2 7359   0.942   4.217  17.393  0.0456 -0.7048 -0.2866
  491TMC3    C7 7360   0.981   4.225  17.117  0.0464  0.3150 -0.7520
  491TMC3    C8 7361   0.972   4.414  17.574  0.4909  1.1344 -0.2017
  491TMC3    O1 7362   0.922   4.250  17.016  0.2554 -0.2246  0.1383
  491TMC3    O2 7363   0.950   4.517  17.636  0.3061 -0.0978 -0.3038
  492MPD2     C 7364   1.400   4.249  11.895 -0.1873  0.4854 -0.5049
  492MPD2    C1 7365   1.352   4.168  11.796  0.1575  0.0436  0.1139
  492MPD2    C2 7366   1.264   4.063  11.830  0.2375  0.1792 -0.2491
  492MPD2    C3 7367   1.211   4.050  11.958  0.0025  0.0538 -0.0639
  492MPD2    C4 7368   1.259   4.138  12.055 -0.0747 -0.1048 -0.3762
  492MPD2    C5 7369   1.339   4.241  12.020  0.1456 -0.2417  0.1744
  492MPD2     H 7370   1.217   4.002  11.754  0.2287 -1.3884  1.0019
  492MPD2    H1 7371   1.214   4.136  12.154  1.6522 -1.9942  0.3601
  492MPD2    H2 7372   1.476   4.325  11.887 -0.3339  0.8104  1.1542
  492MPD2    H3 7373   1.383   4.311  12.091 -2.2099  1.0664  0.3684
  492MPD2     N 7374   1.128   3.940  11.999 -0.3487  0.1274  0.3482
  492MPD2    H5 7375   1.095   3.944  12.095 -0.2853 -0.8879  0.4069
  492MPD2    N1 7376   1.408   4.184  11.667 -0.0464  0.2813 -0.4702
  492MPD2    H7 7377   1.497   4.233  11.660  1.1448 -1.9068 -0.4941
  493TMC3    C1 7378   1.432   4.162  11.434  0.3117  0.3619 -0.4486
  493TMC3    C2 7379   1.539   4.243  11.445 -0.6552 -0.9462 -0.2320
  493TMC3    C3 7380   1.589   4.301  11.334  0.1855 -0.1085  0.3362
  493TMC3    C4 7381   1.383   4.129  11.310  0.1578  0.0463 -0.0860
  493TMC3    C5 7382   1.431   4.185  11.199  0.7530 -0.1727  0.0230
  493TMC3    C6 7383   1.540   4.267  11.204  0.0633  0.3024  0.7639
  493TMC3     C 7384   1.353   4.133  11.551 -0.2323 -0.5416 -0.0128
  493TMC3     O 7385   1.254   4.058  11.534 -0.7046 -0.5190 -0.2282
  493TMC3     H 7386   1.587   4.261  11.540 -0.1634  0.0540 -0.6736
  493TMC3    H1 7387   1.290   4.073  11.300 -1.0350  1.7445  1.5387
  493TMC3    H2 7388   1.580   4.299  11.108 -0.3381 -2.6417 -0.3832
  493TMC3    C7 7389   1.358   4.169  11.077 -1.0917  0.9605  0.0575
  493TMC3    C8 7390   1.709   4.376  11.347  0.3215 -0.5308  0.4969
  493TMC3    O1 7391   1.335   4.271  11.015 -0.1535  0.1525 -0.0316
  493TMC3    O2 7392   1.749   4.377  11.465 -0.2897  0.2062 -0.0448
  494TMC3    C1 7393   2.212   1.820   0.399  0.3156  0.2302  0.9993
  494TMC3    C2 7394   2.206   1.690   0.431  0.3386  0.1554  0.4871
  494TMC3    C3 7395   2.214   1.597   0.335  0.2855  0.0316  0.0348
  494TMC3    C4 7396   2.206   1.861   0.272  0.4356  0.5887 -0.0691
  494TMC3    C5 7397   2.201   1.764   0.176 -0.4296  0.1734  0.4594
  494TMC3    C6 7398   2.209   1.627   0.204  0.6674  0.6333 -0.4069
  494TMC3     C 7399   2.156   1.919   0.495  0.5248  0.4794 -0.6782
  494TMC3     O 7400   2.078   2.004   0.453  0.7157  0.3835  0.4120
  494TMC3     H 7401   2.232   1.653   0.529 -0.8154 -0.5433  0.5210
  494TMC3    H1 7402   2.198   1.967   0.255 -1.9588  0.4650  0.3334
  494TMC3    H2 7403   2.225   1.553   0.127  2.0036  1.3411 -0.8006
  494TMC3    C7 7404   2.220   1.803   0.040 -0.5303 -0.9608  0.4108
  494TMC3    C8 7405   2.189   1.459   0.379 -0.9542  0.1901  0.1798
  494TMC3    O1 7406   2.289   1.722  17.719 -0.3274 -0.5869  0.0559
  494TMC3    O2 7407   2.224   1.415   0.488  0.7384 -0.1021 -0.2355
  495TMC3    C1 7408   0.997   2.874  14.579  0.6550  0.3595  0.3660
  495TMC3    C2 7409   0.953   2.938  14.461 -0.2660 -0.2752  0.4096
  495TMC3    C3 7410   0.916   3.071  14.478 -0.3714 -0.4007 -0.0792
  495TMC3    C4 7411   1.000   2.938  14.699  0.7748  0.6072 -0.0759
  495TMC3    C5 7412   0.954   3.061  14.710  0.1355 -0.1601 -0.3607
  495TMC3    C6 7413   0.918   3.131  14.598 -0.0682  0.9980  0.5310
  495TMC3     C 7414   1.004   2.725  14.581  0.7296  0.2826 -0.2607
  495TMC3     O 7415   1.083   2.674  14.663  0.2293 -0.5819 -0.2298
  495TMC3     H 7416   0.943   2.880  14.370  0.3804  2.9470 -1.7264
  495TMC3    H1 7417   1.011   2.895  14.798 -0.5051  0.3953 -0.0357
  495TMC3    H2 7418   0.869   3.226  14.614  0.1774  1.1825  0.1757
  495TMC3    C7 7419   0.921   3.111  14.840 -0.1629  0.0842  0.7108
  495TMC3    C8 7420   0.841   3.142  14.377  0.2311  0.0628 -0.5327
  495TMC3    O1 7421   1.005   3.138  14.922  0.3416  0.5279 -0.2199
  495TMC3    O2 7422   0.769   3.067  14.312 -0.4139  0.4718  0.1613
  496MPD2     C 7423   2.716   3.648  15.563  0.3160  0.1826  0.0328
  496MPD2    C1 7424   2.814   3.555  15.569  0.2908  0.5928  0.0956
  496MPD2    C2 7425   2.855   3.519  15.698  0.5868  0.0640  0.5540
  496MPD2    C3 7426   2.807   3.578  15.811  0.7658 -0.0939  0.1601
  496MPD2    C4 7427   2.714   3.679  15.802 -0.1365 -0.0411  0.5862
  496MPD2    C5 7428   2.672   3.715  15.677 -0.3453  0.7026  0.5049
  496MPD2     H 7429   2.926   3.437  15.701  0.3232 -0.0755  2.8713
  496MPD2    H1 7430   2.677   3.740  15.883  0.5794  0.6101  0.4257
  496MPD2    H2 7431   2.673   3.677  15.467  2.3717 -0.0529 -0.9536
  496MPD2    H3 7432   2.592   3.787  15.664  0.6887  1.4855 -1.6106
  496MPD2     N 7433   2.852   3.553  15.945 -1.2244  0.3175  0.0212
  496MPD2    H5 7434   2.829   3.625  16.013  1.4746 -0.0334  1.3159
  496MPD2    N1 7435   2.841   3.484  15.449  0.0580  0.4431  0.6162
  496MPD2    H7 7436   2.786   3.488  15.363  0.4705  1.1229  0.3809
  497TMC3    C1 7437   2.968   3.436  16.120 -0.2717  0.6299  0.5529
  497TMC3    C2 7438   3.090   3.376  16.150  0.2981  0.0174 -0.4243
  497TMC3    C3 7439   3.129   3.372  16.274 -0.1143 -0.4107  0.4956
  497TMC3    C4 7440   2.893   3.509  16.213 -0.5768  0.0320  0.2622
  497TMC3    C5 7441   2.942   3.505  16.343  0.5651  0.8443  0.4560
  497TMC3    C6 7442   3.069   3.439  16.369 -0.1421 -0.8206  0.2763
  497TMC3     C 7443   2.938   3.444  15.977 -0.1035 -0.1387  0.2609
  497TMC3     O 7444   3.018   3.383  15.907  0.6337 -0.3905 -0.3281
  497TMC3     H 7445   3.147   3.316  16.081  2.5122 -0.6082  1.9545
  497TMC3    H1 7446   2.796   3.556  16.196  0.7617  2.7831  0.1871
  497TMC3    H2 7447   3.117   3.447  16.466  0.3415  0.0395 -0.0289
  497TMC3    C7 7448   2.919   3.617  16.425  0.3727  0.7729  0.2938
  497TMC3    C8 7449   3.271   3.330  16.304 -0.5828 -1.0191  0.2845
  497TMC3    O1 7450   2.841   3.700  16.380 -0.1182 -0.3002 -0.3470
  497TMC3    O2 7451   3.291   3.292  16.421 -0.3214  0.4937  0.3969
  498MPD2     C 7452   3.548   4.008   9.571 -0.0084  0.0942 -0.6080
  498MPD2    C1 7453   3.648   3.986   9.665  0.3784  0.5968 -0.0396
  498MPD2    C2 7454   3.693   3.859   9.680 -0.9460 -0.4119  0.0713
  498MPD2    C3 7455   3.642   3.754   9.601  0.2736 -0.5139 -0.0976
  498MPD2    C4 7456   3.548   3.781   9.514 -0.5474 -0.1168  0.0711
  498MPD2    C5 7457   3.489   3.901   9.500 -0.5043 -0.5921 -0.2786
  498MPD2     H 7458   3.771   3.829   9.749 -2.8878 -1.1661  1.9704
  498MPD2    H1 7459   3.507   3.706   9.446 -0.5190  1.8135 -2.0884
  498MPD2    H2 7460   3.521   4.111   9.548  2.0378  0.4919 -1.2661
  498MPD2    H3 7461   3.409   3.919   9.430 -1.2071  1.6554  1.0987
  498MPD2     N 7462   3.684   3.619   9.627  0.3098 -0.6773  0.5000
  498MPD2    H5 7463   3.745   3.602   9.706  1.9594 -1.1519 -0.8908
  498MPD2    N1 7464   3.713   4.098   9.733 -0.2484  0.4166 -0.3187
  498MPD2    H7 7465   3.795   4.082   9.790 -1.6479 -0.7867  1.3623
  499TMC3    C1 7466   3.747   4.318   9.813  0.8057  0.5446  0.2206
  499TMC3    C2 7467   3.854   4.275   9.885 -0.7018 -0.5896  0.1356
  499TMC3    C3 7468   3.948   4.363   9.925 -0.3063  0.5083 -0.1602
  499TMC3    C4 7469   3.716   4.449   9.805  0.0325 -0.1154 -0.2012
  499TMC3    C5 7470   3.814   4.542   9.847 -0.8371 -0.2779 -0.5146
  499TMC3    C6 7471   3.931   4.499   9.901 -0.0569 -0.6490  0.3289
  499TMC3     C 7472   3.665   4.227   9.741  0.2958 -0.4118  0.1622
  499TMC3     O 7473   3.566   4.268   9.679 -0.1954  0.1903  0.0671
  499TMC3     H 7474   3.872   4.169   9.903  0.5250 -0.4789 -0.4316
  499TMC3    H1 7475   3.630   4.474   9.744 -0.7187 -2.2631 -0.0339
  499TMC3    H2 7476   4.016   4.565   9.908 -0.0106 -0.5103 -1.5055
  499TMC3    C7 7477   3.790   4.683   9.834 -0.0375 -0.5073 -0.5366
  499TMC3    C8 7478   4.063   4.305   9.999  0.1064 -0.5564  0.1529
  499TMC3    O1 7479   3.892   0.016   9.840 -0.3083 -0.0326 -0.9910
  499TMC3    O2 7480   4.031   4.203  10.058 -0.2122  0.0983 -0.3286
  500MPD2     C 7481   0.423   0.668  11.175  0.8331  0.3659  0.2504
  500MPD2    C1 7482   0.461   0.708  11.048  0.3623 -0.4042  0.0848
  500MPD2    C2 7483   0.368   0.723  10.950  0.0600 -0.5487  0.5036
  500MPD2    C3 7484   0.232   0.687  10.970  0.8380 -0.7749 -0.1630
  500MPD2    C4 7485   0.198   0.635  11.091  0.4511 -0.1266  0.6161
  500MPD2    C5 7486   0.290   0.636  11.191 -0.5529 -0.5860  0.1920
  500MPD2     H 7487   0.411   0.757  10.856 -1.7260 -1.6134 -0.7213
  500MPD2    H1 7488   0.095   0.622  11.124  1.6362 -2.0636  3.4943
  500MPD2    H2 7489   0.489   0.654  11.260  1.0503 -0.5801 -0.0719
  500MPD2    H3 7490   0.253   0.611  11.290 -0.0877 -0.3079  0.4381
  500MPD2     N 7491   0.138   0.690  10.862  0.0442 -0.3052  0.1115
  500MPD2    H5 7492   0.042   0.670  10.887  0.8836 -2.2097  1.7843
  500MPD2    N1 7493   0.598   0.735  11.024  0.0692 -0.0074  0.2522
  500MPD2    H7 7494   0.615   0.774  10.932 -0.8033 -2.1324 -0.8011
  501TMC3    C1 7495   0.825   0.760  11.045  0.4770 -0.1628  0.0309
  501TMC3    C2 7496   0.838   0.827  10.924  0.0140  0.0969  0.7119
  501TMC3    C3 7497   0.966   0.848  10.873 -0.4108  0.3108 -0.6893
  501TMC3    C4 7498   0.935   0.711  11.108 -0.2091 -0.0702 -0.4547
  501TMC3    C5 7499   1.054   0.740  11.057  0.1815  0.2938  0.3671
  501TMC3    C6 7500   1.070   0.815  10.942 -0.1374  0.2625 -0.1996
  501TMC3     C 7501   0.705   0.721  11.105 -0.3611  0.4615  0.3953
  501TMC3     O 7502   0.712   0.684  11.220 -0.1080 -0.1549 -0.0487
  501TMC3     H 7503   0.752   0.877  10.879 -0.6493 -2.2048 -0.5692
  501TMC3    H1 7504   0.930   0.654  11.200 -0.0909 -0.8969 -0.9546
  501TMC3    H2 7505   1.167   0.835  10.898 -0.5450 -2.4829 -2.3628
  501TMC3    C7 7506   1.172   0.698  11.131 -0.1803  0.2284 -0.4260
  501TMC3    C8 7507   0.979   0.952  10.777  0.5180 -0.0758 -0.4042
  501TMC3    O1 7508   1.150   0.638  11.236 -0.2237  0.1071  0.1764
  501TMC3    O2 7509   1.091   0.998  10.761  0.3656  0.1413 -0.2486
  502TMC3    C1 7510   0.329   3.739  14.525 -0.3395 -0.1993 -0.1921
  502TMC3    C2 7511   0.302   3.828  14.429 -0.2785  0.4009  0.3531
  502TMC3    C3 7512   0.191   3.907  14.447  0.5464 -0.4137  0.2909
  502TMC3    C4 7513   0.237   3.717  14.619 -0.1037 -0.0961  0.0622
  502TMC3    C5 7514   0.117   3.783  14.624 -0.7239 -0.3850 -0.5583
  502TMC3    C6 7515   0.088   3.874  14.524  0.1396 -0.0942  0.1929
  502TMC3     C 7516   0.458   3.764  14.598  1.0207  0.8361 -0.7023
  502TMC3     O 7517   0.559   3.785  14.527 -0.9341  0.3035 -0.0644
  502TMC3     H 7518   0.374   3.838  14.349  0.2218  0.6339  0.8327
  502TMC3    H1 7519   0.257   3.640  14.693  2.7453 -0.0972 -0.7190
  502TMC3    H2 7520   0.002   3.939  14.533  1.5535  1.8929 -0.7165
  502TMC3    C7 7521   0.087   3.823  14.760  0.1798 -0.2616  0.3720
  502TMC3    C8 7522   0.231   4.050  14.454 -0.1986  0.1121  0.0796
  502TMC3    O1 7523   0.186   3.821  14.833  0.3868 -0.8583 -0.3980
  502TMC3    O2 7524   0.146   4.134  14.477 -0.1112 -0.0228  0.0858
  503MPD2     C 7525   2.117   0.433  16.897  0.2783 -0.1325  0.8061
  503MPD2    C1 7526   2.172   0.452  17.022  0.4108  0.2899 -0.2927
  503MPD2    C2 7527   2.227   0.342  17.092 -0.6052  0.3018  0.2915
  503MPD2    C3 7528   2.221   0.216  17.040 -0.5638  0.7066 -0.3729
  503MPD2    C4 7529   2.173   0.205  16.913  0.1297 -0.5569  0.4574
  503MPD2    C5 7530   2.126   0.310  16.841 -0.3159 -0.1110  0.1383
  503MPD2     H 7531   2.266   0.369  17.189 -0.0886  0.0348  0.1541
  503MPD2    H1 7532   2.170   0.107  16.866 -1.0735  0.1036 -0.8453
  503MPD2    H2 7533   2.071   0.508  16.834  0.4730 -0.4802  0.2513
  503MPD2    H3 7534   2.087   0.287  16.743  2.2537  1.5176 -1.2548
  503MPD2     N 7535   2.279   0.109  17.108 -0.4315  0.5861 -0.0154
  503MPD2    H5 7536   2.300   0.123  17.207  1.4061 -0.9289 -0.1993
  503MPD2    N1 7537   2.195   0.579  17.086 -0.1936 -0.2717 -0.1600
  503MPD2    H7 7538   2.255   0.582  17.168 -2.2461  1.0119  1.3102
  504TMC3    C1 7539   2.385   4.652  17.160 -0.1446 -0.4573 -0.2374
  504TMC3    C2 7540   2.367   4.672  17.292 -0.2756  0.1536 -0.0802
  504TMC3    C3 7541   2.475   4.655  17.378 -1.0882 -0.5350  0.1228
  504TMC3    C4 7542   2.506   4.614  17.115  0.2226  0.3687 -0.6770
  504TMC3    C5 7543   2.610   4.591  17.199  0.4120 -0.0732 -0.0403
  504TMC3    C6 7544   2.597   4.621  17.334 -0.0431 -0.0267 -0.0651
  504TMC3     C 7545   2.318   4.728  17.058  0.1926 -0.5515 -0.3192
  504TMC3     O 7546   2.321   4.690  16.943  0.4101  0.0282  0.1237
  504TMC3     H 7547   2.269   4.699  17.330 -0.6145 -0.1888 -0.7137
  504TMC3    H1 7548   2.521   4.609  17.008  1.6579 -3.5525 -0.2687
  504TMC3    H2 7549   2.683   4.614  17.401 -0.6230 -0.9673  0.5830
  504TMC3    C7 7550   2.711   4.500  17.157 -0.0211 -0.3178  0.0290
  504TMC3    C8 7551   2.454   4.701  17.518 -0.1428 -0.2049  0.0378
  504TMC3    O1 7552   2.717   4.487  17.035 -0.3416  0.3685  0.2145
  504TMC3    O2 7553   2.346   0.017  17.538 -0.1080 -0.9214 -0.1900
  505MPD2     C 7554   2.924   3.139  10.095  0.0781 -0.5699  0.2966
  505MPD2    C1 7555   2.954   3.023  10.169  0.0315  0.0182  0.5543
  505MPD2    C2 7556   3.022   3.037  10.287 -0.3736  0.2535 -0.5120
  505MPD2    C3 7557   3.084   3.159  10.322 -0.3336  0.2583 -0.3515
  505MPD2    C4 7558   3.063   3.270  10.234 -0.0585 -0.0182 -0.1957
  505MPD2    C5 7559   2.987   3.256  10.126 -0.8221  1.2524  0.6050
  505MPD2     H 7560   3.033   2.955  10.358 -0.0650  1.6131  1.0183
  505MPD2    H1 7561   3.102   3.367  10.265  3.2398 -1.2187 -0.5945
  505MPD2    H2 7562   2.846   3.137  10.020  2.6507 -0.3470 -2.3837
  505MPD2    H3 7563   2.964   3.349  10.075  1.1544  0.2593 -2.0990
  505MPD2     N 7564   3.165   3.174  10.433  0.3516  0.7563  0.5476
  505MPD2    H5 7565   3.229   3.251  10.445  0.1177  1.0804 -0.2926
  505MPD2    N1 7566   2.903   2.904  10.119  0.0250  0.6485  0.4716
  505MPD2    H7 7567   2.852   2.914  10.032 -1.8321  1.2409  1.6299
  506TMC3    C1 7568   2.885   2.672  10.063 -0.3846 -0.0551 -1.0449
  506TMC3    C2 7569   2.936   2.692   9.926 -0.3377 -0.6602 -0.7072
  506TMC3    C3 7570   2.952   2.575   9.861 -0.2178  1.0994 -0.3170
  506TMC3    C4 7571   2.896   2.548  10.124 -0.3983 -0.4872 -0.0214
  506TMC3    C5 7572   2.940   2.445  10.053 -0.1054 -0.6014 -0.1489
  506TMC3    C6 7573   2.948   2.454   9.919 -0.1451 -0.8936  0.1912
  506TMC3     C 7574   2.922   2.775  10.163  0.2970 -0.1971  0.2644
  506TMC3     O 7575   2.986   2.734  10.259 -0.1793  0.2882 -0.2985
  506TMC3     H 7576   2.923   2.788   9.877  1.9451 -0.5559 -1.1139
  506TMC3    H1 7577   2.870   2.532  10.228  0.6786 -0.4126  0.2520
  506TMC3    H2 7578   2.987   2.372   9.861  0.5609 -0.1284 -0.4067
  506TMC3    C7 7579   3.066   2.396  10.115  0.3422  0.0498  0.3360
  506TMC3    C8 7580   3.009   2.588   9.731 -0.4675 -0.2893  0.2809
  506TMC3    O1 7581   3.135   2.333  10.039 -0.0325 -0.1635  0.0735
  506TMC3    O2 7582   3.006   2.489   9.664 -0.3536  0.1245  0.3886
  507TMC3    C1 7583   3.538   4.621  14.643 -0.6965 -0.4982 -0.2270
  507TMC3    C2 7584   3.517   4.513  14.551  0.1408  0.0046 -0.8435
  507TMC3    C3 7585   3.477   4.545  14.426  0.0067 -0.3370 -0.5850
  507TMC3    C4 7586   3.543   0.013  14.602  0.1043 -0.3865 -0.3820
  507TMC3    C5 7587   3.503   0.041  14.478 -0.1014  0.3845 -0.2903
  507TMC3    C6 7588   3.474   4.676  14.393  0.0993 -0.4018  0.3796
  507TMC3     C 7589   3.553   4.594  14.783 -0.0435 -0.2204 -0.5864
  507TMC3     O 7590   3.599   4.686  14.846 -0.1491  0.2375  0.3185
  507TMC3     H 7591   3.513   4.412  14.592  2.3114  0.7379  1.1652
  507TMC3    H1 7592   3.573   0.086  14.676 -0.2723  1.1168 -1.7161
  507TMC3    H2 7593   3.453   4.698  14.289 -3.8116 -2.1832  0.7701
  507TMC3    C7 7594   3.393   0.136  14.473 -0.0990 -0.1113  1.0705
  507TMC3    C8 7595   3.351   4.474  14.411 -0.4742  0.0982 -0.0827
  507TMC3    O1 7596   3.299   0.097  14.405 -0.2624 -0.7443 -0.0275
  507TMC3    O2 7597   3.343   4.356  14.441  0.0402 -0.4954 -0.1172
  508MPD2     C 7598   0.077   1.984  16.104  0.0602  0.4196 -0.3645
  508MPD2    C1 7599   0.027   2.088  16.177 -0.0017  0.4725 -0.6697
  508MPD2    C2 7600   4.697   2.195  16.128  0.1212 -0.2757 -0.1423
  508MPD2    C3 7601   4.660   2.183  15.996 -0.0185  0.3303 -0.3305
  508MPD2    C4 7602   4.719   2.086  15.919 -0.3882  0.0746  0.6552
  508MPD2    C5 7603   0.053   1.986  15.970 -0.1949 -0.7923 -0.1021
  508MPD2     H 7604   4.649   2.258  16.203  1.0179 -0.4209  0.5484
  508MPD2    H1 7605   4.712   2.081  15.811 -2.5669  0.8970  0.7712
  508MPD2    H2 7606   0.129   1.895  16.137 -0.8363  0.0622  0.0958
  508MPD2    H3 7607   0.091   1.906  15.909  1.4992 -0.4146  0.4636
  508MPD2     N 7608   4.579   2.289  15.940  0.1189  0.3666  0.1455
  508MPD2    H5 7609   4.541   2.359  16.002  1.5895  0.6680  0.7008
  508MPD2    N1 7610   0.052   2.080  16.316  0.7546 -0.0379  0.2183
  508MPD2    H7 7611   0.112   2.003  16.346  1.9367  1.4033  1.5194
  509TMC3    C1 7612   4.347   2.548  15.635 -0.1163 -0.6316 -0.3527
  509TMC3    C2 7613   4.404   2.666  15.681  0.2633 -0.0465 -0.3717
  509TMC3    C3 7614   4.504   2.652  15.774 -0.8559 -0.2397 -0.3168
  509TMC3    C4 7615   4.382   2.434  15.688  0.2217  0.6249 -0.2514
  509TMC3    C5 7616   4.472   2.422  15.790  0.0146  0.0848 -0.4551
  509TMC3    C6 7617   4.540   2.541  15.832 -0.9849 -0.1729 -0.5556
  509TMC3     C 7618   4.232   2.552  15.550  0.3434 -0.1834 -0.0465
  509TMC3     O 7619   4.149   2.465  15.561 -0.8740 -0.1789  0.5104
  509TMC3     H 7620   4.374   2.767  15.652  2.1231  0.2527 -1.2631
  509TMC3    H1 7621   4.330   2.345  15.653  0.7452 -1.0981  3.3470
  509TMC3    H2 7622   4.630   2.546  15.893 -0.5415  0.8961 -1.3013
  509TMC3    C7 7623   4.551   2.305  15.807 -0.2339  0.5656 -0.7855
  509TMC3    C8 7624   4.574   2.774  15.821  0.2897 -0.1883  0.0973
  509TMC3    O1 7625   4.596   2.241  15.712  0.4511 -0.6533  0.0268
  509TMC3    O2 7626   4.608   2.785  15.938 -0.1332 -0.2831 -0.3038
  510MPD2     C 7627   1.938   3.754  14.808  0.0943  0.3667 -0.1688
  510MPD2    C1 7628   1.975   3.641  14.883  0.0873 -0.0232  0.2335
  510MPD2    C2 7629   2.077   3.559  14.834 -0.3244 -0.1298  0.0387
  510MPD2    C3 7630   2.129   3.583  14.710  0.1329  0.6360 -0.2707
  510MPD2    C4 7631   2.071   3.689  14.636  0.0730 -0.3915 -0.8121
  510MPD2    C5 7632   1.972   3.766  14.680  0.2265  0.3730  0.1505
  510MPD2     H 7633   2.112   3.473  14.891  0.1811 -1.0605 -1.6972
  510MPD2    H1 7634   2.114   3.716  14.540  1.3380 -2.4840 -0.8359
  510MPD2    H2 7635   1.863   3.827  14.837 -1.2280 -1.0356 -0.0305
  510MPD2    H3 7636   1.939   3.856  14.630 -0.4367  0.5030  0.8220
  510MPD2     N 7637   2.228   3.495  14.662  0.0127 -0.1144 -0.2095
  510MPD2    H5 7638   2.271   3.432  14.729  2.8446 -0.0874 -2.0058
  510MPD2    N1 7639   1.922   3.627  15.015  0.3876  0.2518  0.4541
  510MPD2    H7 7640   1.845   3.690  15.033 -0.9412 -0.5337 -2.5108
  511TMC3    C1 7641   1.862   3.529  15.219 -0.0523  0.4724 -0.2438
  511TMC3    C2 7642   1.826   3.647  15.280 -0.0714  0.2614  0.1481
  511TMC3    C3 7643   1.755   3.644  15.397 -0.1140 -0.6160 -0.3702
  511TMC3    C4 7644   1.861   3.416  15.293  0.0603  0.6040 -0.7853
  511TMC3    C5 7645   1.807   3.414  15.411  0.1171 -0.3720  0.9925
  511TMC3    C6 7646   1.745   3.521  15.461 -0.5553  0.0626  0.2401
  511TMC3     C 7647   1.958   3.536  15.110 -0.1948 -0.2182  0.0624
  511TMC3     O 7648   2.042   3.447  15.113  0.1317  0.2696 -0.3331
  511TMC3     H 7649   1.850   3.739  15.229  0.4565 -0.6546 -1.2665
  511TMC3    H1 7650   1.870   3.322  15.239  0.6457  0.4033 -0.3305
  511TMC3    H2 7651   1.688   3.504  15.551  2.1204  0.1683  1.9686
  511TMC3    C7 7652   1.787   3.290  15.486  0.5706 -0.7604  0.2119
  511TMC3    C8 7653   1.743   3.760  15.481 -0.2276 -0.0543  0.0816
  511TMC3    O1 7654   1.681   3.258  15.536 -0.4685  0.3508  0.1095
  511TMC3    O2 7655   1.737   3.869  15.426 -0.4495  0.0414 -0.2998
  512TMC3    C1 7656   1.215   2.064  13.516 -0.3976  0.0598 -0.0323
  512TMC3    C2 7657   1.135   2.143  13.602  1.0526 -0.2698 -0.3403
  512TMC3    C3 7658   1.008   2.094  13.615  0.2774 -0.0465  0.6250
  512TMC3    C4 7659   1.173   1.943  13.455  0.0603 -0.2333  0.2195
  512TMC3    C5 7660   1.043   1.913  13.474  0.2005 -0.3432  0.6851
  512TMC3    C6 7661   0.959   1.994  13.545 -0.0535 -0.0403  0.3266
  512TMC3     C 7662   1.344   2.121  13.492 -0.7113 -0.5435 -0.7265
  512TMC3     O 7663   1.353   2.242  13.517  0.1654  1.0240 -0.3246
  512TMC3     H 7664   1.171   2.229  13.656 -0.0033 -0.7043  1.0417
  512TMC3    H1 7665   1.232   1.887  13.383  0.3771 -0.9824  1.0627
  512TMC3    H2 7666   0.856   1.965  13.559  0.7471 -2.7102  0.7034
  512TMC3    C7 7667   0.992   1.802  13.391  0.2732 -0.0756  0.1561
  512TMC3    C8 7668   0.911   2.168  13.689  0.2154 -0.1780 -0.6578
  512TMC3    O1 7669   0.873   1.798  13.371 -0.4265  0.2198  0.1053
  512TMC3    O2 7670   0.817   2.112  13.740  0.2977 -0.1324  0.5283
  513MPD2     C 7671   2.346   3.190  12.701  0.5873 -0.0228 -0.8080
  513MPD2    C1 7672   2.440   3.141  12.615 -0.6435  0.4374 -0.3755
  513MPD2    C2 7673   2.570   3.146  12.668 -0.5016 -0.0132  0.3150
  513MPD2    C3 7674   2.609   3.193  12.793  0.1937 -0.2403  0.1514
  513MPD2    C4 7675   2.507   3.233  12.883 -0.9316  0.2884  0.1778
  513MPD2    C5 7676   2.382   3.239  12.825 -0.2178  0.7746  0.2755
  513MPD2     H 7677   2.656   3.117  12.609 -0.5366  0.8662 -0.1524
  513MPD2    H1 7678   2.535   3.267  12.982 -1.5164  0.7296  0.1882
  513MPD2    H2 7679   2.241   3.197  12.676  0.8030  3.7320 -0.7986
  513MPD2    H3 7680   2.299   3.277  12.883 -2.8119 -0.5632 -2.5427
  513MPD2     N 7681   2.742   3.194  12.827 -0.5485 -0.4655 -0.2841
  513MPD2    H5 7682   2.802   3.169  12.749 -0.4605  1.0075 -0.6718
  513MPD2    N1 7683   2.402   3.075  12.493  0.0422 -0.2219  0.1245
  513MPD2    H7 7684   2.304   3.064  12.469  0.4666 -0.6159 -1.4422
  514TMC3    C1 7685   2.444   2.948  12.297 -0.3682  0.7304  0.1410
  514TMC3    C2 7686   2.412   3.052  12.216  0.0210 -0.1761 -0.5129
  514TMC3    C3 7687   2.469   3.059  12.091  0.0387 -0.3898  0.7594
  514TMC3    C4 7688   2.523   2.846  12.255 -0.1107  0.0993  0.0741
  514TMC3    C5 7689   2.586   2.855  12.135  0.6102  0.8090  0.4993
  514TMC3    C6 7690   2.554   2.955  12.045 -0.4499  0.4827 -0.3514
  514TMC3     C 7691   2.492   2.995  12.426  0.3668  0.0110  0.4040
  514TMC3     O 7692   2.608   2.975  12.448  0.4627  0.2005 -0.2300
  514TMC3     H 7693   2.353   3.132  12.258 -1.4808 -1.2504 -0.5722
  514TMC3    H1 7694   2.540   2.761  12.321  0.2542 -0.1162 -0.2993
  514TMC3    H2 7695   2.607   2.958  11.950 -1.2875 -0.5754 -0.8512
  514TMC3    C7 7696   2.724   2.823  12.136 -0.4533 -0.2803  0.2213
  514TMC3    C8 7697   2.389   3.137  11.996  0.0753 -0.4523  0.1641
  514TMC3    O1 7698   2.776   2.797  12.032  0.2625  0.0623  0.0561
  514TMC3    O2 7699   2.305   3.207  12.048  0.0541 -0.2326 -0.8420
  515MPD2     C 7700   0.808   0.312  14.760  0.4576  0.2733  0.6202
  515MPD2    C1 7701   0.881   0.202  14.762 -0.0417 -0.2064 -0.8433
  515MPD2    C2 7702   1.017   0.217  14.797  0.7241  0.1677  0.0525
  515MPD2    C3 7703   1.064   0.346  14.807  0.4597 -0.0564  0.1711
  515MPD2    C4 7704   0.985   0.455  14.781  0.5273 -0.5714  0.2000
  515MPD2    C5 7705   0.854   0.440  14.758 -1.0533 -0.0606 -0.4486
  515MPD2     H 7706   1.081   0.130  14.805  0.8180  0.3516  1.2630
  515MPD2    H1 7707   1.021   0.558  14.782 -0.6953 -0.1474 -1.3831
  515MPD2    H2 7708   0.701   0.322  14.750  0.5713  0.9755  0.0627
  515MPD2    H3 7709   0.788   0.525  14.749  3.0432  2.9415 -2.1245
  515MPD2     N 7710   1.201   0.382  14.834  0.4338 -0.2316  0.1507
  515MPD2    H5 7711   1.223   0.481  14.834 -0.5200 -0.0245 -0.7730
  515MPD2    N1 7712   0.835   0.081  14.707  0.7102  0.0796  0.0349
  515MPD2    H7 7713   0.900   0.004  14.719  0.9086  0.2150 -0.1734
  516TMC3    C1 7714   0.718   4.664  14.569  0.0096  0.1900  0.7515
  516TMC3    C2 7715   0.669   4.660  14.444 -0.3698 -0.4361  0.2320
  516TMC3    C3 7716   0.734   4.585  14.348  0.4517  0.8888 -0.3051
  516TMC3    C4 7717   0.806   4.567  14.614 -0.6895  0.2227  0.2997
  516TMC3    C5 7718   0.863   4.482  14.521  0.1263  0.1274  0.5650
  516TMC3    C6 7719   0.836   4.498  14.384  0.4382 -0.3758  0.0124
  516TMC3     C 7720   0.719   0.056  14.640 -0.0417  0.5455  0.1101
  516TMC3     O 7721   0.638   0.138  14.594 -0.3126  0.0288  0.5379
  516TMC3     H 7722   0.605   0.002  14.411 -0.8698 -0.9614 -0.0792
  516TMC3    H1 7723   0.851   4.569  14.712  1.1463  2.9994 -0.5990
  516TMC3    H2 7724   0.890   4.436  14.314 -0.8199 -1.0297 -0.3849
  516TMC3    C7 7725   0.912   4.350  14.572  0.6132  0.4696 -0.4765
  516TMC3    C8 7726   0.670   4.575  14.215 -0.4567  0.3160  0.3572
  516TMC3    O1 7727   0.947   4.352  14.689  0.2310 -0.0083 -0.2712
  516TMC3    O2 7728   0.549   4.588  14.222  0.4123  0.4540  0.2001
  517MPD2     C 7729   0.791   2.187  17.431 -0.7463  0.4756 -0.4597
  517MPD2    C1 7730   0.875   2.161  17.537 -0.4212  0.3989  0.2661
  517MPD2    C2 7731   0.890   2.259  17.637  0.2679 -0.1129  0.9572
  517MPD2    C3 7732   0.806   2.367  17.638 -0.0718 -0.4176  0.3113
  517MPD2    C4 7733   0.714   2.387  17.535 -0.3853  0.2576  0.7620
  517MPD2    C5 7734   0.707   2.295  17.431 -0.0375  0.1277 -0.5473
  517MPD2     H 7735   0.964   2.247  17.716 -0.6415 -1.7948  1.5674
  517MPD2    H1 7736   0.649   2.474  17.532 -0.2685  0.2706 -0.9946
  517MPD2    H2 7737   0.773   2.121  17.347  0.5752 -1.8687  1.1144
  517MPD2    H3 7738   0.640   2.314  17.349 -1.8020  0.9167  1.0832
  517MPD2     N 7739   0.809   2.464  17.739  0.1512  0.5231 -0.2673
  517MPD2    H5 7740   0.744   2.542  17.738 -0.7379 -0.2150 -0.2534
  517MPD2    N1 7741   0.964   2.050  17.533 -0.4485  0.8335  0.3268
  517MPD2    H7 7742   1.024   2.027  17.612 -2.4382 -0.8798  1.3255
  518TMC3    C1 7743   1.072   1.857  17.451  0.0578 -0.4702 -0.4018
  518TMC3    C2 7744   1.036   1.723  17.448 -0.1769 -0.5514  0.9542
  518TMC3    C3 7745   1.148   1.638  17.459  0.4367  0.2250  0.5707
  518TMC3    C4 7746   1.199   1.899  17.473  0.1177 -0.0010 -0.2897
  518TMC3    C5 7747   1.302   1.808  17.463 -0.1764 -0.1630 -0.3862
  518TMC3    C6 7748   1.275   1.678  17.456 -0.4400  0.1064  0.1609
  518TMC3     C 7749   0.976   1.958  17.431  0.3367  0.3858  0.5043
  518TMC3     O 7750   0.908   1.936  17.332 -0.1681  0.5339  0.1506
  518TMC3     H 7751   0.935   1.688  17.433 -0.7948  0.9661  1.5141
  518TMC3    H1 7752   1.215   2.006  17.473 -2.1030  0.3298  1.7345
  518TMC3    H2 7753   1.351   1.601  17.470 -2.4371 -1.6768  1.1418
  518TMC3    C7 7754   1.431   1.856  17.418  0.1718  0.6347 -0.4181
  518TMC3    C8 7755   1.130   1.491  17.466  0.0479 -0.1014  0.0580
  518TMC3    O1 7756   1.460   1.974  17.435 -0.9184  0.3014 -0.1933
  518TMC3    O2 7757   1.223   1.416  17.434  0.0101  0.2093  0.2520
  519MPD2     C 7758   2.527   4.338  14.590 -0.3673 -0.0834 -0.0763
  519MPD2    C1 7759   2.426   4.325  14.494  0.0876 -0.0235  0.3097
  519MPD2    C2 7760   2.453   4.246  14.383  0.2245 -0.0726  0.3020
  519MPD2    C3 7761   2.572   4.178  14.370 -0.1559  0.2690 -0.2510
  519MPD2    C4 7762   2.669   4.187  14.467 -0.2283  0.2661 -0.5293
  519MPD2    C5 7763   2.646   4.271  14.572 -0.3672  0.2289  0.3473
  519MPD2     H 7764   2.378   4.239  14.305  1.3267  0.2097 -0.7965
  519MPD2    H1 7765   2.766   4.141  14.456  0.0197  1.0385 -1.5456
  519MPD2    H2 7766   2.523   4.395  14.682  0.6820  0.5063 -0.3874
  519MPD2    H3 7767   2.715   4.284  14.654 -0.7004  1.4334  0.4301
  519MPD2     N 7768   2.587   4.092  14.265  0.2732  0.1053 -0.5535
  519MPD2    H5 7769   2.676   4.044  14.259  1.6140  2.2803  1.8057
  519MPD2    N1 7770   2.301   4.379  14.533  0.6295  0.2902 -0.3047
  519MPD2    H7 7771   2.297   4.458  14.597  0.1102  0.4089 -0.4877
  520TMC3    C1 7772   2.567   3.986  14.053  0.5849 -0.1275  0.4710
  520TMC3    C2 7773   2.485   3.932  13.958  0.2226 -0.0123  0.1892
  520TMC3    C3 7774   2.522   3.823  13.893 -0.2728 -0.0060  0.2758
  520TMC3    C4 7775   2.691   3.935  14.072 -0.0183 -0.6802 -0.4237
  520TMC3    C5 7776   2.730   3.837  13.990  0.2392 -0.1141 -0.4405
  520TMC3    C6 7777   2.646   3.771  13.900 -0.0913  0.3409 -0.5835
  520TMC3     C 7778   2.508   4.076  14.152 -0.1039 -0.5119 -0.2283
  520TMC3     O 7779   2.396   4.119  14.118  0.1811  0.0619  0.4968
  520TMC3     H 7780   2.385   3.971  13.947  0.1777 -0.1135  0.2491
  520TMC3    H1 7781   2.756   3.998  14.132  0.6311 -0.6268 -1.1805
  520TMC3    H2 7782   2.672   3.692  13.831 -0.8805  0.2012 -0.7250
  520TMC3    C7 7783   2.865   3.787  14.009 -0.2776 -0.2186 -0.4659
  520TMC3    C8 7784   2.436   3.769  13.786 -0.2914 -0.2142  0.6691
  520TMC3    O1 7785   2.923   3.801  14.118 -0.4264 -0.6989 -0.3726
  520TMC3    O2 7786   2.487   3.706  13.694  0.4944 -0.9354  0.1303
  521MPD2     C 7787   3.596   2.914  17.559 -0.3005  0.1030 -0.0937
  521MPD2    C1 7788   3.562   2.784  17.528  0.5809  0.1395  0.2054
  521MPD2    C2 7789   3.655   2.682  17.536  0.4941 -0.1081  0.0661
  521MPD2    C3 7790   3.787   2.713  17.558 -0.1790  0.3278 -0.0001
  521MPD2    C4 7791   3.823   2.845  17.584  0.4156 -0.3323  0.3930
  521MPD2    C5 7792   3.729   2.947  17.589  0.3338  0.1882 -0.1661
  521MPD2     H 7793   3.628   2.577  17.529  0.0863 -0.0253  0.3690
  521MPD2    H1 7794   3.928   2.871  17.577  0.5400 -1.5311 -2.3880
  521MPD2    H2 7795   3.532   3.000  17.551 -1.8631 -1.1727 -1.4833
  521MPD2    H3 7796   3.754   3.052  17.600  0.0529  0.2492 -0.1130
  521MPD2     N 7797   3.880   2.611  17.535 -0.0426  0.2404 -0.1715
  521MPD2    H5 7798   3.851   2.516  17.516  3.2327 -0.2610 -2.5062
  521MPD2    N1 7799   3.426   2.755  17.495  0.0031  0.5321  0.4499
  521MPD2    H7 7800   3.366   2.836  17.487  1.4029  1.2326 -2.7709
  522TMC3    C1 7801   4.082   2.530  17.450 -0.2113  0.5738  0.4965
  522TMC3    C2 7802   4.207   2.487  17.492 -0.7391 -0.0205 -0.0296
  522TMC3    C3 7803   4.259   2.397  17.407 -0.1717  0.5193 -0.4947
  522TMC3    C4 7804   4.011   2.490  17.343 -0.1732  0.0944  0.0991
  522TMC3    C5 7805   4.073   2.398  17.261  0.5907 -0.5853  0.3367
  522TMC3    C6 7806   4.198   2.351  17.289 -0.0936 -0.0840  0.8365
  522TMC3     C 7807   4.016   2.625  17.542  0.4995 -0.7699  0.1727
  522TMC3     O 7808   4.080   2.706  17.602  0.1900 -0.3126 -0.1071
  522TMC3     H 7809   4.249   2.534  17.581 -0.7119 -0.1924  0.0478
  522TMC3    H1 7810   3.911   2.528  17.322 -0.2439 -1.3005 -2.1023
  522TMC3    H2 7811   4.242   2.270  17.232 -0.9040 -0.3980  0.6432
  522TMC3    C7 7812   4.031   2.360  17.128 -0.3088 -0.0880 -0.0919
  522TMC3    C8 7813   4.397   2.354  17.433  0.8411 -0.8247 -0.2554
  522TMC3    O1 7814   4.067   2.249  17.092 -0.1832 -0.1078 -0.0399
  522TMC3    O2 7815   4.447   2.359  17.546  0.3589 -0.0175 -0.1049
  523MPD2     C 7816   1.359   2.261   9.787 -0.0615  1.1220 -0.6979
  523MPD2    C1 7817   1.281   2.145   9.752  0.1400  0.0562 -0.5096
  523MPD2    C2 7818   1.223   2.137   9.628  0.0545 -0.3991 -0.2157
  523MPD2    C3 7819   1.243   2.244   9.537 -0.1082  0.4995  0.5438
  523MPD2    C4 7820   1.324   2.353   9.564  0.2649 -0.1385 -0.0491
  523MPD2    C5 7821   1.379   2.360   9.691 -0.1048  0.3421  0.1662
  523MPD2     H 7822   1.157   2.056   9.600 -2.2464  1.0107  1.1082
  523MPD2    H1 7823   1.331   2.428   9.487 -0.1600  1.6258  1.6385
  523MPD2    H2 7824   1.406   2.277   9.883 -2.1952  2.8058  0.0759
  523MPD2    H3 7825   1.441   2.444   9.720  0.3545 -0.4377  1.4676
  523MPD2     N 7826   1.187   2.254   9.409 -0.3329 -0.4939  0.2513
  523MPD2    H5 7827   1.211   2.339   9.361  2.0644 -2.5551 -2.1766
  523MPD2    N1 7828   1.263   2.051   9.854 -0.4328  0.6752  0.4007
  523MPD2    H7 7829   1.301   2.076   9.945  0.4753  3.0978 -0.6494
  524TMC3    C1 7830   1.058   2.188   9.223  0.2583 -0.0529 -0.2525
  524TMC3    C2 7831   1.030   2.096   9.126 -0.8000 -0.2775  0.4320
  524TMC3    C3 7832   0.989   2.153   9.006  0.1288 -1.0237  0.1507
  524TMC3    C4 7833   1.019   2.320   9.222 -0.0981 -0.8611 -0.3576
  524TMC3    C5 7834   0.963   2.365   9.102 -0.5045 -0.2448  0.5763
  524TMC3    C6 7835   0.958   2.286   8.995 -0.0432  0.1392  0.6533
  524TMC3     C 7836   1.125   2.144   9.341  0.5998 -0.0025 -0.4897
  524TMC3     O 7837   1.107   2.024   9.368  0.3166  0.1737 -0.1087
  524TMC3     H 7838   1.066   1.994   9.132 -0.5563 -0.2380 -0.2481
  524TMC3    H1 7839   1.026   2.385   9.308 -1.8380  1.3695 -1.9024
  524TMC3    H2 7840   0.937   2.323   8.896 -0.5532 -1.3095  0.2310
  524TMC3    C7 7841   0.915   2.500   9.097  0.5047  0.4763 -0.0268
  524TMC3    C8 7842   0.983   2.062   8.888 -0.2543  0.5811 -0.1118
  524TMC3    O1 7843   0.972   2.573   9.181  0.0255 -0.3111  0.4092
  524TMC3    O2 7844   1.007   1.942   8.893 -0.4826  0.1893 -0.1425
  525MPD2     C 7845   3.898   3.796  14.417 -0.6941  0.4835 -0.3715
  525MPD2    C1 7846   3.995   3.856  14.486  0.0657  0.3237 -0.8500
  525MPD2    C2 7847   4.050   3.977  14.433 -0.2944 -0.3673 -0.2544
  525MPD2    C3 7848   3.990   4.039  14.328 -0.4162  0.3599  0.3533
  525MPD2    C4 7849   3.878   3.986  14.274 -0.8189 -0.3707 -0.1720
  525MPD2    C5 7850   3.834   3.860  14.315 -0.4175 -0.0691 -0.4116
  525MPD2     H 7851   4.128   4.027  14.489 -2.3343  1.3902  1.0679
  525MPD2    H1 7852   3.822   4.026  14.191  2.0481  2.6541 -0.6331
  525MPD2    H2 7853   3.880   3.691  14.437  0.4049  0.4250  0.2744
  525MPD2    H3 7854   3.758   3.813  14.254 -0.1418  2.8110 -2.9362
  525MPD2     N 7855   4.034   4.166  14.278  0.1117  0.0907 -0.3153
  525MPD2    H5 7856   3.968   4.225  14.227 -0.0985  0.7513  0.7064
  525MPD2    N1 7857   4.053   3.796  14.599  0.8974 -0.0543  0.2074
  525MPD2    H7 7858   4.130   3.843  14.645  1.9779 -1.0287 -0.5990
  526TMC3    C1 7859   4.049   3.688  14.805 -0.4762  0.2918 -0.0125
  526TMC3    C2 7860   3.970   3.651  14.907  0.1891  0.2454 -0.4339
  526TMC3    C3 7861   4.026   3.630  15.029  0.9717  0.7440 -0.5865
  526TMC3    C4 7862   4.192   3.697  14.821  0.0316 -0.0270  0.0387
  526TMC3    C5 7863   4.238   3.681  14.948 -0.8608  1.0443 -0.4908
  526TMC3    C6 7864   4.156   3.655  15.050  0.4544  0.1429  0.0609
  526TMC3     C 7865   3.995   3.699  14.670  0.6365  0.3475 -0.4211
  526TMC3     O 7866   3.890   3.633  14.645  0.1263  0.0061  0.4529
  526TMC3     H 7867   3.865   3.643  14.880 -0.1269  1.0025  0.5606
  526TMC3    H1 7868   4.253   3.717  14.734  0.0332 -0.6937 -0.1157
  526TMC3    H2 7869   4.201   3.648  15.149  1.9408  1.6248 -0.5053
  526TMC3    C7 7870   4.378   3.638  14.964  0.1361  0.1143 -0.6428
  526TMC3    C8 7871   3.953   3.665  15.151  0.8872  0.8218 -0.1033
  526TMC3    O1 7872   4.422   3.618  15.073  0.4489 -0.5083  0.4772
  526TMC3    O2 7873   4.018   3.658  15.255  0.1126 -0.3019  0.3732
  527MPD2     C 7874   2.006   2.556   1.321 -0.0917 -1.1489 -0.1889
  527MPD2    C1 7875   1.951   2.513   1.203 -0.3563  0.2171  0.3524
  527MPD2    C2 7876   2.038   2.478   1.098 -0.3841 -0.4089  0.0673
  527MPD2    C3 7877   2.178   2.466   1.118 -0.1229 -0.0950  0.7271
  527MPD2    C4 7878   2.227   2.519   1.234  0.3110 -0.1670  0.0020
  527MPD2    C5 7879   2.138   2.563   1.328 -0.5885 -0.2134 -0.0756
  527MPD2     H 7880   1.992   2.434   1.010 -0.6083 -1.5634  0.7572
  527MPD2    H1 7881   2.325   2.499   1.275  1.1226  0.5626 -1.5903
  527MPD2    H2 7882   1.951   2.573   1.413  0.5735 -0.2325  0.0303
  527MPD2    H3 7883   2.181   2.572   1.428  2.1004 -0.4966 -1.1926
  527MPD2     N 7884   2.260   2.402   1.024  0.0961 -0.3927 -0.5986
  527MPD2    H5 7885   2.210   2.381   0.938 -0.3812  0.6380 -0.5641
  527MPD2    N1 7886   1.808   2.516   1.187  0.0238 -0.3526  0.1346
  527MPD2    H7 7887   1.770   2.494   1.095  3.1174 -1.4591 -0.8831
  528TMC3    C1 7888   1.590   2.557   1.247  1.0304 -0.2248 -0.3220
  528TMC3    C2 7889   1.565   2.624   1.128 -0.1561  0.4599 -0.3715
  528TMC3    C3 7890   1.440   2.671   1.095  0.2759  0.5009  0.0003
  528TMC3    C4 7891   1.482   2.534   1.332  0.1921  0.1835 -0.0494
  528TMC3    C5 7892   1.360   2.577   1.296  0.2725 -0.7291 -0.2523
  528TMC3    C6 7893   1.337   2.648   1.181 -0.3025  0.7680  0.6142
  528TMC3     C 7894   1.721   2.518   1.288  0.1235 -0.1280 -0.7406
  528TMC3     O 7895   1.728   2.488   1.407  0.1087 -0.0425  0.2984
  528TMC3     H 7896   1.645   2.659   1.063  0.1839 -0.5034 -0.4645
  528TMC3    H1 7897   1.497   2.500   1.434 -1.0153 -1.2097 -0.3430
  528TMC3    H2 7898   1.238   2.685   1.159  0.0248  1.4469  0.2791
  528TMC3    C7 7899   1.252   2.526   1.370 -0.3129  0.2982 -0.4313
  528TMC3    C8 7900   1.405   2.723   0.968  0.2478  0.4220 -0.3079
  528TMC3    O1 7901   1.150   2.595   1.361  0.4174  0.4259 -0.5347
  528TMC3    O2 7902   1.492   2.708   0.882  0.1502 -0.5881 -0.5212
  529MPD2     C 7903   0.166   1.153   0.306 -0.8669 -0.2219 -0.0052
  529MPD2    C1 7904   0.203   1.029   0.256 -0.6332  0.0131 -0.0663
  529MPD2    C2 7905   0.174   0.995   0.126 -0.5850 -0.1332 -0.2021
  529MPD2    C3 7906   0.101   1.077   0.043 -0.7292  0.2627 -0.5396
  529MPD2    C4 7907   0.059   1.197   0.091  0.3427 -0.2837 -0.2233
  529MPD2    C5 7908   0.090   1.232   0.218  0.0839 -0.1522 -0.6793
  529MPD2     H 7909   0.216   0.901   0.092  0.3582  0.3370 -0.3256
  529MPD2    H1 7910   0.008   1.268   0.027  2.0277  1.9355  0.9091
  529MPD2    H2 7911   0.181   1.185   0.409 -1.1945  0.5919 -0.2075
  529MPD2    H3 7912   0.070   1.334   0.246 -1.0574 -0.5007 -0.2345
  529MPD2     N 7913   0.061   1.046  17.660 -0.1366  0.3822  0.7771
  529MPD2    H5 7914   0.011   1.120  17.611  0.0586  0.8338  1.2618
  529MPD2    N1 7915   0.268   0.930   0.334 -0.5032 -0.1578 -0.3075
  529MPD2    H7 7916   0.305   0.849   0.286 -1.3809 -1.4308  1.1575
  530TMC3    C1 7917   0.304   0.823   0.540  0.0738  0.7811  0.6099
  530TMC3    C2 7918   0.337   0.835   0.673 -0.1996 -0.0055  0.3377
  530TMC3    C3 7919   0.349   0.720   0.746 -0.0465 -0.2741  1.0517
  530TMC3    C4 7920   0.275   0.703   0.486  0.6347 -0.9053  0.3242
  530TMC3    C5 7921   0.276   0.594   0.566 -0.2900  0.2261 -0.0185
  530TMC3    C6 7922   0.313   0.600   0.692  0.2780  0.1340 -0.7411
  530TMC3     C 7923   0.302   0.945   0.467 -0.9088  0.1198 -0.6481
  530TMC3     O 7924   0.301   1.049   0.533  0.2086  0.6790  0.4912
  530TMC3     H 7925   0.352   0.935   0.712  1.5754 -0.0889 -0.1478
  530TMC3    H1 7926   0.228   0.681   0.390  0.7757  0.0725  0.0330
  530TMC3    H2 7927   0.300   0.506   0.745 -0.3138  1.2429  1.0814
  530TMC3    C7 7928   0.198   0.475   0.531 -0.3892 -0.3762 -0.4104
  530TMC3    C8 7929   0.343   0.732   0.896  0.0645  0.0393 -0.4038
  530TMC3    O1 7930   0.217   0.437   0.413  0.5321  0.1023  0.4746
  530TMC3    O2 7931   0.284   0.831   0.948 -0.1663 -0.2744  0.6436
  531MPD2     C 7932   3.164   2.812  12.407  0.8180 -0.0441  0.1839
  531MPD2    C1 7933   3.064   2.875  12.481  0.2607  0.0186 -0.8813
  531MPD2    C2 7934   2.934   2.875  12.422 -0.2381  0.9128  0.1359
  531MPD2    C3 7935   2.907   2.815  12.304  0.2601 -0.1499 -0.3974
  531MPD2    C4 7936   3.007   2.736  12.242  0.2040  0.2744 -0.3959
  531MPD2    C5 7937   3.133   2.736  12.294 -0.5320 -0.1690 -0.6160
  531MPD2     H 7938   2.846   2.910  12.477  0.2038 -0.9378  2.0215
  531MPD2    H1 7939   2.983   2.688  12.148 -1.3508  0.4329 -0.0773
  531MPD2    H2 7940   3.268   2.818  12.439  0.8217  1.6805 -0.1655
  531MPD2    H3 7941   3.208   2.679  12.239  0.4178  0.1837  0.3146
  531MPD2     N 7942   2.773   2.840  12.259  0.1304 -0.4179  0.3036
  531MPD2    H5 7943   2.706   2.873  12.327  0.0290  0.6264 -0.3090
  531MPD2    N1 7944   3.100   2.946  12.598  0.4194  0.4524  0.1329
  531MPD2    H7 7945   3.196   2.932  12.629 -0.1637  1.1622  2.2922
  532TMC3    C1 7946   3.053   3.069  12.795 -0.5101  0.1368  0.0576
  532TMC3    C2 7947   2.985   3.180  12.827  0.2764 -0.1482  0.2009
  532TMC3    C3 7948   2.934   3.200  12.951 -0.4630 -0.8006 -0.4157
  532TMC3    C4 7949   3.065   2.968  12.891  0.3565 -0.4721  0.1684
  532TMC3    C5 7950   3.021   2.997  13.021  0.4282 -0.0178 -0.6789
  532TMC3    C6 7951   2.956   3.116  13.052  0.0622 -0.4986 -0.0746
  532TMC3     C 7952   3.016   3.036  12.663  0.0943 -0.4229  0.3832
  532TMC3     O 7953   2.918   3.095  12.628 -0.6221  0.1676 -0.2443
  532TMC3     H 7954   2.988   3.268  12.764 -0.7390 -0.3958 -0.1985
  532TMC3    H1 7955   3.091   2.867  12.861  0.9935  0.0136 -0.9400
  532TMC3    H2 7956   2.924   3.147  13.151  1.9780  0.6664  0.1903
  532TMC3    C7 7957   3.016   2.891  13.125  0.5812  0.5057 -0.8523
  532TMC3    C8 7958   2.794   3.213  12.953 -0.0182 -0.0909  0.6368
  532TMC3    O1 7959   2.967   2.920  13.234 -0.2928 -0.2201  0.0629
  532TMC3    O2 7960   2.736   3.212  13.063 -0.4540  0.3280  0.0449
  533TMC3    C1 7961   4.180   4.339  14.235  0.4360  0.0205  0.4808
  533TMC3    C2 7962   4.306   4.378  14.210  0.4112 -0.1442 -0.3524
  533TMC3    C3 7963   4.330   4.508  14.173 -0.2299 -0.0038 -0.1680
  533TMC3    C4 7964   4.071   4.424  14.237  0.2273  0.6466 -0.1686
  533TMC3    C5 7965   4.098   4.559  14.213 -0.1608  0.6491  0.0645
  533TMC3    C6 7966   4.225   4.601  14.183 -0.0660  0.7024  0.2911
  533TMC3     C 7967   4.165   4.201  14.286 -0.2439  0.2205 -0.2946
  533TMC3     O 7968   4.255   4.127  14.314  0.2230 -0.1635 -0.4429
  533TMC3     H 7969   4.390   4.313  14.228 -0.5456 -1.1352  0.5208
  533TMC3    H1 7970   3.972   4.387  14.260  1.1603 -0.6651  1.7157
  533TMC3    H2 7971   4.254   4.705  14.197 -0.7193  0.6546  1.9788
  533TMC3    C7 7972   4.020   4.646  14.298  0.7466  0.7987  0.0833
  533TMC3    C8 7973   4.461   4.547  14.184  0.8002 -0.7960 -0.7471
  533TMC3    O1 7974   4.057   0.025  14.306 -0.1447 -0.1952 -0.3735
  533TMC3    O2 7975   4.526   4.495  14.271 -1.0038  0.3194  0.9833
  534MPD2     C 7976   2.253   0.691   1.371 -1.1064 -0.5384  0.4091
  534MPD2    C1 7977   2.274   0.817   1.323  0.3809  0.4076  0.0910
  534MPD2    C2 7978   2.169   0.895   1.294 -0.1310  0.3666 -0.5536
  534MPD2    C3 7979   2.040   0.854   1.324 -0.0949  0.3136  0.0799
  534MPD2    C4 7980   2.022   0.738   1.394 -1.5058 -0.5488 -0.1070
  534MPD2    C5 7981   2.126   0.651   1.411  0.7593  0.2874 -0.1420
  534MPD2     H 7982   2.180   0.995   1.254 -2.1463  0.4742 -0.8591
  534MPD2    H1 7983   1.929   0.700   1.434 -1.1530 -0.8328  0.4572
  534MPD2    H2 7984   2.339   0.631   1.399 -0.2651  0.6843  0.4585
  534MPD2    H3 7985   2.099   0.555   1.452 -0.0965  1.1212  1.2340
  534MPD2     N 7986   1.926   0.939   1.289 -0.4044  0.1390 -0.9997
  534MPD2    H5 7987   1.839   0.905   1.329  1.9444 -0.8954  3.1652
  534MPD2    N1 7988   2.400   0.868   1.301 -0.4860 -0.2062 -0.1536
  534MPD2    H7 7989   2.419   0.967   1.292 -0.9463 -0.0262  0.8161
  535TMC3    C1 7990   1.799   1.127   1.212 -0.5473  0.2125 -0.2908
  535TMC3    C2 7991   1.696   1.080   1.291  0.0026 -0.0879  0.0214
  535TMC3    C3 7992   1.581   1.145   1.268  0.0413 -0.5539  0.6242
  535TMC3    C4 7993   1.791   1.228   1.128  0.3361  0.3564 -0.9259
  535TMC3    C5 7994   1.671   1.279   1.105 -0.1369  0.6175  0.1508
  535TMC3    C6 7995   1.560   1.246   1.179 -0.4714 -0.8006  0.0257
  535TMC3     C 7996   1.922   1.056   1.212  0.5830  1.4764  0.3291
  535TMC3     O 7997   2.003   1.078   1.121 -0.0556  0.4733 -0.1519
  535TMC3     H 7998   1.704   0.988   1.348  0.2839 -0.0897 -0.0220
  535TMC3    H1 7999   1.874   1.254   1.062  0.4891  0.0542 -0.8541
  535TMC3    H2 8000   1.459   1.269   1.146 -0.6059  0.0937  1.0667
  535TMC3    C7 8001   1.654   1.348   0.982  0.0007  0.6241  0.1696
  535TMC3    C8 8002   1.464   1.096   1.342  0.1354  0.2452 -0.1841
  535TMC3    O1 8003   1.732   1.322   0.892  0.1216 -0.0917  0.0683
  535TMC3    O2 8004   1.350   1.119   1.300  0.0669  0.1694  0.0365
  536MPD2     C 8005   0.915   4.107  16.056  0.2435  0.5058 -0.1716
  536MPD2    C1 8006   0.787   4.056  16.090 -0.2936 -0.0677 -0.4652
  536MPD2    C2 8007   0.686   4.065  15.990  0.5484  0.2559  0.1403
  536MPD2    C3 8008   0.723   4.100  15.854 -0.3040 -0.2118 -0.6434
  536MPD2    C4 8009   0.856   4.134  15.826  0.6143  0.3068 -0.2104
  536MPD2    C5 8010   0.943   4.149  15.932 -0.2079  0.0154  0.7321
  536MPD2     H 8011   0.587   4.034  16.022  1.0873 -0.0734  1.4865
  536MPD2    H1 8012   0.885   4.166  15.726 -0.5314  2.8912  0.2853
  536MPD2    H2 8013   0.999   4.114  16.125  0.9632 -0.9454 -0.9007
  536MPD2    H3 8014   1.039   4.197  15.915 -0.7159  0.7275 -0.1546
  536MPD2     N 8015   0.623   4.081  15.753 -0.2427 -0.8410  0.0799
  536MPD2    H5 8016   0.530   4.063  15.789 -1.2541  1.0568 -1.6090
  536MPD2    N1 8017   0.763   4.019  16.229  0.1883 -0.0444 -0.4615
  536MPD2    H7 8018   0.846   4.030  16.286  1.3152 -0.5479 -2.0199
  537TMC3    C1 8019   0.690   3.860  16.391  0.2717  0.2036 -0.2710
  537TMC3    C2 8020   0.771   3.910  16.488  0.5653  0.5151 -1.0889
  537TMC3    C3 8021   0.816   3.823  16.591  0.0156 -0.1004  0.3111
  537TMC3    C4 8022   0.630   3.739  16.410  0.3352  0.7883  0.3373
  537TMC3    C5 8023   0.670   3.658  16.519  0.5157  0.4568  0.0232
  537TMC3    C6 8024   0.764   3.697  16.606 -0.2380 -0.1329 -0.8134
  537TMC3     C 8025   0.664   3.937  16.267  0.5010  0.2256  0.1111
  537TMC3     O 8026   0.573   3.889  16.202 -0.5504  0.1406  0.1099
  537TMC3     H 8027   0.818   4.008  16.490 -1.1838  1.3082  2.0497
  537TMC3    H1 8028   0.560   3.699  16.337 -1.2790 -0.2840  2.4599
  537TMC3    H2 8029   0.790   3.643  16.696  2.5311  0.5016 -1.2345
  537TMC3    C7 8030   0.618   3.523  16.521  0.0192  0.1232  0.0824
  537TMC3    C8 8031   0.889   3.881  16.704 -0.0445  0.1888  0.1983
  537TMC3    O1 8032   0.578   3.484  16.415 -0.3984  0.1044  0.0119
  537TMC3    O2 8033   0.853   3.995  16.723 -0.4016  0.0486  0.2096
  538TMC3    C1 8034   1.810   2.128  10.955 -0.0367 -0.8184 -0.6729
  538TMC3    C2 8035   1.944   2.106  10.944 -0.0608 -0.7072  0.5665
  538TMC3    C3 8036   2.017   2.167  10.842  0.9231  0.3921  0.0006
  538TMC3    C4 8037   1.743   2.199  10.857 -0.5410 -0.0573 -0.5981
  538TMC3    C5 8038   1.812   2.270  10.770  0.0399 -0.0118 -0.0717
  538TMC3    C6 8039   1.951   2.251  10.754 -0.2466 -0.2443  0.7146
  538TMC3     C 8040   1.730   2.040  11.034  0.1908 -0.0305  0.0583
  538TMC3     O 8041   1.608   2.038  11.008  0.9363  0.1483  0.1120
  538TMC3     H 8042   1.995   2.029  11.001  1.2840  0.0645  0.4236
  538TMC3    H1 8043   1.635   2.209  10.858 -0.3386  1.9236  2.0847
  538TMC3    H2 8044   2.001   2.303  10.673  0.2159 -2.8905 -0.7000
  538TMC3    C7 8045   1.742   2.368  10.688  0.0510 -0.3618  0.3023
  538TMC3    C8 8046   2.160   2.148  10.840  0.2843 -0.1471 -0.3102
  538TMC3    O1 8047   1.621   2.368  10.689  0.2227  0.1490  0.3943
  538TMC3    O2 8048   2.226   2.098  10.934 -0.5547 -0.2400  0.3630
  539MPD2     C 8049   1.231   1.331  12.008  0.0126  0.5017 -0.2622
  539MPD2    C1 8050   1.326   1.364  11.917 -0.0233 -0.6099  0.2920
  539MPD2    C2 8051   1.322   1.490  11.858  0.6426  0.5805  0.3161
  539MPD2    C3 8052   1.224   1.583  11.892  0.3526 -0.4454  0.0797
  539MPD2    C4 8053   1.132   1.545  11.988  0.2372  0.2038 -0.3632
  539MPD2    C5 8054   1.126   1.419  12.035  0.4642 -0.2008  0.6662
  539MPD2     H 8055   1.391   1.517  11.779  0.1047  0.1738 -0.2930
  539MPD2    H1 8056   1.043   1.599  12.016 -0.9816 -1.1028 -1.6773
  539MPD2    H2 8057   1.226   1.234  12.056  2.2818 -1.0338 -3.1375
  539MPD2    H3 8058   1.060   1.392  12.117  1.9207 -1.0485  1.5656
  539MPD2     N 8059   1.220   1.714  11.844  0.0160 -0.6862  0.2240
  539MPD2    H5 8060   1.143   1.777  11.865 -0.6681 -0.8050 -1.9743
  539MPD2    N1 8061   1.423   1.265  11.880 -0.7446  1.1731  0.2172
  539MPD2    H7 8062   1.418   1.174  11.925 -0.0036  0.8746 -0.3230
  540TMC3    C1 8063   1.257   1.899  11.691 -0.2318 -0.3870  0.0866
  540TMC3    C2 8064   1.275   1.920  11.558 -0.4900  0.2035 -1.1886
  540TMC3    C3 8065   1.256   2.043  11.507  0.9411  0.5387 -0.3125
  540TMC3    C4 8066   1.202   1.997  11.769  0.0747  0.7921  0.4723
  540TMC3    C5 8067   1.167   2.120  11.712  0.2326 -0.2298  0.4263
  540TMC3    C6 8068   1.196   2.142  11.583  0.8600 -0.8422  0.4133
  540TMC3     C 8069   1.291   1.763  11.734 -0.1778 -0.7658  0.1420
  540TMC3     O 8070   1.366   1.699  11.663 -0.3028 -0.2409 -0.2006
  540TMC3     H 8071   1.326   1.851  11.492  2.5422  0.1604  1.1866
  540TMC3    H1 8072   1.166   1.981  11.870 -0.1183  0.9855  0.4357
  540TMC3    H2 8073   1.171   2.238  11.540 -0.1544 -1.7702 -1.1095
  540TMC3    C7 8074   1.059   2.192  11.767 -0.8428 -0.1918  0.0450
  540TMC3    C8 8075   1.245   2.057  11.365  0.0358 -0.7633 -0.2168
  540TMC3    O1 8076   0.980   2.212  11.672  0.4457 -0.2200 -0.2057
  540TMC3    O2 8077   1.262   2.168  11.323  0.0443  0.3128 -0.4939
  541MPD2     C 8078   0.240   2.748  12.939 -0.6725 -0.5689 -0.0546
  541MPD2    C1 8079   0.152   2.848  12.954 -0.1453  0.4550 -0.4318
  541MPD2    C2 8080   0.112   2.928  12.850 -0.2836  0.0281  1.1378
  541MPD2    C3 8081   0.164   2.907  12.724 -0.0421 -0.3250 -0.0297
  541MPD2    C4 8082   0.272   2.815  12.711  0.4116  0.1007  0.2693
  541MPD2    C5 8083   0.298   2.731  12.816 -0.6531  0.1187 -0.6243
  541MPD2     H 8084   0.029   2.996  12.858  0.1225  0.7362 -0.7734
  541MPD2    H1 8085   0.314   2.790  12.614  0.8350  0.6819  0.3025
  541MPD2    H2 8086   0.276   2.682  13.017  1.0808 -0.8483 -1.0866
  541MPD2    H3 8087   0.373   2.653  12.808 -0.3376  0.1304  2.2001
  541MPD2     N 8088   0.117   2.975  12.605  0.2336  0.5101 -0.5958
  541MPD2    H5 8089   0.172   2.955  12.522 -0.3459  2.2998 -1.4096
  541MPD2    N1 8090   0.099   2.859  13.084 -0.3848 -0.0147 -0.0935
  541MPD2    H7 8091   0.101   2.777  13.143 -0.2464  0.4888  0.5933
  542TMC3    C1 8092   4.715   3.102  12.460  0.3355 -0.3678  0.7129
  542TMC3    C2 8093   4.738   3.006  12.364  0.3217  0.0540  0.0183
  542TMC3    C3 8094   4.691   3.029  12.243  0.3751  1.2445 -0.0142
  542TMC3    C4 8095   4.630   3.205  12.434  0.1415  0.0879  0.4172
  542TMC3    C5 8096   4.569   3.209  12.310 -0.4067  0.7925 -0.3275
  542TMC3    C6 8097   4.609   3.125  12.206  0.0913  0.4017 -0.3777
  542TMC3     C 8098   0.015   3.072  12.603  0.0257 -0.3361 -0.4729
  542TMC3     O 8099   4.682   3.126  12.686 -0.2762  0.3090  0.0068
  542TMC3     H 8100   0.048   2.912  12.387  0.3568  0.3900  1.3415
  542TMC3    H1 8101   4.593   3.269  12.515  0.8035 -2.1591  2.4808
  542TMC3    H2 8102   4.577   3.142  12.104 -2.5688  0.3922  0.4536
  542TMC3    C7 8103   4.447   3.287  12.309 -0.5010 -0.0436 -0.2087
  542TMC3    C8 8104   0.006   2.955  12.133  0.3000  0.1118  0.8172
  542TMC3    O1 8105   4.443   3.373  12.394  0.3636  0.3079 -0.1037
  542TMC3    O2 8106   4.672   2.957  12.034 -0.3250 -0.0223 -0.0522
  543TMC3    C1 8107   4.183   0.270  16.894  0.1042  0.1288  0.3665
  543TMC3    C2 8108   4.075   0.216  16.958 -0.5430  0.1294  0.0364
  543TMC3    C3 8109   4.088   0.191  17.091 -0.0953 -0.3369  0.5669
  543TMC3    C4 8110   4.306   0.289  16.957  0.1265 -0.4992  0.6065
  543TMC3    C5 8111   4.305   0.269  17.093  0.0910 -0.7677 -0.4603
  543TMC3    C6 8112   4.201   0.218  17.163 -0.3283 -0.6317  0.2667
  543TMC3     C 8113   4.170   0.277  16.746 -0.3430 -0.2675  0.1821
  543TMC3     O 8114   4.058   0.281  16.700  0.2971  0.1908 -0.3929
  543TMC3     H 8115   3.981   0.211  16.905 -0.9330  0.1940  0.7203
  543TMC3    H1 8116   4.393   0.322  16.902 -0.7567  3.4284  1.6143
  543TMC3    H2 8117   4.213   0.184  17.265  0.5836 -1.8766 -0.2541
  543TMC3    C7 8118   4.415   0.309  17.176 -0.5603  0.4455  1.7377
  543TMC3    C8 8119   3.989   0.096  17.136  0.2624 -0.0518  0.0852
  543TMC3    O1 8120   4.433   0.246  17.282 -0.0745 -0.2398 -0.6260
  543TMC3    O2 8121   3.884   0.096  17.070  0.1793  0.3432 -0.2058
  544MPD2     C 8122   3.891   4.362  17.335  0.2014 -0.6251  0.2947
  544MPD2    C1 8123   4.018   4.401  17.376 -0.6276  0.1678  0.3413
  544MPD2    C2 8124   4.072   4.524  17.337  0.0197 -0.1265  0.0462
  544MPD2    C3 8125   3.990   4.608  17.254  0.6665  0.3045 -0.4442
  544MPD2    C4 8126   3.862   4.574  17.230 -0.6123  0.4300  0.4693
  544MPD2    C5 8127   3.819   4.453  17.267 -0.0857  0.0858  0.4814
  544MPD2     H 8128   4.171   4.561  17.361  0.9775 -0.6269 -3.0801
  544MPD2    H1 8129   3.795   4.635  17.171  0.4526  0.7593 -0.4032
  544MPD2    H2 8130   3.842   4.268  17.358 -2.6283  1.0957  1.2883
  544MPD2    H3 8131   3.718   4.425  17.241 -0.1368  0.3115  0.4331
  544MPD2     N 8132   4.049   4.735  17.215  0.2878 -0.2007 -0.3805
  544MPD2    H5 8133   4.137   0.017  17.261 -1.0915  2.8898  0.9083
  544MPD2    N1 8134   4.086   4.305  17.457  0.1787 -0.3019  0.1085
  544MPD2    H7 8135   4.034   4.221  17.480  0.6782 -0.3995  0.8600
  545TMC3    C1 8136   4.185   4.233  17.647 -0.3647 -0.1998 -0.2750
  545TMC3    C2 8137   4.308   4.197  17.688 -0.3918  0.4134 -0.0437
  545TMC3    C3 8138   4.313   4.066  17.745 -0.1172  0.2969 -0.3396
  545TMC3    C4 8139   4.076   4.159  17.669 -0.4353  0.6905  0.0550
  545TMC3    C5 8140   4.092   4.037  17.730 -0.2431  0.3046 -0.0292
  545TMC3    C6 8141   4.212   3.982   0.011  0.1058 -0.4972 -0.4556
  545TMC3     C 8142   4.193   4.324  17.538 -0.1623  0.7650 -0.6490
  545TMC3     O 8143   4.278   4.416  17.530 -0.0644 -0.0492  0.0406
  545TMC3     H 8144   4.393   4.260  17.663 -0.0162 -1.0707 -2.4716
  545TMC3    H1 8145   3.979   4.204  17.650 -0.7618  0.7926  1.9483
  545TMC3    H2 8146   4.228   3.892   0.069  2.3733 -0.8464 -1.5983
  545TMC3    C7 8147   3.977   3.948  17.721 -0.0729 -0.3007  0.3427
  545TMC3    C8 8148   4.435   4.034   0.059  0.4589 -0.4581 -0.5352
  545TMC3    O1 8149   3.862   3.986  17.713 -0.7099  0.0138 -0.0034
  545TMC3    O2 8150   4.458   3.913   0.061  0.2657 -0.3386 -0.7221
  546MPD2     C 8151   0.775   0.008  17.456 -0.3367 -0.6456  0.3972
  546MPD2    C1 8152   0.782   0.046  17.324 -0.3344 -0.7908 -1.0471
  546MPD2    C2 8153   0.872   0.152  17.290 -0.3944 -0.0459 -0.4913
  546MPD2    C3 8154   0.928   0.228  17.387  0.5812  0.9966  0.4407
  546MPD2    C4 8155   0.929   0.190  17.517 -0.4168  0.1355 -0.0171
  546MPD2    C5 8156   0.855   0.082  17.553  0.3233  0.4203 -0.4157
  546MPD2     H 8157   0.886   0.169  17.184 -0.3940 -1.3092 -0.6891
  546MPD2    H1 8158   0.970   0.253  17.595 -1.4430 -0.1690  0.7686
  546MPD2    H2 8159   0.709   4.665  17.484 -1.5546 -0.4553 -1.9435
  546MPD2    H3 8160   0.875   0.047  17.654 -0.2503 -0.8418 -0.7465
  546MPD2     N 8161   0.993   0.355  17.356 -0.0658  0.1491 -0.0213
  546MPD2    H5 8162   1.031   0.411  17.432  0.0246  0.5573 -0.3652
  546MPD2    N1 8163   0.725   4.704  17.227 -0.0376 -0.0721  0.1139
  546MPD2    H7 8164   0.668   4.626  17.260 -1.0710 -0.1165 -1.7582
  547TMC3    C1 8165   0.681   4.602  17.018  0.4586  0.5044 -0.3870
  547TMC3    C2 8166   0.654   4.622  16.884  0.0222  0.0200 -0.3089
  547TMC3    C3 8167   0.587   4.519  16.820 -0.7516 -0.5524  0.5302
  547TMC3    C4 8168   0.633   4.491  17.084 -0.1024 -0.5060  0.1318
  547TMC3    C5 8169   0.566   4.391  17.009 -0.1110 -0.5694  0.0558
  547TMC3    C6 8170   0.549   4.400  16.871 -0.6614 -0.1625  0.0864
  547TMC3     C 8171   0.724   4.724  17.091 -0.4884 -0.0880 -0.0192
  547TMC3     O 8172   0.760   0.077  17.019  0.2846 -0.0964 -0.1179
  547TMC3     H 8173   0.666   4.721  16.842  0.6014  1.1822  2.5688
  547TMC3    H1 8174   0.655   4.467  17.188 -2.6765  0.9852  1.0279
  547TMC3    H2 8175   0.506   4.329  16.801  1.5776 -0.6713 -0.7597
  547TMC3    C7 8176   0.524   4.275  17.084 -0.2844  0.0001 -0.0309
  547TMC3    C8 8177   0.552   4.541  16.680  0.4156 -0.4508  0.2825
  547TMC3    O1 8178   0.542   4.276  17.205 -0.4681 -0.1113  0.6107
  547TMC3    O2 8179   0.438   4.503  16.653  0.1663 -0.0316 -0.0112
  548MPD2     C 8180   0.361   4.637  12.668  0.6508  0.5533 -0.5659
  548MPD2    C1 8181   0.284   4.562  12.577 -0.3204 -0.8502  0.1323
  548MPD2    C2 8182   0.346   4.474  12.486  0.3735  0.0400 -0.7248
  548MPD2    C3 8183   0.477   4.442  12.512  0.3133  0.5311  1.1036
  548MPD2    C4 8184   0.550   4.524  12.595  0.4691  0.3634  0.2295
  548MPD2    C5 8185   0.496   4.621  12.676  0.1025  0.1415 -0.1282
  548MPD2     H 8186   0.287   4.421  12.413  1.0075 -0.2880 -0.9992
  548MPD2    H1 8187   0.657   4.512  12.613  0.8929  0.3928 -2.2384
  548MPD2    H2 8188   0.313   4.698  12.745 -0.8500 -1.2611 -0.0711
  548MPD2    H3 8189   0.554   4.668  12.754 -1.2837 -1.4957  1.9062
  548MPD2     N 8190   0.552   4.333  12.453  0.3114 -0.1382 -0.1770
  548MPD2    H5 8191   0.644   4.316  12.491  2.3247  3.2292 -3.5502
  548MPD2    N1 8192   0.145   4.558  12.592  0.5267 -0.7311  0.1930
  548MPD2    H7 8193   0.111   4.595  12.680 -0.5998 -0.4127 -0.3772
  549TMC3    C1 8194   4.664   4.486  12.578  0.0234  0.1294 -0.4224
  549TMC3    C2 8195   4.595   4.598  12.616 -0.0248 -0.6397 -1.1244
  549TMC3    C3 8196   4.506   4.588  12.726  0.1199  0.3412 -0.7983
  549TMC3    C4 8197   4.639   4.361  12.624  0.4492 -0.2121 -0.5090
  549TMC3    C5 8198   4.556   4.357  12.728 -0.2718 -0.4311 -0.5362
  549TMC3    C6 8199   4.488   4.464  12.782 -0.2316 -0.3965  0.1649
  549TMC3     C 8200   0.051   4.497  12.507  0.0713  0.0775  0.5267
  549TMC3     O 8201   0.065   4.416  12.416 -0.0545 -0.1732 -0.6345
  549TMC3     H 8202   4.619   4.694  12.572  1.5375 -0.0138  1.0551
  549TMC3    H1 8203   4.695   4.279  12.581 -0.8083 -0.4859 -1.6059
  549TMC3    H2 8204   4.407   4.444  12.851 -0.7881 -0.4731 -0.5120
  549TMC3    C7 8205   4.504   4.222  12.769  0.2395  0.0101 -0.0946
  549TMC3    C8 8206   4.404   4.690  12.753  0.4282  0.4760  0.1442
  549TMC3    O1 8207   4.382   4.226  12.785 -0.5918 -0.1819 -0.2906
  549TMC3    O2 8208   4.387   0.033  12.660  0.2428 -0.2380 -0.1522
  550TMC3    C1 8209   3.266   3.117  12.176  0.2952  0.1128 -0.0267
  550TMC3    C2 8210   3.232   3.241  12.233 -0.1178  0.0229 -0.1472
  550TMC3    C3 8211   3.158   3.331  12.160  0.2777  0.1899  0.7633
  550TMC3    C4 8212   3.210   3.073  12.061 -0.4992 -0.1767 -0.2420
  550TMC3    C5 8213   3.134   3.165  11.996  0.2358 -0.1622 -0.3718
  550TMC3    C6 8214   3.111   3.290  12.041 -0.4562 -0.3545  1.0319
  550TMC3     C 8215   3.403   3.084  12.185 -0.1122 -0.0958  0.3108
  550TMC3     O 8216   3.443   2.982  12.121 -0.3362  0.1858  0.2805
  550TMC3     H 8217   3.257   3.270  12.334  1.1448  0.6676 -0.6462
  550TMC3    H1 8218   3.241   2.977  12.021 -0.2113 -0.0732 -0.2689
  550TMC3    H2 8219   3.070   3.364  11.973  1.1047  0.7620  1.2890
  550TMC3    C7 8220   3.100   3.148  11.857  0.0912 -0.1396  0.1036
  550TMC3    C8 8221   3.200   3.471  12.180  0.1248 -0.7537 -0.4339
  550TMC3    O1 8222   3.017   3.064  11.821 -0.0809 -0.1874 -0.1244
  550TMC3    O2 8223   3.307   3.493  12.244  0.2302 -0.1688  0.7983
  551TMC3    C1 8224   1.974   0.685  13.243 -0.0063  0.6469 -0.0941
  551TMC3    C2 8225   2.102   0.700  13.178  0.0154 -0.4368  0.6450
  551TMC3    C3 8226   2.213   0.724  13.259  0.1205 -0.2366  0.1002
  551TMC3    C4 8227   1.959   0.695  13.381 -0.0946  0.1904 -0.0273
  551TMC3    C5 8228   2.072   0.711  13.448 -0.1989 -0.3528  0.4173
  551TMC3    C6 8229   2.196   0.719  13.398 -0.4189  0.9847  0.1493
  551TMC3     C 8230   1.855   0.696  13.162  0.1839  0.1093  0.1061
  551TMC3     O 8231   1.756   0.641  13.211  0.3459 -0.2950  0.5576
  551TMC3     H 8232   2.112   0.706  13.070 -1.1515  0.4398  0.5896
  551TMC3    H1 8233   1.856   0.703  13.414 -0.4320 -1.1602 -0.7547
  551TMC3    H2 8234   2.277   0.756  13.460 -0.1036 -1.6738  1.3209
  551TMC3    C7 8235   2.063   0.744  13.592 -0.6005 -0.1147 -0.3373
  551TMC3    C8 8236   2.339   0.753  13.201 -0.1592 -0.1241  0.1734
  551TMC3    O1 8237   2.164   0.729  13.656 -0.3545 -0.3044  0.2148
  551TMC3    O2 8238   2.415   0.822  13.265 -0.2496 -0.6853 -1.2181
  552MPD2     C 8239   3.451   2.529  13.848  0.0768  0.1424  0.0345
  552MPD2    C1 8240   3.430   2.480  13.972 -0.3351  0.1841 -0.5133
  552MPD2    C2 8241   3.517   2.513  14.067 -0.8289  0.8899 -0.4810
  552MPD2    C3 8242   3.626   2.600  14.042  0.4539 -1.0559  0.4679
  552MPD2    C4 8243   3.654   2.640  13.912  0.0344 -0.2413 -0.6896
  552MPD2    C5 8244   3.560   2.608  13.817 -0.2359  0.5851 -0.5842
  552MPD2     H 8245   3.497   2.476  14.167  0.5493 -0.1340 -0.5790
  552MPD2    H1 8246   3.737   2.706  13.889  0.4981 -1.5911 -2.9153
  552MPD2    H2 8247   3.400   2.497  13.758  1.5728 -1.3876 -0.2842
  552MPD2    H3 8248   3.557   2.656  13.720  0.5271 -0.7316 -1.2549
  552MPD2     N 8249   3.717   2.642  14.142 -0.1434 -0.3191  0.7365
  552MPD2    H5 8250   3.791   2.703  14.107 -3.2204  1.7705 -2.1174
  552MPD2    N1 8251   3.322   2.395  14.009 -0.3183 -0.1721 -0.3385
  552MPD2    H7 8252   3.320   2.367  14.107  0.3862  0.7456 -0.0575
  553TMC3    C1 8253   3.119   2.254  13.977  0.6810  0.2760 -0.2589
  553TMC3    C2 8254   3.035   2.206  13.881 -0.4983  0.0093 -0.4142
  553TMC3    C3 8255   3.014   2.074  13.863  0.5718 -1.0785 -0.5352
  553TMC3    C4 8256   3.180   2.164  14.063 -0.0005 -0.2493 -0.1161
  553TMC3    C5 8257   3.147   2.030  14.050  0.0009 -0.8974 -0.1487
  553TMC3    C6 8258   3.071   1.987  13.946 -0.0244  0.3433  0.5682
  553TMC3     C 8259   3.211   2.360  13.928  0.3764 -0.8060  0.5333
  553TMC3     O 8260   3.198   2.384  13.809 -0.9043  0.0775 -0.1266
  553TMC3     H 8261   2.996   2.276  13.808 -0.6177  0.5569  0.1710
  553TMC3    H1 8262   3.250   2.200  14.137  1.9315 -1.3071 -1.4354
  553TMC3    H2 8263   3.057   1.879  13.939 -0.3808  0.5111 -1.1411
  553TMC3    C7 8264   3.254   1.932  14.079 -0.4406  0.0254  0.7362
  553TMC3    C8 8265   2.994   2.019  13.733 -0.5944 -0.0259  0.3068
  553TMC3    O1 8266   3.221   1.816  14.102  0.2104  0.1123  0.2014
  553TMC3    O2 8267   3.078   1.937  13.699  0.5699 -0.1927 -0.2026
  554TMC3    C1 8268   0.819   1.887  11.359 -0.0086  0.0257 -0.3598
  554TMC3    C2 8269   0.763   1.818  11.253 -0.0205  0.6580  0.9174
  554TMC3    C3 8270   0.758   1.889  11.136  0.3498  0.1491 -0.2409
  554TMC3    C4 8271   0.864   2.014  11.358 -0.5604  0.5894  1.0021
  554TMC3    C5 8272   0.859   2.078  11.236  0.4687 -0.2867 -0.6982
  554TMC3    C6 8273   0.809   2.016  11.120  0.5403 -0.4493 -0.2241
  554TMC3     C 8274   0.817   1.814  11.481 -0.1924 -0.2446 -0.4442
  554TMC3     O 8275   0.808   1.691  11.474 -0.0022 -0.5750 -0.4630
  554TMC3     H 8276   0.733   1.714  11.256 -1.1173  0.9566  0.3409
  554TMC3    H1 8277   0.874   2.078  11.445 -0.1359  1.8542  0.0096
  554TMC3    H2 8278   0.781   2.079  11.036 -2.0869 -1.0346  0.2047
  554TMC3    C7 8279   0.916   2.211  11.224  0.5379 -0.3113 -0.2647
  554TMC3    C8 8280   0.698   1.835  11.014  0.4230  0.0394 -0.5927
  554TMC3    O1 8281   0.914   2.288  11.317 -0.2687  0.1434 -0.7165
  554TMC3    O2 8282   0.738   1.890  10.909  0.6521 -0.6281 -0.2806
  555TMC3    C1 8283   4.442   1.741  15.240 -0.5331 -0.5314 -0.1079
  555TMC3    C2 8284   4.336   1.774  15.309 -0.4282  0.4094  0.0289
  555TMC3    C3 8285   4.289   1.682  15.399  0.2819 -0.5296  1.1206
  555TMC3    C4 8286   4.510   1.623  15.247  0.0457 -0.4454 -0.3996
  555TMC3    C5 8287   4.452   1.527  15.334  0.2996  0.1860 -0.1120
  555TMC3    C6 8288   4.347   1.558  15.407 -0.9670  1.2481 -0.0384
  555TMC3     C 8289   4.499   1.836  15.158  0.0702 -0.3979  0.3095
  555TMC3     O 8290   4.621   1.860  15.169  0.0338 -0.3875  0.0138
  555TMC3     H 8291   4.302   1.877  15.305  0.8299  0.8386  0.4696
  555TMC3    H1 8292   4.592   1.599  15.181 -0.5777 -0.8978 -1.0164
  555TMC3    H2 8293   4.301   1.482  15.470 -0.0331 -0.4752 -1.4553
  555TMC3    C7 8294   4.484   1.385  15.319  0.4822  0.2100 -0.2599
  555TMC3    C8 8295   4.225   1.746  15.510  0.7839  0.0804  0.2263
  555TMC3    O1 8296   4.434   1.300  15.390 -0.7024  0.0201  0.1733
  555TMC3    O2 8297   4.160   1.849  15.483 -0.2967 -0.5289 -0.2102
  556MPD2     C 8298   2.395   3.281  10.369 -0.6330  0.6444 -0.2965
  556MPD2    C1 8299   2.382   3.183  10.458  0.0114  0.9622  0.5594
  556MPD2    C2 8300   2.399   3.050  10.413  0.6939 -0.8114 -0.3368
  556MPD2    C3 8301   2.434   3.026  10.275  0.3161 -0.0096  0.2707
  556MPD2    C4 8302   2.435   3.130  10.188  0.2639  0.1172 -0.0713
  556MPD2    C5 8303   2.411   3.255  10.238 -0.3578  0.8355  1.1778
  556MPD2     H 8304   2.389   2.972  10.488  0.2720  0.7320  1.2167
  556MPD2    H1 8305   2.463   3.117  10.084  1.1566 -0.0155  0.1842
  556MPD2    H2 8306   2.402   3.388  10.385  1.9171  0.7245 -1.8949
  556MPD2    H3 8307   2.423   3.340  10.170 -0.0173 -1.2657 -1.4023
  556MPD2     N 8308   2.471   2.891  10.237 -0.6902 -1.2340 -0.1776
  556MPD2    H5 8309   2.490   2.832  10.318 -1.8929 -1.4717 -0.0598
  556MPD2    N1 8310   2.360   3.207  10.597 -0.2236 -0.1212 -0.4982
  556MPD2    H7 8311   2.346   3.123  10.652  2.1373  0.9978  1.8253
  557TMC3    C1 8312   2.506   2.689  10.113  0.1409  0.6261 -0.7731
  557TMC3    C2 8313   2.556   2.634   9.998  0.1473  0.3156  0.2460
  557TMC3    C3 8314   2.577   2.503   9.998  0.2068 -0.2921  0.8234
  557TMC3    C4 8315   2.478   2.621  10.230 -0.8412  0.2353 -0.1214
  557TMC3    C5 8316   2.512   2.488  10.227 -0.4598 -0.2060 -0.4003
  557TMC3    C6 8317   2.554   2.422  10.114  0.1693  0.2701  0.1688
  557TMC3     C 8318   2.485   2.837  10.104 -0.1447  0.2589  0.0555
  557TMC3     O 8319   2.476   2.886   9.993  0.8617  0.5429 -0.6180
  557TMC3     H 8320   2.588   2.693   9.913 -0.6510 -2.2311 -1.8390
  557TMC3    H1 8321   2.415   2.663  10.307  2.5676 -0.5587  3.0899
  557TMC3    H2 8322   2.554   2.313  10.113 -1.5037  0.2730 -0.0800
  557TMC3    C7 8323   2.443   2.411  10.322  0.1609 -0.4288 -0.2545
  557TMC3    C8 8324   2.603   2.449   9.870  0.7787 -0.4522  0.4299
  557TMC3    O1 8325   2.327   2.439  10.333  0.5124  0.4731  0.3466
  557TMC3    O2 8326   2.614   2.530   9.782 -0.2803  0.2810 -0.1097
  558TMC3    C1 8327   0.038   0.730  10.650 -0.2998 -0.1742  0.0954
  558TMC3    C2 8328   4.664   0.772  10.711 -0.4771  0.0368 -0.2264
  558TMC3    C3 8329   4.547   0.765  10.631  0.5474  1.1320 -0.5984
  558TMC3    C4 8330   0.042   0.701  10.519  0.3755  0.5610 -0.0404
  558TMC3    C5 8331   4.667   0.693  10.440  0.0187 -0.4140  0.1783
  558TMC3    C6 8332   4.546   0.724  10.499 -0.5396 -0.5710 -0.6623
  558TMC3     C 8333   0.159   0.723  10.727  0.3285  0.6207 -0.2327
  558TMC3     O 8334   0.260   0.745  10.662 -0.8322  0.2978  0.0159
  558TMC3     H 8335   4.667   0.808  10.813  0.9312 -0.5815 -0.0499
  558TMC3    H1 8336   0.135   0.661  10.480  0.1653  1.3935 -1.4078
  558TMC3    H2 8337   4.458   0.744  10.440 -1.0705 -0.7928  0.0561
  558TMC3    C7 8338   4.688   0.681  10.294  0.7893 -0.4780 -0.0176
  558TMC3    C8 8339   4.416   0.796  10.694 -0.1418  0.9168  0.5391
  558TMC3    O1 8340   0.066   0.699  10.258 -0.3538 -0.2957  0.0602
  558TMC3    O2 8341   4.313   0.799  10.624 -0.4661  0.1699  0.6346
  559MPD2     C 8342   0.183   1.047  10.625  0.6340  0.2246 -0.3141
  559MPD2    C1 8343   0.113   1.080  10.736  0.1342  0.0806 -0.5223
  559MPD2    C2 8344   0.174   1.078  10.858 -0.1686 -0.6841 -0.2550
  559MPD2    C3 8345   0.310   1.065  10.875 -0.0756 -0.2938  0.3957
  559MPD2    C4 8346   0.382   1.044  10.761 -0.2025  0.1909  0.1498
  559MPD2    C5 8347   0.319   1.024  10.637  0.1853 -0.8211  0.0454
  559MPD2     H 8348   0.117   1.070  10.950  0.8799  1.3175  0.5651
  559MPD2    H1 8349   0.488   1.023  10.761 -0.5100 -1.4037 -0.2716
  559MPD2    H2 8350   0.139   1.038  10.527 -3.2125  1.3065  1.2952
  559MPD2    H3 8351   0.381   1.011  10.549  3.4375 -0.8947  2.3593
  559MPD2     N 8352   0.361   1.082  11.003 -0.2015 -0.4943  0.0730
  559MPD2    H5 8353   0.301   1.097  11.083 -1.0883 -3.5607 -0.0177
  559MPD2    N1 8354   4.716   1.109  10.737  0.5410  0.7543  0.0402
  559MPD2    H7 8355   4.668   1.130  10.824 -0.3353  1.1032 -0.5272
  560TMC3    C1 8356   0.502   1.053  11.184 -0.4653 -0.2477  0.0285
  560TMC3    C2 8357   0.395   0.992  11.253  0.0724 -0.5740  0.2525
  560TMC3    C3 8358   0.398   1.003  11.388 -0.0563  0.0315 -0.0685
  560TMC3    C4 8359   0.607   1.116  11.236 -0.2002 -0.0009  0.4869
  560TMC3    C5 8360   0.615   1.101  11.373 -0.5441  0.5628 -0.5477
  560TMC3    C6 8361   0.509   1.055  11.448  0.5299  0.4667 -0.2506
  560TMC3     C 8362   0.493   1.062  11.038  0.5628  0.1990  0.5296
  560TMC3     O 8363   0.597   1.033  10.978  0.3947  0.6247  0.1040
  560TMC3     H 8364   0.317   0.945  11.194 -0.2592  1.4783 -0.9682
  560TMC3    H1 8365   0.685   1.155  11.172  1.0667 -0.7362  1.5801
  560TMC3    H2 8366   0.503   1.073  11.555  3.2696  0.3446 -0.0785
  560TMC3    C7 8367   0.725   1.162  11.450 -0.5885  0.4502  0.7242
  560TMC3    C8 8368   0.296   0.923  11.455 -0.3314 -0.0168  0.1489
  560TMC3    O1 8369   0.715   1.178  11.570  0.0791 -0.4243  0.3058
  560TMC3    O2 8370   0.216   0.872  11.381  0.3496 -0.2449 -0.6814
  561TMC3    C1 8371   2.873   0.479  11.311  1.0436 -0.0205 -0.3105
  561TMC3    C2 8372   2.799   0.374  11.351 -0.2303 -0.3925  0.1547
  561TMC3    C3 8373   2.772   0.365  11.486  0.6986 -0.1441 -0.7484
  561TMC3    C4 8374   2.915   0.582  11.399  0.0795 -0.0324 -0.3901
  561TMC3    C5 8375   2.895   0.558  11.532  0.2413  0.0262  0.2223
  561TMC3    C6 8376   2.814   0.455  11.577  0.2335  0.2403 -0.1827
  561TMC3     C 8377   2.951   0.473  11.195  0.2047  0.4563 -0.0676
  561TMC3     O 8378   3.008   0.581  11.172  0.3524 -0.3239 -0.1884
  561TMC3     H 8379   2.741   0.311  11.284  0.4126  0.0996 -0.8654
  561TMC3    H1 8380   2.973   0.669  11.370  1.9360 -0.5994  1.6429
  561TMC3    H2 8381   2.801   0.440  11.683  2.2556  2.2368  0.3576
  561TMC3    C7 8382   2.985   0.606  11.636 -0.3280 -0.0697 -1.1063
  561TMC3    C8 8383   2.693   0.249  11.538 -0.1774  0.5147  0.1740
  561TMC3    O1 8384   2.982   0.545  11.741  0.2531  0.1038 -0.9472
  561TMC3    O2 8385   2.695   0.146  11.470  0.1670  0.2010  0.0217
  562TMC3    C1 8386   4.232   1.752  16.379 -0.1008 -0.2712 -0.2410
  562TMC3    C2 8387   4.167   1.795  16.265 -0.0979 -0.2234 -0.0106
  562TMC3    C3 8388   4.114   1.699  16.179  0.0405 -0.8793  0.4249
  562TMC3    C4 8389   4.237   1.617  16.415 -0.2410  0.4751  0.0411
  562TMC3    C5 8390   4.184   1.523  16.329 -0.5490 -0.1470 -0.0843
  562TMC3    C6 8391   4.122   1.564  16.210  0.0429  0.3303 -0.6781
  562TMC3     C 8392   4.255   1.862  16.479 -0.3649 -0.1035  1.2974
  562TMC3     O 8393   4.182   1.957  16.467  0.1716 -0.4583  0.1442
  562TMC3     H 8394   4.147   1.902  16.261 -0.2940 -0.3030 -1.0631
  562TMC3    H1 8395   4.255   1.587  16.518 -1.3552 -0.3831 -0.0138
  562TMC3    H2 8396   4.056   1.498  16.155  0.5405 -0.5719 -0.1895
  562TMC3    C7 8397   4.208   1.384  16.355 -0.0669  0.1469  0.1527
  562TMC3    C8 8398   3.979   1.746  16.136 -0.6645 -0.7359 -0.2188
  562TMC3    O1 8399   4.147   1.309  16.278 -0.4598  0.0940 -0.1859
  562TMC3    O2 8400   3.881   1.696  16.195  0.1148 -0.1188  0.2572
  563MPD2     C 8401   2.209   3.450  15.606  0.2650  0.8419  1.3289
  563MPD2    C1 8402   2.215   3.419  15.740  0.4729 -0.4852 -0.6580
  563MPD2    C2 8403   2.334   3.387  15.791 -0.3995  0.5079 -0.5291
  563MPD2    C3 8404   2.443   3.362  15.712  0.0739  0.4833  0.7421
  563MPD2    C4 8405   2.439   3.388  15.578  0.6511 -0.1110  0.1351
  563MPD2    C5 8406   2.320   3.442  15.538  0.3844  0.1691  0.3104
  563MPD2     H 8407   2.341   3.363  15.896 -0.2637  3.2680  0.0683
  563MPD2    H1 8408   2.526   3.389  15.513 -0.0427 -1.9806 -0.8018
  563MPD2    H2 8409   2.122   3.500  15.565  0.9607  1.6091  0.7956
  563MPD2    H3 8410   2.316   3.466  15.432 -1.2786  1.0239  0.5526
  563MPD2     N 8411   2.549   3.304  15.784 -0.2837 -0.2684 -0.0482
  563MPD2    H5 8412   2.535   3.310  15.885 -2.5772  0.0875 -0.3926
  563MPD2    N1 8413   2.102   3.425  15.828  0.1958 -0.8442  0.4578
  563MPD2    H7 8414   2.119   3.373  15.914 -0.3505 -0.5069  0.7653
  564TMC3    C1 8415   1.885   3.439  15.905 -0.2398 -0.3944 -0.2827
  564TMC3    C2 8416   1.759   3.389  15.875 -0.2435  1.1650  0.0717
  564TMC3    C3 8417   1.678   3.354  15.980 -0.0842  0.1452 -0.2110
  564TMC3    C4 8418   1.928   3.447  16.033  0.2687  0.0660 -0.0080
  564TMC3    C5 8419   1.851   3.405  16.133  0.0627  1.0223 -0.0052
  564TMC3    C6 8420   1.720   3.364  16.109  0.4784 -0.3342  0.1927
  564TMC3     C 8421   1.979   3.469  15.800  0.4396  0.5068  0.6906
  564TMC3     O 8422   1.931   3.522  15.699  0.3998  0.2423  0.1159
  564TMC3     H 8423   1.729   3.374  15.772  1.2711  2.4067 -0.5562
  564TMC3    H1 8424   2.019   3.497  16.064  0.6422 -0.6804  0.0805
  564TMC3    H2 8425   1.654   3.337  16.191  0.6789 -0.4532  0.3154
  564TMC3    C7 8426   1.920   3.313  16.216  0.0227  0.3066 -0.0640
  564TMC3    C8 8427   1.609   3.231  15.956  0.1757 -0.3743  0.1329
  564TMC3    O1 8428   2.032   3.329  16.259 -0.1647  0.2975 -0.5939
  564TMC3    O2 8429   1.598   3.150  16.049 -0.5873  0.0161  0.8020
  565TMC3    C1 8430   2.215   4.737  10.108  0.4995 -0.4999  0.1093
  565TMC3    C2 8431   2.212   4.626  10.187  0.0376  0.2389 -0.0333
  565TMC3    C3 8432   2.100   4.549  10.204  0.0053  0.5707  0.4059
  565TMC3    C4 8433   2.096   0.049  10.061  0.0709 -0.1876 -0.0631
  565TMC3    C5 8434   1.987   4.711  10.091  0.1275 -0.2307  0.6296
  565TMC3    C6 8435   1.976   4.596  10.158 -0.6632 -0.4771 -0.6920
  565TMC3     C 8436   2.336   0.081  10.086 -0.3227  0.1300 -0.5574
  565TMC3     O 8437   2.314   0.179  10.009  0.3463  0.2439  0.1475
  565TMC3     H 8438   2.310   4.596  10.223  0.0675 -0.2612 -0.5355
  565TMC3    H1 8439   2.089   0.140  10.003 -0.1935  0.0021  0.2724
  565TMC3    H2 8440   1.887   4.560  10.208 -0.6023 -1.1071 -1.0384
  565TMC3    C7 8441   1.868   0.042  10.072 -0.5292  0.3517  0.0510
  565TMC3    C8 8442   2.102   4.414  10.265  0.9154 -0.0576 -0.7052
  565TMC3    O1 8443   1.868   0.161  10.097  0.4647 -0.6100  0.2853
  565TMC3    O2 8444   2.187   4.386  10.348  0.2371 -0.0704  0.1867
  566MPD2     C 8445   4.355   0.357  14.136 -0.5582 -0.1703 -0.1571
  566MPD2    C1 8446   4.294   0.461  14.082  0.2179  0.6688 -0.0117
  566MPD2    C2 8447   4.172   0.435  14.017 -0.7578 -0.1564  0.4931
  566MPD2    C3 8448   4.107   0.316  14.021  0.0302  0.5140  0.0431
  566MPD2    C4 8449   4.174   0.211  14.075  0.3222  0.0984  0.5567
  566MPD2    C5 8450   4.292   0.233  14.137 -0.5334 -0.1598  0.5479
  566MPD2     H 8451   4.119   0.521  13.979 -0.1010  0.3892  0.8185
  566MPD2    H1 8452   4.128   0.114  14.084 -2.1868  1.0658 -1.6224
  566MPD2    H2 8453   4.454   0.370  14.178 -0.2253 -1.5740 -0.5179
  566MPD2    H3 8454   4.337   0.154  14.196 -0.2235 -0.8944 -0.6785
  566MPD2     N 8455   3.973   0.297  13.970  0.0835  0.1102 -0.6484
  566MPD2    H5 8456   3.935   0.203  13.979 -0.7433  0.5271  0.2002
  566MPD2    N1 8457   4.360   0.587  14.079 -0.6868 -0.2182  0.6075
  566MPD2    H7 8458   4.426   0.604  14.154 -1.0040  0.8287  0.6560
  567TMC3    C1 8459   4.400   0.811  14.008  0.6449  0.0568 -0.3693
  567TMC3    C2 8460   4.344   0.923  13.950 -0.0748 -0.2162  0.2640
  567TMC3    C3 8461   4.357   1.048  14.005 -0.3231  0.3926 -0.1394
  567TMC3    C4 8462   4.473   0.825  14.120 -0.9254 -0.0891 -0.1722
  567TMC3    C5 8463   4.477   0.953  14.174  0.1775  0.5343  0.1415
  567TMC3    C6 8464   4.409   1.059  14.128 -0.0179 -0.1609 -0.2598
  567TMC3     C 8465   4.330   0.689  13.988  0.1536 -0.0602 -0.0200
  567TMC3     O 8466   4.250   0.688  13.893  0.2802  0.2190  0.5331
  567TMC3     H 8467   4.289   0.902  13.859 -1.8606  1.3914  0.9751
  567TMC3    H1 8468   4.522   0.746  14.176  0.9598  0.6376 -0.8045
  567TMC3    H2 8469   4.406   1.153  14.182 -0.4337 -0.5553  0.3879
  567TMC3    C7 8470   4.538   0.966  14.306 -0.7445  0.9473 -0.5295
  567TMC3    C8 8471   4.266   1.147  13.958 -0.3189  0.2936 -0.6568
  567TMC3    O1 8472   4.660   0.965  14.314 -0.4293  0.3533 -0.7277
  567TMC3    O2 8473   4.220   1.132  13.844 -0.7827  0.2288  0.1984
  568MPD2     C 8474   2.042   1.990  16.095  0.1754 -0.7036 -0.6518
  568MPD2    C1 8475   1.963   2.006  16.206  0.2547  0.4691  0.6120
  568MPD2    C2 8476   1.840   2.065  16.186 -0.8627  0.2266 -0.0201
  568MPD2    C3 8477   1.798   2.106  16.057 -0.3920 -0.2759  1.2107
  568MPD2    C4 8478   1.887   2.104  15.956  1.0274  0.5235 -0.0607
  568MPD2    C5 8479   2.002   2.038  15.977 -0.1400  0.1723  0.3051
  568MPD2     H 8480   1.773   2.086  16.268 -1.1204  1.8713 -0.6650
  568MPD2    H1 8481   1.859   2.135  15.856  0.3245 -2.2208 -0.7246
  568MPD2    H2 8482   2.136   1.938  16.108  0.1717 -0.8548 -1.2642
  568MPD2    H3 8483   2.057   2.021  15.886  2.3528 -0.7997  1.9822
  568MPD2     N 8484   1.670   2.172  16.047  0.1065  0.5763  0.4007
  568MPD2    H5 8485   1.622   2.188  16.135  0.3447 -2.1976  1.0420
  568MPD2    N1 8486   2.017   1.964  16.335 -0.4504  0.5727  0.3369
  568MPD2    H7 8487   2.115   1.939  16.331 -0.4542  0.4114  1.2758
  569TMC3    C1 8488   1.493   2.318  15.958 -0.4700  0.0591  0.2260
  569TMC3    C2 8489   1.443   2.319  16.089 -0.8207 -0.0417 -0.3123
  569TMC3    C3 8490   1.371   2.427  16.123  0.2490  0.2401 -0.4506
  569TMC3    C4 8491   1.465   2.422  15.866 -0.6085  0.1878 -0.9743
  569TMC3    C5 8492   1.384   2.526  15.913  0.0802  0.2232 -0.5301
  569TMC3    C6 8493   1.342   2.533  16.045 -0.1406 -0.2197  0.2512
  569TMC3     C 8494   1.613   2.230  15.933 -0.4244  0.5135  0.7966
  569TMC3     O 8495   1.667   2.261  15.827  0.8109  0.2701 -0.0751
  569TMC3     H 8496   1.456   2.239  16.161 -1.8319  2.0425  2.2333
  569TMC3    H1 8497   1.485   2.413  15.760 -0.5269  0.1556 -0.9563
  569TMC3    H2 8498   1.269   2.603  16.084  0.2777  0.9289 -1.0482
  569TMC3    C7 8499   1.368   2.632  15.812  0.1617 -0.2407 -0.1963
  569TMC3    C8 8500   1.359   2.441  16.260  0.3160  0.0096 -0.0236
  569TMC3    O1 8501   1.351   2.592  15.698  0.1934 -0.2564 -0.0674
  569TMC3    O2 8502   1.316   2.337  16.317  0.1488 -0.4713 -0.1090
  570TMC3    C1 8503   0.495   0.725  15.894  0.2476 -0.2118  0.4288
  570TMC3    C2 8504   0.589   0.690  15.796  0.7569 -0.4532  0.2523
  570TMC3    C3 8505   0.712   0.760  15.800  0.5647  0.0026 -0.2729
  570TMC3    C4 8506   0.510   0.831  15.979 -0.8879 -0.3142  0.4540
  570TMC3    C5 8507   0.630   0.902  15.967  0.0370  0.4426 -0.1085
  570TMC3    C6 8508   0.731   0.870  15.884 -0.3656  0.4454 -0.4666
  570TMC3     C 8509   0.405   0.617  15.939  0.2484  0.4514  0.2944
  570TMC3     O 8510   0.358   0.544  15.855 -0.0411  0.3555 -0.1334
  570TMC3     H 8511   0.565   0.604  15.735  0.0232  1.1348 -1.6983
  570TMC3    H1 8512   0.437   0.844  16.058 -2.3348  0.6353 -1.0204
  570TMC3    H2 8513   0.826   0.922  15.896  0.1063 -0.3414 -0.8301
  570TMC3    C7 8514   0.654   1.018  16.058  1.2289 -0.4581  0.2953
  570TMC3    C8 8515   0.818   0.743  15.702 -0.4130 -0.1899  0.0352
  570TMC3    O1 8516   0.757   1.082  16.048  0.4315  0.9731 -0.0754
  570TMC3    O2 8517   0.913   0.824  15.703 -0.9794  0.1125 -0.1719
  571MPD2     C 8518   4.109   2.134  17.595 -0.0235 -0.1571  0.9620
  571MPD2    C1 8519   4.000   2.219  17.588  0.5076  0.1049  0.0939
  571MPD2    C2 8520   3.978   2.313  17.688 -0.2032  0.0726  0.1298
  571MPD2    C3 8521   4.072   2.330   0.036 -0.6595 -0.6682 -0.0846
  571MPD2    C4 8522   4.186   2.244   0.034 -0.3639  0.3586 -1.2463
  571MPD2    C5 8523   4.201   2.149  17.692  1.1430 -0.2318 -0.6467
  571MPD2     H 8524   3.901   2.390  17.691 -0.6089 -0.3375  0.2255
  571MPD2    H1 8525   4.275   2.249   0.095  1.2023  0.0834 -3.5266
  571MPD2    H2 8526   4.127   2.050  17.528  0.4803 -0.1017  1.0303
  571MPD2    H3 8527   4.285   2.080  17.688  0.7059 -0.6148 -3.1227
  571MPD2     N 8528   4.059   2.438   0.125  0.5166  0.2237 -0.0787
  571MPD2    H5 8529   3.978   2.498   0.116 -0.2898 -1.0083 -1.0992
  571MPD2    N1 8530   3.908   2.193  17.487 -0.5294  0.3838  0.0681
  571MPD2    H7 8531   3.930   2.112  17.430  0.7138  0.4128  0.4928
  572TMC3    C1 8532   4.118   2.590   0.299 -0.4860  0.0052 -0.3815
  572TMC3    C2 8533   4.164   2.597   0.430 -0.7422  0.7102  0.3926
  572TMC3    C3 8534   4.156   2.724   0.486  0.2618 -0.2405 -0.2755
  572TMC3    C4 8535   4.068   2.686   0.223  0.0366  0.0936  0.3440
  572TMC3    C5 8536   4.070   2.813   0.281  0.4303  0.4106  0.2702
  572TMC3    C6 8537   4.116   2.830   0.405  0.3419  0.5565 -0.5932
  572TMC3     C 8538   4.138   2.457   0.239  0.5335  0.0193 -0.4092
  572TMC3     O 8539   4.226   2.382   0.281  0.1837  0.2499  0.2943
  572TMC3     H 8540   4.218   2.510   0.468 -1.2476 -0.7671 -2.2668
  572TMC3    H1 8541   4.045   2.681   0.117  2.9477 -0.6895 -0.2603
  572TMC3    H2 8542   4.108   2.927   0.453 -3.1303  0.7790 -1.6327
  572TMC3    C7 8543   3.988   2.918   0.227  0.3901 -0.0458  0.4080
  572TMC3    C8 8544   4.202   2.757   0.623  0.6185  0.2930  0.2462
  572TMC3    O1 8545   3.876   2.898   0.178  0.0754 -0.0781 -0.4051
  572TMC3    O2 8546   4.240   2.871   0.651 -0.2327  0.6072  0.2558
  573MPD2     C 8547   4.495   2.733   0.393 -0.2029  0.1795 -0.0653
  573MPD2    C1 8548   4.472   2.865   0.382 -0.5299 -0.1352 -0.5716
  573MPD2    C2 8549   4.425   2.913   0.261  0.2743 -0.0659  0.1713
  573MPD2    C3 8550   4.404   2.833   0.152 -0.2481  0.7259 -0.2008
  573MPD2    C4 8551   4.433   2.701   0.164 -0.6738  0.0996 -0.5181
  573MPD2    C5 8552   4.473   2.656   0.284  0.2782 -0.2767  0.7820
  573MPD2     H 8553   4.393   3.017   0.254 -0.9843 -0.3038  2.5440
  573MPD2    H1 8554   4.405   2.639   0.080 -0.4208  4.0959 -3.5488
  573MPD2    H2 8555   4.536   2.674   0.474 -0.3779 -0.5788 -0.5267
  573MPD2    H3 8556   4.484   2.548   0.291 -0.6344 -0.5723 -2.3830
  573MPD2     N 8557   4.353   2.887   0.027  0.1782  0.4371 -0.2966
  573MPD2    H5 8558   4.337   2.818  17.705  2.0515 -1.4201  1.0301
  573MPD2    N1 8559   4.509   2.945   0.489 -0.3635 -0.3130 -0.0448
  573MPD2    H7 8560   4.538   2.902   0.576 -1.1931 -1.2900 -0.2447
  574TMC3    C1 8561   4.253   3.036  17.619  0.2951  0.1171 -0.2059
  574TMC3    C2 8562   4.178   3.152  17.609  0.7812  0.3457  0.0031
  574TMC3    C3 8563   4.084   3.155  17.504 -0.0957  0.7390 -0.4101
  574TMC3    C4 8564   4.253   2.936  17.525  0.4631 -0.1335  0.2301
  574TMC3    C5 8565   4.161   2.953  17.419 -0.5985 -0.1921  0.5872
  574TMC3    C6 8566   4.064   3.049  17.429 -0.1066 -1.0432 -0.2376
  574TMC3     C 8567   4.318   3.017  17.749  0.2044 -0.7412 -0.0836
  574TMC3     O 8568   4.331   3.117   0.069 -0.2781 -0.9099  0.3359
  574TMC3     H 8569   4.191   3.229  17.684 -0.9164 -1.4347  2.1375
  574TMC3    H1 8570   4.304   2.842  17.541  0.0395 -0.3661  0.2389
  574TMC3    H2 8571   3.994   3.062  17.347  0.7214 -0.1831 -0.8053
  574TMC3    C7 8572   4.155   2.856  17.311 -0.2016  0.1395 -0.6935
  574TMC3    C8 8573   3.996   3.260  17.486 -0.3744 -0.1113  0.3656
  574TMC3    O1 8574   4.061   2.864  17.230  0.2173  0.3766 -0.2529
  574TMC3    O2 8575   3.897   3.252  17.414  0.1189  0.4953 -0.3391
  575TMC3    C1 8576   2.112   4.074  11.073 -0.2605 -0.1169  0.2264
  575TMC3    C2 8577   2.101   3.937  11.079  0.4198  0.4578 -0.3080
  575TMC3    C3 8578   2.079   3.869  10.960 -0.0168 -0.2936  0.2171
  575TMC3    C4 8579   2.098   4.140  10.953  0.0666 -0.7039 -0.2353
  575TMC3    C5 8580   2.067   4.069  10.837  0.4365 -0.2689  0.6018
  575TMC3    C6 8581   2.066   3.934  10.839 -0.3514  0.0798 -0.1925
  575TMC3     C 8582   2.117   4.149  11.197 -0.2873  0.4902 -0.5015
  575TMC3     O 8583   2.062   4.259  11.193 -0.4832  0.2123 -0.2313
  575TMC3     H 8584   2.098   3.885  11.174 -1.5099 -0.5377 -0.8980
  575TMC3    H1 8585   2.103   4.248  10.954 -1.9184 -0.6162 -0.4615
  575TMC3    H2 8586   2.063   3.871  10.750 -1.1151  0.6781 -0.5865
  575TMC3    C7 8587   2.035   4.136  10.715 -0.3541  0.2652  0.0509
  575TMC3    C8 8588   2.050   3.721  10.974  0.0122  0.1252  0.0738
  575TMC3    O1 8589   2.097   4.240  10.690  0.1603 -0.3866 -0.0959
  575TMC3    O2 8590   2.090   3.659  11.073 -0.5069 -0.1169  0.3071
  576MPD2     C 8591   1.626   0.226  12.478 -0.8613  0.2914  0.8136
  576MPD2    C1 8592   1.681   0.336  12.413  0.3402  0.3635 -0.1807
  576MPD2    C2 8593   1.594   0.445  12.409  0.3946 -0.1029  0.3976
  576MPD2    C3 8594   1.462   0.442  12.441 -0.5334 -0.0137 -0.4729
  576MPD2    C4 8595   1.418   0.334  12.511 -0.0613  0.8252  0.6484
  576MPD2    C5 8596   1.500   0.230  12.532  0.5738 -0.5519  0.9271
  576MPD2     H 8597   1.634   0.540  12.375 -0.6720 -0.4572 -1.8072
  576MPD2    H1 8598   1.314   0.322  12.540 -0.4194 -1.9064 -1.6546
  576MPD2    H2 8599   1.683   0.134  12.485 -0.2328  0.6417  0.3101
  576MPD2    H3 8600   1.469   0.134  12.573  2.8347 -1.9213 -0.5352
  576MPD2     N 8601   1.381   0.550  12.402 -0.3635  0.2030 -0.0633
  576MPD2    H5 8602   1.425   0.626  12.351 -0.9846  0.2086 -0.5891
  576MPD2    N1 8603   1.810   0.345  12.353  0.8405  0.3113  0.1316
  576MPD2    H7 8604   1.834   0.422  12.292 -1.6736  1.0109  0.0487
  577TMC3    C1 8605   2.044   0.267  12.306  0.8528 -0.6986  1.2788
  577TMC3    C2 8606   2.131   0.166  12.288 -1.3524 -0.4713 -0.3287
  577TMC3    C3 8607   2.255   0.190  12.244 -0.2382  0.2014 -1.0571
  577TMC3    C4 8608   2.079   0.397  12.282 -0.3645 -0.6520 -0.1771
  577TMC3    C5 8609   2.209   0.419  12.246  0.1738 -0.5940  0.2991
  577TMC3    C6 8610   2.302   0.315  12.227  0.3200 -0.1811 -0.2560
  577TMC3     C 8611   1.913   0.241  12.366 -0.3396 -0.0496  0.0639
  577TMC3     O 8612   1.899   0.128  12.407 -0.7379 -0.1281 -0.1898
  577TMC3     H 8613   2.097   0.063  12.297 -2.3122 -0.3025 -1.9502
  577TMC3    H1 8614   2.014   0.476  12.318 -2.4942 -1.4381 -2.3253
  577TMC3    H2 8615   2.409   0.328  12.216  0.4966 -2.0173 -0.6975
  577TMC3    C7 8616   2.243   0.536  12.158 -0.3480 -0.2753 -0.6867
  577TMC3    C8 8617   2.311   0.096  12.145 -0.1530  0.0935  0.4914
  577TMC3    O1 8618   2.358   0.532  12.119  0.6682  0.8775 -0.0183
  577TMC3    O2 8619   2.280   4.717  12.155  0.2406  0.0675  0.5128
  578MPD2     C 8620   0.532   1.107   0.844 -0.3607  0.0440 -0.0061
  578MPD2    C1 8621   0.605   1.003   0.803  0.5679  0.2851 -0.3114
  578MPD2    C2 8622   0.629   0.902   0.896 -0.2134  0.4414 -0.3768
  578MPD2    C3 8623   0.601   0.915   1.030  0.5566  0.3827 -1.1776
  578MPD2    C4 8624   0.526   1.027   1.075  0.4709 -0.2595 -0.2918
  578MPD2    C5 8625   0.495   1.126   0.980  0.2042  0.2681  0.1736
  578MPD2     H 8626   0.680   0.807   0.880  1.2034  1.1260  0.0991
  578MPD2    H1 8627   0.481   1.030   1.174  1.0739 -1.5081  0.0202
  578MPD2    H2 8628   0.501   1.184   0.775 -0.4100 -1.0254 -1.1784
  578MPD2    H3 8629   0.440   1.213   1.014 -1.5778 -0.1285 -1.7003
  578MPD2     N 8630   0.643   0.823   1.122  0.1698 -0.6143 -0.2353
  578MPD2    H5 8631   0.682   0.736   1.086 -0.4868 -0.7531 -0.6259
  578MPD2    N1 8632   0.644   0.991   0.665 -0.4524  0.0675 -0.5146
  578MPD2    H7 8633   0.641   1.074   0.606  1.2659 -0.3620 -1.2173
  579TMC3    C1 8634   0.726   0.744   1.326  0.5089 -0.0395 -0.2754
  579TMC3    C2 8635   0.833   0.765   1.408  0.2690  0.2394 -0.2033
  579TMC3    C3 8636   0.882   0.663   1.482 -0.0377  0.1542 -0.2636
  579TMC3    C4 8637   0.679   0.610   1.312  0.1094 -0.2666  0.4864
  579TMC3    C5 8638   0.737   0.513   1.390 -0.0826 -0.4634 -0.1076
  579TMC3    C6 8639   0.831   0.540   1.484 -0.4005 -0.7716 -0.5526
  579TMC3     C 8640   0.669   0.858   1.252 -0.8169  0.9862  0.0316
  579TMC3     O 8641   0.678   0.966   1.307  0.2813  0.6646 -0.0025
  579TMC3     H 8642   0.869   0.865   1.425 -2.1908  0.9164  1.1567
  579TMC3    H1 8643   0.586   0.595   1.259  0.3819 -1.7511  0.4460
  579TMC3    H2 8644   0.894   0.461   1.524  0.6006  0.2242 -0.1604
  579TMC3    C7 8645   0.739   0.374   1.338  0.3622 -0.0669 -0.3397
  579TMC3    C8 8646   1.008   0.691   1.561 -0.8958 -0.0573  0.5981
  579TMC3    O1 8647   0.804   0.293   1.406  0.3204  0.0631  0.3007
  579TMC3    O2 8648   1.014   0.633   1.666  0.5845  0.3833  0.0748
  580TMC3    C1 8649   4.465   4.085  11.895 -0.5506  0.2078 -0.0152
  580TMC3    C2 8650   4.481   4.080  11.760 -0.2584  0.1900  0.8121
  580TMC3    C3 8651   4.521   3.958  11.709  0.2037  0.1500 -0.3515
  580TMC3    C4 8652   4.486   3.976  11.977 -0.0685  0.3616  0.0546
  580TMC3    C5 8653   4.533   3.860  11.922 -0.0318 -0.3388  0.0566
  580TMC3    C6 8654   4.551   3.849  11.791 -0.3333  0.5106 -0.1252
  580TMC3     C 8655   4.460   4.210  11.953 -0.4911 -0.1829 -0.4712
  580TMC3     O 8656   4.469   4.305  11.877  0.3709 -0.5665  0.2327
  580TMC3     H 8657   4.464   4.162  11.692  4.4715 -0.8734 -1.6384
  580TMC3    H1 8658   4.500   3.993  12.083  0.3424 -2.4462  0.4582
  580TMC3    H2 8659   4.599   3.763  11.745 -1.5749 -0.1478 -0.1930
  580TMC3    C7 8660   4.575   3.755  12.010 -0.5487 -0.1837 -0.1171
  580TMC3    C8 8661   4.592   3.963  11.586 -0.1637  0.8377  0.3774
  580TMC3    O1 8662   4.570   3.786  12.126 -0.2568  0.0944  0.1108
  580TMC3    O2 8663   4.605   3.865  11.514 -0.0909 -0.1260  0.3726
  581MPD2     C 8664   2.587   3.929  14.698 -0.0722  0.1467 -0.0896
  581MPD2    C1 8665   2.594   4.004  14.815 -0.0360 -0.4121  0.1068
  581MPD2    C2 8666   2.491   4.079  14.861  0.2920 -0.0775  0.1813
  581MPD2    C3 8667   2.368   4.069  14.793  0.3120  0.4226 -0.0237
  581MPD2    C4 8668   2.365   3.988  14.679 -0.0322 -0.1990  0.2129
  581MPD2    C5 8669   2.474   3.923  14.622  0.7662 -0.6737 -0.2213
  581MPD2     H 8670   2.494   4.145  14.946  0.2086 -0.0713  0.1793
  581MPD2    H1 8671   2.287   3.994  14.604  0.5123  2.7756 -0.1124
  581MPD2    H2 8672   2.675   3.878  14.661 -0.7934 -2.6137  1.9574
  581MPD2    H3 8673   2.474   3.877  14.524  1.6021  1.1698 -1.0986
  581MPD2     N 8674   2.254   4.123  14.859  0.4924 -0.0974 -0.7765
  581MPD2    H5 8675   2.269   4.180  14.942  0.6251 -1.8660  0.4155
  581MPD2    N1 8676   2.721   3.993  14.886  0.2084 -0.5023 -0.0972
  581MPD2    H7 8677   2.800   3.952  14.837  0.7587  1.6478 -1.0054
  582TMC3    C1 8678   2.858   3.979  15.080  0.0078  0.5364  0.3459
  582TMC3    C2 8679   2.877   4.025  15.207 -0.1395 -0.0295  0.0005
  582TMC3    C3 8680   2.903   3.932  15.304  0.2558  0.0982 -0.4804
  582TMC3    C4 8681   2.850   3.846  15.053 -0.6469  0.3067  0.7029
  582TMC3    C5 8682   2.866   3.754  15.154  0.8413 -0.1575 -1.0366
  582TMC3    C6 8683   2.906   3.799  15.279  0.0157  0.6278  0.2816
  582TMC3     C 8684   2.746   4.050  15.011 -0.1638 -0.2504  1.0359
  582TMC3     O 8685   2.682   4.128  15.081  0.2422 -0.4917 -0.4396
  582TMC3     H 8686   2.857   4.127  15.238  1.2054  0.3695 -0.4358
  582TMC3    H1 8687   2.840   3.801  14.955  0.6373 -1.6045  1.4543
  582TMC3    H2 8688   2.921   3.725  15.356 -2.4501 -1.5970 -1.3872
  582TMC3    C7 8689   2.734   3.700  15.184 -0.9584 -0.0166 -0.3353
  582TMC3    C8 8690   2.856   3.974  15.437 -0.7696 -0.7933 -0.5512
  582TMC3    O1 8691   2.724   3.577  15.197 -0.3710  0.0016  0.0152
  582TMC3    O2 8692   2.784   4.072  15.446  0.6374  0.4892  0.3221
  583MPD2     C 8693   2.661   1.231  16.559 -0.4532 -0.5311  0.1361
  583MPD2    C1 8694   2.659   1.350  16.487  0.7435  0.1142 -0.0779
  583MPD2    C2 8695   2.612   1.462  16.556 -0.7788  0.6443  0.1116
  583MPD2    C3 8696   2.589   1.450  16.692  0.0197  0.4901  0.0359
  583MPD2    C4 8697   2.602   1.329  16.758  0.0391  0.9251  0.5063
  583MPD2    C5 8698   2.635   1.218  16.698  0.0700 -0.0118  0.1153
  583MPD2     H 8699   2.608   1.564  16.519 -1.3141  0.5853  0.0074
  583MPD2    H1 8700   2.575   1.321  16.863 -0.0490  2.3723  0.5946
  583MPD2    H2 8701   2.688   1.133  16.522 -0.4731  0.3059 -2.0524
  583MPD2    H3 8702   2.629   1.122  16.747 -0.1885 -0.3293 -0.5367
  583MPD2     N 8703   2.544   1.568  16.767 -0.4586 -0.0915 -0.1039
  583MPD2    H5 8704   2.534   1.654  16.716 -0.4989  1.1492  1.9880
  583MPD2    N1 8705   2.716   1.361  16.358 -0.0543 -0.0267  0.9422
  583MPD2    H7 8706   2.714   1.451  16.310  0.8832 -0.9556 -0.8248
  584TMC3    C1 8707   2.458   1.707  16.944 -0.5984  0.0554  1.0802
  584TMC3    C2 8708   2.503   1.820  16.879  0.2245 -0.0028  0.3471
  584TMC3    C3 8709   2.486   1.940  16.943  0.1751  0.0128 -0.0175
  584TMC3    C4 8710   2.384   1.715  17.060 -0.0883 -0.0890 -0.5531
  584TMC3    C5 8711   2.373   1.836  17.114  0.1350 -0.3981 -0.4210
  584TMC3    C6 8712   2.415   1.951  17.059  0.8906  0.0561  0.1556
  584TMC3     C 8713   2.518   1.573  16.903  0.2778 -0.2995  0.2096
  584TMC3     O 8714   2.541   1.490  16.989  0.0133  0.6011  0.1934
  584TMC3     H 8715   2.568   1.813  16.793 -0.0425  0.1964  0.1268
  584TMC3    H1 8716   2.366   1.623  17.115  1.2514  0.5004  0.8884
  584TMC3    H2 8717   2.414   2.048  17.107  1.1704  0.3190 -0.3680
  584TMC3    C7 8718   2.305   1.842  17.247  0.1794 -0.2968  0.2437
  584TMC3    C8 8719   2.546   2.055  16.872 -0.1264 -0.2984 -0.0864
  584TMC3    O1 8720   2.304   1.735  17.307 -0.1617  0.1009 -0.0113
  584TMC3    O2 8721   2.563   2.049  16.749 -0.1473 -0.0940  0.4952
  585MPD2     C 8722   1.574   0.974   0.401  0.2319  0.4051 -0.0072
  585MPD2    C1 8723   1.565   1.025   0.270 -0.0223 -0.1521 -0.7145
  585MPD2    C2 8724   1.576   0.945   0.158 -0.3385  0.3703  0.2898
  585MPD2    C3 8725   1.607   0.810   0.175  0.4634  0.0506 -0.0352
  585MPD2    C4 8726   1.607   0.756   0.301  0.0919  0.2860  0.4035
  585MPD2    C5 8727   1.585   0.838   0.411 -0.4732 -0.0429  0.5135
  585MPD2     H 8728   1.564   0.980   0.056  0.8294 -2.0767 -0.6859
  585MPD2    H1 8729   1.626   0.650   0.316 -1.7666 -0.2288 -0.7780
  585MPD2    H2 8730   1.568   1.029   0.495 -0.9665  0.5994 -0.1961
  585MPD2    H3 8731   1.583   0.790   0.508 -0.3494 -2.0345 -0.4653
  585MPD2     N 8732   1.629   0.720   0.075  0.5309  0.4710  0.4314
  585MPD2    H5 8733   1.634   0.621   0.096 -0.6947  0.1768 -0.6441
  585MPD2    N1 8734   1.535   1.157   0.257 -0.4181 -0.6401  0.1223
  585MPD2    H7 8735   1.499   1.201   0.341 -0.3022 -2.8619  1.3336
  586TMC3    C1 8736   1.697   0.629  17.622 -0.1085  0.0297 -0.0023
  586TMC3    C2 8737   1.814   0.614  17.551  0.1178 -0.2093  0.4785
  586TMC3    C3 8738   1.849   0.492  17.509 -0.5276  0.1860  0.0652
  586TMC3    C4 8739   1.613   0.527  17.650 -0.2540  0.7931  0.0719
  586TMC3    C5 8740   1.646   0.409  17.599 -0.5856  0.4844  0.7430
  586TMC3    C6 8741   1.769   0.387  17.538  0.2024 -0.0930 -0.8978
  586TMC3     C 8742   1.678   0.748  17.701 -0.7269  0.7352 -0.0037
  586TMC3     O 8743   1.728   0.850  17.656 -0.0376  0.8520  0.0164
  586TMC3     H 8744   1.878   0.698  17.526 -1.4501  0.4399 -1.3683
  586TMC3    H1 8745   1.512   0.545  17.685 -0.7746  0.4383 -1.2482
  586TMC3    H2 8746   1.790   0.290  17.494 -1.4120 -0.5676 -0.6305
  586TMC3    C7 8747   1.539   0.329  17.541 -0.2508  0.8765  0.2078
  586TMC3    C8 8748   1.920   0.464  17.390  0.0351  0.0742  0.1703
  586TMC3    O1 8749   1.442   0.304  17.616 -0.2421 -0.7773  0.2346
  586TMC3    O2 8750   1.986   0.363  17.392  0.3948 -0.5337  0.2578
  587TMC3    C1 8751   4.069   3.391  16.595 -0.1412 -1.1757 -0.6368
  587TMC3    C2 8752   3.984   3.466  16.516 -0.2568 -0.1508 -0.3845
  587TMC3    C3 8753   4.033   3.528  16.403 -0.6300  0.0567 -0.6195
  587TMC3    C4 8754   4.204   3.376  16.560 -0.0630  0.2371  0.0232
  587TMC3    C5 8755   4.244   3.444  16.444  0.1125  0.5971  0.0355
  587TMC3    C6 8756   4.165   3.526  16.365 -0.0066 -0.1340 -1.0897
  587TMC3     C 8757   4.039   3.370  16.733 -0.3899  0.3488 -0.9820
  587TMC3     O 8758   4.107   3.293  16.795  0.0915  0.3880  0.2993
  587TMC3     H 8759   3.879   3.463  16.544 -1.2628  1.2032 -4.0185
  587TMC3    H1 8760   4.270   3.329  16.632 -1.3853  0.8274  1.5997
  587TMC3    H2 8761   4.202   3.582  16.280  1.9403  1.4670  0.7912
  587TMC3    C7 8762   4.388   3.445  16.419  0.4762 -0.0477 -0.4461
  587TMC3    C8 8763   3.943   3.598  16.313 -0.1870 -0.3373  0.2242
  587TMC3    O1 8764   4.444   3.533  16.360 -0.5705  0.3455 -0.5936
  587TMC3    O2 8765   3.977   3.614  16.193  0.4733 -0.1233  0.0283
  588TMC3    C1 8766   1.699   1.269  10.088  0.5826 -0.3822 -0.5322
  588TMC3    C2 8767   1.645   1.154  10.137 -0.2767 -0.7362 -0.2221
  588TMC3    C3 8768   1.710   1.094  10.244 -0.0691 -0.2601  0.9064
  588TMC3    C4 8769   1.811   1.325  10.132 -0.3785  0.2102 -0.2539
  588TMC3    C5 8770   1.882   1.258  10.228 -0.1640 -0.3310  0.9410
  588TMC3    C6 8771   1.828   1.147  10.285 -0.4789  0.6002  0.4381
  588TMC3     C 8772   1.612   1.364  10.021 -0.2358  0.6873  0.7614
  588TMC3     O 8773   1.555   1.323   9.923  0.3548 -0.1550 -0.6372
  588TMC3     H 8774   1.545   1.131  10.102  0.6288 -1.8446 -2.1094
  588TMC3    H1 8775   1.857   1.406  10.075 -1.0503  0.6568 -0.1612
  588TMC3    H2 8776   1.884   1.105  10.368 -0.3596 -0.3828 -0.1316
  588TMC3    C7 8777   1.975   1.331  10.317  0.0098  0.0939  0.1616
  588TMC3    C8 8778   1.642   0.969  10.293 -0.2885 -0.2035  0.0815
  588TMC3    O1 8779   2.033   1.279  10.411  0.4383 -0.1686  0.2024
  588TMC3    O2 8780   1.527   0.947  10.255 -0.0332  0.1043 -0.2714
  589TMC3    C1 8781   0.483   4.019   1.147 -0.1710 -0.1272 -0.5469
  589TMC3    C2 8782   0.582   3.984   1.239  0.0426 -0.1362 -0.2740
  589TMC3    C3 8783   0.663   3.881   1.206 -0.2599 -0.2843 -0.2531
  589TMC3    C4 8784   0.474   3.952   1.031 -0.0738  0.2281  0.4609
  589TMC3    C5 8785   0.568   3.861   0.991 -0.6325 -0.1971 -0.0249
  589TMC3    C6 8786   0.665   3.828   1.076 -0.1863 -0.6957 -0.5653
  589TMC3     C 8787   0.376   4.120   1.181  0.0672 -0.4601 -0.3900
  589TMC3     O 8788   0.316   4.162   1.083  0.0577 -0.6100 -0.4562
  589TMC3     H 8789   0.590   4.032   1.336  0.8452 -3.5844  1.3661
  589TMC3    H1 8790   0.398   3.972   0.956 -0.5186  0.2256  0.9090
  589TMC3    H2 8791   0.721   3.736   1.063 -1.4731 -1.4467 -0.8484
  589TMC3    C7 8792   0.574   3.787   0.864  0.8573 -0.3027 -0.0349
  589TMC3    C8 8793   0.773   3.857   1.289 -0.1575  0.2329  1.1118
  589TMC3    O1 8794   0.647   3.690   0.857  0.1877 -0.0066  0.1058
  589TMC3    O2 8795   0.750   3.872   1.411  0.3042  0.0848  0.0503
  590MPD2     C 8796   0.695   1.918  16.728  0.1121 -0.7038 -0.2248
  590MPD2    C1 8797   0.606   2.010  16.676  0.3340 -0.1587 -0.7454
  590MPD2    C2 8798   0.657   2.098  16.578  0.2991  0.4599  0.1114
  590MPD2    C3 8799   0.792   2.097  16.540  0.2957 -0.1829 -0.5032
  590MPD2    C4 8800   0.875   2.006  16.603 -0.3612 -0.5270 -0.0416
  590MPD2    C5 8801   0.826   1.916  16.697 -0.3992 -0.4673  0.6212
  590MPD2     H 8802   0.587   2.162  16.526  1.5434  0.7171 -1.2370
  590MPD2    H1 8803   0.978   1.989  16.571  0.1228  2.1433  0.1104
  590MPD2    H2 8804   0.650   1.841  16.789 -0.8261 -1.3212 -1.7000
  590MPD2    H3 8805   0.887   1.835  16.735  1.0394 -0.5739 -1.9608
  590MPD2     N 8806   0.834   2.197  16.446 -0.1121  0.1863  0.0602
  590MPD2    H5 8807   0.763   2.253  16.399 -1.7188 -1.7241  0.2340
  590MPD2    N1 8808   0.466   1.993  16.705 -0.4106 -0.7434  0.1093
  590MPD2    H7 8809   0.439   1.926  16.776 -1.6604  1.1387  1.3758
  591TMC3    C1 8810   0.966   2.299  16.282 -0.3628 -0.4888 -0.6848
  591TMC3    C2 8811   1.046   2.252  16.183 -0.4841 -0.4392  0.1890
  591TMC3    C3 8812   1.046   2.333  16.071  0.2467  0.1159 -0.2323
  591TMC3    C4 8813   0.896   2.408  16.274  0.3032 -0.2196 -0.0812
  591TMC3    C5 8814   0.903   2.488  16.163  0.2736 -0.0764 -0.5159
  591TMC3    C6 8815   0.977   2.447  16.052  0.1514 -0.1981 -0.3880
  591TMC3     C 8816   0.955   2.210  16.394 -0.0469  0.2768 -0.1850
  591TMC3     O 8817   1.053   2.137  16.411 -0.4287  0.6466  0.3371
  591TMC3     H 8818   1.093   2.154  16.188 -1.7658 -1.0714 -0.0318
  591TMC3    H1 8819   0.839   2.444  16.358 -2.5239  0.5389 -2.3430
  591TMC3    H2 8820   0.983   2.505  15.961 -0.1432  2.6378  1.3907
  591TMC3    C7 8821   0.785   2.575  16.151  0.2455 -0.6524  1.1115
  591TMC3    C8 8822   1.113   2.268  15.957  0.8361 -0.8496  0.4970
  591TMC3    O1 8823   0.695   2.546  16.224  0.0351  0.4858  0.1033
  591TMC3    O2 8824   1.169   2.161  15.978  0.1107  0.5312 -0.2168
  592MPD2     C 8825   0.632   3.843  11.407  1.3695 -0.3664  0.0842
  592MPD2    C1 8826   0.650   3.827  11.540  0.1111  0.1641 -0.0243
  592MPD2    C2 8827   0.624   3.709  11.598  0.2185  0.4819 -0.3121
  592MPD2    C3 8828   0.571   3.610  11.513  0.2237 -0.2919 -0.6501
  592MPD2    C4 8829   0.557   3.625  11.374 -0.4239  0.3529 -0.1802
  592MPD2    C5 8830   0.582   3.743  11.324 -0.1202 -0.6456  0.6296
  592MPD2     H 8831   0.635   3.689  11.704  1.5011  1.5247 -0.2535
  592MPD2    H1 8832   0.507   3.555  11.308  1.5823 -0.3437 -0.9699
  592MPD2    H2 8833   0.655   3.933  11.351 -0.8826  0.5755  0.6622
  592MPD2    H3 8834   0.569   3.760  11.217  0.6257 -1.0313  0.4770
  592MPD2     N 8835   0.528   3.493  11.581 -0.3409 -0.2458 -0.5925
  592MPD2    H5 8836   0.552   3.492  11.679 -0.2702  0.1507 -0.6055
  592MPD2    N1 8837   0.712   3.941  11.603 -0.2180 -0.5432 -0.7481
  592MPD2    H7 8838   0.710   4.024  11.545 -1.3104  2.0666  3.0333
  593TMC3    C1 8839   0.808   4.081  11.764  0.0920  0.1171  0.5659
  593TMC3    C2 8840   0.782   4.130  11.891  1.1630  0.6833  0.6215
  593TMC3    C3 8841   0.857   4.243  11.931 -0.3715 -0.3917 -0.1298
  593TMC3    C4 8842   0.907   4.127  11.689 -0.0666  0.2191  0.1674
  593TMC3    C5 8843   0.978   4.244  11.730 -0.0422 -0.3617  0.1803
  593TMC3    C6 8844   0.956   4.303  11.849  0.5557 -0.2745 -0.0324
  593TMC3     C 8845   0.743   3.958  11.736 -0.5379  0.2015  0.5385
  593TMC3     O 8846   0.730   3.880  11.829  0.0209 -0.2764 -0.1909
  593TMC3     H 8847   0.706   4.094  11.960 -0.3368 -1.9630 -2.3972
  593TMC3    H1 8848   0.927   4.075  11.596 -0.4313 -0.5718  0.5351
  593TMC3    H2 8849   1.016   4.389  11.879  0.2555 -0.2176  0.3984
  593TMC3    C7 8850   1.060   4.328  11.640  0.0388 -0.4825  0.0465
  593TMC3    C8 8851   0.844   4.294  12.065  0.1893 -0.2906  0.9024
  593TMC3    O1 8852   1.145   4.401  11.691  0.2898 -0.4671 -0.3783
  593TMC3    O2 8853   0.733   4.281  12.120 -0.3087  0.3772  0.2723
  594MPD2     C 8854   4.240   2.849  13.962 -0.8504  0.3292 -0.3349
  594MPD2    C1 8855   4.261   2.868  14.096  0.6356  0.1199  0.7207
  594MPD2    C2 8856   4.365   2.933  14.145  0.8894  0.4120 -1.1261
  594MPD2    C3 8857   4.460   2.980  14.053  0.2158  0.8183  0.5904
  594MPD2    C4 8858   4.438   2.967  13.920 -0.1818 -0.9032  0.4881
  594MPD2    C5 8859   4.330   2.902  13.874  0.3133 -0.1285 -0.6091
  594MPD2     H 8860   4.377   2.963  14.248 -1.7797  2.5943 -1.4607
  594MPD2    H1 8861   4.510   3.006  13.848 -1.0896 -1.0201 -0.4864
  594MPD2    H2 8862   4.155   2.801  13.915 -0.1848 -0.3324 -0.8441
  594MPD2    H3 8863   4.305   2.910  13.769 -1.2713 -2.8958 -0.4186
  594MPD2     N 8864   4.570   3.052  14.109  0.0354 -0.3207 -0.1437
  594MPD2    H5 8865   4.563   3.068  14.209  1.0061 -0.0947 -0.1165
  594MPD2    N1 8866   4.161   2.812  14.176 -0.2094  0.7340 -0.3734
  594MPD2    H7 8867   4.092   2.753  14.130 -0.8229  0.1275  1.3452
  595TMC3    C1 8868   0.210   3.296  14.185  0.5899  0.0177 -0.1993
  595TMC3    C2 8869   0.140   3.202  14.113 -0.4264  0.4243 -0.5803
  595TMC3    C3 8870   0.007   3.190  14.140 -0.2153 -0.7379 -0.9012
  595TMC3    C4 8871   0.142   3.358  14.293 -1.0834  0.2405 -0.3090
  595TMC3    C5 8872   0.011   3.319  14.333 -0.3516 -0.0858 -0.1730
  595TMC3    C6 8873   4.678   3.247  14.251  0.3465  0.8016  0.0961
  595TMC3     C 8874   0.353   3.290  14.190  0.4046 -0.6661 -0.3280
  595TMC3     O 8875   0.406   3.183  14.202 -0.0022  0.5084  0.2949
  595TMC3     H 8876   0.200   3.147  14.041 -0.9199 -0.9600  0.0750
  595TMC3    H1 8877   0.202   3.425  14.354 -0.1598 -0.5266 -0.3760
  595TMC3    H2 8878   4.570   3.245  14.254  0.2882  1.4785 -1.7554
  595TMC3    C7 8879   4.686   3.398  14.435 -0.5187  0.2211 -0.8482
  595TMC3    C8 8880   4.664   3.124  14.042  0.1772  0.0261  0.7124
  595TMC3    O1 8881   4.568   3.421  14.421 -0.2685 -0.1557  0.5603
  595TMC3    O2 8882   4.693   3.130  13.923  0.6081 -0.5527  0.4787
  596MPD2     C 8883   3.463   1.141  16.547 -0.1082  0.6204  0.0912
  596MPD2    C1 8884   3.458   1.255  16.470  0.4310 -0.4800  0.0618
  596MPD2    C2 8885   3.486   1.239  16.336 -0.4493 -0.4853 -0.1697
  596MPD2    C3 8886   3.495   1.117  16.272 -0.5679 -0.7201  0.8679
  596MPD2    C4 8887   3.505   1.002  16.351 -0.0587  1.1565 -0.2156
  596MPD2    C5 8888   3.488   1.017  16.488 -0.0851  0.8179 -0.1145
  596MPD2     H 8889   3.503   1.334  16.288  0.2973  0.4790  2.0208
  596MPD2    H1 8890   3.514   0.906  16.301  1.0688  1.2422 -0.1677
  596MPD2    H2 8891   3.464   1.141  16.656  4.0526 -0.1642  0.0763
  596MPD2    H3 8892   3.497   0.933  16.556  0.4501 -0.4396 -1.7297
  596MPD2     N 8893   3.499   1.114  16.130 -0.2542  0.6843  0.5131
  596MPD2    H5 8894   3.512   1.023  16.086 -0.3382  0.6213  0.6166
  596MPD2    N1 8895   3.428   1.380  16.519  0.4304 -0.0224  0.0073
  596MPD2    H7 8896   3.422   1.451  16.446  0.0654 -0.7074 -0.6287
  597TMC3    C1 8897   3.318   1.534  16.644 -0.7438  0.0708 -0.5564
  597TMC3    C2 8898   3.357   1.625  16.549  0.2832  0.1576  0.0794
  597TMC3    C3 8899   3.315   1.747  16.572  0.9110  0.5315  0.6866
  597TMC3    C4 8900   3.245   1.572  16.752  0.4415 -0.2165 -0.7874
  597TMC3    C5 8901   3.210   1.699  16.767 -0.2043 -0.1103 -0.4154
  597TMC3    C6 8902   3.240   1.794  16.676 -0.8858 -0.1495 -0.4942
  597TMC3     C 8903   3.356   1.400  16.634  0.5670  1.1764 -1.0444
  597TMC3     O 8904   3.326   1.315  16.713 -0.1370 -0.2712  0.0727
  597TMC3     H 8905   3.414   1.610  16.458 -0.8168  0.0530 -0.5995
  597TMC3    H1 8906   3.234   1.497  16.830  0.1404 -1.4972 -2.0597
  597TMC3    H2 8907   3.226   1.899  16.701  0.3357 -0.1509  0.2060
  597TMC3    C7 8908   3.113   1.719  16.870 -0.5226 -0.6181  0.4675
  597TMC3    C8 8909   3.368   1.859  16.494 -0.1302  0.6163 -0.0833
  597TMC3    O1 8910   3.062   1.623  16.931 -0.4109 -0.3444  0.2763
  597TMC3    O2 8911   3.295   1.954  16.484 -0.2274 -0.2372  0.5809
  598TMC3    C1 8912   2.632   2.829  15.599  0.1645 -0.1364  0.3732
  598TMC3    C2 8913   2.666   2.713  15.646  0.1567 -0.0090 -0.4925
  598TMC3    C3 8914   2.599   2.657  15.749 -0.7294 -0.7939 -0.7547
  598TMC3    C4 8915   2.535   2.905  15.659 -0.2394  0.1385 -0.3039
  598TMC3    C5 8916   2.469   2.854  15.764 -0.2137 -0.1341 -0.2075
  598TMC3    C6 8917   2.508   2.736  15.820  0.2779  0.2557  0.1017
  598TMC3     C 8918   2.701   2.868  15.467 -0.5134 -0.2435 -0.5031
  598TMC3     O 8919   2.794   2.805  15.422  0.3473 -0.3219  0.2809
  598TMC3     H 8920   2.744   2.653  15.601 -0.6072 -0.5521 -1.0953
  598TMC3    H1 8921   2.514   3.003  15.617  3.1522 -0.4017 -3.2851
  598TMC3    H2 8922   2.452   2.696  15.904  2.3724 -0.2773  1.2435
  598TMC3    C7 8923   2.351   2.926  15.810  0.4370  1.0724 -0.0788
  598TMC3    C8 8924   2.619   2.523  15.770 -0.3098 -0.6478  0.2701
  598TMC3    O1 8925   2.327   2.893  15.929 -0.8382 -0.2415  0.3785
  598TMC3    O2 8926   2.671   2.457  15.683 -0.8013  0.2553  0.0219
  599MPD2     C 8927   1.513   4.710  15.350  0.3899  0.1590  0.5027
  599MPD2    C1 8928   1.558   0.029  15.474  0.1267 -0.3106  0.0154
  599MPD2    C2 8929   1.463   0.111  15.545  0.7935 -0.6432  0.0543
  599MPD2    C3 8930   1.341   0.131  15.499 -0.2742 -0.1772 -0.1619
  599MPD2    C4 8931   1.300   0.082  15.376  0.2770 -0.6396 -0.5497
  599MPD2    C5 8932   1.395   0.014  15.303 -0.8175 -0.9009 -0.0894
  599MPD2     H 8933   1.496   0.153  15.640  1.2453 -2.8171  0.8661
  599MPD2    H1 8934   1.205   0.099  15.326 -0.1843  0.8598  0.8292
  599MPD2    H2 8935   1.576   4.658  15.278 -1.9246  1.9025 -2.8017
  599MPD2    H3 8936   1.368   4.711  15.207  1.5274  1.7965 -1.9114
  599MPD2     N 8937   1.247   0.209  15.569 -0.2290  0.1524  0.2431
  599MPD2    H5 8938   1.153   0.210  15.531 -0.0930  1.8293 -0.0520
  599MPD2    N1 8939   1.675   4.726  15.525  0.0375  0.6147 -0.1680
  599MPD2    H7 8940   1.726   4.664  15.463 -2.4763 -0.0620 -1.5238
  600TMC3    C1 8941   1.134   0.314  15.747 -0.0893  0.1355 -0.7373
  600TMC3    C2 8942   1.014   0.253  15.709 -0.1380 -0.1399 -0.1182
  600TMC3    C3 8943   0.899   0.312  15.758  0.6308  0.3608  0.8365
  600TMC3    C4 8944   1.148   0.423  15.826  0.0294 -0.4480  1.0726
  600TMC3    C5 8945   1.020   0.473  15.868 -0.3181 -0.0166  0.3668
  600TMC3    C6 8946   0.900   0.417  15.840 -0.1902  0.2466 -0.5156
  600TMC3     C 8947   1.259   0.254  15.698 -0.2127  0.5113 -0.6845
  600TMC3     O 8948   1.350   0.260  15.777  0.0917 -0.4991 -0.0548
  600TMC3     H 8949   1.005   0.173  15.637 -0.3423 -0.2179 -0.0055
  600TMC3    H1 8950   1.246   0.451  15.860 -0.2158  2.0003 -0.2753
  600TMC3    H2 8951   0.805   0.449  15.881  0.5406  0.5444  0.9468
  600TMC3    C7 8952   1.026   0.594  15.943 -0.5052 -0.0099  1.0462
  600TMC3    C8 8953   0.770   0.258  15.721 -0.1151  0.5358 -0.4883
  600TMC3    O1 8954   0.928   0.614  16.013 -0.1263 -0.0188 -0.4533
  600TMC3    O2 8955   0.674   0.333  15.729  0.0660  0.1581  0.3305
  601MPD2     C 8956   3.971   3.423   0.197 -0.0855 -0.9221 -0.2748
  601MPD2    C1 8957   3.875   3.343   0.152 -0.5569  0.6503  0.0236
  601MPD2    C2 8958   3.904   3.203   0.158 -0.4102 -0.2483 -0.0290
  601MPD2    C3 8959   4.029   3.161   0.206  0.0864 -0.0533 -0.2866
  601MPD2    C4 8960   4.128   3.249   0.241 -0.0538 -0.1012 -0.1944
  601MPD2    C5 8961   4.094   3.379   0.240  0.3936  0.4108  0.8019
  601MPD2     H 8962   3.832   3.127   0.130 -0.7273 -0.7316  2.0701
  601MPD2    H1 8963   4.229   3.237   0.279 -0.2045  1.1948  0.6212
  601MPD2    H2 8964   3.946   3.528   0.206 -1.4180 -1.2850  0.1254
  601MPD2    H3 8965   4.159   3.450   0.289 -0.3388  1.2898  0.5077
  601MPD2     N 8966   4.064   3.034   0.235 -0.8498  0.3129 -0.2908
  601MPD2    H5 8967   4.157   3.026   0.275 -0.9313  0.6085 -0.0404
  601MPD2    N1 8968   3.749   3.395   0.111  0.1662 -0.5250 -0.8264
  601MPD2    H7 8969   3.742   3.496   0.122  0.5596 -0.4887 -0.9116
  602TMC3    C1 8970   3.537   3.408   0.007  0.1679  0.4499 -0.7762
  602TMC3    C2 8971   3.483   3.498   0.096  0.1196 -0.5405 -0.3783
  602TMC3    C3 8972   3.376   3.577   0.048 -0.0062  0.2912  0.1432
  602TMC3    C4 8973   3.473   3.364  17.646 -0.4610  0.0879  0.1951
  602TMC3    C5 8974   3.369   3.443  17.609 -0.3363 -0.2580 -0.0696
  602TMC3    C6 8975   3.326   3.557  17.675 -0.4411 -0.9837 -0.5427
  602TMC3     C 8976   3.651   3.326   0.047 -0.3009 -0.5537 -0.7963
  602TMC3     O 8977   3.662   3.219  17.739 -0.1585 -0.3046  0.5197
  602TMC3     H 8978   3.524   3.505   0.196  0.3002 -3.1916 -0.2704
  602TMC3    H1 8979   3.498   3.275  17.589 -1.2810 -0.8204  1.2361
  602TMC3    H2 8980   3.241   3.616  17.643  1.5671  1.7339 -0.8342
  602TMC3    C7 8981   3.310   3.412  17.480 -0.5645 -0.5053  0.5596
  602TMC3    C8 8982   3.288   3.618   0.158 -0.9211  0.4104 -0.1503
  602TMC3    O1 8983   3.378   3.358  17.397 -0.3233  0.1286 -0.2358
  602TMC3    O2 8984   3.297   3.534   0.251 -0.2483 -0.5571 -0.0382
  603TMC3    C1 8985   1.506   3.510  11.093 -1.3690 -0.2132 -0.3875
  603TMC3    C2 8986   1.569   3.452  11.189  0.2289  0.2454 -0.9995
  603TMC3    C3 8987   1.670   3.522  11.250  0.1457  0.4840  0.0645
  603TMC3    C4 8988   1.559   3.618  11.028 -0.1620 -0.1705 -0.4527
  603TMC3    C5 8989   1.659   3.685  11.088  0.4020 -0.3664  0.6000
  603TMC3    C6 8990   1.722   3.637  11.201 -0.5573  0.7522  0.5289
  603TMC3     C 8991   1.401   3.437  11.016 -0.1127  0.0481 -0.0404
  603TMC3     O 8992   1.341   3.500  10.928 -0.3188  0.1396 -0.1165
  603TMC3     H 8993   1.526   3.364  11.235  3.1324 -0.7003 -0.1345
  603TMC3    H1 8994   1.504   3.663  10.946 -2.1490 -1.6535  0.0662
  603TMC3    H2 8995   1.821   3.675  11.224 -0.6612  1.4893 -0.2009
  603TMC3    C7 8996   1.709   3.815  11.042 -0.9886 -0.3376 -0.0468
  603TMC3    C8 8997   1.736   3.466  11.357  0.6974 -0.2247 -0.1829
  603TMC3    O1 8998   1.783   3.872  11.120 -0.3682  0.0305  0.0083
  603TMC3    O2 8999   1.717   3.345  11.379 -0.0947 -0.3499  0.1962
  604MPD2     C 9000   3.032   2.697  16.178  0.4652 -0.0178 -0.3107
  604MPD2    C1 9001   2.905   2.673  16.136 -0.2484 -0.6792 -0.5126
  604MPD2    C2 9002   2.891   2.613  16.016  0.1541  0.9008 -0.6202
  604MPD2    C3 9003   2.994   2.563  15.939  0.2887 -0.2243 -0.0811
  604MPD2    C4 9004   3.119   2.607  15.980 -0.2666 -0.4119 -0.2422
  604MPD2    C5 9005   3.139   2.672  16.096  0.2659  0.0955 -0.3549
  604MPD2     H 9006   2.790   2.578  15.995 -0.2638  2.0782 -0.5902
  604MPD2    H1 9007   3.208   2.590  15.919  0.5713  2.0063  0.3057
  604MPD2    H2 9008   3.056   2.743  16.273 -0.5488 -1.0369  0.4370
  604MPD2    H3 9009   3.240   2.703  16.118 -0.0305 -0.0585  1.2988
  604MPD2     N 9010   2.965   2.483  15.823 -0.4093 -0.3198 -0.3703
  604MPD2    H5 9011   2.867   2.469  15.798  0.1105 -2.2198 -1.3124
  604MPD2    N1 9012   2.804   2.706  16.221  0.0018 -0.5048 -0.7737
  604MPD2    H7 9013   2.830   2.747  16.310 -0.2939 -1.9331 -0.0473
  605TMC3    C1 9014   2.601   2.739  16.329  0.1991 -0.0770  0.1104
  605TMC3    C2 9015   2.663   2.728  16.447 -0.6647  0.0470  0.0505
  605TMC3    C3 9016   2.614   2.805  16.551 -0.0857  0.0081  0.4749
  605TMC3    C4 9017   2.499   2.816  16.299 -0.2055 -0.3448 -0.6307
  605TMC3    C5 9018   2.456   2.901  16.397  0.2888  0.1483 -0.2701
  605TMC3    C6 9019   2.512   2.896  16.525 -0.5053  0.1735 -0.0726
  605TMC3     C 9020   2.668   2.694  16.203 -0.7477  0.2940 -0.0706
  605TMC3     O 9021   2.606   2.680  16.098  0.2336  0.1699  0.3026
  605TMC3     H 9022   2.747   2.663  16.466 -1.0191 -0.1287  1.0250
  605TMC3    H1 9023   2.459   2.809  16.198 -0.9151  0.3006 -0.3899
  605TMC3    H2 9024   2.491   2.969  16.601  1.2371  1.3219 -0.7125
  605TMC3    C7 9025   2.325   2.972  16.382  0.5703  0.1942 -0.9075
  605TMC3    C8 9026   2.724   2.862  16.620  0.1759  0.1078 -0.1043
  605TMC3    O1 9027   2.301   3.072  16.447  0.2741 -0.1351  0.2455
  605TMC3    O2 9028   2.822   2.870  16.544 -0.1513  0.2756 -0.3670
  606TMC3    C1 9029   3.608   0.541  17.248 -0.0662  0.0995  0.3557
  606TMC3    C2 9030   3.740   0.519  17.273 -0.4915 -0.2812 -0.8986
  606TMC3    C3 9031   3.774   0.382  17.287 -1.0157  0.4016 -0.1001
  606TMC3    C4 9032   3.516   0.444  17.250  0.5730  0.7259 -0.2605
  606TMC3    C5 9033   3.561   0.312  17.252  0.5483 -0.1131 -0.4436
  606TMC3    C6 9034   3.690   0.272  17.281  0.3653 -0.4978 -0.1446
  606TMC3     C 9035   3.576   0.653  17.176 -0.0502  0.5202  0.0044
  606TMC3     O 9036   3.460   0.692  17.190  0.2106 -0.5493 -0.3657
  606TMC3     H 9037   3.815   0.597  17.274 -1.2757  0.4588  0.1719
  606TMC3    H1 9038   3.414   0.471  17.224  0.1187 -1.9697 -1.3410
  606TMC3    H2 9039   3.719   0.169  17.263  1.2011  0.1888 -2.7130
  606TMC3    C7 9040   3.495   0.221  17.168  0.1798 -0.8032  0.1865
  606TMC3    C8 9041   3.898   0.353  17.361  0.0903  0.0221 -0.7493
  606TMC3    O1 9042   3.560   0.151  17.093  0.2562  0.0082 -0.0692
  606TMC3    O2 9043   3.903   0.238  17.406  0.4121 -0.1766 -0.4529
  607MPD2     C 9044   0.716   3.175  11.757 -0.1524 -0.3908 -0.3186
  607MPD2    C1 9045   0.755   3.196  11.888  0.2395  0.1621 -0.4531
  607MPD2    C2 9046   0.776   3.087  11.962  0.4208 -0.0397 -0.4120
  607MPD2    C3 9047   0.760   2.959  11.928 -0.1967  0.3178 -0.6445
  607MPD2    C4 9048   0.716   2.928  11.801 -0.0571  0.2503  0.7351
  607MPD2    C5 9049   0.695   3.040  11.722  0.1544 -0.1847  0.4639
  607MPD2     H 9050   0.822   3.110  12.057  2.8195 -0.1214 -1.5544
  607MPD2    H1 9051   0.683   2.832  11.763 -0.0085  0.8941 -0.9472
  607MPD2    H2 9052   0.708   3.253  11.683 -0.7180  1.1429  1.3521
  607MPD2    H3 9053   0.670   3.013  11.620 -0.0457 -1.3041  0.8045
  607MPD2     N 9054   0.763   2.865  12.031 -0.0780 -0.3165 -0.4353
  607MPD2    H5 9055   0.769   2.908  12.123 -5.0534 -0.5381 -0.0169
  607MPD2    N1 9056   0.801   3.321  11.931 -0.4779  0.4885  0.1674
  607MPD2    H7 9057   0.849   3.320  12.020  2.5943 -1.8222 -1.5618
  608TMC3    C1 9058   0.862   3.557  11.946 -0.6118  0.4208  0.2180
  608TMC3    C2 9059   0.870   3.530  12.078  0.3728  0.6461 -0.1289
  608TMC3    C3 9060   0.944   3.605  12.150 -0.0373  0.0731  0.2019
  608TMC3    C4 9061   0.940   3.645  11.885  0.2370 -0.2981  0.0047
  608TMC3    C5 9062   1.011   3.728  11.972 -0.4523  0.3834  0.6722
  608TMC3    C6 9063   1.006   3.716  12.105 -0.4776  0.2570  0.0143
  608TMC3     C 9064   0.799   3.443  11.867  0.3942  0.4169 -0.3863
  608TMC3     O 9065   0.744   3.468  11.761  0.2821  0.4569 -0.0099
  608TMC3     H 9066   0.792   3.467  12.120  2.7516 -0.5168  2.6152
  608TMC3    H1 9067   0.936   3.663  11.778  1.0204  1.4132  0.2643
  608TMC3    H2 9068   1.072   3.765  12.176  0.3503  0.5858 -0.9901
  608TMC3    C7 9069   1.077   3.841  11.909  1.0457 -0.5723 -0.1949
  608TMC3    C8 9070   0.944   3.569  12.287  0.2528  0.0572 -0.0712
  608TMC3    O1 9071   1.111   3.815  11.797 -0.0412  0.2466 -0.0333
  608TMC3    O2 9072   0.949   3.658  12.372  0.5167 -0.0448  0.0897
  609TMC3    C1 9073   4.195   3.151   9.288  0.3373 -0.1462  0.0335
  609TMC3    C2 9074   4.073   3.152   9.228  0.1074 -0.3147 -0.5363
  609TMC3    C3 9075   4.059   3.086   9.109  0.6861  0.2681  0.3074
  609TMC3    C4 9076   4.303   3.090   9.229  0.5307  0.5377  0.0935
  609TMC3    C5 9077   4.282   3.007   9.125 -0.4261  0.2434 -0.4378
  609TMC3    C6 9078   4.163   3.009   9.058  0.2044  0.0221 -0.1975
  609TMC3     C 9079   4.222   3.246   9.392  1.0816 -0.1429  0.4849
  609TMC3     O 9080   4.138   3.330   9.416  0.1973 -0.4809 -0.2516
  609TMC3     H 9081   3.992   3.204   9.278  0.1798 -0.9658  0.2603
  609TMC3    H1 9082   4.407   3.098   9.258  0.4516  1.2317  0.1831
  609TMC3    H2 9083   4.168   2.956   8.964  1.3804 -1.3218  0.6184
  609TMC3    C7 9084   4.396   2.928   9.077  0.3336  0.6127 -0.6916
  609TMC3    C8 9085   3.933   3.081   9.033 -0.0107  0.3418  0.1077
  609TMC3    O1 9086   4.507   2.979   9.089 -0.0566 -0.2551  0.2833
  609TMC3    O2 9087   3.934   3.006   8.937  0.0923  0.1726  0.1630
  610TMC3    C1 9088   1.242   3.040  12.830  0.1767 -0.3173  0.3685
  610TMC3    C2 9089   1.254   3.132  12.730 -0.1155  0.1613 -0.7322
  610TMC3    C3 9090   1.346   3.113  12.627 -0.2993  0.2471  0.0679
  610TMC3    C4 9091   1.327   2.930  12.829 -0.1388  0.1860  0.2522
  610TMC3    C5 9092   1.414   2.909  12.723 -0.4796 -0.0126 -0.1228
  610TMC3    C6 9093   1.426   2.999  12.620  0.4928 -0.1631 -1.2960
  610TMC3     C 9094   1.160   3.067  12.947  0.5872  0.1288 -0.3366
  610TMC3     O 9095   1.078   3.156  12.939  0.5175 -0.1356 -0.0336
  610TMC3     H 9096   1.185   3.216  12.728 -0.1599  0.1278 -0.6190
  610TMC3    H1 9097   1.309   2.844  12.893  0.4929  0.1627  0.3983
  610TMC3    H2 9098   1.512   2.992  12.555  0.8037 -1.2688 -0.7756
  610TMC3    C7 9099   1.509   2.809  12.728 -0.0067  0.7181  0.1717
  610TMC3    C8 9100   1.337   3.205  12.518  0.3418 -0.8409 -0.4877
  610TMC3    O1 9101   1.518   2.744  12.830  0.0728  0.2717 -0.2401
  610TMC3    O2 9102   1.288   3.314  12.533 -0.2443 -0.5186 -0.2105
  611MPD2     C 9103   0.935   3.578  10.437  0.1692  0.4347 -0.5749
  611MPD2    C1 9104   0.861   3.682  10.395 -0.2097  0.0614 -0.0046
  611MPD2    C2 9105   0.905   3.815  10.386  0.4988  0.0035  0.2356
  611MPD2    C3 9106   1.040   3.838  10.419  0.0607 -0.1674  0.5710
  611MPD2    C4 9107   1.120   3.733  10.467 -0.0255  0.0390 -0.5833
  611MPD2    C5 9108   1.071   3.599  10.463 -0.4463  0.0119 -0.2703
  611MPD2     H 9109   0.836   3.887  10.345  0.8387 -0.2651 -0.8090
  611MPD2    H1 9110   1.219   3.748  10.507 -0.5979 -1.7256  1.4796
  611MPD2    H2 9111   0.887   3.480  10.442 -1.2902  1.2327  0.9953
  611MPD2    H3 9112   1.133   3.514  10.489 -1.5907  0.1351  2.9087
  611MPD2     N 9113   1.103   3.964  10.395 -0.0372 -0.1854  0.0803
  611MPD2    H5 9114   1.202   3.976  10.411  0.2187  0.5320 -2.0020
  611MPD2    N1 9115   0.731   3.648  10.349  0.2371 -0.7665  0.4362
  611MPD2    H7 9116   0.711   3.549  10.340  2.5873 -1.0511 -1.6097
  612TMC3    C1 9117   1.135   4.192  10.368  0.0312  0.7091 -0.2852
  612TMC3    C2 9118   1.238   4.187  10.465  0.3516  0.0239 -0.2802
  612TMC3    C3 9119   1.331   4.289  10.474  0.6300  0.2139 -0.2866
  612TMC3    C4 9120   1.116   4.301  10.291  0.3596 -1.0009 -0.3141
  612TMC3    C5 9121   1.210   4.405  10.306 -0.8781 -0.1933  0.9048
  612TMC3    C6 9122   1.311   4.402  10.399  0.5248 -0.0482  0.0565
  612TMC3     C 9123   1.041   4.080  10.355  0.4022  0.0397 -0.4096
  612TMC3     O 9124   0.929   4.120  10.325 -0.0717 -0.1145  0.0707
  612TMC3     H 9125   1.230   4.134  10.559 -3.9983 -3.7414 -2.7865
  612TMC3    H1 9126   1.020   4.306  10.241 -0.0043  0.5228  0.5308
  612TMC3    H2 9127   1.385   4.481  10.399  0.8264 -0.3389 -3.0504
  612TMC3    C7 9128   1.165   4.526  10.243  0.0387  0.4093 -0.1649
  612TMC3    C8 9129   1.426   4.306  10.580  0.0252  0.2238 -0.1435
  612TMC3    O1 9130   1.067   4.529  10.166  0.1729  0.3250 -0.5839
  612TMC3    O2 9131   1.462   4.419  10.606 -0.3757  0.3571  0.4316
  613MPD2     C 9132   0.459   1.637  16.600 -1.0783  0.1419 -0.3074
  613MPD2    C1 9133   0.326   1.625  16.597  1.1261  0.1429  0.7180
  613MPD2    C2 9134   0.269   1.512  16.655  0.3414  0.3408  0.5940
  613MPD2    C3 9135   0.351   1.418  16.721  0.4247 -0.1644 -0.2963
  613MPD2    C4 9136   0.482   1.451  16.746 -0.7709 -0.0979  0.2398
  613MPD2    C5 9137   0.537   1.553  16.672 -0.6419  0.5274  0.5870
  613MPD2     H 9138   0.163   1.494  16.642  1.0162 -3.1143 -0.1844
  613MPD2    H1 9139   0.555   1.395  16.804 -2.1830 -1.1961  0.9570
  613MPD2    H2 9140   0.517   1.717  16.554 -1.8089 -0.3405 -2.0799
  613MPD2    H3 9141   0.643   1.574  16.681 -0.4486  0.1562 -0.8298
  613MPD2     N 9142   0.312   1.292  16.770  0.2197 -0.1119  0.0333
  613MPD2    H5 9143   0.390   1.234  16.800 -0.1799  0.3228  1.9257
  613MPD2    N1 9144   0.251   1.710  16.506  0.5105 -0.0391 -0.1035
  613MPD2    H7 9145   0.308   1.758  16.437 -0.9123 -0.0729 -1.3019
  614TMC3    C1 9146   0.077   1.712  16.358  0.3002  0.2919  0.4824
  614TMC3    C2 9147   0.139   1.606  16.289  0.6833  0.9634  0.7148
  614TMC3    C3 9148   0.056   1.553  16.192 -0.6116  0.0838  0.4336
  614TMC3    C4 9149   4.686   1.757  16.337 -0.5554  0.3528 -0.1876
  614TMC3    C5 9150   4.611   1.704  16.231 -0.4667  0.4235 -0.3450
  614TMC3    C6 9151   4.671   1.606  16.162  0.3139  0.1473 -0.6029
  614TMC3     C 9152   0.114   1.713  16.498  0.0147 -0.1995  0.3901
  614TMC3     O 9153   0.030   1.703  16.588 -0.1114  0.1348 -0.3583
  614TMC3     H 9154   0.240   1.570  16.302  0.4697 -0.5701 -1.8187
  614TMC3    H1 9155   4.650   1.842  16.393 -0.0612 -0.2172  0.9836
  614TMC3    H2 9156   4.637   1.567  16.067  2.3126  1.2713 -1.7680
  614TMC3    C7 9157   4.518   1.790  16.163 -0.1387  0.2818  0.3328
  614TMC3    C8 9158   0.048   1.408  16.208 -0.4862  0.2089 -0.2911
  614TMC3    O1 9159   4.482   1.888  16.224  0.6316  0.6150 -0.1638
  614TMC3    O2 9160   0.142   1.364  16.273  0.1858  0.0282  0.1246
  615MPD2     C 9161   4.224   2.462  16.072  0.1178  0.1365 -0.3509
  615MPD2    C1 9162   4.269   2.590  16.046  0.4739  0.2453 -0.0567
  615MPD2    C2 9163   4.197   2.674  15.964 -0.1778 -0.8988 -0.3409
  615MPD2    C3 9164   4.094   2.619  15.888  0.3899 -0.2847  0.6628
  615MPD2    C4 9165   4.050   2.493  15.912  0.1759 -0.3992 -0.3712
  615MPD2    C5 9166   4.118   2.417  15.999  0.0718 -0.8268  0.3843
  615MPD2     H 9167   4.227   2.775  15.939  0.2527 -1.5905 -2.6940
  615MPD2    H1 9168   3.975   2.445  15.851  2.0823 -0.2612 -2.8240
  615MPD2    H2 9169   4.272   2.392  16.140 -0.8528  0.7451  0.9762
  615MPD2    H3 9170   4.073   2.318  15.996  0.8624 -1.1294 -2.1188
  615MPD2     N 9171   4.024   2.689  15.784 -0.3753  0.0486  0.3451
  615MPD2    H5 9172   3.941   2.645  15.746 -1.6442  2.2286  0.6228
  615MPD2    N1 9173   4.387   2.638  16.104 -0.1062 -0.5940 -0.6261
  615MPD2    H7 9174   4.409   2.737  16.104 -1.6287 -0.2539 -0.7861
  616TMC3    C1 9175   4.562   2.636  16.259  0.3777  0.4124 -0.0783
  616TMC3    C2 9176   4.554   2.776  16.261  0.5626 -0.0534 -0.3444
  616TMC3    C3 9177   4.656   2.838  16.327  0.0837  0.3398  0.1344
  616TMC3    C4 9178   4.643   2.565  16.349  0.0226  0.7127 -0.0848
  616TMC3    C5 9179   4.730   2.640  16.428 -0.2342  0.9997  0.7240
  616TMC3    C6 9180   0.004   2.777  16.420 -0.4280  1.1828  0.4739
  616TMC3     C 9181   4.474   2.556  16.172 -0.5534 -0.5048  0.1071
  616TMC3     O 9182   4.504   2.440  16.141  0.1143  0.2577  0.5680
  616TMC3     H 9183   4.498   2.831  16.186 -1.9276 -0.4984  1.1782
  616TMC3    H1 9184   4.633   2.458  16.347  0.9846  0.5834  2.0680
  616TMC3    H2 9185   0.080   2.829  16.476  0.3857  1.6176 -1.0266
  616TMC3    C7 9186   0.096   2.573  16.499  0.6050  0.5601 -0.1374
  616TMC3    C8 9187   4.691   2.971  16.283 -0.1073  0.0661 -0.2910
  616TMC3    O1 9188   0.144   2.471  16.449  0.2790 -0.8369  0.1059
  616TMC3    O2 9189   4.603   3.038  16.230  0.3377  0.5249 -0.4583
  617MPD2     C 9190   1.611   0.416  13.405 -0.2706 -0.2825  0.0221
  617MPD2    C1 9191   1.714   0.387  13.489 -0.0979  0.0952  0.7165
  617MPD2    C2 9192   1.678   0.335  13.617 -0.4350  0.0592  0.5649
  617MPD2    C3 9193   1.548   0.313  13.656 -0.3599 -0.1610 -0.4111
  617MPD2    C4 9194   1.454   0.348  13.567  0.0273  0.0285 -0.0740
  617MPD2    C5 9195   1.481   0.398  13.445 -0.1856  0.9198 -0.6107
  617MPD2     H 9196   1.757   0.302  13.684 -0.4457  0.5644  0.8267
  617MPD2    H1 9197   1.353   0.318  13.596 -0.4416  1.4053 -0.2941
  617MPD2    H2 9198   1.615   0.451  13.302 -1.9340  2.5537  0.9350
  617MPD2    H3 9199   1.398   0.426  13.382 -1.8538 -0.5466  0.9375
  617MPD2     N 9200   1.502   0.250  13.779  0.1072 -0.0388  0.3426
  617MPD2    H5 9201   1.410   0.207  13.781 -0.4269  1.0337 -1.1179
  617MPD2    N1 9202   1.845   0.392  13.441 -0.2181  0.0452  0.2948
  617MPD2    H7 9203   1.858   0.399  13.341  0.3757 -2.5883  0.1684
  618TMC3    C1 9204   2.075   0.329  13.429 -0.4971 -0.0533  0.3732
  618TMC3    C2 9205   2.196   0.310  13.495 -0.7538  0.0043 -0.4210
  618TMC3    C3 9206   2.281   0.225  13.432  0.3231  0.2016  0.4246
  618TMC3    C4 9207   2.041   0.269  13.312 -0.7865  0.0360 -0.0626
  618TMC3    C5 9208   2.128   0.179  13.255  0.6053 -0.3469  0.1994
  618TMC3    C6 9209   2.247   0.152  13.317  0.3957 -0.6008 -0.1490
  618TMC3     C 9210   1.965   0.372  13.511 -0.4782 -0.3972  0.4655
  618TMC3     O 9211   1.989   0.370  13.627 -0.7809 -0.9226 -0.4922
  618TMC3     H 9212   2.214   0.364  13.587 -1.4055  0.9845 -0.8752
  618TMC3    H1 9213   1.949   0.298  13.264 -2.1497 -0.8930  2.0036
  618TMC3    H2 9214   2.317   0.076  13.285 -0.1041 -1.2191  0.2383
  618TMC3    C7 9215   2.057   0.073  13.178 -0.7516  0.3522 -0.2038
  618TMC3    C8 9216   2.398   0.197  13.515  0.4584 -0.5890 -0.0715
  618TMC3    O1 9217   1.937   0.093  13.175  0.2766 -0.1430 -0.2995
  618TMC3    O2 9218   2.440   0.288  13.584 -0.5632 -0.1453  0.3331
  619MPD2     C 9219   3.650   1.927  13.550  0.2572  0.2385 -0.5308
  619MPD2    C1 9220   3.515   1.930  13.532 -0.6384 -0.9910 -0.1077
  619MPD2    C2 9221   3.422   1.876  13.613  0.3443 -0.5161  0.6217
  619MPD2    C3 9222   3.473   1.798  13.715  0.2770 -0.0340  0.6819
  619MPD2    C4 9223   3.608   1.810  13.753  0.4792  0.1776  0.0649
  619MPD2    C5 9224   3.693   1.870  13.665 -0.2353 -0.2316 -0.2462
  619MPD2     H 9225   3.317   1.880  13.586  0.4013  1.2999  0.6654
  619MPD2    H1 9226   3.661   1.757  13.831 -0.4847  1.2007  1.4058
  619MPD2    H2 9227   3.718   1.978  13.483  2.1920  1.6627  2.4847
  619MPD2    H3 9228   3.801   1.861  13.679 -0.8247 -1.7972  3.3285
  619MPD2     N 9229   3.375   1.718  13.781 -0.1944 -1.0394 -0.6096
  619MPD2    H5 9230   3.284   1.719  13.736 -0.2766 -1.4474 -0.4449
  619MPD2    N1 9231   3.466   1.972  13.403  0.5313 -0.5637 -0.1912
  619MPD2    H7 9232   3.373   1.940  13.381  0.0289 -0.1132  1.3258
  620TMC3    C1 9233   3.471   2.014  13.180 -0.6396  0.3366  0.3783
  620TMC3    C2 9234   3.379   1.914  13.171  0.6996  0.4517  0.7788
  620TMC3    C3 9235   3.256   1.937  13.113  0.3993 -0.0221 -0.5415
  620TMC3    C4 9236   3.462   2.126  13.109  0.1424 -0.4922  0.5701
  620TMC3    C5 9237   3.342   2.150  13.044  0.6147 -0.0042 -0.1557
  620TMC3    C6 9238   3.247   2.054  13.043 -0.2806  0.4787 -0.5474
  620TMC3     C 9239   3.544   2.033  13.308  0.3714 -0.4622 -0.1678
  620TMC3     O 9240   3.628   2.117  13.332 -0.0174  0.1494  0.2629
  620TMC3     H 9241   3.383   1.815  13.214  1.0767  0.3386  0.4823
  620TMC3    H1 9242   3.532   2.206  13.128  1.1891 -0.7509 -2.1319
  620TMC3    H2 9243   3.156   2.080  12.992 -0.9996  2.3180  1.6515
  620TMC3    C7 9244   3.307   2.291  13.068  0.0259 -0.0129 -0.2050
  620TMC3    C8 9245   3.155   1.931  13.220 -0.1414  1.2551 -0.9801
  620TMC3    O1 9246   3.379   2.382  13.029  0.2132  0.6756 -0.4018
  620TMC3    O2 9247   3.206   1.895  13.329  0.2529 -0.3456 -0.7135
  621MPD2     C 9248   4.257   2.143  10.117  0.2086 -0.0839  0.1647
  621MPD2    C1 9249   4.388   2.101  10.131 -0.4737  0.1456 -0.0623
  621MPD2    C2 9250   4.484   2.142  10.038  0.5055  0.5940 -0.1196
  621MPD2    C3 9251   4.455   2.226   9.930  0.1073 -0.4603 -0.7343
  621MPD2    C4 9252   4.322   2.270   9.926 -0.1440 -0.3789  0.4040
  621MPD2    C5 9253   4.224   2.225  10.014 -0.1957 -0.3113  0.5965
  621MPD2     H 9254   4.582   2.100  10.056 -0.1738 -1.1726 -0.5271
  621MPD2    H1 9255   4.289   2.320   9.836  0.6101  0.7004  0.7394
  621MPD2    H2 9256   4.175   2.109  10.180  2.1222 -2.3753  1.4011
  621MPD2    H3 9257   4.122   2.248   9.983 -0.1570  0.3710  0.9784
  621MPD2     N 9258   4.555   2.263   9.838  0.3795  0.5183 -0.1610
  621MPD2    H5 9259   4.651   2.244   9.865  0.3060 -0.6228 -0.6916
  621MPD2    N1 9260   4.430   2.018  10.235 -0.2287 -0.1759  0.1386
  621MPD2    H7 9261   4.526   1.987  10.232  0.1606  0.8506  2.1156
  622TMC3    C1 9262   4.425   1.917  10.451 -0.3027  0.2682 -0.4268
  622TMC3    C2 9263   4.397   1.956  10.576 -0.2374 -0.6018  0.0711
  622TMC3    C3 9264   4.326   1.878  10.660 -0.2888  0.1653  0.1343
  622TMC3    C4 9265   4.389   1.792  10.417  0.2996 -0.2792  0.1600
  622TMC3    C5 9266   4.296   1.721  10.488  0.2754  1.1614  0.8072
  622TMC3    C6 9267   4.259   1.766  10.613  1.1553 -0.3387  0.1290
  622TMC3     C 9268   4.369   2.013  10.360  0.1232 -0.0615  0.0263
  622TMC3     O 9269   4.269   2.068  10.408  0.0362  0.5659  0.5049
  622TMC3     H 9270   4.426   2.058  10.600 -2.7119  0.5420 -1.7996
  622TMC3    H1 9271   4.428   1.756  10.323  1.4778  1.0007  0.1499
  622TMC3    H2 9272   4.190   1.712  10.677  1.5288  0.4562  1.1917
  622TMC3    C7 9273   4.169   1.722  10.417 -0.2430 -0.4020  0.3932
  622TMC3    C8 9274   4.241   1.954  10.744 -0.6847  0.3264 -0.9372
  622TMC3    O1 9275   4.070   1.763  10.477  0.5601  0.3469  0.3452
  622TMC3    O2 9276   4.198   1.916  10.851  0.1106  0.2948  0.2113
  623MPD2     C 9277   3.350   3.021  15.906  0.2439 -0.3859 -0.5290
  623MPD2    C1 9278   3.244   2.989  15.985 -0.0157  0.0680 -0.0428
  623MPD2    C2 9279   3.265   2.969  16.120 -0.4591 -0.5242  0.5208
  623MPD2    C3 9280   3.396   2.984  16.172  0.0957 -0.8314 -0.0259
  623MPD2    C4 9281   3.500   3.003  16.086 -0.0726  0.4168 -0.0952
  623MPD2    C5 9282   3.480   3.019  15.955  0.2022 -0.6196 -0.7127
  623MPD2     H 9283   3.180   2.950  16.185 -1.1769 -1.0485 -0.5614
  623MPD2    H1 9284   3.597   3.026  16.130  0.1018 -2.1810  0.8718
  623MPD2    H2 9285   3.334   3.041  15.800 -2.1228  0.6183  0.0113
  623MPD2    H3 9286   3.560   3.039  15.885  0.0121 -1.7134 -1.2523
  623MPD2     N 9287   3.407   2.980  16.313  0.4517 -0.4946  0.3404
  623MPD2    H5 9288   3.322   2.977  16.368  0.5337  1.1554  0.5501
  623MPD2    N1 9289   3.108   2.980  15.941  0.6510 -0.5307 -0.0092
  623MPD2    H7 9290   3.039   2.971  16.015  0.3874 -1.1543 -0.3337
  624TMC3    C1 9291   3.509   2.791  16.690 -0.1791  1.0098 -0.8401
  624TMC3    C2 9292   3.387   2.822  16.743  0.6860 -0.0604  0.8558
  624TMC3    C3 9293   3.337   2.934  16.687 -0.3784 -0.2311  0.0773
  624TMC3    C4 9294   3.576   2.860  16.599 -0.2257 -0.6002 -0.4446
  624TMC3    C5 9295   3.506   2.959  16.531  0.0680 -0.2120  0.0663
  624TMC3    C6 9296   3.382   2.993  16.576 -0.0426  0.4362  0.4435
  624TMC3     C 9297   3.573   2.684  16.762  0.3207 -0.5192  0.3229
  624TMC3     O 9298   3.537   2.670  16.879 -0.8078 -0.6523  0.2176
  624TMC3     H 9299   3.341   2.761  16.820 -1.8223 -0.2651 -0.8271
  624TMC3    H1 9300   3.677   2.836  16.569 -0.5468 -0.1924 -1.8504
  624TMC3    H2 9301   3.331   3.082  16.542 -2.5868 -1.1816  0.0573
  624TMC3    C7 9302   3.525   2.977  16.387  0.6349  0.5572  0.1774
  624TMC3    C8 9303   3.209   2.970  16.733  0.5781  0.0745  0.6307
  624TMC3    O1 9304   3.639   2.956  16.345  0.2830 -0.1213  0.3533
  624TMC3    O2 9305   3.145   3.042  16.658  0.4045 -0.8598  0.0577
  625MPD2     C 9306   3.393   4.178   0.641  0.5026  0.2930 -0.7452
  625MPD2    C1 9307   3.341   4.287   0.574 -0.2904 -0.6677 -0.1072
  625MPD2    C2 9308   3.433   4.374   0.525 -0.1875 -0.3313  0.5645
  625MPD2    C3 9309   3.564   4.345   0.528  0.2488 -0.0098  0.1095
  625MPD2    C4 9310   3.612   4.224   0.582  0.0636  0.0998  0.0084
  625MPD2    C5 9311   3.521   4.137   0.639 -0.5767 -0.2808 -0.7359
  625MPD2     H 9312   3.417   4.471   0.479 -0.6846 -1.8704 -2.4981
  625MPD2    H1 9313   3.717   4.201   0.589 -0.0307 -1.2688 -2.9284
  625MPD2    H2 9314   3.320   4.116   0.692  0.1905  0.8043 -0.5720
  625MPD2    H3 9315   3.554   4.049   0.692 -1.5845 -0.9375 -1.1974
  625MPD2     N 9316   3.660   4.448   0.501 -0.7521  0.0568  0.1028
  625MPD2    H5 9317   3.625   4.537   0.467 -0.1924 -0.9640 -3.2502
  625MPD2    N1 9318   3.208   4.322   0.557  0.0496  0.3466  0.2226
  625MPD2    H7 9319   3.188   4.401   0.497 -0.2922  1.1635  1.3985
  626TMC3    C1 9320   2.969   4.302   0.568  0.1436  0.5048 -0.3057
  626TMC3    C2 9321   2.945   4.373   0.457 -0.5516  0.0074  0.2090
  626TMC3    C3 9322   2.811   4.400   0.429 -0.2746 -0.7700 -0.4203
  626TMC3    C4 9323   2.872   4.250   0.645  0.2299  0.3151 -0.5974
  626TMC3    C5 9324   2.737   4.270   0.603  0.0172 -0.1167 -0.4517
  626TMC3    C6 9325   2.707   4.336   0.489  0.8074 -0.0861  1.0773
  626TMC3     C 9326   3.101   4.264   0.617  0.2784  0.5711 -0.8740
  626TMC3     O 9327   3.112   4.186   0.710  0.3595  0.6295 -0.0216
  626TMC3     H 9328   3.022   4.441   0.422 -0.9784  0.2595 -0.2457
  626TMC3    H1 9329   2.891   4.195   0.737 -0.7044 -0.2916 -0.7664
  626TMC3    H2 9330   2.607   4.354   0.451  0.8448  2.3326  2.1553
  626TMC3    C7 9331   2.620   4.231   0.687  0.2861  0.7362 -0.1007
  626TMC3    C8 9332   2.783   4.483   0.313 -0.3381 -0.0604 -0.0008
  626TMC3    O1 9333   2.645   4.154   0.778 -0.2020  0.1467 -0.1000
  626TMC3    O2 9334   2.863   4.480   0.225 -0.7494  0.3630 -0.2763
  627MPD2     C 9335   1.477   4.042  14.607  0.2856 -0.1924  0.6369
  627MPD2    C1 9336   1.545   3.989  14.712  0.3740  0.2845  0.0186
  627MPD2    C2 9337   1.521   3.859  14.740 -0.0539 -0.2484 -0.1185
  627MPD2    C3 9338   1.436   3.781  14.662 -0.6317 -0.6445 -0.3090
  627MPD2    C4 9339   1.368   3.835  14.563 -1.1922 -0.2328  0.5273
  627MPD2    C5 9340   1.388   3.966  14.535  0.9002  0.6439  0.0311
  627MPD2     H 9341   1.573   3.810  14.821  1.3528  1.5722  0.0715
  627MPD2    H1 9342   1.302   3.767  14.510 -1.1547 -1.1977  1.7016
  627MPD2    H2 9343   1.485   4.144  14.572 -1.6698 -0.2337  0.0590
  627MPD2    H3 9344   1.329   4.019  14.460 -0.7084  0.0447  0.8643
  627MPD2     N 9345   1.433   3.647  14.702 -0.3092  0.5412 -0.6893
  627MPD2    H5 9346   1.485   3.623  14.785  0.2022  1.0553 -0.8627
  627MPD2    N1 9347   1.637   4.062  14.787  0.3004 -0.3549 -1.0240
  627MPD2    H7 9348   1.687   4.011  14.859  1.9374  1.9615 -0.5258
  628TMC3    C1 9349   1.787   4.229  14.844 -0.1048  0.5151  0.6405
  628TMC3    C2 9350   1.895   4.139  14.837 -0.2938  0.4275  0.5363
  628TMC3    C3 9351   2.020   4.186  14.866  0.1437  0.6691  0.0486
  628TMC3    C4 9352   1.808   4.368  14.853 -0.6381  0.2485 -0.5929
  628TMC3    C5 9353   1.934   4.409  14.880  0.1100  0.1509 -0.3060
  628TMC3    C6 9354   2.049   4.320  14.884 -0.0892 -0.4320  0.4750
  628TMC3     C 9355   1.661   4.195  14.780 -0.0937 -0.5288 -0.3038
  628TMC3     O 9356   1.606   4.284  14.713 -0.3204 -0.3832 -0.2891
  628TMC3     H 9357   1.885   4.038  14.800 -1.1032  0.4452  0.7068
  628TMC3    H1 9358   1.731   4.444  14.862  0.0801  0.5931  2.6228
  628TMC3    H2 9359   2.146   4.366  14.874 -0.5015  0.0179 -1.5197
  628TMC3    C7 9360   1.967   4.550  14.846 -0.5998 -0.1022  0.1506
  628TMC3    C8 9361   2.128   4.122  14.792 -0.1189  0.6815 -0.7839
  628TMC3    O1 9362   2.078   4.588  14.878  0.1911  0.1108 -0.1126
  628TMC3    O2 9363   2.097   4.083  14.683  0.0659  0.1291  0.8437
  629MPD2     C 9364   0.325   3.303  16.145 -0.1393  0.0851  0.4892
  629MPD2    C1 9365   0.386   3.205  16.209  0.2228 -0.8119 -0.4382
  629MPD2    C2 9366   0.301   3.100  16.258  0.5020  0.1096 -0.3725
  629MPD2    C3 9367   0.164   3.100  16.240  0.5188  0.3948  0.2781
  629MPD2    C4 9368   0.111   3.210  16.176 -0.2006  0.2961  0.4349
  629MPD2    C5 9369   0.187   3.304  16.122 -0.4331 -0.1160 -0.1530
  629MPD2     H 9370   0.348   3.018  16.311  0.5982  0.2105 -0.3014
  629MPD2    H1 9371   0.004   3.223  16.162 -0.3419 -0.1311  1.1289
  629MPD2    H2 9372   0.379   3.385  16.100  0.1992  0.2357  1.1602
  629MPD2    H3 9373   0.133   3.386  16.076  0.6805 -0.6926 -2.5043
  629MPD2     N 9374   0.089   2.989  16.295  0.0624  0.5053  0.2575
  629MPD2    H5 9375   0.139   2.921  16.351 -0.0158  0.8091  0.6970
  629MPD2    N1 9376   0.523   3.217  16.226  0.1541 -0.0911 -0.2732
  629MPD2    H7 9377   0.565   3.305  16.198  2.2034 -0.4373  1.7745
  630TMC3    C1 9378   0.741   3.174  16.311  1.0184  0.8571  0.2371
  630TMC3    C2 9379   0.785   3.280  16.240 -0.8749  0.6269  0.4051
  630TMC3    C3 9380   0.875   3.361  16.292  0.2489  0.2145 -0.1846
  630TMC3    C4 9381   0.808   3.133  16.424 -0.4115 -0.1650  0.2170
  630TMC3    C5 9382   0.910   3.213  16.468 -0.7693 -0.3198  0.3628
  630TMC3    C6 9383   0.948   3.330  16.403 -0.8247 -0.4430  0.1125
  630TMC3     C 9384   0.606   3.123  16.289 -0.0110  0.0292 -0.6555
  630TMC3     O 9385   0.578   3.010  16.330 -0.0062  0.3099  0.0581
  630TMC3     H 9386   0.735   3.323  16.154  0.6835 -0.9160 -1.2399
  630TMC3    H1 9387   0.756   3.063  16.487 -2.7796  1.5645  0.1979
  630TMC3    H2 9388   1.036   3.381  16.440 -0.8403  1.4264 -2.4294
  630TMC3    C7 9389   0.959   3.169  16.596 -0.1086 -0.3971 -0.4061
  630TMC3    C8 9390   0.916   3.492  16.228  0.3977 -0.2291  0.4816
  630TMC3    O1 9391   0.926   3.053  16.630  0.1643 -0.0365 -0.1191
  630TMC3    O2 9392   0.990   3.554  16.299  0.5595  0.5570  0.2696
  631MPD2     C 9393   3.082   2.797  15.550 -0.1567  0.1791  0.5147
  631MPD2    C1 9394   3.132   2.871  15.442  0.2517 -0.1459  0.1109
  631MPD2    C2 9395   3.277   2.885  15.434  0.0706  0.1822  0.2626
  631MPD2    C3 9396   3.364   2.826  15.522  0.5072 -0.1099 -0.1210
  631MPD2    C4 9397   3.308   2.738  15.617  0.0364 -0.1167  0.2166
  631MPD2    C5 9398   3.171   2.728  15.632  0.3371 -0.7884 -0.1507
  631MPD2     H 9399   3.321   2.954  15.363 -1.0194 -0.0499 -0.6313
  631MPD2    H1 9400   3.362   2.693  15.699  0.0285 -0.2638  0.1409
  631MPD2    H2 9401   2.975   2.782  15.560 -0.1201 -0.4451 -0.0457
  631MPD2    H3 9402   3.135   2.673  15.718 -0.6430 -2.9168 -1.9468
  631MPD2     N 9403   3.504   2.865  15.514 -0.7131 -0.0228  0.1772
  631MPD2    H5 9404   3.536   2.928  15.441  0.7838 -0.7560  0.2058
  631MPD2    N1 9405   3.050   2.943  15.357 -0.0893  0.3556  1.0662
  631MPD2    H7 9406   2.951   2.941  15.376 -0.3627 -1.1187 -0.4729
  632TMC3    C1 9407   2.993   3.120  15.209  0.3515  0.5000  0.1820
  632TMC3    C2 9408   2.950   3.191  15.318  0.2296  0.2392 -0.2657
  632TMC3    C3 9409   2.952   3.330  15.309 -0.3009  0.6080  0.3718
  632TMC3    C4 9410   3.038   3.187  15.097  0.0881 -0.0991  0.0816
  632TMC3    C5 9411   3.048   3.324  15.093 -0.5079  0.2204  0.6568
  632TMC3    C6 9412   3.005   3.394  15.205 -0.3806  0.5473  0.3238
  632TMC3     C 9413   3.089   3.010  15.244  0.6691 -0.6250 -0.9148
  632TMC3     O 9414   3.197   3.017  15.195 -0.1866  0.4374 -0.3951
  632TMC3     H 9415   2.942   3.142  15.414  1.6369 -1.9671 -1.2622
  632TMC3    H1 9416   3.104   3.130  15.033 -2.3650 -2.6843 -0.1352
  632TMC3    H2 9417   2.984   3.500  15.196 -1.3430  0.4144  1.0498
  632TMC3    C7 9418   3.101   3.395  14.974  0.1828 -0.7045 -0.8176
  632TMC3    C8 9419   2.954   3.406  15.431  0.6776 -0.5537  0.1175
  632TMC3    O1 9420   3.125   3.515  14.983  0.2959 -0.0698 -0.3794
  632TMC3    O2 9421   3.040   3.379  15.514 -0.3518 -0.6727  0.2395
  633MPD2     C 9422   2.863   1.147  17.166 -0.2476 -0.1890 -0.2506
  633MPD2    C1 9423   2.828   1.087  17.044  0.0519  0.1500  0.7915
  633MPD2    C2 9424   2.768   0.960  17.049 -0.2874  0.0022 -0.4991
  633MPD2    C3 9425   2.744   0.895  17.172  0.5075 -0.1291  0.2725
  633MPD2    C4 9426   2.771   0.965  17.290  0.5011 -0.6228  0.2476
  633MPD2    C5 9427   2.826   1.093  17.290 -0.7417 -0.3706 -0.8586
  633MPD2     H 9428   2.748   0.908  16.956 -3.1792 -1.4168  0.9125
  633MPD2    H1 9429   2.760   0.930  17.392  1.4379  0.1494  0.6230
  633MPD2    H2 9430   2.919   1.239  17.180  0.3170 -0.9993  2.9764
  633MPD2    H3 9431   2.859   1.133  17.385  2.3030  0.4930 -2.2658
  633MPD2     N 9432   2.667   0.775  17.184  0.1426  0.5656 -0.1304
  633MPD2    H5 9433   2.665   0.749  17.282 -0.8701 -0.9763 -0.5496
  633MPD2    N1 9434   2.859   1.140  16.919 -0.8594  0.3172  0.6526
  633MPD2    H7 9435   2.866   1.075  16.842 -0.4524  1.5775 -0.3749
  634TMC3    C1 9436   2.954   1.294  16.774  0.5777  0.0212 -0.2761
  634TMC3    C2 9437   3.003   1.187  16.703  0.0723  0.4324 -0.4877
  634TMC3    C3 9438   3.031   1.211  16.573  0.4657 -0.7794 -0.4206
  634TMC3    C4 9439   2.927   1.419  16.721  0.2389 -0.0389  0.1245
  634TMC3    C5 9440   2.954   1.436  16.592  0.2705  0.0780  0.5571
  634TMC3    C6 9441   2.997   1.332  16.519 -0.4845 -0.2089 -0.0884
  634TMC3     C 9442   2.896   1.270  16.903  0.3960 -0.1174 -0.6020
  634TMC3     O 9443   2.891   1.367  16.979 -0.2823 -0.2677 -0.1971
  634TMC3     H 9444   3.036   1.098  16.755  0.6503  0.0900 -1.4425
  634TMC3    H1 9445   2.886   1.495  16.787 -0.5818 -1.2924  1.0524
  634TMC3    H2 9446   3.016   1.347  16.413  1.1876  0.0803  0.2454
  634TMC3    C7 9447   2.941   1.569  16.525  0.1839 -0.1724 -0.1530
  634TMC3    C8 9448   3.036   1.096  16.479 -0.2856  0.2700  0.0223
  634TMC3    O1 9449   2.959   1.576  16.405 -1.0535  0.1886  0.3131
  634TMC3    O2 9450   3.035   0.989  16.535  0.1695 -0.5699  0.0272
  635TMC3    C1 9451   3.711   2.206  17.343  0.0231  0.1605 -0.0230
  635TMC3    C2 9452   3.771   2.115  17.263 -0.9396  0.4073 -0.0317
  635TMC3    C3 9453   3.695   2.047  17.172  1.0993  0.4412 -0.5610
  635TMC3    C4 9454   3.579   2.237  17.339 -0.0134  0.2865 -0.2639
  635TMC3    C5 9455   3.504   2.172  17.246 -0.2351 -0.0316  0.0998
  635TMC3    C6 9456   3.564   2.077  17.170  0.5423  0.6142  0.1427
  635TMC3     C 9457   3.795   2.258  17.457  0.1355  0.4298  0.0159
  635TMC3     O 9458   3.750   2.356  17.513  0.2054  0.1931  0.1147
  635TMC3     H 9459   3.878   2.098  17.264 -0.7223  1.6498 -2.1020
  635TMC3    H1 9460   3.542   2.319  17.399 -2.7563 -1.7679  0.8047
  635TMC3    H2 9461   3.508   2.036  17.086  0.7139  0.0854  0.2892
  635TMC3    C7 9462   3.356   2.175  17.266 -0.4253  0.4190 -0.3005
  635TMC3    C8 9463   3.747   1.921  17.119  0.2532 -0.4664  0.1676
  635TMC3    O1 9464   3.296   2.106  17.187 -0.0283 -0.2578  0.3695
  635TMC3    O2 9465   3.867   1.904  17.137  1.1131 -0.1073 -0.2582
  636MPD2     C 9466   4.217   1.138  16.503 -0.2563  0.0458  0.1979
  636MPD2    C1 9467   4.317   1.234  16.521  0.6361 -0.0762 -1.0064
  636MPD2    C2 9468   4.424   1.214  16.609  0.5203  0.3473  0.0130
  636MPD2    C3 9469   4.438   1.083  16.654  0.7413  0.3440 -0.1734
  636MPD2    C4 9470   4.343   0.980  16.634 -0.5068 -0.0076 -0.6875
  636MPD2    C5 9471   4.236   1.012  16.551  0.4381 -0.0359 -0.2101
  636MPD2     H 9472   4.495   1.293  16.629 -0.9066  1.8536 -0.9019
  636MPD2    H1 9473   4.349   0.876  16.666  3.9934  1.2463  2.6661
  636MPD2    H2 9474   4.136   1.148  16.432  0.4170  0.1262 -0.5584
  636MPD2    H3 9475   4.158   0.943  16.521  1.3637 -1.9559  1.7270
  636MPD2     N 9476   4.553   1.069  16.738  0.1459  0.6584  0.3390
  636MPD2    H5 9477   4.613   1.151  16.743  0.1818  0.6185  0.5569
  636MPD2    N1 9478   4.300   1.356  16.455 -0.8460 -0.6248  0.5441
  636MPD2    H7 9479   4.359   1.436  16.472 -1.2789 -0.7010  2.4398
  637TMC3    C1 9480   4.736   0.954  16.806 -0.4525  0.4477 -0.3635
  637TMC3    C2 9481   0.062   1.060  16.851  0.1360  0.1519  0.3078
  637TMC3    C3 9482   0.182   1.097  16.796 -1.2726  0.9044 -0.0325
  637TMC3    C4 9483   0.038   0.881  16.701 -0.2508 -0.5782 -0.0788
  637TMC3    C5 9484   0.151   0.931  16.634 -0.9580 -0.9771  0.0502
  637TMC3    C6 9485   0.233   1.016  16.698 -0.2703  0.4722 -0.2517
  637TMC3     C 9486   4.593   0.956  16.806 -0.4259  0.0731  0.6549
  637TMC3     O 9487   4.535   0.846  16.821  0.3558 -0.2942 -0.0106
  637TMC3     H 9488   4.735   1.126  16.906 -0.7036 -0.0514 -0.4536
  637TMC3    H1 9489   4.719   0.795  16.671  0.0358 -0.7307 -0.1921
  637TMC3    H2 9490   0.317   1.057  16.643 -0.4111  2.3731  0.9616
  637TMC3    C7 9491   0.120   0.970  16.500  0.0207  0.3063 -0.0350
  637TMC3    C8 9492   0.184   1.239  16.776 -0.8798 -0.1705 -0.1553
  637TMC3    O1 9493   0.205   1.028  16.434 -0.2530  0.0967 -0.1611
  637TMC3    O2 9494   0.075   1.290  16.755 -0.3909  0.4309  0.8448
  638MPD2     C 9495   3.934   0.026  14.562  0.5874 -0.1392 -0.4902
  638MPD2    C1 9496   3.959   4.631  14.533 -0.0749 -0.2354 -0.3121
  638MPD2    C2 9497   3.945   4.543  14.636 -0.7880  0.1956  0.5156
  638MPD2    C3 9498   3.915   4.584  14.762  0.2230 -0.0435 -0.0077
  638MPD2    C4 9499   3.894   4.713  14.792 -0.6382 -0.3861  0.4206
  638MPD2    C5 9500   3.904   0.068  14.694  0.3421 -0.4992  0.7024
  638MPD2     H 9501   3.948   4.437  14.614 -0.3051  0.4623 -0.6553
  638MPD2    H1 9502   3.865   4.732  14.895  0.9943  2.7143  0.3394
  638MPD2    H2 9503   3.923   0.100  14.484 -0.7674  0.9994  0.7927
  638MPD2    H3 9504   3.892   0.172  14.722  2.4956  0.1135 -0.6433
  638MPD2     N 9505   3.925   4.481  14.864 -0.5198  0.3643  0.0664
  638MPD2    H5 9506   3.947   4.388  14.829 -0.4412  0.6881 -0.7562
  638MPD2    N1 9507   3.972   4.575  14.404 -0.2981 -0.1896  0.5629
  638MPD2    H7 9508   3.963   4.474  14.396 -0.4226 -0.2283  1.1318
  639TMC3    C1 9509   3.964   4.368  15.065  0.1024  0.6602 -0.5645
  639TMC3    C2 9510   3.877   4.270  15.039 -0.1881  0.3440  0.4699
  639TMC3    C3 9511   3.932   4.144  15.017 -0.2858 -0.2741  0.6545
  639TMC3    C4 9512   4.095   4.353  15.079  0.4426 -0.0193 -0.2652
  639TMC3    C5 9513   4.153   4.234  15.069  0.6034  0.5286 -0.7943
  639TMC3    C6 9514   4.071   4.132  15.036 -0.2639  0.8495  0.3932
  639TMC3     C 9515   3.939   4.502  14.995 -0.9277  0.1771  0.4815
  639TMC3     O 9516   3.948   4.603  15.066  0.8803  0.3464  0.2962
  639TMC3     H 9517   3.772   4.291  15.020 -0.5013 -1.4309  0.1795
  639TMC3    H1 9518   4.154   4.444  15.075 -0.6380  0.7013  0.5317
  639TMC3    H2 9519   4.118   4.034  15.037  1.9021  1.8797 -1.8825
  639TMC3    C7 9520   4.298   4.216  15.081 -0.2774  0.8319 -0.2711
  639TMC3    C8 9521   3.867   4.036  14.940  0.2361 -0.5305 -0.0271
  639TMC3    O1 9522   4.348   4.285  15.169  0.0187 -0.3927  0.5487
  639TMC3    O2 9523   3.933   3.966  14.866 -0.2008 -0.1412  0.4217
  640MPD2     C 9524   0.571   3.790   9.819  0.0218  0.3794  0.5792
  640MPD2    C1 9525   0.439   3.800   9.858  0.4344 -0.1053 -0.0210
  640MPD2    C2 9526   0.403   3.896   9.952  1.0028 -0.1846 -0.4966
  640MPD2    C3 9527   0.499   3.966  10.014  0.0744  0.1868 -0.1510
  640MPD2    C4 9528   0.631   3.948   9.981  0.3778  0.6820 -0.1097
  640MPD2    C5 9529   0.666   3.866   9.882 -0.3144 -0.3014  0.0894
  640MPD2     H 9530   0.298   3.905   9.976  1.1437 -1.6412  0.7086
  640MPD2    H1 9531   0.716   3.996  10.028  0.5950 -1.6695  1.8862
  640MPD2    H2 9532   0.594   3.718   9.742  0.3322 -0.7875  1.7738
  640MPD2    H3 9533   0.768   3.874   9.849 -0.4462  1.4583  0.1458
  640MPD2     N 9534   0.472   4.057  10.117  0.6962  0.4001  0.2733
  640MPD2    H5 9535   0.555   4.099  10.157 -0.0634  1.4865  0.6966
  640MPD2    N1 9536   0.351   3.739   9.778  0.1072 -0.1254 -0.0441
  640MPD2    H7 9537   0.387   3.679   9.705 -0.1940 -0.4668  0.0854
  641TMC3    C1 9538   0.147   3.678   9.667  0.1540  0.3509  0.2775
  641TMC3    C2 9539   0.206   3.557   9.641 -0.3829 -0.6589 -0.2762
  641TMC3    C3 9540   0.173   3.495   9.525  0.4890  0.3511  0.3111
  641TMC3    C4 9541   0.037   3.721   9.591 -0.2872  0.6981 -0.0331
  641TMC3    C5 9542   0.004   3.642   9.477  0.1936 -0.1625  0.1546
  641TMC3    C6 9543   0.072   3.531   9.448  0.3177  0.2995  0.2021
  641TMC3     C 9544   0.210   3.762   9.767 -0.8927  0.2399  0.2497
  641TMC3     O 9545   0.140   3.836   9.839  0.1457  0.3607  0.1521
  641TMC3     H 9546   0.282   3.515   9.706 -0.1940  0.7730  0.4304
  641TMC3    H1 9547   4.712   3.802   9.624 -0.5806 -0.5307  2.4095
  641TMC3    H2 9548   0.049   3.484   9.353  2.4864  1.5929 -0.9642
  641TMC3    C7 9549   4.619   3.679   9.417  0.1589 -0.3831  0.1061
  641TMC3    C8 9550   0.240   3.371   9.488  0.5528  0.1954  0.4050
  641TMC3    O1 9551   4.579   3.794   9.435  0.5592 -0.1562 -0.1243
  641TMC3    O2 9552   0.187   3.310   9.395 -0.1100  0.0381 -0.7140
  642TMC3    C1 9553   0.589   4.131  12.335  0.2780 -0.2317 -0.0145
  642TMC3    C2 9554   0.727   4.136  12.356  0.2056 -0.0113  0.2537
  642TMC3    C3 9555   0.805   4.030  12.324 -0.4503  1.3243  0.1721
  642TMC3    C4 9556   0.537   4.024  12.270  0.3651 -0.3530  0.2889
  642TMC3    C5 9557   0.619   3.915  12.255 -0.2915  0.7977  0.3098
  642TMC3    C6 9558   0.753   3.913  12.268 -0.0857 -0.7058 -0.1195
  642TMC3     C 9559   0.501   4.246  12.364  0.0181 -0.6147  0.5359
  642TMC3     O 9560   0.396   4.246  12.301  0.1290  0.9025 -0.1154
  642TMC3     H 9561   0.778   4.231  12.369 -0.9248  0.4212  1.4483
  642TMC3    H1 9562   0.430   4.016  12.252 -0.2080  2.2798  2.3786
  642TMC3    H2 9563   0.820   3.833  12.238  1.0995  0.8461 -1.5485
  642TMC3    C7 9564   0.549   3.795  12.222  0.3482  0.5792 -0.0734
  642TMC3    C8 9565   0.947   4.040  12.337 -0.9287 -0.2933  0.0151
  642TMC3    O1 9566   0.436   3.801  12.173 -0.2255  0.4522 -0.5249
  642TMC3    O2 9567   1.013   3.975  12.261  0.6194  0.5500  0.2274
  643TMC3    C1 9568   0.125   4.293  17.674 -0.5827 -0.3191  0.4325
  643TMC3    C2 9569   0.015   4.347  17.603  0.0307  0.7532 -0.3190
  643TMC3    C3 9570   4.706   4.270  17.508  0.0860  0.8614 -0.0728
  643TMC3    C4 9571   0.185   4.179  17.641  0.1367  0.5115  0.0595
  643TMC3    C5 9572   0.135   4.103  17.540 -0.0449  0.1850  0.5834
  643TMC3    C6 9573   0.020   4.144  17.481  0.6958  1.1192  0.0430
  643TMC3     C 9574   0.185   4.366   0.035 -0.2816 -0.2431  0.3211
  643TMC3     O 9575   0.140   4.477   0.048  0.1874  0.3716  0.2266
  643TMC3     H 9576   4.709   4.441  17.631  0.3369  0.0672  2.5145
  643TMC3    H1 9577   0.280   4.143  17.679  0.0146  2.3350  2.1009
  643TMC3    H2 9578   4.716   4.091  17.396  0.7781  0.8058  0.1978
  643TMC3    C7 9579   0.236   4.028  17.459  0.3817 -0.0440  0.0200
  643TMC3    C8 9580   4.604   4.309  17.414 -0.6617 -0.3739 -0.3871
  643TMC3    O1 9581   0.354   4.041  17.491 -0.2609  0.2189  0.3125
  643TMC3    O2 9582   4.516   4.228  17.395 -0.1393  0.0264 -0.1954
  644MPD2     C 9583   4.299   3.016   8.681 -0.2935  0.0477 -0.7505
  644MPD2    C1 9584   4.426   3.070   8.694 -0.1418  0.0537 -0.4415
  644MPD2    C2 9585   4.435   3.207   8.730  0.2238  0.3711 -1.0082
  644MPD2    C3 9586   4.324   3.290   8.747  0.3795 -0.7440  0.3378
  644MPD2    C4 9587   4.200   3.231   8.725  0.3337 -0.0201  0.0943
  644MPD2    C5 9588   4.189   3.100   8.694  0.5633 -0.0424 -0.2167
  644MPD2     H 9589   4.537   3.246   8.735  0.2070  0.3533 -0.4973
  644MPD2    H1 9590   4.111   3.293   8.715  1.1350  1.0759 -0.3181
  644MPD2    H2 9591   4.280   2.915   8.648  1.6147 -0.6755  0.3890
  644MPD2    H3 9592   4.091   3.063   8.667  0.3455  0.6446 -0.3483
  644MPD2     N 9593   4.334   3.433   8.777 -0.5297  0.3305  0.5905
  644MPD2    H5 9594   4.425   3.469   8.804  0.7325 -0.3900 -2.7239
  644MPD2    N1 9595   4.539   2.986   8.674 -0.7125  0.2157 -0.2135
  644MPD2    H7 9596   4.519   2.887   8.661  1.4321 -0.2476 -0.0233
  645TMC3    C1 9597   4.290   3.656   8.835  0.1505  0.0262  0.2689
  645TMC3    C2 9598   4.222   3.767   8.805 -0.3354 -0.3988  0.0173
  645TMC3    C3 9599   4.283   3.889   8.819  0.0766 -0.7639 -0.8492
  645TMC3    C4 9600   4.415   3.657   8.886  0.2400  0.7001 -0.5561
  645TMC3    C5 9601   4.469   3.784   8.909  0.5029 -0.5462 -0.5942
  645TMC3    C6 9602   4.405   3.907   8.882  0.1707 -0.7123 -0.1737
  645TMC3     C 9603   4.236   3.532   8.778  0.3598 -0.0169 -0.8560
  645TMC3     O 9604   4.122   3.524   8.744 -0.3919  0.1092  0.1602
  645TMC3     H 9605   4.122   3.762   8.762 -1.0190  1.3897  1.3995
  645TMC3    H1 9606   4.469   3.572   8.927 -1.0705  0.5736  0.8967
  645TMC3    H2 9607   4.454   4.001   8.904  1.0841 -1.8310  2.5739
  645TMC3    C7 9608   4.583   3.799   8.996 -0.3456 -0.0333 -0.0150
  645TMC3    C8 9609   4.191   3.994   8.822  0.4604 -0.2645  1.1661
  645TMC3    O1 9610   4.595   3.908   9.055  0.6386  0.0913 -0.1180
  645TMC3    O2 9611   4.069   3.976   8.821 -0.4420 -0.1087  0.3772
  646MPD2     C 9612   4.286   3.272  14.506  0.0257  0.1837 -0.0915
  646MPD2    C1 9613   4.208   3.320  14.606  0.2871 -0.0397  0.3524
  646MPD2    C2 9614   4.079   3.353  14.579  0.2430  0.2213  0.1365
  646MPD2    C3 9615   4.038   3.350  14.449 -0.2793 -0.4023 -0.7301
  646MPD2    C4 9616   4.123   3.318  14.349 -0.4290  0.1464  0.0644
  646MPD2    C5 9617   4.244   3.274  14.373 -0.4317  0.2730  0.6291
  646MPD2     H 9618   4.021   3.385  14.665 -2.7181 -1.7101 -1.1206
  646MPD2    H1 9619   4.098   3.321  14.243 -2.2945 -1.3341  0.4527
  646MPD2    H2 9620   4.383   3.232  14.533 -1.6137 -3.9127 -0.2731
  646MPD2    H3 9621   4.316   3.254  14.295  0.7576 -2.1540  2.3456
  646MPD2     N 9622   3.909   3.391  14.428 -0.4477  0.2176  0.2123
  646MPD2    H5 9623   3.856   3.420  14.509  2.4615  2.5604  1.2738
  646MPD2    N1 9624   4.257   3.302  14.743  1.2384  0.4710 -0.4928
  646MPD2    H7 9625   4.349   3.261  14.753  1.4540  1.1708  0.5327
  647TMC3    C1 9626   4.273   3.301  14.971 -0.1591 -0.2218  0.2742
  647TMC3    C2 9627   4.208   3.273  15.089  0.1815  0.1072  0.3454
  647TMC3    C3 9628   4.278   3.246  15.198  0.9822 -0.0941  0.2695
  647TMC3    C4 9629   4.411   3.302  14.962 -0.3002 -0.0857 -0.2171
  647TMC3    C5 9630   4.485   3.279  15.078 -0.0430 -0.4418 -1.1253
  647TMC3    C6 9631   4.415   3.251  15.197  0.5155  0.4181 -0.1018
  647TMC3     C 9632   4.188   3.318  14.857 -1.1118 -0.1997  0.0733
  647TMC3     O 9633   4.070   3.325  14.870 -0.8505 -0.2338 -0.2330
  647TMC3     H 9634   4.099   3.277  15.094  0.1725 -0.2162  0.3991
  647TMC3    H1 9635   4.463   3.322  14.868 -3.1323 -0.9037 -1.9609
  647TMC3    H2 9636   4.470   3.237  15.290 -0.7580  0.2513  0.6169
  647TMC3    C7 9637   4.624   3.236  15.087 -0.1773 -0.7240  0.6838
  647TMC3    C8 9638   4.220   3.146  15.280 -0.0400 -0.1412 -1.2750
  647TMC3    O1 9639   4.669   3.217  15.201 -0.5328 -0.1303  0.1247
  647TMC3    O2 9640   4.270   3.121  15.388  0.2146  0.0229 -0.0725
  648TMC3    C1 9641   3.494   1.202  15.913  0.2061  0.2735  0.3180
  648TMC3    C2 9642   3.594   1.123  15.878  0.0685 -0.5027  0.2222
  648TMC3    C3 9643   3.626   1.127  15.744 -0.1350 -0.3455  0.6782
  648TMC3    C4 9644   3.425   1.287  15.824 -0.8128 -0.1386  0.3077
  648TMC3    C5 9645   3.466   1.284  15.691  0.4483  0.6271 -0.1957
  648TMC3    C6 9646   3.569   1.205  15.650  0.2369  0.5790 -0.4269
  648TMC3     C 9647   3.451   1.222  16.054  0.0768 -1.0299  0.3161
  648TMC3     O 9648   3.380   1.322  16.080  0.0128  0.8051 -0.5460
  648TMC3     H 9649   3.660   1.078  15.951  1.5159 -1.1524 -1.4810
  648TMC3    H1 9650   3.353   1.360  15.858 -1.4579 -0.4594 -0.3926
  648TMC3    H2 9651   3.587   1.187  15.545  1.5032  0.5429 -0.2019
  648TMC3    C7 9652   3.446   1.400  15.607 -0.8289  0.5607  0.9864
  648TMC3    C8 9653   3.711   1.021  15.693  0.2570  0.1239  0.0381
  648TMC3    O1 9654   3.522   1.409  15.514  0.1513  0.0714 -0.3096
  648TMC3    O2 9655   3.767   1.036  15.589  0.2995 -0.4648  0.1975
  649TMC3    C1 9656   3.049   1.638  12.928  0.6640  0.1531 -0.3477
  649TMC3    C2 9657   3.182   1.611  12.924 -0.1256 -0.1701  0.1834
  649TMC3    C3 9658   3.233   1.554  13.038  0.1760 -0.1473 -0.2336
  649TMC3    C4 9659   2.975   1.638  13.046 -0.0285 -0.4408 -0.1067
  649TMC3    C5 9660   3.041   1.588  13.159 -0.0791  0.0595  0.3114
  649TMC3    C6 9661   3.175   1.544  13.160 -0.3640 -0.0439  0.2072
  649TMC3     C 9662   2.974   1.655  12.806 -0.0167  0.6288 -0.2158
  649TMC3     O 9663   2.850   1.649  12.809 -0.3558  0.5735 -0.0852
  649TMC3     H 9664   3.234   1.607  12.829  3.0211 -0.6482  1.9269
  649TMC3    H1 9665   2.867   1.641  13.038 -0.0383  3.3971  1.2352
  649TMC3    H2 9666   3.220   1.481  13.236 -0.7209 -1.2395 -0.5718
  649TMC3    C7 9667   2.946   1.534  13.255 -0.7228  0.0557  0.6536
  649TMC3    C8 9668   3.373   1.515  13.037  0.0211  0.1511 -0.6102
  649TMC3    O1 9669   2.830   1.559  13.238  0.1842 -0.2161 -0.4718
  649TMC3    O2 9670   3.405   1.414  13.093  0.1077 -0.2830 -0.0039
  650TMC3    C1 9671   0.419   3.424  12.686  0.6454 -0.3574 -0.9370
  650TMC3    C2 9672   0.361   3.537  12.745 -0.0707 -0.6460  0.2172
  650TMC3    C3 9673   0.254   3.602  12.680 -0.0172 -0.0518 -0.6662
  650TMC3    C4 9674   0.372   3.370  12.565 -0.3910  0.5084 -0.4000
  650TMC3    C5 9675   0.265   3.431  12.506 -0.0983  0.0775 -0.0666
  650TMC3    C6 9676   0.202   3.546  12.562  0.1092 -0.3780  0.5571
  650TMC3     C 9677   0.527   3.363  12.756 -0.0721  0.2773  0.0469
  650TMC3     O 9678   0.565   3.407  12.863 -1.0380  0.2128  0.5043
  650TMC3     H 9679   0.404   3.581  12.834 -0.7794  1.0064 -0.2616
  650TMC3    H1 9680   0.418   3.285  12.516 -0.1754  1.5655 -2.0398
  650TMC3    H2 9681   0.130   3.606  12.507  0.0742  0.1184  1.1587
  650TMC3    C7 9682   0.218   3.373  12.384  0.3084  0.2510  0.6430
  650TMC3    C8 9683   0.186   3.706  12.747  0.1008 -0.3558  0.4861
  650TMC3    O1 9684   0.224   3.252  12.358 -0.9718 -0.0606 -0.0361
  650TMC3    O2 9685   0.245   3.806  12.788  0.3854 -0.9048 -0.1398
  651MPD2     C 9686   4.094   1.143  11.432  0.7601  0.5021  0.4645
  651MPD2    C1 9687   4.029   1.243  11.361  0.1124 -0.5134  0.1162
  651MPD2    C2 9688   4.086   1.285  11.240 -0.2548 -0.4667 -0.2724
  651MPD2    C3 9689   4.191   1.217  11.187 -0.4059  0.5000 -0.1663
  651MPD2    C4 9690   4.243   1.114  11.253  0.7155  0.1487  0.0974
  651MPD2    C5 9691   4.199   1.082  11.376  0.1542  0.7362 -0.7046
  651MPD2     H 9692   4.035   1.358  11.178 -2.1903 -1.9683 -0.4460
  651MPD2    H1 9693   4.327   1.054  11.219  0.4546 -0.4065  0.4275
  651MPD2    H2 9694   4.065   1.111  11.531  0.6703  1.8656  0.8785
  651MPD2    H3 9695   4.253   1.006  11.430 -0.3034  0.0267 -1.2510
  651MPD2     N 9696   4.238   1.254  11.057  0.1204 -0.6027 -0.0998
  651MPD2    H5 9697   4.174   1.317  11.010 -1.2248  0.0098  2.5621
  651MPD2    N1 9698   3.903   1.303  11.389  0.1702 -0.0635 -0.5257
  651MPD2    H7 9699   3.868   1.358  11.311  0.9527 -0.4665 -1.1648
  652TMC3    C1 9700   4.523   1.219  10.676 -0.2931  0.1731 -0.4460
  652TMC3    C2 9701   4.450   1.164  10.776 -0.3323  0.3811  0.6228
  652TMC3    C3 9702   4.358   1.242  10.844 -0.0649 -0.4020 -0.5133
  652TMC3    C4 9703   4.515   1.350  10.642 -0.0298  0.0157  0.2860
  652TMC3    C5 9704   4.428   1.431  10.714  0.2712  0.6033 -0.0161
  652TMC3    C6 9705   4.349   1.378  10.814 -0.3546 -0.1403  0.7058
  652TMC3     C 9706   4.648   1.156  10.628 -0.2307  0.2841 -0.2576
  652TMC3     O 9707   4.678   1.170  10.513  0.4858 -0.4771  0.3930
  652TMC3     H 9708   4.465   1.064  10.815  2.0283  0.1753 -0.8497
  652TMC3    H1 9709   4.574   1.393  10.562  1.8429  0.4966  1.8936
  652TMC3    H2 9710   4.284   1.436  10.879 -1.4381  0.9530 -1.3686
  652TMC3    C7 9711   4.479   1.562  10.750  0.6719 -0.5367  0.3670
  652TMC3    C8 9712   4.353   1.202  10.987 -0.1242 -0.5749 -0.3906
  652TMC3    O1 9713   4.437   1.597  10.863 -0.0529  0.1604 -0.4781
  652TMC3    O2 9714   4.445   1.131  11.028 -0.0663  0.0494 -0.2136
  653MPD2     C 9715   2.725   1.220  17.646  0.2647  0.5381  0.2618
  653MPD2    C1 9716   2.675   1.303  17.548 -0.4249  0.2014  0.2360
  653MPD2    C2 9717   2.582   1.257  17.456  0.4042  0.2451 -0.0836
  653MPD2    C3 9718   2.529   1.129  17.473 -0.1927 -0.6574  0.2119
  653MPD2    C4 9719   2.566   1.052  17.577 -0.6550  0.4833  0.0247
  653MPD2    C5 9720   2.662   1.101  17.658 -0.2495  0.1294 -0.2689
  653MPD2     H 9721   2.539   1.314  17.374  0.3156  1.4619  0.8147
  653MPD2    H1 9722   2.519   0.958  17.606  0.5368  0.8123  3.0538
  653MPD2    H2 9723   2.807   1.250  17.710 -0.4197  0.1532  1.3189
  653MPD2    H3 9724   2.694   1.052  17.749 -1.1044 -0.3498 -0.2222
  653MPD2     N 9725   2.426   1.101  17.375 -0.2731  0.0697 -0.3932
  653MPD2    H5 9726   2.404   1.174  17.308 -0.6726 -0.1808 -0.5347
  653MPD2    N1 9727   2.706   1.441  17.540  0.1266 -0.4244 -0.2867
  653MPD2    H7 9728   2.655   1.490  17.467  0.8324 -1.3743 -1.4219
  654TMC3    C1 9729   2.266   0.981  17.238 -0.0833  0.2444 -0.4961
  654TMC3    C2 9730   2.265   1.085  17.151 -0.5460 -0.5954 -0.3531
  654TMC3    C3 9731   2.227   1.055  17.024  0.4573  0.0210  0.3172
  654TMC3    C4 9732   2.234   0.852  17.209  0.1667  0.1316  0.1223
  654TMC3    C5 9733   2.201   0.827  17.080 -0.5765 -0.1989 -0.7764
  654TMC3    C6 9734   2.196   0.930  16.987  0.4411 -0.1298 -0.0711
  654TMC3     C 9735   2.358   0.981  17.355  0.2826 -0.0597  0.8534
  654TMC3     O 9736   2.379   0.879  17.418 -0.3440 -0.0040  0.0222
  654TMC3     H 9737   2.290   1.187  17.176 -0.8608 -0.5763 -0.1089
  654TMC3    H1 9738   2.219   0.774  17.282 -1.4384  0.7044  0.3920
  654TMC3    H2 9739   2.154   0.914  16.889  3.4689 -0.6311 -1.2958
  654TMC3    C7 9740   2.150   0.698  17.025 -0.0452 -0.1016 -0.1748
  654TMC3    C8 9741   2.238   1.164  16.929  0.0025  0.7802 -0.2555
  654TMC3    O1 9742   2.107   0.709  16.910 -0.1799  0.2428 -0.3295
  654TMC3    O2 9743   2.194   1.270  16.969  0.9144  0.5417 -0.0032
  655MPD2     C 9744   4.127   1.330  15.668 -0.1622 -0.0674 -0.2804
  655MPD2    C1 9745   4.045   1.407  15.590 -0.1468 -0.1786  1.2443
  655MPD2    C2 9746   4.028   1.378  15.452  0.4158 -0.3771 -0.5552
  655MPD2    C3 9747   4.077   1.257  15.401 -0.1975  0.0833  0.1309
  655MPD2    C4 9748   4.151   1.177  15.485  0.0788 -0.4286 -0.0238
  655MPD2    C5 9749   4.187   1.219  15.614  0.0959  0.5780  0.9192
  655MPD2     H 9750   3.968   1.444  15.390 -0.5394 -0.9758 -0.2663
  655MPD2    H1 9751   4.191   1.086  15.442 -1.3231 -0.8065 -0.5486
  655MPD2    H2 9752   4.142   1.358  15.772  0.8974  2.0003 -0.9791
  655MPD2    H3 9753   4.258   1.162  15.672  0.2901 -2.3708 -2.2551
  655MPD2     N 9754   4.059   1.217  15.270 -0.3037 -0.2221  0.5978
  655MPD2    H5 9755   4.117   1.138  15.244  1.1634  0.3778  2.0962
  655MPD2    N1 9756   3.985   1.528  15.642  0.5639  1.2405  0.1944
  655MPD2    H7 9757   3.917   1.569  15.579  0.6496  0.2414 -0.5545
  656TMC3    C1 9758   3.878   1.673  15.775 -0.3193 -0.1272 -0.5712
  656TMC3    C2 9759   3.771   1.651  15.849  0.2258  0.1525 -0.2382
  656TMC3    C3 9760   3.654   1.717  15.834  0.2290  0.0860  0.1544
  656TMC3    C4 9761   3.872   1.766  15.674  0.2841 -0.0880 -0.4058
  656TMC3    C5 9762   3.761   1.842  15.666 -0.1583 -0.0349  0.1711
  656TMC3    C6 9763   3.649   1.812  15.740  0.1618 -0.1996 -1.1591
  656TMC3     C 9764   3.967   1.567  15.776  0.0121 -0.5955 -0.4792
  656TMC3     O 9765   3.992   1.503  15.877 -0.1644  0.1441 -0.5867
  656TMC3     H 9766   3.776   1.577  15.928 -4.4973 -0.3576 -0.3980
  656TMC3    H1 9767   3.958   1.785  15.611 -0.3552 -0.0795 -1.2948
  656TMC3    H2 9768   3.554   1.858  15.716  0.3385  0.5714 -0.3764
  656TMC3    C7 9769   3.742   1.904  15.537  0.1135 -0.0928  0.5622
  656TMC3    C8 9770   3.542   1.685  15.920 -0.1248 -1.3669 -0.5806
  656TMC3    O1 9771   3.807   1.854  15.447  0.5952 -0.5563 -0.0408
  656TMC3    O2 9772   3.529   1.568  15.956 -0.2353  0.4495  0.3155
  657TMC3    C1 9773   2.883   0.615  14.971 -0.0910 -0.4558  0.1249
  657TMC3    C2 9774   2.959   0.686  15.055  0.5362  0.4296  0.0748
  657TMC3    C3 9775   2.953   0.822  15.053 -0.8405  0.2156  0.3114
  657TMC3    C4 9776   2.793   0.679  14.891 -0.2144  0.1876  0.1518
  657TMC3    C5 9777   2.782   0.819  14.898 -0.8453  0.0019  0.3656
  657TMC3    C6 9778   2.869   0.887  14.972 -0.0922  0.2657  0.1117
  657TMC3     C 9779   2.920   0.474  14.935 -0.5530  1.1048  0.2362
  657TMC3     O 9780   2.831   0.402  14.893  0.1569 -0.2695  0.4340
  657TMC3     H 9781   3.005   0.626  15.133 -0.6918  0.0173  0.4786
  657TMC3    H1 9782   2.735   0.617  14.824 -0.0907  0.1789  0.0539
  657TMC3    H2 9783   2.887   0.994  14.961  0.3723  0.1682 -0.0876
  657TMC3    C7 9784   2.708   0.902  14.800  0.3231  0.1320 -0.7310
  657TMC3    C8 9785   3.010   0.894  15.166 -0.3772 -0.2014 -0.3474
  657TMC3    O1 9786   2.692   1.019  14.827  0.2460  0.1814 -0.5477
  657TMC3    O2 9787   2.954   1.001  15.191  0.2868  0.5512  0.4171
  658MPD2     C 9788   4.471   1.155  14.786  0.2050 -0.4326 -0.2407
  658MPD2    C1 9789   4.352   1.080  14.751 -0.4828 -0.1706 -0.1274
  658MPD2    C2 9790   4.342   1.030  14.622 -0.4680 -0.1663  0.3929
  658MPD2    C3 9791   4.445   1.036  14.527  0.2457 -0.1980 -0.3161
  658MPD2    C4 9792   4.562   1.098  14.575 -0.2143 -0.3145  0.6056
  658MPD2    C5 9793   4.573   1.156  14.695  0.3101 -0.5233  0.3101
  658MPD2     H 9794   4.255   0.988  14.572 -0.4763 -1.1680  1.2482
  658MPD2    H1 9795   4.639   1.114  14.500  0.9029 -0.6036  1.7031
  658MPD2    H2 9796   4.487   1.205  14.881  1.4441 -0.9442 -0.1814
  658MPD2    H3 9797   4.661   1.216  14.713 -0.1492  0.6984 -1.4913
  658MPD2     N 9798   4.436   0.975  14.400  0.1999 -0.1106  0.6153
  658MPD2    H5 9799   4.344   0.941  14.375  1.2487 -2.7202  0.2970
  658MPD2    N1 9800   4.249   1.079  14.844 -0.0660 -0.0484  0.7670
  658MPD2    H7 9801   4.254   1.152  14.914 -1.7567 -0.3701  1.2435
  659TMC3    C1 9802   4.042   1.029  14.934  0.0028 -0.0289  0.0773
  659TMC3    C2 9803   4.061   1.125  15.032  0.6073  0.5171  0.4146
  659TMC3    C3 9804   3.956   1.204  15.065  0.4850 -0.1477 -0.5998
  659TMC3    C4 9805   3.914   0.996  14.895 -0.5733  0.3796  0.8140
  659TMC3    C5 9806   3.812   1.088  14.925  0.1925 -0.2894 -0.0055
  659TMC3    C6 9807   3.831   1.192  15.008 -0.0959 -0.8258 -1.2505
  659TMC3     C 9808   4.146   0.998  14.837 -0.6960  0.2152 -0.3456
  659TMC3     O 9809   4.124   0.904  14.756 -0.5753 -0.5588 -0.7129
  659TMC3     H 9810   4.158   1.151  15.072  0.7637 -1.1322  1.1099
  659TMC3    H1 9811   3.893   0.910  14.833  3.4000 -1.3905  1.9749
  659TMC3    H2 9812   3.745   1.252  15.036  1.1012  0.6150 -0.6219
  659TMC3    C7 9813   3.690   1.096  14.847  0.2933  0.4317  0.3245
  659TMC3    C8 9814   3.969   1.279  15.184  0.2777  0.0657  0.0885
  659TMC3    O1 9815   3.626   1.193  14.873  0.0188  0.0019  0.1364
  659TMC3    O2 9816   3.890   1.367  15.199  0.3724 -0.2745 -0.1425
  660MPD2     C 9817   1.973   4.145  12.742 -0.0912 -0.1633  0.0918
  660MPD2    C1 9818   1.850   4.193  12.772  0.2716  0.0726  0.3227
  660MPD2    C2 9819   1.775   4.136  12.871  0.8507 -0.1070  0.2802
  660MPD2    C3 9820   1.820   4.020  12.931 -0.1228  0.0390  0.2379
  660MPD2    C4 9821   1.943   3.969  12.898 -0.4983  0.3318  0.4187
  660MPD2    C5 9822   2.026   4.033  12.808  0.7617 -0.5395 -0.6671
  660MPD2     H 9823   1.671   4.165  12.885 -0.1379 -2.2699 -2.6386
  660MPD2    H1 9824   1.983   3.878  12.940  1.8028  1.5073  0.7613
  660MPD2    H2 9825   2.027   4.187  12.658  0.0052  0.3840  0.4329
  660MPD2    H3 9826   2.124   3.998  12.777  1.3573  1.2162 -0.7721
  660MPD2     N 9827   1.730   3.934  12.991 -0.1294 -0.1594  0.6027
  660MPD2    H5 9828   1.748   3.834  12.998  1.2733 -0.1291 -2.4849
  660MPD2    N1 9829   1.800   4.303  12.694  0.2343  0.0865 -0.3501
  660MPD2    H7 9830   1.856   4.330  12.613 -1.9184  0.6164 -1.6539
  661TMC3    C1 9831   1.643   4.478  12.634 -0.4463 -0.3120 -0.5451
  661TMC3    C2 9832   1.715   4.514  12.521  0.3248 -0.2566 -0.5342
  661TMC3    C3 9833   1.644   4.586  12.424  0.5647 -0.7236  0.0489
  661TMC3    C4 9834   1.512   4.518  12.654  0.2316 -0.2765  0.3157
  661TMC3    C5 9835   1.456   4.593  12.554 -0.2690  0.3632 -0.0450
  661TMC3    C6 9836   1.515   4.623  12.436  0.8001 -0.2621 -0.1062
  661TMC3     C 9837   1.692   4.375  12.730 -0.5385 -0.0613 -0.2287
  661TMC3     O 9838   1.613   4.362  12.820 -0.2780  0.0095  0.0037
  661TMC3     H 9839   1.819   4.481  12.523  0.6535  0.7852 -0.7823
  661TMC3    H1 9840   1.458   4.494  12.744  0.4050 -5.0853 -0.8940
  661TMC3    H2 9841   1.462   4.669  12.353  0.7612 -2.0183 -1.0612
  661TMC3    C7 9842   1.312   4.580  12.554  0.6826  0.3393  0.0440
  661TMC3    C8 9843   1.704   4.631  12.299  0.3308  0.3727 -0.2095
  661TMC3    O1 9844   1.257   4.613  12.659 -0.2613 -0.4621  0.3935
  661TMC3    O2 9845   1.646   4.711  12.224  0.5476  0.5270  0.0635
  662MPD2     C 9846   1.750   0.325  16.921  0.0168 -0.5019  0.3214
  662MPD2    C1 9847   1.821   0.262  17.023  0.5559 -0.0846  0.2745
  662MPD2    C2 9848   1.847   0.323  17.145  0.2029  0.1575 -0.3359
  662MPD2    C3 9849   1.823   0.461  17.161 -0.8306  0.0751 -0.2375
  662MPD2    C4 9850   1.751   0.526  17.052 -0.6798 -0.7001 -1.0530
  662MPD2    C5 9851   1.713   0.458  16.937 -0.4278 -0.1526  0.1166
  662MPD2     H 9852   1.894   0.265  17.223 -1.6288  0.2997  0.8774
  662MPD2    H1 9853   1.725   0.631  17.056 -1.2586 -0.8006 -1.9644
  662MPD2    H2 9854   1.732   0.275  16.826  1.5939 -0.0800 -0.1899
  662MPD2    H3 9855   1.641   0.508  16.873  1.4767 -0.3203 -2.1450
  662MPD2     N 9856   1.855   0.529  17.284  0.1867 -0.1371  0.7540
  662MPD2    H5 9857   1.824   0.626  17.291 -2.5308 -1.0718  1.7700
  662MPD2    N1 9858   1.855   0.128  17.015  0.3568 -0.1919 -0.3963
  662MPD2    H7 9859   1.904   0.088  17.095  1.4383  2.0819  0.0872
  663TMC3    C1 9860   1.896   4.653  16.945 -0.3248  0.1150 -0.6817
  663TMC3    C2 9861   1.925   4.609  17.067 -0.3467  0.5650 -0.0347
  663TMC3    C3 9862   1.991   4.492  17.093  0.0573 -0.1452  0.4020
  663TMC3    C4 9863   1.936   4.579  16.841  0.8506  0.2725  0.3996
  663TMC3    C5 9864   2.005   4.462  16.863 -0.1786 -0.2738 -0.3631
  663TMC3    C6 9865   2.051   4.425  16.987  0.5812  0.1636  0.1900
  663TMC3     C 9866   1.859   0.047  16.909  0.3219  0.1093 -0.5147
  663TMC3     O 9867   1.831   0.063  16.790  0.0478 -0.6649  0.2761
  663TMC3     H 9868   1.876   4.654  17.153  1.5608  1.5745  0.5238
  663TMC3    H1 9869   1.901   4.600  16.740  1.6899  0.0237  0.0579
  663TMC3    H2 9870   2.113   4.342  17.019  0.6554 -0.8380 -2.5507
  663TMC3    C7 9871   1.985   4.358  16.764  0.4816 -1.0894  0.5000
  663TMC3    C8 9872   2.055   4.472  17.221 -0.6286 -0.0663  0.3238
  663TMC3    O1 9873   1.909   4.375  16.673 -0.0983 -0.3747  0.3935
  663TMC3    O2 9874   2.163   4.411  17.216 -0.0428 -0.2239 -0.2828
  664MPD2     C 9875   0.403   2.514  17.381 -0.1560 -0.0981  0.5045
  664MPD2    C1 9876   0.385   2.641  17.417 -0.8627  0.5470 -0.0053
  664MPD2    C2 9877   0.309   2.672  17.527 -0.0994  0.0905 -0.6929
  664MPD2    C3 9878   0.262   2.569  17.611  0.3743  0.6681  0.0380
  664MPD2    C4 9879   0.286   2.439  17.574  0.4516 -0.5632  0.2208
  664MPD2    C5 9880   0.354   2.406  17.456 -0.4727 -0.9335 -0.5903
  664MPD2     H 9881   0.288   2.777  17.543  1.8538  0.5149 -0.8855
  664MPD2    H1 9882   0.247   2.354  17.629 -2.6723  1.1984  0.6965
  664MPD2    H2 9883   0.446   2.481  17.287 -0.4490 -1.7127  0.9314
  664MPD2    H3 9884   0.365   2.302  17.428 -0.1472 -1.0486 -0.0361
  664MPD2     N 9885   0.189   2.615  17.722  0.1601  0.0954 -0.0996
  664MPD2    H5 9886   0.186   2.717  17.720 -0.5757  0.0720 -0.2726
  664MPD2    N1 9887   0.430   2.750  17.337  0.7852  0.0203 -0.0718
  664MPD2    H7 9888   0.381   2.834  17.364  0.5831 -0.5188  1.2390
  665TMC3    C1 9889   0.082   2.609   0.174  0.3141 -0.1381 -0.1688
  665TMC3    C2 9890   0.103   2.553   0.296 -0.3630  0.1839 -0.1614
  665TMC3    C3 9891   0.110   2.636   0.404 -0.3777 -0.3866  0.4404
  665TMC3    C4 9892   0.066   2.743   0.161 -0.8892  0.1522  0.1865
  665TMC3    C5 9893   0.070   2.815   0.276 -0.2517 -0.1303  0.6939
  665TMC3    C6 9894   0.102   2.768   0.402  0.0358 -0.2916 -0.8444
  665TMC3     C 9895   0.152   2.534   0.075 -1.3595 -0.1330  0.3760
  665TMC3     O 9896   0.176   2.416   0.093 -0.0701 -0.0136  0.3916
  665TMC3     H 9897   0.126   2.447   0.301  1.2027  0.4166 -2.0590
  665TMC3    H1 9898   0.047   2.793   0.067  0.8154 -1.9733 -1.3021
  665TMC3    H2 9899   0.076   2.827   0.489  0.4496 -2.6995  0.8910
  665TMC3    C7 9900   0.058   2.960   0.264 -0.0167  0.2839  0.7279
  665TMC3    C8 9901   0.135   2.577   0.538  0.0601  1.1000 -0.4204
  665TMC3    O1 9902   0.001   3.013   0.168 -0.0768 -0.2186  0.1901
  665TMC3    O2 9903   0.192   2.644   0.623  0.3782  0.0186 -0.0812
  666TMC3    C1 9904   4.668   2.402   9.699  0.6433 -0.5929 -0.2831
  666TMC3    C2 9905   0.038   2.342   9.738 -0.3976 -0.0037  0.1497
  666TMC3    C3 9906   0.149   2.414   9.771 -0.6292  0.6334 -0.5772
  666TMC3    C4 9907   4.661   2.542   9.710 -1.0638 -0.0970 -0.2286
  666TMC3    C5 9908   0.034   2.615   9.745 -0.8811  0.5764  0.4567
  666TMC3    C6 9909   0.147   2.552   9.778  0.1762 -0.0070 -0.6050
  666TMC3     C 9910   4.540   2.346   9.730  0.1896  0.7037  0.0011
  666TMC3     O 9911   4.438   2.398   9.685  0.0088 -0.0156 -0.6633
  666TMC3     H 9912   0.038   2.233   9.743  0.2691  0.0698  2.0962
  666TMC3    H1 9913   4.568   2.591   9.683 -0.9168  1.6615  2.4446
  666TMC3    H2 9914   0.232   2.607   9.819  0.4650  0.9624 -2.4874
  666TMC3    C7 9915   0.013   2.750   9.781 -0.3423  0.4014 -0.0703
  666TMC3    C8 9916   0.255   2.349   9.839 -0.2278  0.0559 -0.8236
  666TMC3    O1 9917   4.632   2.785   9.799 -0.4031  0.4616  0.0969
  666TMC3    O2 9918   0.235   2.240   9.888 -0.2805 -0.2983  0.6300
  667MPD2     C 9919   1.355   2.295  14.886  0.6931  0.2545 -0.3721
  667MPD2    C1 9920   1.247   2.378  14.853  0.0533  1.2954 -0.0299
  667MPD2    C2 9921   1.127   2.310  14.833 -0.2230  0.1115  1.1353
  667MPD2    C3 9922   1.105   2.176  14.868 -0.0102 -0.7312 -0.1887
  667MPD2    C4 9923   1.213   2.102  14.900 -0.8023  0.3341 -0.4545
  667MPD2    C5 9924   1.342   2.159  14.900 -0.0957  0.5543  0.2362
  667MPD2     H 9925   1.047   2.371  14.795  1.0161  1.4162  0.6211
  667MPD2    H1 9926   1.193   1.996  14.912  1.8057  0.0888  1.5945
  667MPD2    H2 9927   1.451   2.344  14.899 -0.4773  2.4588  0.0576
  667MPD2    H3 9928   1.429   2.100  14.926 -0.3060 -0.4011 -1.2769
  667MPD2     N 9929   0.984   2.114  14.860  0.0889  0.8424 -0.2089
  667MPD2    H5 9930   0.977   2.020  14.897  2.0024  1.2530  1.2083
  667MPD2    N1 9931   1.252   2.518  14.829  0.2342 -0.6797  1.0421
  667MPD2    H7 9932   1.176   2.573  14.791  0.8832 -0.6643 -0.2254
  668TMC3    C1 9933   1.327   2.722  14.915  0.7176 -0.5779 -0.0100
  668TMC3    C2 9934   1.440   2.767  14.977 -0.8539  0.1480  0.0959
  668TMC3    C3 9935   1.415   2.807  15.107  0.5944  0.0492 -0.1526
  668TMC3    C4 9936   1.200   2.719  14.963  0.1744  0.1638  0.0516
  668TMC3    C5 9937   1.192   2.747  15.097  0.0189  0.1098 -0.1841
  668TMC3    C6 9938   1.296   2.794  15.168 -0.6783 -0.0621  0.1001
  668TMC3     C 9939   1.363   2.595  14.856  0.8112 -0.2289  0.5534
  668TMC3     O 9940   1.481   2.561  14.875 -0.2216  0.0861  0.0786
  668TMC3     H 9941   1.536   2.772  14.926 -0.2365 -0.2420  1.2202
  668TMC3    H1 9942   1.114   2.684  14.907  1.6541 -0.3299 -1.9122
  668TMC3    H2 9943   1.279   2.835  15.267  0.1700 -0.5318  0.4475
  668TMC3    C7 9944   1.068   2.706  15.162  0.1243 -0.6626  0.2651
  668TMC3    C8 9945   1.476   2.934  15.148 -0.2498  0.1380  0.5594
  668TMC3    O1 9946   0.968   2.689  15.093 -0.1703  0.1191 -0.1597
  668TMC3    O2 9947   1.432   2.985  15.249 -0.2029 -0.1407  0.2996
  669TMC3    C1 9948   3.961   2.600  14.550  0.1147  0.1318  0.2751
  669TMC3    C2 9949   3.839   2.582  14.484 -0.1551 -0.2477  0.3406
  669TMC3    C3 9950   3.824   2.641  14.358 -0.6174  0.4875  0.3582
  669TMC3    C4 9951   4.072   2.659  14.493 -0.7767  0.0208 -0.2154
  669TMC3    C5 9952   4.051   2.718  14.369 -0.7870  0.4320 -0.0775
  669TMC3    C6 9953   3.929   2.712  14.301  0.3215  0.3448 -0.0472
  669TMC3     C 9954   3.967   2.554  14.688 -0.4911 -0.7501  0.5401
  669TMC3     O 9955   3.866   2.532  14.750 -0.2788  0.1636 -0.6438
  669TMC3     H 9956   3.761   2.517  14.522  0.8496 -1.3317  0.5382
  669TMC3    H1 9957   4.168   2.670  14.541 -1.0602  0.8803  0.1517
  669TMC3    H2 9958   3.908   2.769  14.211 -3.4209 -0.8299  0.0534
  669TMC3    C7 9959   4.168   2.788  14.311 -0.4395 -0.9718  0.0421
  669TMC3    C8 9960   3.720   2.599  14.275  1.0397 -0.0840 -0.3757
  669TMC3    O1 9961   4.272   2.794  14.380  0.0614 -0.1477 -0.1639
  669TMC3    O2 9962   3.633   2.536  14.333  0.2498  0.3014 -0.3613
  670MPD2     C 9963   1.803   0.014  13.758 -0.3680 -0.1044  0.7203
  670MPD2    C1 9964   1.791   4.614  13.777  0.0528 -0.1424 -0.2587
  670MPD2    C2 9965   1.838   4.556  13.889 -0.5075  0.2900  0.1765
  670MPD2    C3 9966   1.904   4.627  13.989  0.2057 -0.0344 -0.1504
  670MPD2    C4 9967   1.943   0.021  13.958  0.0840  0.4015 -0.7557
  670MPD2    C5 9968   1.890   0.078  13.842  0.0806  0.0009 -0.5829
  670MPD2     H 9969   1.802   4.455  13.904  0.1592  0.1295  0.7342
  670MPD2    H1 9970   1.993   0.082  14.032 -0.6360 -0.6510  0.5861
  670MPD2    H2 9971   1.756   0.073  13.680 -0.1204 -1.3180 -0.3447
  670MPD2    H3 9972   1.915   0.182  13.826 -2.9454  0.9431  0.8058
  670MPD2     N 9973   1.932   4.561  14.111 -0.1656  0.3767  0.6856
  670MPD2    H5 9974   1.876   4.483  14.141 -0.6505  0.9343  1.2393
  670MPD2    N1 9975   1.716   4.532  13.685  0.3070  0.4105 -0.0701
  670MPD2    H7 9976   1.737   4.433  13.691 -1.5689 -0.0289 -0.8368
  671TMC3    C1 9977   1.974   4.555  14.336 -0.1118  0.0929 -1.0128
  671TMC3    C2 9978   2.080   4.525  14.413  0.1761 -0.1980  0.0417
  671TMC3    C3 9979   2.072   4.413  14.493 -0.1359 -0.4894  0.0563
  671TMC3    C4 9980   1.855   4.486  14.344  0.2208  0.2099 -0.7300
  671TMC3    C5 9981   1.849   4.380  14.426  0.0149 -0.5798  0.3812
  671TMC3    C6 9982   1.964   4.336  14.488 -0.3832  0.4873 -0.4882
  671TMC3     C 9983   2.010   4.620  14.214  0.2433 -0.0652  0.0236
  671TMC3     O 9984   2.090   4.711  14.208 -0.4343  0.2020  0.1660
  671TMC3     H 9985   2.177   4.558  14.377 -0.6348  0.0101 -1.9722
  671TMC3    H1 9986   1.766   4.518  14.291 -0.4225  1.5647  1.1579
  671TMC3    H2 9987   1.961   4.240  14.539 -2.6699  0.5919 -0.4188
  671TMC3    C7 9988   1.737   4.290  14.415 -0.2869  0.3245 -0.2274
  671TMC3    C8 9989   2.187   4.330  14.474 -1.2018  0.6666 -0.2489
  671TMC3    O1 9990   1.765   4.172  14.432 -0.4629  0.1515 -0.2769
  671TMC3    O2 9991   2.164   4.229  14.414  0.0625  0.0819  0.1289
  672MPD2     C 9992   2.326   0.993   0.992  0.6676  0.4569 -0.2353
  672MPD2    C1 9993   2.418   0.921   0.919  0.9693 -0.0099  0.6493
  672MPD2    C2 9994   2.541   0.979   0.905 -0.4038 -0.2628  0.4392
  672MPD2    C3 9995   2.563   1.112   0.948 -0.0945  0.1369 -0.2497
  672MPD2    C4 9996   2.464   1.186   1.011 -0.6643  0.0659  0.1009
  672MPD2    C5 9997   2.349   1.120   1.032  0.1539  0.1814 -1.3931
  672MPD2     H 9998   2.605   0.927   0.834 -1.2275  0.1025 -0.5735
  672MPD2    H1 9999   2.478   1.286   1.050 -0.5360  0.6562 -1.4494
  672MPD2    H210000   2.226   0.958   1.014 -0.0782  2.3608 -0.5560
  672MPD2    H310001   2.271   1.173   1.086 -1.1716 -2.7402 -0.3648
  672MPD2     N10002   2.683   1.181   0.927 -0.0179 -0.1258 -0.0856
  672MPD2    H510003   2.676   1.282   0.936 -1.0550  0.1094 -3.5703
  672MPD2    N110004   2.398   0.797   0.853 -0.1275 -0.2080  0.6427
  672MPD2    H710005   2.476   0.760   0.799 -1.1942 -0.3044 -0.8452
  673TMC3    C110006   2.254   0.681   0.705  0.3578  0.1464 -0.3850
  673TMC3    C210007   2.344   0.590   0.655  0.4018  0.3929  0.1803
  673TMC3    C310008   2.361   0.577   0.518  0.2433  0.2120  0.1063
  673TMC3    C410009   2.186   0.763   0.616  0.3647  0.1733 -0.0795
  673TMC3    C510010   2.200   0.741   0.482  0.3346 -0.1572  0.5019
  673TMC3    C610011   2.283   0.645   0.426  0.1838  0.0391 -0.2782
  673TMC3     C10012   2.271   0.737   0.838  0.1359 -0.0888 -0.4390
  673TMC3     O10013   2.171   0.782   0.892 -0.0928  0.1567  0.2172
  673TMC3     H10014   2.379   0.518   0.727  1.5390 -0.7148 -1.5155
  673TMC3    H110015   2.126   0.839   0.664 -0.3483 -0.5257  0.1415
  673TMC3    H210016   2.303   0.646   0.320  0.6927  0.9873 -0.1717
  673TMC3    C710017   2.120   0.823   0.395  0.1801  0.2289  0.1296
  673TMC3    C810018   2.453   0.486   0.466 -0.3864 -0.1214  0.4467
  673TMC3    O110019   2.092   0.777   0.288 -0.5963 -0.8539 -0.3176
  673TMC3    O210020   2.423   0.433   0.359 -0.4364  0.4011 -0.5929
  674MPD2     C10021   2.067   1.565  17.541  0.2600  0.2156  0.2185
  674MPD2    C110022   2.013   1.445  17.578  0.2624 -0.3019 -0.1360
  674MPD2    C210023   1.878   1.435  17.605  0.0745  0.2924  0.5865
  674MPD2    C310024   1.802   1.551  17.609 -0.0832  0.4513 -0.1944
  674MPD2    C410025   1.850   1.679  17.578  1.0241  0.1283  0.4720
  674MPD2    C510026   1.986   1.681  17.538 -0.4261  0.3805  0.2401
  674MPD2     H10027   1.837   1.340  17.639 -1.3342  1.2376  1.5508
  674MPD2    H110028   1.790   1.768  17.566  0.1382 -0.6184 -0.6846
  674MPD2    H210029   2.169   1.571  17.505 -0.1918  0.9735 -0.9295
  674MPD2    H310030   2.008   1.780  17.501  0.2395 -0.6000 -1.9982
  674MPD2     N10031   1.669   1.535  17.653  0.4587  0.1766 -0.1255
  674MPD2    H510032   1.624   1.444  17.652  1.9736 -0.5643 -0.5765
  674MPD2    N110033   2.109   1.340  17.594  1.0907  0.1524 -0.2162
  674MPD2    H710034   2.206   1.362  17.615  1.2780 -1.5353  0.7215
  675TMC3    C110035   2.177   1.116  17.631  0.2577 -0.2962  0.0098
  675TMC3    C210036   2.153   0.985  17.603 -0.6204 -1.2879  0.6518
  675TMC3    C310037   2.177   0.893  17.704 -0.2994 -0.1251  0.1476
  675TMC3    C410038   2.238   1.153  17.751 -0.0111  0.3836  0.3188
  675TMC3    C510039   2.280   1.054   0.084 -0.0269 -0.0716  0.4558
  675TMC3    C610040   2.252   0.922   0.062  0.1829  0.8161 -0.8456
  675TMC3     C10041   2.073   1.204  17.587  0.5564  0.4983 -0.3513
  675TMC3     O10042   1.981   1.148  17.528 -0.0054  0.2646 -0.0766
  675TMC3     H10043   2.100   0.963  17.511  5.2052  3.6576 -3.9092
  675TMC3    H110044   2.272   1.252   0.026  0.0497 -0.0287  1.8221
  675TMC3    H210045   2.280   0.840   0.127 -3.1294  0.9471  0.7374
  675TMC3    C710046   2.371   1.095   0.185 -0.4181  0.0669  0.4540
  675TMC3    C810047   2.137   0.758  17.670  0.2515 -0.3379 -0.4169
  675TMC3    O110048   2.372   1.213   0.220  0.7408 -0.1149 -0.0290
  675TMC3    O210049   2.132   0.735  17.549 -0.0037  0.0972 -0.7078
  676MPD2     C10050   0.316   3.724  10.831  0.5976 -0.1351 -0.1389
  676MPD2    C110051   0.282   3.614  10.912 -0.2727 -0.5493 -0.3781
  676MPD2    C210052   0.283   3.493  10.857  0.0781 -0.0077 -0.2202
  676MPD2    C310053   0.326   3.475  10.730 -0.2229  0.5774 -0.5657
  676MPD2    C410054   0.377   3.579  10.659  0.4965  0.3101  0.4248
  676MPD2    C510055   0.367   3.710  10.704 -0.2476  0.4944 -0.1946
  676MPD2     H10056   0.262   3.401  10.912 -0.2337 -0.8359 -1.7172
  676MPD2    H110057   0.437   3.558  10.572 -0.4245  1.8778 -0.5985
  676MPD2    H210058   0.314   3.823  10.877 -1.5812 -1.5563  2.8913
  676MPD2    H310059   0.393   3.799  10.649 -0.1931 -0.5307 -1.8260
  676MPD2     N10060   0.339   3.347  10.670  0.3196  0.4832 -0.4206
  676MPD2    H510061   0.375   3.343  10.576  0.3214 -1.6146 -0.3152
  676MPD2    N110062   0.256   3.621  11.052  0.0473 -0.2098 -0.4415
  676MPD2    H710063   0.249   3.529  11.094 -0.3143 -0.2118 -0.5049
  677TMC3    C110064   0.176   3.699  11.255 -0.2906 -0.2267  0.1175
  677TMC3    C210065   0.077   3.606  11.255  0.2498  0.0537 -0.2171
  677TMC3    C310066   0.009   3.577  11.376  0.2827  0.0564 -0.1508
  677TMC3    C410067   0.210   3.769  11.372 -0.5997 -0.6266 -0.4564
  677TMC3    C510068   0.153   3.732  11.493 -0.1334  0.3068  1.0287
  677TMC3    C610069   0.056   3.633  11.493  0.0235 -0.4805  0.8973
  677TMC3     C10070   0.244   3.730  11.129  0.7398  0.2575 -0.1192
  677TMC3     O10071   0.258   3.850  11.098 -0.2182 -0.5627 -0.0470
  677TMC3     H10072   0.048   3.565  11.159  0.9649 -0.3606 -0.2599
  677TMC3    H110073   0.292   3.840  11.371 -0.3006 -0.9430  0.9293
  677TMC3    H210074   0.012   3.612  11.590 -1.3526  0.8387  0.5542
  677TMC3    C710075   0.189   3.792  11.625  0.4303  0.1131 -0.4259
  677TMC3    C810076   4.719   3.434  11.393  0.5484  0.2400  0.2441
  677TMC3    O110077   0.116   3.761  11.719  0.1474  0.0935 -0.3252
  677TMC3    O210078   0.040   3.355  11.321 -0.9234  0.2859 -0.0218
  678MPD2     C10079   1.239   3.662   1.336 -0.1838 -0.1927  0.2015
  678MPD2    C110080   1.210   3.680   1.198  0.3691  0.2283 -0.3381
  678MPD2    C210081   1.089   3.738   1.161  0.7871  0.0345  1.0940
  678MPD2    C310082   1.001   3.780   1.256 -0.6880 -0.2020  0.1509
  678MPD2    C410083   1.030   3.765   1.387 -0.5062  0.9100  0.2787
  678MPD2    C510084   1.144   3.702   1.423 -1.0971 -0.0261  0.2382
  678MPD2     H10085   1.067   3.757   1.057  0.8802 -1.5917  0.7811
  678MPD2    H110086   0.963   3.792   1.468  0.6755  1.5796  1.0207
  678MPD2    H210087   1.318   3.598   1.375 -2.1196 -1.9179  1.2970
  678MPD2    H310088   1.160   3.684   1.529 -1.4568  1.8232  0.6177
  678MPD2     N10089   0.882   3.826   1.216  0.1937  0.3853  0.6850
  678MPD2    H510090   0.879   3.845   1.116  1.0661  0.4233  0.6671
  678MPD2    N110091   1.295   3.634   1.100  0.1927  0.3576  0.4611
  678MPD2    H710092   1.253   3.636   1.007  1.3295 -1.3034 -0.1027
  679TMC3    C110093   1.637   3.431   0.876 -0.2909  0.2685 -0.1449
  679TMC3    C210094   1.544   3.427   0.976 -0.1513  0.0390 -0.2979
  679TMC3    C310095   1.460   3.534   0.982  0.5761  0.0862  0.0697
  679TMC3    C410096   1.645   3.526   0.781  0.8774  0.5916 -1.1549
  679TMC3    C510097   1.561   3.632   0.792 -0.0634 -1.3703 -0.7229
  679TMC3    C610098   1.463   3.636   0.890 -0.4141 -0.5004 -0.1884
  679TMC3     C10099   1.742   3.331   0.883  0.0233  0.1200 -0.4029
  679TMC3     O10100   1.849   3.365   0.833  0.4533 -0.0429  0.1359
  679TMC3     H10101   1.529   3.344   1.044 -1.3583 -0.1818 -0.8302
  679TMC3    H110102   1.730   3.522   0.714  1.2305  1.3272 -0.7486
  679TMC3    H210103   1.399   3.723   0.882 -1.2930 -1.1787 -0.4905
  679TMC3    C710104   1.534   3.714   0.675  0.7070 -0.0710  0.6791
  679TMC3    C810105   1.404   3.556   1.107 -0.9491 -0.7909  0.1682
  679TMC3    O110106   1.474   3.821   0.691 -0.4645  0.3508  0.0230
  679TMC3    O210107   1.459   3.502   1.204  0.1113 -0.3306 -0.6666
  680MPD2     C10108   1.850   1.590  13.881  0.1756 -0.2431 -0.2052
  680MPD2    C110109   1.949   1.651  13.806 -0.0998  0.0706 -0.8313
  680MPD2    C210110   1.996   1.777  13.839 -0.3222  0.1397 -0.0326
  680MPD2    C310111   1.959   1.837  13.953  0.6699  0.0082  0.2358
  680MPD2    C410112   1.864   1.775  14.031 -0.3466 -0.1562  0.3327
  680MPD2    C510113   1.800   1.660  13.990 -0.3105  0.7127  0.2293
  680MPD2     H10114   2.069   1.833  13.781  0.7546 -0.0755  1.0996
  680MPD2    H110115   1.829   1.806  14.129  0.0578 -3.3560  1.4684
  680MPD2    H210116   1.809   1.492  13.861 -1.8737  0.2760  1.3907
  680MPD2    H310117   1.740   1.601  14.058  1.1160 -0.6731  0.2806
  680MPD2     N10118   2.007   1.970  13.981 -0.3900 -0.3492 -0.3446
  680MPD2    H510119   2.045   2.025  13.905 -0.5205  1.8132  1.1437
  680MPD2    N110120   2.004   1.568  13.711 -0.1901  0.0840  0.6448
  680MPD2    H710121   1.963   1.476  13.694 -2.0581  1.2044 -0.9172
  681TMC3    C110122   2.184   1.458  13.611  0.3975  0.1393 -0.2786
  681TMC3    C210123   2.098   1.359  13.634 -0.0704  0.1146  0.5238
  681TMC3    C310124   2.146   1.259  13.709  0.2359 -0.5744  0.1425
  681TMC3    C410125   2.319   1.453  13.632  0.2756 -0.8369  0.5656
  681TMC3    C510126   2.363   1.337  13.688  0.7498 -0.3672 -0.0299
  681TMC3    C610127   2.280   1.246  13.739  0.8176 -0.1738 -0.1377
  681TMC3     C10128   2.133   1.584  13.659  0.1299  0.0012 -0.2152
  681TMC3     O10129   2.215   1.674  13.667 -0.2293  0.2387 -0.7878
  681TMC3     H10130   1.993   1.358  13.607 -0.1286 -0.1672  0.7582
  681TMC3    H110131   2.377   1.542  13.610  2.6245 -2.4608  0.1742
  681TMC3    H210132   2.329   1.152  13.759  0.1486 -0.7938 -1.4442
  681TMC3    C710133   2.500   1.311  13.705  0.1388 -0.0585 -0.1958
  681TMC3    C810134   2.049   1.203  13.792  0.1190  0.1307 -0.4071
  681TMC3    O110135   2.532   1.238  13.797 -0.2393 -0.0810  0.0554
  681TMC3    O210136   1.945   1.177  13.738  0.2976 -0.0350  0.2029
  682MPD2     C10137   4.403   3.857  10.572 -0.5303  0.3596 -0.0662
  682MPD2    C110138   4.361   3.725  10.584 -0.0741 -0.3861  0.1599
  682MPD2    C210139   4.291   3.686  10.693  0.3174  0.0828  1.0631
  682MPD2    C310140   4.236   3.774  10.782 -0.5243 -0.3048 -0.0342
  682MPD2    C410141   4.275   3.904  10.761 -0.1664 -0.2711 -0.5658
  682MPD2    C510142   4.360   3.942  10.662  0.4003  0.1272  0.6170
  682MPD2     H10143   4.249   3.588  10.710 -0.7455  0.4245  0.4050
  682MPD2    H110144   4.243   3.984  10.825 -0.4517  0.3338 -1.4616
  682MPD2    H210145   4.473   3.896  10.499  1.1046 -0.9442  0.7950
  682MPD2    H310146   4.387   4.046  10.650  1.4500  0.1016  2.6563
  682MPD2     N10147   4.162   3.742  10.896 -0.1009 -0.0845 -0.3207
  682MPD2    H510148   4.130   3.821  10.951  0.5986 -0.1134  0.1344
  682MPD2    N110149   4.397   3.612  10.505  0.2590  0.8245  0.0542
  682MPD2    H710150   4.360   3.523  10.537  0.1929  0.6530 -0.5152
  683TMC3    C110151   3.991   3.673  11.267  1.3668 -0.1830 -0.0585
  683TMC3    C210152   3.942   3.547  11.291  0.7636 -0.0978  0.0626
  683TMC3    C310153   3.946   3.461  11.183  0.0271 -0.1723  0.1836
  683TMC3    C410154   4.065   3.705  11.158 -0.2614 -0.1040 -0.1159
  683TMC3    C510155   4.073   3.611  11.057  0.0195  0.2440 -0.1610
  683TMC3    C610156   4.016   3.490  11.068  0.3370 -0.5087  0.1852
  683TMC3     C10157   4.009   3.758  11.385  0.1230 -0.7243  0.6060
  683TMC3     O10158   4.037   3.876  11.363 -0.1717 -0.1178  0.4166
  683TMC3     H10159   3.901   3.521  11.388  0.7124 -0.0340  0.0580
  683TMC3    H110160   4.102   3.805  11.141  1.4837 -0.8302 -0.5838
  683TMC3    H210161   4.030   3.413  10.994 -2.2120  0.6020 -1.4531
  683TMC3    C710162   4.162   3.616  10.947 -0.1069 -0.0651  0.7808
  683TMC3    C810163   3.887   3.332  11.188  0.4035 -0.0759 -0.9616
  683TMC3    O110164   4.232   3.520  10.928  0.4950 -0.3656  0.2668
  683TMC3    O210165   3.879   3.273  11.074  0.0436 -0.0177 -0.4490
  684MPD2     C10166   2.760   3.161  16.398 -0.0229 -0.0680  0.5319
  684MPD2    C110167   2.665   3.182  16.307  0.5408 -0.0988 -0.2210
  684MPD2    C210168   2.580   3.286  16.321 -0.0654  0.0256 -0.0610
  684MPD2    C310169   2.579   3.358  16.441  0.9209 -0.2573  0.1472
  684MPD2    C410170   2.676   3.334  16.537  0.6947 -0.2193  0.1674
  684MPD2    C510171   2.758   3.227  16.513  0.2597  0.2258 -0.1170
  684MPD2     H10172   2.519   3.310  16.234 -2.7982 -0.7451  1.6614
  684MPD2    H110173   2.689   3.386  16.631  0.9981  0.8051 -0.4364
  684MPD2    H210174   2.821   3.072  16.395 -1.0522 -0.7376 -0.4954
  684MPD2    H310175   2.824   3.190  16.591 -0.7896 -0.7023  0.3262
  684MPD2     N10176   2.506   3.483  16.446  0.2814 -0.6553 -0.5910
  684MPD2    H510177   2.530   3.536  16.529 -1.2681 -1.3119  0.2893
  684MPD2    N110178   2.669   3.121  16.184 -0.0192  0.1930  0.3162
  684MPD2    H710179   2.588   3.139  16.126  1.7673  3.8239 -1.0295
  685TMC3    C110180   2.756   3.024  15.987  0.1195 -0.1812 -0.4624
  685TMC3    C210181   2.692   3.134  15.929  0.4465  0.2181 -0.3027
  685TMC3    C310182   2.750   3.184  15.814 -0.4029  0.1766  0.4315
  685TMC3    C410183   2.851   2.959  15.917  0.4138 -0.0783 -1.0042
  685TMC3    C510184   2.918   3.025  15.819  0.0154 -0.8838 -0.6257
  685TMC3    C610185   2.867   3.139  15.763  0.1275 -0.0024 -0.0969
  685TMC3     C10186   2.774   3.051  16.134 -0.1129  0.8119 -1.0484
  685TMC3     O10187   2.886   3.030  16.176 -0.0465 -0.1807 -0.1682
  685TMC3     H10188   2.602   3.178  15.969  0.1177  0.1058 -0.9095
  685TMC3    H110189   2.899   2.874  15.965 -1.2998  0.2908  1.3557
  685TMC3    H210190   2.909   3.183  15.673  1.2092  0.3873  0.6092
  685TMC3    C710191   3.062   3.025  15.819  0.0737  0.3223  0.5623
  685TMC3    C810192   2.657   3.243  15.720  0.1624  0.3862 -0.3316
  685TMC3    O110193   3.121   3.072  15.725  0.2588  0.5413  0.0198
  685TMC3    O210194   2.666   3.205  15.601  0.0061  0.0310  0.5786
  686MPD2     C10195   4.121   3.278  16.016  0.1342  0.1221 -0.3517
  686MPD2    C110196   4.026   3.188  15.976  0.1435  0.6656 -0.4814
  686MPD2    C210197   3.974   3.190  15.846  0.1428 -0.2936 -0.3223
  686MPD2    C310198   4.014   3.286  15.756 -0.3885  0.0989 -0.2708
  686MPD2    C410199   4.105   3.373  15.793  0.7418 -0.1202  0.2922
  686MPD2    C510200   4.161   3.368  15.924  0.1697 -0.4294  0.7033
  686MPD2     H10201   3.891   3.125  15.820  0.2609  0.1284 -1.7685
  686MPD2    H110202   4.147   3.443  15.722 -0.1373  1.3875  1.2517
  686MPD2    H210203   4.173   3.285  16.111  0.4917  0.1139 -0.5458
  686MPD2    H310204   4.240   3.435  15.958  0.5604 -0.3275 -0.4069
  686MPD2     N10205   3.956   3.293  15.621 -0.7635 -0.3243  0.1324
  686MPD2    H510206   3.970   3.379  15.569 -2.9726 -0.5700 -0.8615
  686MPD2    N110207   3.993   3.079  16.064 -0.5683  0.1693 -0.1387
  686MPD2    H710208   4.035   3.088  16.156  1.2120  0.8549 -1.0243
  687TMC3    C110209   3.862   3.070  15.579  0.0500  0.6631 -0.6164
  687TMC3    C210210   3.743   3.011  15.561  0.3560  0.1025  0.5731
  687TMC3    C310211   3.730   2.877  15.578  0.3486  0.0883  0.0239
  687TMC3    C410212   3.974   2.995  15.611 -0.3359 -0.1126 -0.6452
  687TMC3    C510213   3.963   2.860  15.633  0.5237 -0.5487  0.3581
  687TMC3    C610214   3.834   2.800  15.622 -0.1996  0.0412 -0.6694
  687TMC3     C10215   3.860   3.213  15.563  0.2252  0.4708  1.0936
  687TMC3     O10216   3.795   3.245  15.467 -0.0496 -0.3342  0.5382
  687TMC3     H10217   3.650   3.066  15.545 -0.9749 -2.4690 -0.5309
  687TMC3    H110218   4.067   3.050  15.623  0.0414 -0.8088 -0.3433
  687TMC3    H210219   3.823   2.693  15.635 -3.2075  0.3360 -0.8796
  687TMC3    C710220   4.060   2.810  15.731  0.2259  0.3887 -0.5566
  687TMC3    C810221   3.608   2.812  15.595 -0.6940  0.3213  0.7231
  687TMC3    O110222   4.161   2.872  15.754  0.4057  0.2528 -0.2377
  687TMC3    O210223   3.597   2.711  15.659  0.3270 -0.3188  0.2574
  688MPD2     C10224   2.829   2.041  17.140 -0.3119  0.3603 -0.0437
  688MPD2    C110225   2.838   1.905  17.149  0.5218 -0.8809  0.5376
  688MPD2    C210226   2.933   1.839  17.071  0.1441 -0.0415  0.2323
  688MPD2    C310227   3.010   1.911  16.976  0.5556 -0.8784  0.4295
  688MPD2    C410228   2.999   2.050  16.975  0.3301  0.1018  1.0291
  688MPD2    C510229   2.913   2.113  17.059  0.6954  0.2722 -0.3778
  688MPD2     H10230   2.943   1.734  17.096 -0.7576 -0.3143 -0.5609
  688MPD2    H110231   3.047   2.109  16.898 -1.1282 -0.3768 -0.2308
  688MPD2    H210232   2.757   2.101  17.194 -0.7186  1.6128 -1.9874
  688MPD2    H310233   2.919   2.221  17.068  2.5450  0.1742 -0.3088
  688MPD2     N10234   3.094   1.849  16.883 -0.3462  0.5244  0.0874
  688MPD2    H510235   3.158   1.904  16.828 -0.1783 -0.0634 -0.3050
  688MPD2    N110236   2.758   1.822  17.238 -0.3947  0.1971 -0.3238
  688MPD2    H710237   2.778   1.723  17.234 -1.1336  0.0212  0.5473
  689TMC3    C110238   2.646   1.793  17.448 -0.0144  0.0183 -0.0121
  689TMC3    C210239   2.607   1.861  17.558 -0.3803 -0.7356 -0.1500
  689TMC3    C310240   2.649   1.821  17.687 -0.5371 -0.3568 -0.2078
  689TMC3    C410241   2.735   1.683  17.473 -0.3890  0.4503 -0.5125
  689TMC3    C510242   2.772   1.649  17.606  0.2269 -0.4844 -0.0164
  689TMC3    C610243   2.740   1.720  17.715 -0.3842 -0.3451 -0.1917
  689TMC3     C10244   2.666   1.872  17.330 -0.4207 -0.5813 -0.3898
  689TMC3     O10245   2.627   1.989  17.334  0.4039 -0.4505 -0.3624
  689TMC3     H10246   2.547   1.949  17.538  0.4201  0.0013  0.7211
  689TMC3    H110247   2.764   1.620  17.390  0.4353 -0.8685  0.7932
  689TMC3    H210248   2.764   1.685   0.063  0.7598  0.9305 -0.0262
  689TMC3    C710249   2.774   1.508  17.632 -0.1880  0.1695  0.2843
  689TMC3    C810250   2.607   1.890   0.055  0.2793  0.5899  0.6616
  689TMC3    O110251   2.831   1.474  17.736  0.2218 -0.4198 -0.1450
  689TMC3    O210252   2.638   1.851   0.165 -0.0767  0.7271  0.0118
  690MPD2     C10253   0.548   3.623  15.458  0.0290  0.4835 -1.1247
  690MPD2    C110254   0.535   3.603  15.323  0.6721 -0.2491  0.3140
  690MPD2    C210255   0.641   3.623  15.240 -0.1844  0.3686 -0.4086
  690MPD2    C310256   0.762   3.657  15.295  0.2932 -0.2275 -0.3870
  690MPD2    C410257   0.778   3.673  15.436  0.4807 -0.0488  0.1834
  690MPD2    C510258   0.672   3.655  15.513 -0.1902 -0.3127 -0.7440
  690MPD2     H10259   0.629   3.611  15.133 -0.2844  0.6814 -0.4337
  690MPD2    H110260   0.869   3.699  15.489  0.8544 -1.0440  0.0358
  690MPD2    H210261   0.461   3.606  15.522  0.4818  1.4205 -0.2654
  690MPD2    H310262   0.667   3.674  15.620 -0.2240 -1.7955 -0.4844
  690MPD2     N10263   0.865   3.676  15.209 -0.2257 -0.1741  0.4470
  690MPD2    H510264   0.838   3.660  15.112  0.5251 -0.3912  0.2802
  690MPD2    N110265   0.410   3.578  15.264 -0.2401  0.5571  0.0591
  690MPD2    H710266   0.394   3.599  15.166  0.2288 -1.2417 -0.4004
  691TMC3    C110267   0.179   3.533  15.275  0.3479 -0.2949 -0.1752
  691TMC3    C210268   0.145   3.666  15.272  0.3337  0.0222  1.0900
  691TMC3    C310269   0.032   3.712  15.338  0.1057  0.0735 -0.3186
  691TMC3    C410270   0.090   3.444  15.322  1.0501 -0.0731 -0.3680
  691TMC3    C510271   4.715   3.491  15.381 -0.6555  0.3642  0.9284
  691TMC3    C610272   4.677   3.623  15.378 -0.1022 -0.4446  0.4004
  691TMC3     C10273   0.305   3.526  15.339  0.3941 -0.0021 -0.0089
  691TMC3     O10274   0.311   3.448  15.433 -0.3599  0.4226 -0.3160
  691TMC3     H10275   0.216   3.737  15.233 -0.3876  0.1069 -0.0631
  691TMC3    H110276   0.115   3.344  15.355  2.8963  0.4077 -0.3324
  691TMC3    H210277   4.600   3.654  15.448  1.8070  0.8086  1.9354
  691TMC3    C710278   4.694   3.426  15.505 -0.5280 -0.4233  0.0241
  691TMC3    C810279   0.066   3.814  15.433  0.0822  0.3691 -0.2337
  691TMC3    O110280   4.693   3.501  15.599  0.5801 -0.5082 -0.1460
  691TMC3    O210281   0.180   3.817  15.471  0.0936  0.1128  0.3663
  692TMC3    C110282   1.853   4.685  15.673  0.6085 -0.6601  0.8893
  692TMC3    C210283   1.944   0.013  15.749 -0.3454  0.5791 -0.7946
  692TMC3    C310284   2.052   4.676  15.797 -0.2615  0.1905 -0.1708
  692TMC3    C410285   1.858   4.544  15.660 -0.3323  0.6783  0.1143
  692TMC3    C510286   1.959   4.476  15.722  0.1213  0.2431 -0.2732
  692TMC3    C610287   2.059   4.541  15.786  0.5096  0.2290  0.4416
  692TMC3     C10288   1.732   0.022  15.643  0.0530 -0.2533 -0.0560
  692TMC3     O10289   1.710   0.122  15.715 -0.2250  0.2756  0.5516
  692TMC3     H10290   1.960   0.116  15.719  0.1956  0.5459 -0.6204
  692TMC3    H110291   1.765   4.498  15.625 -1.0407  1.9671  0.3216
  692TMC3    H210292   2.135   4.488  15.842  1.8413  0.0350 -1.5510
  692TMC3    C710293   1.948   4.332  15.736 -0.3947 -0.2999 -0.5415
  692TMC3    C810294   2.084   4.726  15.926  0.1810 -0.8700  0.1674
  692TMC3    O110295   1.878   4.287  15.646  0.1749 -0.1889  0.3605
  692TMC3    O210296   2.181   4.685  15.983  0.0308  0.6026 -0.4344
  693MPD2     C10297   1.667   2.761  10.382  0.9773 -0.3415  0.0530
  693MPD2    C110298   1.600   2.643  10.390 -0.6668  0.0076  0.1554
  693MPD2    C210299   1.655   2.550  10.480 -0.1601 -0.1022 -0.1962
  693MPD2    C310300   1.775   2.566  10.546  0.1912  0.5083  0.2395
  693MPD2    C410301   1.846   2.675  10.511  0.2671 -0.6976 -0.2400
  693MPD2    C510302   1.797   2.771  10.431 -0.3836 -0.7248 -0.0309
  693MPD2     H10303   1.599   2.459  10.498 -0.0666  0.3410  2.2130
  693MPD2    H110304   1.952   2.683  10.529 -0.3069 -0.6364  3.0190
  693MPD2    H210305   1.636   2.831  10.306  0.4103  1.8198  2.2968
  693MPD2    H310306   1.852   2.862  10.411 -0.4564 -0.0713  2.8052
  693MPD2     N10307   1.823   2.465  10.638 -0.5431  0.2046 -0.1285
  693MPD2    H510308   1.920   2.467  10.666 -0.2343 -2.2421 -1.0350
  693MPD2    N110309   1.480   2.618  10.321  0.2255 -0.1924 -0.3347
  693MPD2    H710310   1.439   2.699  10.276 -1.0779 -0.2618  0.7235
  694TMC3    C110311   1.273   2.504  10.289 -1.1442 -0.0501  0.1057
  694TMC3    C210312   1.220   2.382  10.253  0.3699 -0.3158 -0.4602
  694TMC3    C310313   1.101   2.355  10.305  0.1997 -0.8505  0.4634
  694TMC3    C410314   1.212   2.589  10.390 -0.5556  0.3545 -0.3414
  694TMC3    C510315   1.100   2.536  10.448 -0.7144  0.0237  0.5379
  694TMC3    C610316   1.046   2.420  10.407 -0.3118  0.0048 -0.5672
  694TMC3     C10317   1.416   2.498  10.315 -0.2789 -0.4832 -0.1141
  694TMC3     O10318   1.450   2.385  10.354  0.2482  0.4944 -0.3516
  694TMC3     H10319   1.279   2.324  10.183  0.8238 -0.3319 -0.0701
  694TMC3    H110320   1.262   2.683  10.406  0.1411  0.4064 -2.8464
  694TMC3    H210321   0.947   2.391  10.440 -0.7805 -0.0336 -1.9747
  694TMC3    C710322   1.096   2.567  10.596  0.2507  0.4520  0.4166
  694TMC3    C810323   1.025   2.249  10.249  0.0932 -0.7630 -0.8482
  694TMC3    O110324   1.142   2.672  10.637  0.7717  0.9936 -0.2722
  694TMC3    O210325   0.962   2.187  10.331  0.2074 -0.3226  0.3278
  695MPD2     C10326   2.219   3.665  13.590 -0.6753  0.4372 -0.2214
  695MPD2    C110327   2.199   3.739  13.714 -0.1417  0.2869 -0.0006
  695MPD2    C210328   2.069   3.758  13.750 -0.2111  0.7838 -0.4555
  695MPD2    C310329   1.958   3.708  13.693 -0.8713  0.3069 -0.4023
  695MPD2    C410330   1.983   3.634  13.573 -0.2902  0.0627 -0.3476
  695MPD2    C510331   2.110   3.618  13.521  0.5205 -0.1730 -0.5046
  695MPD2     H10332   2.056   3.813  13.842 -0.3262 -0.3650  0.2164
  695MPD2    H110333   1.897   3.578  13.538 -1.3117  1.6290 -0.3234
  695MPD2    H210334   2.316   3.652  13.544 -0.6108 -2.5476  0.7670
  695MPD2    H310335   2.132   3.566  13.428 -0.7486 -2.8355  0.6952
  695MPD2     N10336   1.825   3.754  13.737 -0.0155  0.2036 -0.4639
  695MPD2    H510337   1.819   3.816  13.817  0.5926  0.9634 -0.9992
  695MPD2    N110338   2.297   3.791  13.801 -0.2505 -0.3688 -0.1505
  695MPD2    H710339   2.267   3.835  13.887  0.3318  3.7880 -2.1133
  696TMC3    C110340   1.597   3.789  13.739  0.1789 -0.0421 -0.2242
  696TMC3    C210341   1.608   3.829  13.862 -0.3214 -0.1465 -0.8120
  696TMC3    C310342   1.497   3.884  13.920 -0.3707 -0.3698  0.1020
  696TMC3    C410343   1.484   3.814  13.662  0.3501  0.6339 -0.0737
  696TMC3    C510344   1.375   3.861  13.727  0.9267 -1.0108 -0.8418
  696TMC3    C610345   1.376   3.899  13.860 -0.8714  0.2332 -0.9252
  696TMC3     C10346   1.710   3.740  13.665  0.3029  0.1738 -0.5826
  696TMC3     O10347   1.700   3.677  13.561 -0.5425  0.1863  0.1938
  696TMC3     H10348   1.698   3.809  13.920 -0.3133  1.0523 -0.4065
  696TMC3    H110349   1.486   3.793  13.555  0.4134 -1.3392  0.3316
  696TMC3    H210350   1.284   3.912  13.916 -1.3758 -0.2406 -1.6412
  696TMC3    C710351   1.306   3.969  13.652 -0.0565 -0.3231 -0.0971
  696TMC3    C810352   1.524   3.971  14.030 -0.5885 -0.3119  1.1291
  696TMC3    O110353   1.284   3.949  13.532  0.0803 -0.3083 -0.3918
  696TMC3    O210354   1.638   4.013  14.043  0.2934 -0.4126 -0.4693
  697MPD2     C10355   1.785   1.306  15.772  0.2598  0.1515  0.0872
  697MPD2    C110356   1.781   1.285  15.635 -0.0562  0.5079 -0.0117
  697MPD2    C210357   1.849   1.375  15.553 -0.3811 -0.0846 -0.1454
  697MPD2    C310358   1.928   1.482  15.602 -0.6110 -0.5983  0.0879
  697MPD2    C410359   1.929   1.506  15.741  0.2151  0.3498 -0.1383
  697MPD2    C510360   1.859   1.409  15.818  0.2315  0.4486 -0.0444
  697MPD2     H10361   1.845   1.366  15.445  1.2878  0.1552 -0.2345
  697MPD2    H110362   1.979   1.589  15.788 -1.4217  1.0050  0.4530
  697MPD2    H210363   1.738   1.244  15.848  0.6627 -2.0274 -1.4605
  697MPD2    H310364   1.841   1.422  15.924 -1.5639  0.2829 -0.3289
  697MPD2     N10365   2.016   1.558  15.518  0.5552  0.1624 -0.3156
  697MPD2    H510366   2.017   1.547  15.417  1.4576  1.0819 -0.4031
  697MPD2    N110367   1.716   1.176  15.580 -0.6011  0.1367 -0.4683
  697MPD2    H710368   1.716   1.168  15.479  0.7797  0.2410 -0.4665
  698TMC3    C110369   2.198   1.673  15.440  0.3994 -0.2051  0.0370
  698TMC3    C210370   2.332   1.666  15.467  0.6548 -0.0398  0.1600
  698TMC3    C310371   2.411   1.656  15.359  0.1391 -0.1685 -0.1174
  698TMC3    C410372   2.139   1.658  15.318  0.5951 -0.0181 -0.3405
  698TMC3    C510373   2.226   1.631  15.212  0.0864 -0.3494  0.7499
  698TMC3    C610374   2.364   1.642  15.232  0.5207 -0.6036 -0.7756
  698TMC3     C10375   2.112   1.646  15.551 -0.2960 -0.5626 -0.1835
  698TMC3     O10376   2.166   1.674  15.654 -1.0724 -0.4857  0.4075
  698TMC3     H10377   2.368   1.697  15.565 -2.0896 -0.8792  1.4351
  698TMC3    H110378   2.038   1.692  15.299 -0.0834 -2.1597 -0.5577
  698TMC3    H210379   2.430   1.623  15.148 -0.9551 -0.0380 -2.0576
  698TMC3    C710380   2.173   1.619  15.081 -0.3674  0.9674 -0.4640
  698TMC3    C810381   2.545   1.713  15.378  0.4113 -0.1721 -0.0642
  698TMC3    O110382   2.053   1.622  15.067  0.1664 -0.3307 -0.0147
  698TMC3    O210383   2.594   1.690  15.487 -0.3782 -0.4954  0.2998
  699TMC3    C110384   1.532   3.861  13.103  0.4963 -0.0640  0.3291
  699TMC3    C210385   1.583   3.744  13.147  0.7292  0.0260 -0.0390
  699TMC3    C310386   1.500   3.643  13.193  0.4066  1.2344  0.6148
  699TMC3    C410387   1.396   3.882  13.102  0.3507  0.1784  0.6958
  699TMC3    C510388   1.315   3.780  13.144 -0.3611  0.4473 -0.1723
  699TMC3    C610389   1.359   3.654  13.184  0.1571  0.3098  0.4671
  699TMC3     C10390   1.611   3.973  13.050 -0.0009  0.4208  0.7952
  699TMC3     O10391   1.561   4.085  13.047 -0.1998 -0.5088  0.4832
  699TMC3     H10392   1.688   3.738  13.173  0.1874 -0.6483  2.0169
  699TMC3    H110393   1.352   3.973  13.063  0.2108 -0.8450 -1.5440
  699TMC3    H210394   1.294   3.574  13.215 -0.3444  1.1432  1.5577
  699TMC3    C710395   1.177   3.823  13.156  0.5648 -0.0357 -0.7964
  699TMC3    C810396   1.550   3.529  13.273 -0.1313  0.0079  0.2034
  699TMC3    O110397   1.164   3.941  13.189 -0.1470  0.1385  0.6273
  699TMC3    O210398   1.666   3.492  13.257 -0.0682 -0.0184  0.0912
  700TMC3    C110399   1.078   2.193  17.080  0.5880 -0.1709  0.1669
  700TMC3    C210400   1.191   2.121  17.054 -0.4405 -0.3143  0.5592
  700TMC3    C310401   1.293   2.126  17.146 -0.0889  0.2209  0.6157
  700TMC3    C410402   1.058   2.254  17.202 -0.0339  0.4061  0.1281
  700TMC3    C510403   1.165   2.264  17.291  0.1073 -0.0032  0.0949
  700TMC3    C610404   1.284   2.201  17.261  0.9320  0.4788 -0.2242
  700TMC3     C10405   0.992   2.248  16.975  0.5420 -0.4509 -0.2250
  700TMC3     O10406   0.891   2.192  16.930 -0.7636 -0.6032  0.0064
  700TMC3     H10407   1.201   2.070  16.959  0.1694  0.5806  0.1409
  700TMC3    H110408   0.975   2.324  17.203  0.3391  0.8647 -0.8510
  700TMC3    H210409   1.359   2.182  17.337 -0.1803  0.1005  0.7743
  700TMC3    C710410   1.182   2.369  17.390  0.5142  0.1425 -0.2592
  700TMC3    C810411   1.432   2.119  17.093  0.4822  0.0705 -0.2583
  700TMC3    O110412   1.295   2.389  17.434 -0.0160  0.5292  0.1298
  700TMC3    O210413   1.442   2.092  16.972  0.0418 -0.1522  0.1722
  701TMC3    C110414   0.716   0.896  15.391  0.2424  0.7880 -0.5198
  701TMC3    C210415   0.710   0.831  15.269 -0.7894  0.6795  0.2479
  701TMC3    C310416   0.812   0.839  15.176 -0.7890 -0.0909 -0.3301
  701TMC3    C410417   0.830   0.967  15.430  0.9839 -0.4080  0.4052
  701TMC3    C510418   0.935   0.960  15.339  0.5371  0.1452  0.5815
  701TMC3    C610419   0.926   0.901  15.210 -0.0275  0.7324 -0.7084
  701TMC3     C10420   0.596   0.932  15.466 -0.8493 -0.3734  0.5277
  701TMC3     O10421   0.598   1.042  15.518 -0.2748  0.4985  0.0506
  701TMC3     H10422   0.609   0.799  15.249 -0.8522  1.4987 -0.7564
  701TMC3    H110423   0.839   1.024  15.522 -0.7243 -1.4852  1.2196
  701TMC3    H210424   1.010   0.927  15.147  2.6722  1.2628  3.1149
  701TMC3    C710425   1.069   0.999  15.384  0.2820 -0.3771  0.2525
  701TMC3    C810426   0.782   0.810  15.036  0.4848 -0.0462  0.5976
  701TMC3    O110427   1.158   1.024  15.302  0.3885  0.1049  0.5844
  701TMC3    O210428   0.841   0.872  14.948 -0.4164 -0.0482 -0.1111
  702MPD2     C10429   0.807   3.183  10.265 -0.0089 -0.1273  0.3944
  702MPD2    C110430   0.676   3.187  10.224  0.3531  0.3037 -0.5608
  702MPD2    C210431   0.630   3.248  10.105 -0.6534  0.3816  0.3720
  702MPD2    C310432   0.723   3.328  10.036  0.2584  0.1558 -0.6730
  702MPD2    C410433   0.853   3.335  10.077 -0.2841 -0.7715 -0.4399
  702MPD2    C510434   0.891   3.264  10.187 -0.4946  0.8226 -0.1360
  702MPD2     H10435   0.523   3.240  10.091 -0.2171 -1.0924 -2.1343
  702MPD2    H110436   0.930   3.393  10.029  1.0089 -1.6615  0.5688
  702MPD2    H210437   0.840   3.139  10.358  1.5022 -1.9240 -0.9953
  702MPD2    H310438   0.994   3.274  10.219 -0.6418 -0.5556  0.7817
  702MPD2     N10439   0.673   3.402   9.926 -0.6531 -0.1669  0.2849
  702MPD2    H510440   0.738   3.430   9.853 -1.2967  1.7763  0.4781
  702MPD2    N110441   0.576   3.126  10.306 -0.2064  0.3065  0.3886
  702MPD2    H710442   0.480   3.151  10.284  0.0794 -1.1986 -2.6231
  703TMC3    C110443   0.499   3.495  10.054  0.4191 -0.3703 -0.0916
  703TMC3    C210444   0.370   3.478  10.095  0.0564  0.3094  0.0661
  703TMC3    C310445   0.331   3.537  10.209  0.3440 -0.5020  0.3988
  703TMC3    C410446   0.584   3.584  10.119 -0.4284  0.3364  0.2405
  703TMC3    C510447   0.531   3.648  10.227  0.4314  0.1044 -0.1713
  703TMC3    C610448   0.413   3.618  10.282 -0.1949 -0.8726  0.5458
  703TMC3     C10449   0.539   3.438   9.924  0.1978 -0.4134 -0.0043
  703TMC3     O10450   0.466   3.463   9.826  0.4057 -0.1222 -0.1928
  703TMC3     H10451   0.296   3.426  10.036  1.7272  0.2649 -1.9733
  703TMC3    H110452   0.680   3.609  10.076 -0.0130 -2.7375 -0.6195
  703TMC3    H210453   0.385   3.668  10.374 -0.5958  0.1213 -0.1072
  703TMC3    C710454   0.629   3.729  10.305 -0.3027  0.7667  0.1611
  703TMC3    C810455   0.253   3.441  10.296  0.3698 -0.0106  0.6590
  703TMC3    O110456   0.617   3.846  10.338  0.1069  0.1040  0.3572
  703TMC3    O210457   0.283   3.326  10.277  0.0074  0.3434  0.0358
  704TMC3    C110458   1.896   1.174  12.533 -0.2997 -0.1045  0.6834
  704TMC3    C210459   2.020   1.234  12.543 -0.3406  0.3992 -0.2350
  704TMC3    C310460   2.119   1.161  12.608 -0.3143  0.5282  0.5075
  704TMC3    C410461   1.865   1.053  12.587  0.4551  0.1845  0.4230
  704TMC3    C510462   1.963   0.991  12.659 -0.0803  0.7232  0.1263
  704TMC3    C610463   2.088   1.049  12.675  0.7197  0.5869  0.1374
  704TMC3     C10464   1.830   1.215  12.414  0.2537  0.4126  0.7871
  704TMC3     O10465   1.710   1.220  12.414 -0.2035  0.2455 -0.5932
  704TMC3     H10466   2.038   1.325  12.488  0.7751  0.6708  0.5786
  704TMC3    H110467   1.767   1.010  12.575  0.3161  0.4058  0.7454
  704TMC3    H210468   2.167   0.990  12.721 -1.6175 -1.2320  1.8033
  704TMC3    C710469   1.974   0.847  12.642 -0.0329 -0.7022  0.6155
  704TMC3    C810470   2.228   1.143  12.513  0.2242  0.7034 -0.6159
  704TMC3    O110471   2.083   0.793  12.636  0.1806 -0.0478 -0.2040
  704TMC3    O210472   2.193   1.167  12.398  0.5094 -0.4184  0.3132
  705MPD2     C10473   2.235   4.573  16.511 -0.5735  0.0341  0.1965
  705MPD2    C110474   2.172   4.538  16.392  0.1827 -0.7049  0.4274
  705MPD2    C210475   2.057   4.603  16.369  0.0228  0.4532  0.6701
  705MPD2    C310476   2.002   4.697  16.462 -0.3218 -0.2564 -0.5703
  705MPD2    C410477   2.078   4.731  16.569  0.3835 -0.7963 -0.2407
  705MPD2    C510478   2.195   4.667  16.596 -0.1777  0.2901  0.7745
  705MPD2     H10479   2.012   4.572  16.275  2.2200 -1.6128  0.3087
  705MPD2    H110480   2.036   0.066  16.637  0.0220 -0.1125 -1.2051
  705MPD2    H210481   2.331   4.531  16.538  0.2079  1.3812 -0.5157
  705MPD2    H310482   2.235   4.669  16.697  0.0106  0.3282  0.6987
  705MPD2     N10483   1.886   0.025  16.446  0.1628  0.1156 -0.5095
  705MPD2    H510484   1.870   0.111  16.497 -0.3174 -1.2982  1.7176
  705MPD2    N110485   2.229   4.460  16.288 -0.2140 -0.4574  0.0732
  705MPD2    H710486   2.183   4.462  16.197  2.2047  0.7919 -1.1129
  706TMC3    C110487   2.587   4.270  16.059  0.6426 -0.1312  0.7387
  706TMC3    C210488   2.588   4.368  15.963  0.8572 -0.7039  0.1747
  706TMC3    C310489   2.495   4.468  15.964  0.0480  0.3372 -0.2372
  706TMC3    C410490   2.500   4.267  16.161  0.0072 -0.0293  0.3158
  706TMC3    C510491   2.407   4.364  16.166  0.2942  0.3461 -0.5083
  706TMC3    C610492   2.403   4.455  16.063  0.5507  0.0294 -0.2302
  706TMC3     C10493   2.687   4.172  16.053  0.7598 -0.3995 -0.6412
  706TMC3     O10494   2.708   4.105  16.153  0.4240  0.5092  0.0866
  706TMC3     H10495   2.676   4.380  15.900  0.2040  0.3053 -0.5393
  706TMC3    H110496   2.505   4.182  16.228 -0.0430  0.4155  0.8864
  706TMC3    H210497   2.332   4.536  16.076  1.1596  0.7683 -1.5758
  706TMC3    C710498   2.345   4.390  16.294 -0.9955 -0.0086 -0.6964
  706TMC3    C810499   2.560   4.601  15.938 -0.5748  0.5736  0.6042
  706TMC3    O110500   2.406   4.334  16.386 -0.0598 -0.3934  0.1429
  706TMC3    O210501   2.682   4.611  15.946 -0.3824 -0.0849  0.1107
  707TMC3    C110502   4.564   3.710   1.315 -0.4350  0.4480  0.5356
  707TMC3    C210503   4.608   3.596   1.370  0.6177  0.6166 -0.2431
  707TMC3    C310504   4.617   3.593   1.506 -0.3032 -0.2888  0.4765
  707TMC3    C410505   4.520   3.817   1.382 -0.0668  0.5747 -0.8678
  707TMC3    C510506   4.533   3.806   1.524 -0.2424 -0.5712 -0.1684
  707TMC3    C610507   4.588   3.701   1.584  0.3683 -0.4184  0.1218
  707TMC3     C10508   4.573   3.711   1.168  0.2763  0.6928  0.5951
  707TMC3     O10509   4.657   3.640   1.122  0.0820 -0.2396  0.1157
  707TMC3     H10510   4.636   3.510   1.311 -4.3095 -0.7252 -0.6593
  707TMC3    H110511   4.482   3.906   1.334 -0.5009  0.9643  0.1961
  707TMC3    H210512   4.579   3.690   1.691  1.4130 -1.9902  0.0456
  707TMC3    C710513   4.475   3.922   1.601 -0.0947  0.2697 -0.2990
  707TMC3    C810514   4.735   3.517   1.551  0.0216 -0.6127  0.0015
  707TMC3    O110515   4.405   4.007   1.545 -0.5522  0.1068 -0.5949
  707TMC3    O210516   0.069   3.575   1.633 -0.5931  0.8318  0.1444
  708MPD2     C10517   0.611   2.404  13.478 -0.2085 -1.2190 -0.0136
  708MPD2    C110518   0.594   2.500  13.577  0.1797  0.1619 -0.4926
  708MPD2    C210519   0.556   2.458  13.704  0.0045  0.5858 -0.0582
  708MPD2    C310520   0.543   2.323  13.724  0.0195 -0.3620 -0.3294
  708MPD2    C410521   0.570   2.223  13.627 -0.0903  0.2394 -0.7499
  708MPD2    C510522   0.605   2.272  13.503 -0.5268  0.6810  0.1257
  708MPD2     H10523   0.536   2.523  13.789 -0.8790 -0.3530  0.4397
  708MPD2    H110524   0.568   2.116  13.644 -1.3644  0.2452 -0.9207
  708MPD2    H210525   0.665   2.431  13.388 -1.4199  0.8988 -0.1182
  708MPD2    H310526   0.634   2.200  13.426 -1.1649  1.6906 -1.0584
  708MPD2     N10527   0.479   2.283  13.843  0.0442 -0.1718 -0.2642
  708MPD2    H510528   0.442   2.360  13.898 -1.2428 -0.3421 -0.8885
  708MPD2    N110529   0.601   2.635  13.548  0.9695 -0.1066  0.1919
  708MPD2    H710530   0.606   2.656  13.449 -0.1181 -2.4619 -0.3624
  709TMC3    C110531   0.501   2.837  13.592  0.4790  0.3976 -0.8049
  709TMC3    C210532   0.455   2.813  13.460 -0.6917  0.0576  0.4685
  709TMC3    C310533   0.322   2.808  13.427  0.1110  0.0972  0.3656
  709TMC3    C410534   0.411   2.881  13.687 -0.3490 -0.3012 -0.0637
  709TMC3    C510535   0.278   2.856  13.660  0.1001 -0.1814 -0.0075
  709TMC3    C610536   0.236   2.818  13.532  0.2443 -0.0846  0.2217
  709TMC3     C10537   0.590   2.734  13.643 -0.3605  0.2224 -0.2825
  709TMC3     O10538   0.612   2.737  13.763 -0.4673 -0.2307 -0.1280
  709TMC3     H10539   0.527   2.813  13.379 -1.4598 -0.0348 -0.2063
  709TMC3    H110540   0.435   2.895  13.792 -1.2235 -2.2229  0.3810
  709TMC3    H210541   0.133   2.794  13.508  0.3237  0.1543 -0.3467
  709TMC3    C710542   0.210   2.798  13.772  0.5360  0.3592 -0.3689
  709TMC3    C810543   0.293   2.716  13.314 -0.0465 -0.8291 -0.0699
  709TMC3    O110544   0.276   2.764  13.868  0.0755  0.4281  0.5407
  709TMC3    O210545   0.181   2.679  13.311  0.2995 -0.5824  0.0782
  710TMC3    C110546   1.380   4.465   0.236  0.1944  0.2121 -0.0926
  710TMC3    C210547   1.462   4.496   0.130  0.1160 -0.7671 -0.4225
  710TMC3    C310548   1.571   4.419   0.106 -0.5673  0.4557  0.1344
  710TMC3    C410549   1.403   4.349   0.309  0.1844  0.1311 -0.2799
  710TMC3    C510550   1.506   4.266   0.267  0.4180  0.0849 -0.9688
  710TMC3    C610551   1.592   4.299   0.165  0.2125  0.3327  0.9803
  710TMC3     C10552   1.239   4.504   0.221  0.1971 -0.3365  0.3141
  710TMC3     O10553   1.211   4.550   0.110 -0.5088  0.5516 -0.6959
  710TMC3     H10554   1.445   4.585   0.070  0.0105  1.1185  2.3944
  710TMC3    H110555   1.324   4.307   0.370  0.1304 -0.1609 -0.5504
  710TMC3    H210556   1.667   4.231   0.125 -1.5370  0.3947 -2.4300
  710TMC3    C710557   1.524   4.137   0.330 -0.5946  0.4486 -0.0127
  710TMC3    C810558   1.651   4.458  17.745 -0.6356  0.4856 -0.6659
  710TMC3    O110559   1.441   4.100   0.414  0.0164  0.5052  0.2159
  710TMC3    O210560   1.600   4.525  17.651  0.0807  0.1476  0.1494
  711TMC3    C110561   1.427   0.348  14.872 -0.2242  0.5231  0.2184
  711TMC3    C210562   1.447   0.444  14.971  0.7229  0.2926 -0.1996
  711TMC3    C310563   1.569   0.440  15.043 -0.0467  0.7566 -0.6108
  711TMC3    C410564   1.515   0.251  14.844  0.4228 -0.8445 -0.6528
  711TMC3    C510565   1.618   0.242  14.929 -0.0408  0.3900  0.3089
  711TMC3    C610566   1.657   0.340  15.017  0.8515 -0.1486 -0.6261
  711TMC3     C10567   1.297   0.292  14.873  0.1897  0.5232  0.1119
  711TMC3     O10568   1.287   0.170  14.887 -0.5989  0.2155 -0.3091
  711TMC3     H10569   1.376   0.522  14.995 -0.3554 -0.1870 -1.8029
  711TMC3    H110570   1.505   0.175  14.767  1.8240 -2.7188  1.0128
  711TMC3    H210571   1.747   0.318  15.073 -0.2002 -1.8660  0.3918
  711TMC3    C710572   1.661   0.110  14.968 -0.2610  0.0489 -0.0036
  711TMC3    C810573   1.548   0.469  15.179 -0.1174 -0.1460 -0.6050
  711TMC3    O110574   1.766   0.094  15.025  0.0566 -0.3531 -0.3555
  711TMC3    O210575   1.434   0.507  15.213 -0.0691  0.0497  0.0435
  712MPD2     C10576   3.500   0.816  14.191 -0.1236 -0.3733  0.0572
  712MPD2    C110577   3.363   0.844  14.193 -0.2103  0.0056 -0.0455
  712MPD2    C210578   3.317   0.971  14.177  0.4848 -0.3624  0.5144
  712MPD2    C310579   3.402   1.078  14.158  0.4160 -0.3949 -0.7984
  712MPD2    C410580   3.542   1.048  14.154 -0.5954  0.2629  0.1778
  712MPD2    C510581   3.585   0.921  14.176  0.1213 -0.6221  0.6560
  712MPD2     H10582   3.214   1.005  14.185  0.5468  0.2098 -0.9665
  712MPD2    H110583   3.605   1.133  14.131 -0.8110  0.3221 -0.2043
  712MPD2    H210584   3.543   0.717  14.198  1.5981  0.5306  2.2912
  712MPD2    H310585   3.690   0.900  14.158 -0.5845 -2.6677 -1.1790
  712MPD2     N10586   3.355   1.208  14.126  0.0239  0.2495  0.4327
  712MPD2    H510587   3.431   1.276  14.120 -0.0799  0.1277 -2.1040
  712MPD2    N110588   3.260   0.756  14.216  0.1794  0.3084 -0.1249
  712MPD2    H710589   3.167   0.786  14.187  1.1309  2.1997 -1.1564
  713TMC3    C110590   3.204   1.368  14.035  0.7882 -0.3272 -0.6990
  713TMC3    C210591   3.315   1.430  13.974 -0.3999  0.1279  0.3557
  713TMC3    C310592   3.292   1.551  13.908 -0.2441  0.2217 -0.0399
  713TMC3    C410593   3.077   1.424  14.023  0.4648 -0.4872  0.9643
  713TMC3    C510594   3.057   1.535  13.946 -0.1239 -0.8043 -0.2005
  713TMC3    C610595   3.162   1.595  13.889 -0.6023  0.6171 -0.4166
  713TMC3     C10596   3.222   1.237  14.085 -0.0192 -0.1684 -0.2773
  713TMC3     O10597   3.116   1.172  14.082 -0.1773  0.2081  0.0187
  713TMC3     H10598   3.418   1.400  13.988 -1.0783 -2.5264 -0.1651
  713TMC3    H110599   2.989   1.373  14.060  0.5318 -0.9024  0.5515
  713TMC3    H210600   3.145   1.695  13.850  1.2337  0.1508 -2.3693
  713TMC3    C710601   2.929   1.608  13.962  1.1487  0.0922 -0.2484
  713TMC3    C810602   3.404   1.620  13.865  0.0047  0.0540  0.0613
  713TMC3    O110603   2.862   1.579  14.062  0.2589  0.2213 -0.0942
  713TMC3    O210604   3.514   1.580  13.894  0.3881 -0.2052  0.7657
  714MPD2     C10605   0.330   0.507   1.356  0.1785  0.8375  0.2478
  714MPD2    C110606   0.340   0.411   1.256 -0.3866  0.0422  0.1931
  714MPD2    C210607   0.375   0.451   1.129  0.4908  0.1280  0.1460
  714MPD2    C310608   0.361   0.583   1.097 -0.2513  0.3537 -0.5123
  714MPD2    C410609   0.342   0.679   1.195  0.2137  0.5887  0.5672
  714MPD2    C510610   0.330   0.640   1.326 -0.4551 -0.6614 -0.4678
  714MPD2     H10611   0.417   0.389   1.050 -0.2457  1.6726 -1.4547
  714MPD2    H110612   0.338   0.784   1.169  1.7123  0.0926 -1.6507
  714MPD2    H210613   0.334   0.479   1.461 -2.9507  0.2439  0.1968
  714MPD2    H310614   0.311   0.720   1.396 -1.0248 -1.1516 -0.0648
  714MPD2     N10615   0.373   0.612   0.961  0.9752  0.0047  0.3573
  714MPD2    H510616   0.391   0.538   0.894  3.3078  0.8683  0.0314
  714MPD2    N110617   0.335   0.279   1.296 -0.3932  0.6223 -0.6537
  714MPD2    H710618   0.337   0.265   1.396 -3.0732 -1.1081 -0.8379
  715TMC3    C110619   0.384   0.053   1.282 -0.2546 -0.0643  0.1951
  715TMC3    C210620   0.399   4.681   1.201  0.2531 -0.7196  0.0464
  715TMC3    C310621   0.451   4.568   1.256  0.8454  0.4876  0.1944
  715TMC3    C410622   0.371   0.034   1.420  0.2107 -0.3362  0.1904
  715TMC3    C510623   0.417   4.653   1.466  0.2605  0.1992  0.5836
  715TMC3    C610624   0.465   4.554   1.387  0.0134 -0.4447  0.5587
  715TMC3     C10625   0.344   0.174   1.213 -0.3740 -0.9624  0.2169
  715TMC3     O10626   0.329   0.172   1.092 -0.0458 -0.3111 -0.9263
  715TMC3     H10627   0.381   4.685   1.094  0.2474 -1.8540  0.0142
  715TMC3    H110628   0.357   0.112   1.493 -1.3634  1.9227 -2.5234
  715TMC3    H210629   0.495   4.457   1.426  0.7553 -0.6404 -0.4994
  715TMC3    C710630   0.449   4.634   1.611 -0.6937  0.6017 -0.9023
  715TMC3    C810631   0.517   4.467   1.172 -0.3799  0.0297 -0.2942
  715TMC3    O110632   0.526   4.543   1.640 -0.5582  0.5683 -0.3641
  715TMC3    O210633   0.461   4.433   1.066  1.1256 -0.0054  0.3460
  716MPD2     C10634   0.576   3.248   9.597  0.0491  0.7324 -0.1832
  716MPD2    C110635   0.452   3.242   9.540  1.2118 -0.2269  0.3868
  716MPD2    C210636   0.427   3.139   9.453  0.7579 -0.0499  0.0286
  716MPD2    C310637   0.521   3.048   9.422  0.5271  0.4798  0.4063
  716MPD2    C410638   0.645   3.061   9.476 -0.2690 -0.3082 -0.1664
  716MPD2    C510639   0.675   3.159   9.564  0.4282  0.0022  0.1705
  716MPD2     H10640   0.331   3.113   9.410  0.0966  2.0749  0.2091
  716MPD2    H110641   0.721   2.983   9.471 -0.6890 -0.6116 -1.9264
  716MPD2    H210642   0.609   3.327   9.663  1.7858 -1.1537  1.1764
  716MPD2    H310643   0.773   3.160   9.611  0.2073  0.7338  0.6196
  716MPD2     N10644   0.487   2.948   9.335 -0.0313  0.3591  0.4112
  716MPD2    H510645   0.414   2.971   9.269 -0.9903 -0.9763  1.0218
  716MPD2    N110646   0.362   3.353   9.552 -0.4460 -0.1551  0.2003
  716MPD2    H710647   0.399   3.436   9.597  1.7656  0.3974 -2.6438
  717TMC3    C110648   0.479   2.731   9.244 -0.2614  0.3834  0.0366
  717TMC3    C210649   0.363   2.769   9.182  0.2149 -0.0172  0.2169
  717TMC3    C310650   0.296   2.670   9.113  0.4009 -0.0168  0.3019
  717TMC3    C410651   0.524   2.603   9.239  0.6891  0.1579 -0.0689
  717TMC3    C510652   0.457   2.506   9.173  0.3897 -0.0076  0.1990
  717TMC3    C610653   0.335   2.536   9.110 -0.4572  0.4072  0.2950
  717TMC3     C10654   0.540   2.818   9.344 -0.2061  0.1807 -0.9495
  717TMC3     O10655   0.621   2.780   9.430  0.5992 -0.1469 -0.0448
  717TMC3     H10656   0.312   2.862   9.202 -1.9791 -1.2043  0.0831
  717TMC3    H110657   0.613   2.576   9.295  2.0628  1.2773 -1.7257
  717TMC3    H210658   0.293   2.472   9.033  2.7371 -0.9705 -0.3158
  717TMC3    C710659   0.506   2.364   9.172 -0.1671  0.3086 -0.2211
  717TMC3    C810660   0.160   2.705   9.060 -0.0160  0.0488 -0.1028
  717TMC3    O110661   0.592   2.341   9.254  0.9261  0.0294 -0.1475
  717TMC3    O210662   0.130   2.822   9.040 -0.2550  0.0489  0.1528
  718MPD2     C10663   3.889   2.307  12.789  0.5469 -0.3983  0.2043
  718MPD2    C110664   4.015   2.269  12.839  0.0065  0.2520  0.2284
  718MPD2    C210665   4.025   2.180  12.942 -0.2012  0.3733  0.1922
  718MPD2    C310666   3.922   2.106  12.982 -0.5920  0.4462 -0.0379
  718MPD2    C410667   3.801   2.122  12.917  0.4475  0.2708 -0.9325
  718MPD2    C510668   3.784   2.231  12.832 -0.3670 -0.6505  0.4832
  718MPD2     H10669   4.121   2.152  12.983  0.3840  0.1896 -1.2833
  718MPD2    H110670   3.720   2.054  12.940  0.5824  0.2227 -0.6000
  718MPD2    H210671   3.872   2.385  12.716  1.5944  0.0207  0.4073
  718MPD2    H310672   3.682   2.250  12.800 -0.4409  1.0820  1.7676
  718MPD2     N10673   3.945   2.010  13.083 -0.4199 -0.1566 -0.4145
  718MPD2    H510674   4.031   2.036  13.130 -0.7171  0.0524  0.0069
  718MPD2    N110675   4.137   2.329  12.799  0.0557  1.0840 -0.1448
  718MPD2    H710676   4.213   2.284  12.849 -2.6515 -1.3845  1.7716
  719TMC3    C110677   4.311   2.466  12.705 -0.1365  0.1489 -0.0148
  719TMC3    C210678   4.366   2.421  12.824  0.6575  0.2195  0.1972
  719TMC3    C310679   4.466   2.328  12.818  0.3244 -0.7514 -0.3532
  719TMC3    C410680   4.364   2.447  12.582  0.0518  0.6529  0.1035
  719TMC3    C510681   4.464   2.353  12.575 -0.5143 -0.5962  0.1014
  719TMC3    C610682   4.511   2.293  12.689  0.1126  0.0530  0.1651
  719TMC3     C10683   4.169   2.428  12.711 -0.8551 -0.1787  0.0371
  719TMC3     O10684   4.101   2.472  12.620 -0.0071  0.2872 -0.3972
  719TMC3     H10685   4.312   2.439  12.916 -0.0443 -1.1939  0.0717
  719TMC3    H110686   4.312   2.506  12.508  0.8569  1.8118  0.4537
  719TMC3    H210687   4.592   2.224  12.671 -0.4308  0.5536 -4.2542
  719TMC3    C710688   4.524   2.328  12.444  0.3529  0.1427  0.2178
  719TMC3    C810689   4.460   2.228  12.916  0.2044  0.1874 -0.0698
  719TMC3    O110690   4.625   2.261  12.437 -0.3067  0.0405 -0.6640
  719TMC3    O210691   4.363   2.231  12.993  0.4604 -0.0267 -0.4750
  720MPD2     C10692   2.592   2.855  13.758 -0.5009  0.1417  0.5436
  720MPD2    C110693   2.628   2.976  13.705 -0.3462 -0.0220  0.0731
  720MPD2    C210694   2.742   3.033  13.752  0.5338 -0.2864 -0.0942
  720MPD2    C310695   2.810   2.981  13.857  0.1234 -0.6257  0.0517
  720MPD2    C410696   2.771   2.859  13.915  0.1667 -0.4829 -0.5135
  720MPD2    C510697   2.664   2.792  13.857 -0.2878 -0.1092 -0.1340
  720MPD2     H10698   2.781   3.117  13.696  1.1733 -1.3967 -1.3027
  720MPD2    H110699   2.822   2.814  13.999  2.1895  1.7523 -0.5244
  720MPD2    H210700   2.514   2.800  13.707 -0.5569  1.3861 -0.7183
  720MPD2    H310701   2.625   2.698  13.894  0.7002 -0.6956 -0.6012
  720MPD2     N10702   2.930   3.040  13.900 -0.1822  0.0262  0.5027
  720MPD2    H510703   2.968   3.111  13.839 -1.0188 -0.8034 -0.9860
  720MPD2    N110704   2.561   3.040  13.593 -0.3900  0.4132  0.4386
  720MPD2    H710705   2.606   3.123  13.555 -0.7061  1.8891  3.2502
  721TMC3    C110706   3.117   3.096  14.026  0.3133 -0.1055  0.0762
  721TMC3    C210707   3.166   3.111  14.153 -0.4348 -0.7367 -0.3493
  721TMC3    C310708   3.294   3.155  14.169  0.8187  0.2530  0.0541
  721TMC3    C410709   3.199   3.105  13.916  0.3597 -0.2511 -0.5133
  721TMC3    C510710   3.325   3.153  13.937 -0.3449 -0.0978 -0.1865
  721TMC3    C610711   3.375   3.180  14.061  0.1252  0.4015  0.9109
  721TMC3     C10712   2.997   3.018  14.017  0.2572  0.6528  0.0962
  721TMC3     O10713   2.966   2.942  14.108  0.0502 -0.2524  0.6321
  721TMC3     H10714   3.108   3.111  14.244 -1.6907  0.5811 -1.1543
  721TMC3    H110715   3.167   3.070  13.819 -1.7513 -0.4784  0.2534
  721TMC3    H210716   3.473   3.226  14.068  1.0521 -1.7194  1.9734
  721TMC3    C710717   3.395   3.197  13.823  0.0258 -0.3624  1.0654
  721TMC3    C810718   3.329   3.238  14.286  0.1911 -0.0605  0.0099
  721TMC3    O110719   3.518   3.184  13.822  0.1356  0.2668 -0.2274
  721TMC3    O210720   3.393   3.342  14.263  0.0361  0.6712  0.3524
  722MPD2     C10721   2.286   1.206  13.336 -0.4527  0.0214  0.1514
  722MPD2    C110722   2.212   1.309  13.283 -0.2864  0.4253  0.1970
  722MPD2    C210723   2.078   1.288  13.274 -0.9034 -0.4769 -0.0410
  722MPD2    C310724   2.017   1.171  13.329 -0.4799  0.1866  0.5066
  722MPD2    C410725   2.099   1.067  13.366  0.1637  0.4093  0.2888
  722MPD2    C510726   2.234   1.081  13.360  0.3384 -0.1967  0.4024
  722MPD2     H10727   2.013   1.365  13.234  0.2898  1.1755  1.1988
  722MPD2    H110728   2.056   0.978  13.410  3.0296 -1.4197 -0.6818
  722MPD2    H210729   2.393   1.215  13.350 -0.3891  0.5438 -0.6650
  722MPD2    H310730   2.297   1.002  13.399  0.8674  1.8745  3.7159
  722MPD2     N10731   1.876   1.159  13.330 -0.3942 -0.1587 -0.4609
  722MPD2    H510732   1.825   1.237  13.290  1.8930  0.4105 -2.3252
  722MPD2    N110733   2.258   1.435  13.246  0.4083  0.3959  0.8335
  722MPD2    H710734   2.187   1.498  13.207  0.3677  0.0594  0.3599
  723TMC3    C110735   1.650   1.053  13.328 -0.1625  0.1224  0.8518
  723TMC3    C210736   1.593   0.927  13.333  0.0279  0.1381 -0.5940
  723TMC3    C310737   1.461   0.915  13.289  0.1775  0.3974  0.5358
  723TMC3    C410738   1.590   1.163  13.276 -0.4239 -0.0029  0.5604
  723TMC3    C510739   1.461   1.146  13.237 -0.2179  0.5531 -0.4810
  723TMC3    C610740   1.391   1.028  13.244  0.0667 -0.4029 -0.1588
  723TMC3     C10741   1.794   1.057  13.373  0.5378 -0.0925  0.4932
  723TMC3     O10742   1.829   0.950  13.423  0.2107 -0.0733  0.8101
  723TMC3     H10743   1.647   0.840  13.371  1.0488  1.4774  1.0609
  723TMC3    H110744   1.646   1.254  13.259  0.8526 -0.6122  1.4860
  723TMC3    H210745   1.283   1.020  13.251  0.1543  0.5415  2.1369
  723TMC3    C710746   1.388   1.273  13.244  0.1240 -0.5895 -0.4315
  723TMC3    C810747   1.394   0.789  13.312 -0.3319  0.1799 -0.3693
  723TMC3    O110748   1.450   1.377  13.272  0.1665 -0.9552  0.3053
  723TMC3    O210749   1.448   0.714  13.395  0.4213 -0.0712  0.0076
  724TMC3    C110750   2.563   0.248  10.455  0.1914 -0.2686  0.5183
  724TMC3    C210751   2.509   0.361  10.400  0.3950 -0.4554  0.5210
  724TMC3    C310752   2.590   0.474  10.372  0.0686 -0.4196 -0.4439
  724TMC3    C410753   2.698   0.222  10.462 -0.1214 -0.4503  0.1975
  724TMC3    C510754   2.778   0.334  10.441 -0.9971 -0.6943  0.3511
  724TMC3    C610755   2.722   0.460  10.395  0.0135 -0.7234 -0.0162
  724TMC3     C10756   2.486   0.136  10.504 -0.2776 -0.6209 -0.1724
  724TMC3     O10757   2.545   0.036  10.537 -0.4265  0.8182  0.0288
  724TMC3     H10758   2.405   0.385  10.423  0.2594 -0.9708  0.4304
  724TMC3    H110759   2.739   0.124  10.481  2.3887  0.9725  2.2143
  724TMC3    H210760   2.793   0.540  10.380 -0.2292 -0.9396 -2.2343
  724TMC3    C710761   2.923   0.335  10.460  0.6215 -0.0550 -0.6572
  724TMC3    C810762   2.524   0.602  10.386  0.0145  0.2401 -0.5284
  724TMC3    O110763   2.962   0.442  10.497  0.3570  0.2806 -0.6339
  724TMC3    O210764   2.401   0.604  10.394  0.1555  0.2608  0.7094
  725TMC3    C110765   3.727   3.974  12.083 -0.4515  0.0510  0.0709
  725TMC3    C210766   3.778   3.956  11.959  0.5828 -0.4969  0.5971
  725TMC3    C310767   3.718   4.008  11.851  0.1637 -0.5942 -0.0364
  725TMC3    C410768   3.608   4.041  12.102 -0.7457 -0.2279  0.0706
  725TMC3    C510769   3.552   4.093  11.993 -0.6127 -0.2404  0.2636
  725TMC3    C610770   3.599   4.072  11.863 -0.3848  0.1922 -0.3670
  725TMC3     C10771   3.793   3.920  12.206  0.1956  0.2078 -0.2275
  725TMC3     O10772   3.725   3.912  12.306  0.3236 -0.1504  0.4755
  725TMC3     H10773   3.861   3.890  11.938  1.3401  0.6865 -0.1478
  725TMC3    H110774   3.576   4.081  12.197 -0.7416 -0.9690  0.3850
  725TMC3    H210775   3.533   4.095  11.780 -2.2973 -2.0053  0.5700
  725TMC3    C710776   3.412   4.071  11.987 -0.1623  0.1121 -0.6782
  725TMC3    C810777   3.703   3.915  11.740 -0.0476 -0.6738  0.0681
  725TMC3    O110778   3.333   4.153  11.941 -0.1305 -0.2003 -0.0742
  725TMC3    O210779   3.735   3.799  11.756 -0.5942 -0.2645  0.0582
  726MPD2     C10780   1.894   0.510  10.989 -0.2190 -0.8923  0.1651
  726MPD2    C110781   1.812   0.598  10.920  0.8841  0.2218 -0.5188
  726MPD2    C210782   1.681   0.573  10.898  0.7247 -0.2201  0.5548
  726MPD2    C310783   1.632   0.447  10.939  1.0599 -0.3464 -0.0900
  726MPD2    C410784   1.714   0.354  11.002  0.1509 -0.3662  0.1006
  726MPD2    C510785   1.839   0.389  11.025  0.4379  0.3154  0.1114
  726MPD2     H10786   1.623   0.649  10.848  0.4497  0.7956  2.4116
  726MPD2    H110787   1.675   0.259  11.037  0.5616 -0.2097  0.9995
  726MPD2    H210788   1.995   0.521  11.027  0.0095  1.8806 -1.2789
  726MPD2    H310789   1.897   0.319  11.083  2.0904  1.1446 -0.5553
  726MPD2     N10790   1.499   0.411  10.925  0.4485 -0.1163  0.1421
  726MPD2    H510791   1.482   0.314  10.952  1.3625 -0.4521 -0.4630
  726MPD2    N110792   1.864   0.724  10.871  0.1439 -0.1549  0.9106
  726MPD2    H710793   1.790   0.783  10.834 -0.2652 -1.4112 -0.2391
  727TMC3    C110794   1.987   0.904  10.854 -0.1270 -0.0209 -0.2628
  727TMC3    C210795   2.092   0.975  10.904  0.2885 -0.5334 -0.3991
  727TMC3    C310796   2.128   1.091  10.840 -0.2861  0.1341 -0.3456
  727TMC3    C410797   1.913   0.948  10.745  0.1605  0.7064  0.7090
  727TMC3    C510798   1.937   1.078  10.703 -0.1987 -0.3583 -0.2342
  727TMC3    C610799   2.049   1.148  10.743  0.3427 -0.1277 -0.1700
  727TMC3     C10800   1.983   0.769  10.900  0.3507  0.7059  0.2345
  727TMC3     O10801   2.083   0.721  10.957  0.2142  0.0615  0.3928
  727TMC3     H10802   2.156   0.939  10.983 -0.4905 -1.8235 -0.3505
  727TMC3    H110803   1.832   0.887  10.705  2.3707 -0.2024 -2.3784
  727TMC3    H210804   2.060   1.248  10.703  2.1705 -0.5421 -0.6835
  727TMC3    C710805   1.826   1.145  10.647  0.6757 -0.2687  0.0699
  727TMC3    C810806   2.269   1.140  10.859  0.4451 -0.0042 -0.3529
  727TMC3    O110807   1.734   1.079  10.600 -0.3083 -0.5195  0.3756
  727TMC3    O210808   2.338   1.089  10.948 -0.2398  0.4650  0.0606
  728TMC3    C110809   1.083   3.759  15.136 -0.5098  0.1025  0.4177
  728TMC3    C210810   1.159   3.867  15.177  0.2197 -0.0403  0.7751
  728TMC3    C310811   1.253   3.910  15.089 -0.3896 -0.2849 -0.6853
  728TMC3    C410812   1.089   3.711  15.013 -0.2938 -0.9315 -1.3223
  728TMC3    C510813   1.175   3.770  14.921 -0.4527  0.0400  0.0814
  728TMC3    C610814   1.262   3.869  14.956 -0.1747  0.1186  0.1954
  728TMC3     C10815   1.000   3.710  15.244  0.0469  0.1530 -0.1285
  728TMC3     O10816   1.063   3.692  15.347  0.4397  0.1472 -0.3384
  728TMC3     H10817   1.163   3.894  15.282  2.8292 -0.1017  0.6957
  728TMC3    H110818   1.022   3.635  14.974 -0.5510 -1.1918 -0.3845
  728TMC3    H210819   1.330   3.921  14.888 -0.6816  0.0760 -0.3471
  728TMC3    C710820   1.131   3.772  14.790 -0.0880 -1.1381 -0.2104
  728TMC3    C810821   1.358   3.991  15.143 -0.3282 -0.0103 -0.7029
  728TMC3    O110822   1.088   3.666  14.747  0.4907  0.1839  0.0830
  728TMC3    O210823   1.469   3.971  15.090  0.1932  0.3350  0.2503
  729MPD2     C10824   2.437   0.488  16.395 -0.1028  0.7110 -0.4069
  729MPD2    C110825   2.536   0.401  16.430  0.3080 -0.1113  0.1918
  729MPD2    C210826   2.545   0.375  16.565 -0.1141 -0.5121 -0.0571
  729MPD2    C310827   2.449   0.422  16.655 -1.0642 -0.1232  0.5105
  729MPD2    C410828   2.338   0.493  16.612  0.3088 -0.0777  0.4716
  729MPD2    C510829   2.337   0.530  16.482  0.4185 -0.3407  0.1499
  729MPD2     H10830   2.625   0.309  16.597  1.9788  0.6614 -2.8762
  729MPD2    H110831   2.263   0.525  16.684  1.0270  0.8840  0.7872
  729MPD2    H210832   2.432   0.528  16.294 -1.7829  0.9240 -0.2434
  729MPD2    H310833   2.264   0.602  16.447 -0.0669 -0.6175  0.6049
  729MPD2     N10834   2.443   0.398  16.793 -0.7805 -0.0616  0.8511
  729MPD2    H510835   2.360   0.429  16.841 -0.8928  0.4793  0.3037
  729MPD2    N110836   2.635   0.364  16.341 -0.5301  0.6537  0.0366
  729MPD2    H710837   2.627   0.406  16.249 -3.0494 -0.2886 -0.1976
  730TMC3    C110838   2.556   0.379  16.993 -0.8981 -0.5834 -0.6550
  730TMC3    C210839   2.649   0.306  17.070  0.7047 -0.4364 -0.0694
  730TMC3    C310840   2.719   0.374  17.168  0.3124 -0.3157 -0.5574
  730TMC3    C410841   2.522   0.507  17.022  0.2087 -0.2213 -0.2395
  730TMC3    C510842   2.584   0.564  17.129 -0.0644 -0.2155 -0.4077
  730TMC3    C610843   2.686   0.501  17.202 -0.5520  0.0756 -0.0916
  730TMC3     C10844   2.548   0.341  16.862 -0.7980  0.3947 -0.6316
  730TMC3     O10845   2.661   0.306  16.816  0.5034 -0.6592  0.2983
  730TMC3     H10846   2.668   0.201  17.052 -3.0440 -1.2946  1.1269
  730TMC3    H110847   2.454   0.570  16.966  0.8054  0.6199 -0.0218
  730TMC3    H210848   2.748   0.560  17.269  1.8837 -2.0447 -0.4499
  730TMC3    C710849   2.628   0.693  17.082  0.1909  0.1035  0.3411
  730TMC3    C810850   2.865   0.357  17.160 -0.4598  0.0638  0.2662
  730TMC3    O110851   2.625   0.707  16.959  0.5680 -0.0869  0.3774
  730TMC3    O210852   2.931   0.398  17.255  0.6189 -0.0145 -0.1693
  731MPD2     C10853   2.294   3.334  11.527  0.0795  0.0202  0.2656
  731MPD2    C110854   2.379   3.231  11.506 -0.7856  0.4803 -0.0391
  731MPD2    C210855   2.416   3.154  11.615 -0.3680  0.3281  0.7279
  731MPD2    C310856   2.363   3.182  11.750 -0.3857 -0.1892 -0.0732
  731MPD2    C410857   2.278   3.284  11.763 -0.5682  0.2524 -0.0729
  731MPD2    C510858   2.240   3.355  11.655  0.3087  0.0159  0.2543
  731MPD2     H10859   2.482   3.068  11.611 -0.3326  0.2972  1.9751
  731MPD2    H110860   2.246   3.319  11.860  0.8393  1.6950 -0.1314
  731MPD2    H210861   2.268   3.396  11.442 -1.4134 -1.5560 -0.4398
  731MPD2    H310862   2.178   3.443  11.667  0.4371  0.1539 -0.1007
  731MPD2     N10863   2.418   3.112  11.864 -0.0220 -0.1113 -0.5352
  731MPD2    H510864   2.489   3.043  11.841  1.0526  1.4894 -2.0376
  731MPD2    N110865   2.442   3.222  11.382  0.4026  0.2487  0.0099
  731MPD2    H710866   2.434   3.296  11.313  1.1869  0.7381  0.4438
  732TMC3    C110867   2.576   3.124  11.215  0.4956 -0.4195  0.4977
  732TMC3    C210868   2.576   3.005  11.144  0.6287  0.1595  0.0884
  732TMC3    C310869   2.693   2.947  11.109 -0.3995 -0.2110  0.9275
  732TMC3    C410870   2.690   3.190  11.235 -0.1967  0.1974 -0.0978
  732TMC3    C510871   2.802   3.143  11.176 -0.0682  0.2865  0.5207
  732TMC3    C610872   2.807   3.022  11.110  0.0516 -0.0423 -0.8947
  732TMC3     C10873   2.507   3.108  11.340 -0.6038  0.3809  0.5373
  732TMC3     O10874   2.503   2.995  11.381  0.3687 -0.1483 -0.3030
  732TMC3     H10875   2.481   2.959  11.120 -0.0458  0.2839  2.5038
  732TMC3    H110876   2.697   3.274  11.303  1.4261  1.1879 -1.4678
  732TMC3    H210877   2.899   2.970  11.088 -0.4215 -1.6948  1.0530
  732TMC3    C710878   2.932   3.178  11.225  0.6229 -0.4147  0.5945
  732TMC3    C810879   2.707   2.807  11.140  0.4945 -0.1231  0.4801
  732TMC3    O110880   3.011   3.202  11.135  0.2849  0.3989 -0.8659
  732TMC3    O210881   2.807   2.747  11.092  0.5938  0.1695 -0.0206
  733TMC3    C110882   3.933   1.619  13.313  0.1761 -0.2689 -0.2596
  733TMC3    C210883   3.860   1.728  13.286  0.1413  0.3241  0.4714
  733TMC3    C310884   3.928   1.837  13.238 -0.5001  0.7412  0.2131
  733TMC3    C410885   4.073   1.627  13.321  0.3416  0.6937  0.0767
  733TMC3    C510886   4.132   1.745  13.295  0.7385  0.5111 -0.5586
  733TMC3    C610887   4.065   1.855  13.258  0.3169  0.4399 -0.1249
  733TMC3     C10888   3.863   1.494  13.338  0.2299  0.1982  0.7385
  733TMC3     O10889   3.740   1.495  13.315 -0.0996 -0.0885 -0.7732
  733TMC3     H10890   3.757   1.724  13.250  1.3414  1.7596 -3.1619
  733TMC3    H110891   4.135   1.545  13.357  2.9461  3.6899  2.3927
  733TMC3    H210892   4.118   1.949  13.263 -1.4867  1.3609  1.7207
  733TMC3    C710893   4.274   1.751  13.276  0.1531 -0.4843  0.9167
  733TMC3    C810894   3.860   1.918  13.137 -0.4847  1.3712 -0.3635
  733TMC3    O110895   4.347   1.692  13.351  0.6075  0.9911 -0.0714
  733TMC3    O210896   3.741   1.901  13.109  0.7635 -0.8533  0.7955
  734MPD2     C10897   0.933   3.188  12.639  0.3899 -0.2218 -0.0723
  734MPD2    C110898   0.948   3.131  12.515  0.4357  0.2836  0.2293
  734MPD2    C210899   0.965   3.218  12.409  0.3156  0.8422  0.1402
  734MPD2    C310900   0.951   3.354  12.429 -0.0954  0.0179  0.5521
  734MPD2    C410901   0.937   3.410  12.556  0.3556  0.6140  0.1371
  734MPD2    C510902   0.926   3.324  12.665 -0.3563 -0.3549 -0.2449
  734MPD2     H10903   0.988   3.188  12.308 -0.2549  0.0633  0.2400
  734MPD2    H110904   0.928   3.517  12.566 -0.8758  0.5045  0.2443
  734MPD2    H210905   0.922   3.115  12.718  1.6179  0.1313  0.4267
  734MPD2    H310906   0.909   3.356  12.767 -4.0464  1.0208 -1.2924
  734MPD2     N10907   0.955   3.435  12.305  0.0291  0.1341  0.1076
  734MPD2    H510908   0.985   3.383  12.223 -0.2021 -2.0216  1.4020
  734MPD2    N110909   0.934   2.993  12.486 -0.1059  0.6844  0.1596
  734MPD2    H710910   0.965   2.921  12.551 -0.3437  0.4932  0.0622
  735TMC3    C110911   0.906   2.810  12.338  0.5589  0.2897  0.6168
  735TMC3    C210912   0.814   2.754  12.246  0.1795 -0.2748 -0.5962
  735TMC3    C310913   0.854   2.685  12.133 -0.0389  0.0264 -0.3109
  735TMC3    C410914   1.040   2.768  12.323  0.0983 -0.4938  0.1352
  735TMC3    C510915   1.070   2.687  12.224  0.2620  0.1883 -0.0108
  735TMC3    C610916   0.984   2.641  12.127  0.3860 -0.2568 -0.2814
  735TMC3     C10917   0.892   2.946  12.362 -0.4231  0.7246  1.0791
  735TMC3     O10918   0.832   2.996  12.268  0.2690  0.4685  0.3061
  735TMC3     H10919   0.709   2.781  12.254  0.0195 -0.7195 -1.1833
  735TMC3    H110920   1.110   2.833  12.374 -1.3060  0.4683  0.8254
  735TMC3    H210921   1.017   2.597  12.034 -1.1499  0.0756 -0.9908
  735TMC3    C710922   1.214   2.674  12.197 -0.6611  0.0546  0.4973
  735TMC3    C810923   0.794   2.733  12.009  0.9688 -0.0664  0.1694
  735TMC3    O110924   1.290   2.735  12.266  0.1507 -0.4855 -0.1313
  735TMC3    O210925   0.818   2.667  11.909  0.0783 -0.4657  0.0087
  736MPD2     C10926   1.368   2.402  11.999 -0.5247  0.3039  0.0314
  736MPD2    C110927   1.360   2.521  12.071  0.4065 -1.2152  0.6686
  736MPD2    C210928   1.473   2.605  12.072 -0.1888  0.4242  0.8217
  736MPD2    C310929   1.578   2.578  11.984  0.3137  0.1489 -0.1016
  736MPD2    C410930   1.581   2.459  11.916  0.1393 -0.2495 -0.5460
  736MPD2    C510931   1.476   2.378  11.920 -0.6753 -0.1801 -0.5636
  736MPD2     H10932   1.469   2.704  12.116 -1.9193  0.9359 -0.4754
  736MPD2    H110933   1.658   2.423  11.848 -0.5159  1.1799 -2.0517
  736MPD2    H210934   1.281   2.338  11.994 -1.9001  2.1468  0.1766
  736MPD2    H310935   1.482   2.291  11.857 -0.8935  1.5553 -2.9859
  736MPD2     N10936   1.693   2.659  11.970 -0.6479 -0.1301 -0.2844
  736MPD2    H510937   1.765   2.641  11.901 -0.2884  2.4168 -0.5667
  736MPD2    N110938   1.239   2.558  12.129  0.3331 -0.8300 -0.1529
  736MPD2    H710939   1.154   2.505  12.116  1.6530 -2.5049 -1.9454
  737TMC3    C110940   1.825   2.853  11.969 -0.3053 -0.2053  0.4661
  737TMC3    C210941   1.836   2.991  11.993  0.3989  0.3173 -0.5186
  737TMC3    C310942   1.934   3.060  11.929  0.1772  0.0030  0.1549
  737TMC3    C410943   1.913   2.789  11.885 -0.0186  0.7172  0.6067
  737TMC3    C510944   2.005   2.863  11.823  0.2759  0.5614 -0.6614
  737TMC3    C610945   2.022   2.997  11.848  0.3541  0.4123  0.2599
  737TMC3     C10946   1.706   2.783  12.027  0.6526 -0.4558 -0.2922
  737TMC3     O10947   1.637   2.850  12.101 -0.1165 -0.0927  0.8110
  737TMC3     H10948   1.776   3.038  12.070  1.2938  0.4423  0.0995
  737TMC3    H110949   1.908   2.689  11.843  0.4481  1.0541 -0.2677
  737TMC3    H210950   2.105   3.052  11.805  0.7668  0.0955  0.6452
  737TMC3    C710951   2.080   2.792  11.715  0.3721  0.1976  0.0801
  737TMC3    C810952   1.931   3.205  11.934  0.1064 -0.4318 -0.1575
  737TMC3    O110953   2.100   2.674  11.723  0.1198  0.0911 -0.1617
  737TMC3    O210954   1.894   3.264  12.031  0.2969  0.4342 -0.6268
  738MPD2     C10955   2.842   1.781  15.348 -0.0463 -0.7115 -0.8166
  738MPD2    C110956   2.741   1.814  15.259  0.4056 -0.2012 -0.0818
  738MPD2    C210957   2.765   1.900  15.155  0.8133 -0.3047  1.0114
  738MPD2    C310958   2.892   1.947  15.133  0.3972  0.1454  0.3075
  738MPD2    C410959   2.994   1.907  15.217 -0.4060 -0.3761  1.1278
  738MPD2    C510960   2.968   1.828  15.320 -0.7379 -0.2833  0.6685
  738MPD2     H10961   2.677   1.939  15.106  1.9821 -1.4485 -1.9992
  738MPD2    H110962   3.099   1.930  15.206 -0.5031 -0.3574  0.2359
  738MPD2    H210963   2.839   1.704  15.424  0.2856  0.6327  0.5396
  738MPD2    H310964   3.050   1.794  15.382  1.0672  2.2462 -0.3509
  738MPD2     N10965   2.914   2.055  15.047  0.0328 -0.1373 -0.3750
  738MPD2    H510966   2.990   2.114  15.082 -0.3254  0.0120  0.1556
  738MPD2    N110967   2.605   1.781  15.274  0.1627 -0.0910  0.3235
  738MPD2    H710968   2.551   1.797  15.189  1.6104 -0.9813 -0.7599
  739TMC3    C110969   2.831   2.243  14.926  0.1169 -0.1843 -0.3644
  739TMC3    C210970   2.719   2.290  14.859 -0.3116 -0.3871  0.5309
  739TMC3    C310971   2.732   2.417  14.794  0.6874  0.7294  0.1285
  739TMC3    C410972   2.955   2.298  14.916  0.2280  0.0575  0.5562
  739TMC3    C510973   2.953   2.424  14.869  0.3343 -0.3722  0.2914
  739TMC3    C610974   2.855   2.479  14.792 -0.0065  0.4637  0.4163
  739TMC3     C10975   2.816   2.104  14.960  0.0568 -0.1049  0.2176
  739TMC3     O10976   2.724   2.039  14.912 -0.2814  0.0418 -0.1761
  739TMC3     H10977   2.624   2.240  14.865  0.0527 -1.0779  0.4750
  739TMC3    H110978   3.036   2.255  14.972  1.1797  0.1634 -0.7451
  739TMC3    H210979   2.874   2.575  14.746  0.3044 -0.7135 -1.8922
  739TMC3    C710980   3.088   2.479  14.846 -0.8209  0.0487 -0.3534
  739TMC3    C810981   2.641   2.431  14.687 -0.0864 -0.0650 -0.5284
  739TMC3    O110982   3.105   2.539  14.740 -0.5760 -0.0115 -0.0496
  739TMC3    O210983   2.534   2.371  14.708 -0.1910  0.4796 -0.0432
  740TMC3    C110984   2.363   3.391  14.501  0.3113 -0.9910 -0.4410
  740TMC3    C210985   2.360   3.276  14.571 -0.4032 -1.0865  0.1569
  740TMC3    C310986   2.455   3.179  14.546  0.1244 -0.4698  0.2394
  740TMC3    C410987   2.446   3.410  14.396  0.0716 -0.2961 -0.7049
  740TMC3    C510988   2.539   3.310  14.361 -0.4730  0.5706 -0.0399
  740TMC3    C610989   2.542   3.195  14.436  0.0167 -0.0382  0.2143
  740TMC3     C10990   2.279   3.502  14.537 -0.4210 -0.2236 -0.4980
  740TMC3     O10991   2.248   3.578  14.447 -0.2611 -0.1818 -0.4346
  740TMC3     H10992   2.274   3.260  14.633 -1.8193  0.2015 -1.4703
  740TMC3    H110993   2.437   3.509  14.352 -1.3453  0.5151  1.3433
  740TMC3    H210994   2.607   3.113  14.408  0.4113 -0.2903  1.8531
  740TMC3    C710995   2.634   3.324  14.254  0.6989 -0.2896  0.1293
  740TMC3    C810996   2.456   3.058  14.612 -0.0371  0.0765  0.0045
  740TMC3    O110997   2.733   3.258  14.274 -0.0804 -0.1124  0.0307
  740TMC3    O210998   2.528   2.965  14.578 -0.6543  0.2603  0.7151
  741TMC3    C110999   2.089   2.950  13.864 -0.7634  0.4884 -0.5752
  741TMC3    C211000   2.055   2.964  13.997  0.3166 -0.2129 -0.0232
  741TMC3    C311001   2.122   2.876  14.077 -0.1457  0.1816  0.1794
  741TMC3    C411002   2.179   2.856  13.814 -0.0176 -0.0023  0.1288
  741TMC3    C511003   2.230   2.765  13.898  0.1061  0.5649  0.0629
  741TMC3    C611004   2.206   2.778  14.033  0.7416  0.4560 -0.3446
  741TMC3     C11005   2.028   3.049  13.781 -0.3423 -0.5157  0.0526
  741TMC3     O11006   1.976   3.145  13.837 -0.5842  0.0566 -0.6090
  741TMC3     H11007   1.982   3.033  14.036  2.5542  1.3464  1.4033
  741TMC3    H111008   2.193   2.860  13.706  0.5310  0.8864  0.2310
  741TMC3    H211009   2.272   2.714  14.091  0.7482  1.1594  0.4296
  741TMC3    C711010   2.279   2.634  13.854 -0.4352  0.2053  0.0114
  741TMC3    C811011   2.058   2.846  14.202 -0.4878 -0.1354 -0.2955
  741TMC3    O111012   2.284   2.556  13.944  0.3403 -0.4585  0.7400
  741TMC3    O211013   1.935   2.842  14.204 -0.1087  0.0874  0.4089
  742TMC3    C111014   2.173   1.226  15.440 -0.6818  0.2148 -0.4087
  742TMC3    C211015   2.138   1.201  15.305 -0.1922  0.0786 -0.5578
  742TMC3    C311016   2.237   1.239  15.212  0.5930  0.7368 -0.3898
  742TMC3    C411017   2.303   1.255  15.477 -0.2057 -0.9493 -0.2933
  742TMC3    C511018   2.397   1.276  15.383  0.0293  0.2430  0.3714
  742TMC3    C611019   2.367   1.260  15.250  0.9462  0.4735  0.3220
  742TMC3     C11020   2.097   1.141  15.529  0.0461  0.0360  0.1450
  742TMC3     O11021   2.033   1.054  15.469  0.7372  0.0470  0.0439
  742TMC3     H11022   2.034   1.184  15.283 -0.9170  2.7709  0.8506
  742TMC3    H111023   2.326   1.257  15.583 -0.7109 -1.0259 -0.1837
  742TMC3    H211024   2.435   1.290  15.170 -0.2215  1.1351 -0.4181
  742TMC3    C711025   2.522   1.335  15.434 -0.1524 -0.0803  0.0978
  742TMC3    C811026   2.214   1.206  15.071  0.4197 -0.3546  0.6553
  742TMC3    O111027   2.526   1.365  15.551  0.7889  0.0412 -0.4244
  742TMC3    O211028   2.310   1.173  15.001  0.3253  0.1796  0.0498
  743MPD2     C11029   0.392   2.099   1.517  0.2368 -0.1586  0.4036
  743MPD2    C111030   0.406   2.232   1.478  0.1908 -0.2741 -0.1641
  743MPD2    C211031   0.529   2.277   1.435  0.4828  0.7441 -0.0345
  743MPD2    C311032   0.633   2.190   1.418 -0.6173 -0.2926 -0.1745
  743MPD2    C411033   0.621   2.061   1.457  0.6736  0.6925  0.9663
  743MPD2    C511034   0.501   2.017   1.508  0.8276 -0.0508 -0.4552
  743MPD2     H11035   0.541   2.382   1.410 -1.2534  1.5280  2.4805
  743MPD2    H111036   0.708   1.996   1.453 -0.6004 -0.9754  0.6374
  743MPD2    H211037   0.298   2.066   1.559  0.0250  2.2757  1.8950
  743MPD2    H311038   0.511   1.913   1.538 -0.5599  0.1767  0.7655
  743MPD2     N11039   0.745   2.248   1.353  0.2262 -0.0337  0.1482
  743MPD2    H511040   0.732   2.342   1.318 -0.6410 -0.0287  0.5055
  743MPD2    N111041   0.294   2.318   1.480  0.0454 -0.2384  0.3923
  743MPD2    H711042   0.200   2.281   1.496  0.2189 -1.0518 -0.5074
  744TMC3    C111043   0.168   2.522   1.438  0.1787  0.3529 -1.1002
  744TMC3    C211044   0.162   2.659   1.450 -0.8386  0.4064  0.5118
  744TMC3    C311045   0.072   2.721   1.369 -0.0690 -0.1987  0.3955
  744TMC3    C411046   0.085   2.449   1.352 -0.4013 -0.0194  0.4661
  744TMC3    C511047   0.004   2.516   1.267  0.2606  0.2956  0.8750
  744TMC3    C611048   4.736   2.656   1.275  0.3754 -0.2065 -0.5447
  744TMC3     C11049   0.296   2.455   1.476  0.2960  0.4946  0.5299
  744TMC3     O11050   0.397   2.529   1.492  0.1372 -0.0023  0.2692
  744TMC3     H11051   0.236   2.705   1.514  0.2096 -1.4761  0.6396
  744TMC3    H111052   0.069   2.343   1.372 -1.9216 -0.3271 -2.3525
  744TMC3    H211053   4.681   2.716   1.204  0.8696  1.7244  0.7030
  744TMC3    C711054   4.699   2.436   1.161  0.0972  0.6295  0.0127
  744TMC3    C811055   0.062   2.869   1.371  0.0363 -0.1186  0.0942
  744TMC3    O111056   4.644   2.332   1.192 -0.8552 -0.6321 -0.8901
  744TMC3    O211057   4.694   2.918   1.325  0.1309 -0.1571  0.2539
  745TMC3    C111058   3.137   0.564  14.259 -0.3650  0.8044  0.2782
  745TMC3    C211059   3.038   0.655  14.291 -0.3037 -0.3162 -0.2943
  745TMC3    C311060   2.914   0.628  14.233 -0.8957 -0.9472  0.2867
  745TMC3    C411061   3.114   0.451  14.179  0.5975 -0.0525 -0.0017
  745TMC3    C511062   2.986   0.428  14.147 -0.3879 -0.4309 -0.2218
  745TMC3    C611063   2.880   0.510  14.182 -0.2812  0.1074  0.4053
  745TMC3     C11064   3.269   0.624  14.254 -0.1859  0.6934 -0.2938
  745TMC3     O11065   3.364   0.554  14.280 -0.8115  0.1562 -0.3861
  745TMC3     H11066   3.063   0.746  14.344  2.1160 -0.2737 -1.5321
  745TMC3    H111067   3.193   0.386  14.142  2.6955  2.7608 -0.4107
  745TMC3    H211068   2.787   0.494  14.128  0.0022  1.4412 -0.4661
  745TMC3    C711069   2.956   0.369  14.020 -0.1670 -0.1844 -0.6457
  745TMC3    C811070   2.830   0.742  14.190  0.0268  0.6975  0.0565
  745TMC3    O111071   2.852   0.309  14.015  0.3598 -0.3811  0.0718
  745TMC3    O211072   2.779   0.733  14.081  0.0125 -0.0865  0.0577
  746TMC3    C111073   0.338   3.106  10.648  0.3070  0.4356  0.2254
  746TMC3    C211074   0.422   3.126  10.543  0.0089  0.3757 -0.4397
  746TMC3    C311075   0.492   3.017  10.497 -0.6486  0.5006  0.5809
  746TMC3    C411076   0.318   2.988  10.705 -0.5095  0.1822  0.1334
  746TMC3    C511077   0.383   2.881  10.653  0.1710 -0.1806 -0.3380
  746TMC3    C611078   0.482   2.889  10.556 -0.3204  0.2508  0.4987
  746TMC3     C11079   0.295   3.224  10.723  0.8272  0.5265 -0.1744
  746TMC3     O11080   0.208   3.211  10.810  0.1151  0.2949 -0.6285
  746TMC3     H11081   0.425   3.226  10.500 -0.1394  0.5257 -0.1019
  746TMC3    H111082   0.236   2.975  10.775 -1.1149 -2.0280 -0.9620
  746TMC3    H211083   0.527   2.797  10.520 -0.7507  0.3880 -0.4160
  746TMC3    C711084   0.311   2.755  10.644 -0.4014  0.3584 -0.5105
  746TMC3    C811085   0.603   3.034  10.406  0.6263 -0.0862  0.2899
  746TMC3    O111086   0.291   2.713  10.526 -0.1854 -0.4068  0.1213
  746TMC3    O211087   0.683   2.938  10.405 -0.3655  0.4555 -0.1329
  747TMC3    C111088   2.328   3.313  10.791  0.0612  0.0564  0.9100
  747TMC3    C211089   2.275   3.196  10.842 -0.3899 -0.0220 -0.3811
  747TMC3    C311090   2.240   3.185  10.979 -0.2249  0.1882  0.3026
  747TMC3    C411091   2.342   3.421  10.869 -0.0675 -0.6044 -0.4758
  747TMC3    C511092   2.328   3.403  11.006 -0.1920 -0.0856 -0.5445
  747TMC3    C611093   2.275   3.293  11.061  0.6432  0.1830 -0.3420
  747TMC3     C11094   2.346   3.325  10.650  0.5431  0.2476 -0.6374
  747TMC3     O11095   2.394   3.429  10.607 -0.8520 -0.5704 -0.7242
  747TMC3     H11096   2.255   3.108  10.782  0.9879  0.7450 -1.9489
  747TMC3    H111097   2.387   3.511  10.830  1.5162 -1.6786 -1.0860
  747TMC3    H211098   2.260   3.289  11.168 -0.9283 -0.9828 -0.5931
  747TMC3    C711099   2.454   3.440  11.071  0.0478  0.1369 -0.2983
  747TMC3    C811100   2.202   3.050  11.029  0.3962 -0.7405  0.1894
  747TMC3    O111101   2.460   3.434  11.194  0.0021 -0.0420  0.2228
  747TMC3    O211102   2.217   2.955  10.947  0.2541  0.4309 -0.6806
  748MPD2     C11103   3.872   3.910   0.766  0.3674  1.2194  0.4616
  748MPD2    C111104   3.929   3.913   0.896 -0.2630 -0.2684  0.2654
  748MPD2    C211105   4.018   4.015   0.931 -0.4006  0.2403  0.9532
  748MPD2    C311106   4.046   4.109   0.841  0.7790  0.0515  0.0120
  748MPD2    C411107   3.984   4.111   0.713  0.2545  0.2750  0.2379
  748MPD2    C511108   3.892   4.012   0.680 -0.7869  0.3771  0.1188
  748MPD2     H11109   4.065   4.026   1.028  3.2689  1.7789 -1.0083
  748MPD2    H111110   3.994   4.194   0.645 -1.1038 -0.0721 -0.3900
  748MPD2    H211111   3.815   3.826   0.729 -1.0350  2.5128 -0.3090
  748MPD2    H311112   3.847   4.012   0.582  3.1677 -1.0352 -1.6911
  748MPD2     N11113   4.155   4.194   0.882 -0.5014 -0.3627  0.1440
  748MPD2    H511114   4.193   4.188   0.976  2.1839 -3.8990 -1.1848
  748MPD2    N111115   3.908   3.803   0.986  0.4094  0.6210 -0.4863
  748MPD2    H711116   3.868   3.722   0.940  1.5421 -0.2077  0.0170
  749TMC3    C111117   4.353   4.325   0.869 -0.6350  0.7109  0.1759
  749TMC3    C211118   4.394   4.270   0.986  0.0773 -0.0787 -0.1567
  749TMC3    C311119   4.524   4.276   1.023 -0.2109 -0.5308  0.4833
  749TMC3    C411120   4.433   4.410   0.800  0.5392 -1.0042  0.9652
  749TMC3    C511121   4.561   4.420   0.842 -0.3023  0.4998  0.9849
  749TMC3    C611122   4.615   4.348   0.945  0.4149  0.1783 -0.3518
  749TMC3     C11123   4.221   4.288   0.805 -0.0571 -0.3012 -0.2517
  749TMC3     O11124   4.195   4.324   0.694 -0.2285 -0.9418  0.4644
  749TMC3     H11125   4.341   4.186   1.029  0.9478 -0.0611  0.9649
  749TMC3    H111126   4.394   4.463   0.714  1.8387 -1.9887 -0.2477
  749TMC3    H211127   4.721   4.348   0.965  0.2443 -0.0378  0.5743
  749TMC3    C711128   4.642   4.515   0.768  0.0135 -0.0820  0.8711
  749TMC3    C811129   4.575   4.195   1.131 -0.0540  0.6807  1.1720
  749TMC3    O111130   4.738   4.570   0.825  0.2826 -0.1188  0.5715
  749TMC3    O211131   4.513   4.182   1.235 -0.5999  0.5724 -0.2586
  750MPD2     C11132   0.345   0.375  11.774 -0.1263  0.2727 -0.7042
  750MPD2    C111133   0.266   0.262  11.792 -0.2623  0.0255 -0.5435
  750MPD2    C211134   0.246   0.171  11.692  0.9203 -0.4387 -0.0149
  750MPD2    C311135   0.292   0.196  11.563  0.7443 -0.2271 -0.6131
  750MPD2    C411136   0.386   0.300  11.545  0.6831  0.1051  0.0626
  750MPD2    C511137   0.407   0.384  11.646 -0.3056  0.0001 -0.2673
  750MPD2     H11138   0.177   0.089  11.711  1.0991 -1.1060 -2.1926
  750MPD2    H111139   0.429   0.328  11.449  1.9903  1.4558  1.0495
  750MPD2    H211140   0.370   0.444  11.854 -0.6824 -0.2121 -0.1090
  750MPD2    H311141   0.468   0.470  11.620 -0.9106  0.5070 -0.0184
  750MPD2     N11142   0.249   0.121  11.454  0.1936  0.6612  0.0040
  750MPD2    H511143   0.259   0.167  11.364  1.7834 -1.7292 -1.0332
  750MPD2    N111144   0.186   0.264  11.913  0.1180  0.3605 -0.1805
  750MPD2    H711145   0.188   0.344  11.976 -0.3181  1.1690 -1.1918
  751TMC3    C111146   0.087   4.726  11.337  0.2748  0.0377  0.1070
  751TMC3    C211147   4.706   4.658  11.342 -0.3513 -0.8550 -0.8845
  751TMC3    C311148   4.652   4.622  11.226  0.0319 -0.2268  0.5043
  751TMC3    C411149   0.158   0.007  11.221  0.3466  0.5080  0.5905
  751TMC3    C511150   0.112   4.695  11.103 -0.0180  0.3245  0.2405
  751TMC3    C611151   4.727   4.643  11.114  0.5425 -0.0150 -0.1506
  751TMC3     C11152   0.146   0.029  11.461  0.0020  0.1201  0.1345
  751TMC3     O11153   0.101   4.706  11.555 -0.5589 -0.4909  0.7354
  751TMC3     H11154   4.657   4.646  11.438 -0.9112  0.8731 -0.9487
  751TMC3    H111155   0.262   0.037  11.225  0.5567 -0.1773  0.2439
  751TMC3    H211156   4.681   4.617  11.019  1.4739 -1.1852 -0.2813
  751TMC3    C711157   0.198   4.605  11.033 -0.8285 -0.1651 -0.0180
  751TMC3    C811158   4.600   4.485  11.222 -0.1172 -0.1462  0.7473
  751TMC3    O111159   0.310   4.650  11.002  0.0311  0.0991 -0.2951
  751TMC3    O211160   4.638   4.415  11.129 -0.2920 -0.7422 -0.6454
  752TMC3    C111161   3.329   4.595  17.048  0.6257 -0.0668  0.7008
  752TMC3    C211162   3.408   4.540  17.148  1.0574 -0.1134 -0.9897
  752TMC3    C311163   3.356   4.520  17.276  0.3749 -0.2293 -1.1308
  752TMC3    C411164   3.195   4.625  17.077  0.5526  0.0330  0.1474
  752TMC3    C511165   3.155   4.608  17.205  0.2030 -0.2865 -0.5789
  752TMC3    C611166   3.229   4.556  17.307  0.0614 -0.0902  1.0485
  752TMC3     C11167   3.358   4.550  16.914  0.1512 -0.2471  0.2693
  752TMC3     O11168   3.470   4.495  16.902 -0.6422 -0.7274 -0.2930
  752TMC3     H11169   3.507   4.505  17.121  2.3007  2.9503 -0.2997
  752TMC3    H111170   3.141   4.690  17.008 -0.0921 -1.2601 -0.5717
  752TMC3    H211171   3.187   4.531  17.405 -0.6093 -0.9094  0.5542
  752TMC3    C711172   3.043   4.689  17.247  0.1746 -0.1270  0.0998
  752TMC3    C811173   3.410   4.409  17.352 -0.0190  0.2653 -0.2889
  752TMC3    O111174   2.963   4.720  17.159  0.1830 -0.2185 -0.4959
  752TMC3    O211175   3.353   4.390  17.463 -0.1934 -0.1824 -0.1979
  753TMC3    C111176   1.175   0.699  13.696 -0.3248  0.0227 -0.0841
  753TMC3    C211177   1.266   0.675  13.797 -0.2509 -0.2534  0.0427
  753TMC3    C311178   1.273   0.553  13.863 -0.0382 -0.2414 -0.7468
  753TMC3    C411179   1.083   0.605  13.668 -0.5365 -0.0359  0.5786
  753TMC3    C511180   1.092   0.485  13.736 -0.1213 -0.1408  0.4857
  753TMC3    C611181   1.191   0.452  13.827  1.1162  0.4998 -0.0651
  753TMC3     C11182   1.147   0.833  13.650  0.1943 -0.0581 -0.2548
  753TMC3     O11183   1.040   0.860  13.597 -0.2558 -0.2740 -0.0349
  753TMC3     H11184   1.340   0.747  13.829 -1.0983 -0.1360  1.7963
  753TMC3    H111185   1.011   0.630  13.592  3.0640  0.7662 -2.5597
  753TMC3    H211186   1.199   0.356  13.878 -3.3821 -0.9314 -2.1107
  753TMC3    C711187   0.984   0.393  13.731  0.4477 -0.1530  0.1016
  753TMC3    C811188   1.352   0.539  13.983  0.3724  0.4491  0.3165
  753TMC3    O111189   1.019   0.275  13.743  0.3933  0.4299  0.1794
  753TMC3    O211190   1.372   0.424  14.023 -0.0793  0.3095 -0.2128
  754MPD2     C11191   4.277   4.411  13.189 -0.5226 -0.4245  0.2317
  754MPD2    C111192   4.346   4.302  13.142  1.2108 -0.2107  0.0422
  754MPD2    C211193   4.279   4.194  13.109  0.4170 -0.5404 -0.2884
  754MPD2    C311194   4.146   4.179  13.138 -0.6623  0.2457  0.3780
  754MPD2    C411195   4.069   4.285  13.179 -0.4998  0.6243  0.3752
  754MPD2    C511196   4.137   4.400  13.199  0.0761 -0.2518  0.4008
  754MPD2     H11197   4.337   4.114  13.064 -2.3775 -2.7126  0.0101
  754MPD2    H111198   3.963   4.284  13.202 -0.7652  2.0399 -0.7575
  754MPD2    H211199   4.333   4.501  13.212  0.6119 -0.4750 -2.2219
  754MPD2    H311200   4.077   4.486  13.225  0.2830 -0.1161  0.4317
  754MPD2     N11201   4.073   4.055  13.135  0.6656  0.2599 -0.1210
  754MPD2    H511202   3.974   4.064  13.153  0.9258 -0.6302  1.7920
  754MPD2    N111203   4.486   4.314  13.125 -0.0920 -0.4283  0.3921
  754MPD2    H711204   4.509   4.412  13.109  0.3897 -0.7047 -0.6152
  755MPD2     C11205   3.215   4.114  12.925 -0.4799 -0.2697 -0.1863
  755MPD2    C111206   3.266   4.081  13.048 -0.4164 -0.2805 -0.0556
  755MPD2    C211207   3.388   4.020  13.054  0.1483 -0.1477  0.9986
  755MPD2    C311208   3.453   3.987  12.938  0.5193  0.4963  0.0735
  755MPD2    C411209   3.399   4.019  12.818 -0.3916 -0.2750  0.4185
  755MPD2    C511210   3.280   4.083  12.813 -0.0559  0.4336  0.4539
  755MPD2     H11211   3.428   4.006  13.153  0.7399  1.7941  1.0418
  755MPD2    H111212   3.443   3.994  12.722 -0.5490  1.9549 -0.2338
  755MPD2    H211213   3.122   4.170  12.919 -0.8519 -1.0046 -1.2295
  755MPD2    H311214   3.245   4.109  12.714 -0.5274 -1.4203  0.1337
  755MPD2     N11215   3.583   3.919  12.935 -0.3299 -0.7763  0.3696
  755MPD2    H511216   3.619   3.903  12.841 -1.3992 -1.8091  0.1438
  755MPD2    N111217   3.192   4.103  13.168 -0.3868 -0.0445  0.1529
  755MPD2    H711218   3.238   4.075  13.254 -0.1381  1.0267  0.3668
  756MPD2     C11219   4.664   0.762  10.012  0.4488 -0.3667  0.1759
  756MPD2    C111220   4.562   0.714  10.091  0.1661  0.6950 -0.1443
  756MPD2    C211221   4.432   0.694  10.040 -0.3147  0.7365  0.0490
  756MPD2    C311222   4.407   0.729   9.910  0.4397  0.3313  0.0485
  756MPD2    C411223   4.517   0.784   9.834  0.2268 -0.4090 -0.2475
  756MPD2    C511224   4.640   0.799   9.884 -0.5331 -0.0537  0.0462
  756MPD2     H11225   4.357   0.660  10.110 -1.7396  1.0541 -1.3397
  756MPD2    H111226   4.508   0.821   9.732 -0.1604  1.4560  0.4758
  756MPD2    H211227   0.024   0.790  10.048  0.6581  0.1652 -0.8221
  756MPD2    H311228   4.727   0.846   9.838 -0.1886 -1.6939 -0.9638
  756MPD2     N11229   4.274   0.713   9.851  0.1271 -0.5452  0.4377
  756MPD2    H511230   4.205   0.671   9.912 -0.8582  1.0915  0.4673
  756MPD2    N111231   4.571   0.688  10.230  0.5673 -0.1640  0.0144
  756MPD2    H711232   4.494   0.653  10.287 -0.4369  0.0731 -1.2106
  757MPD2     C11233   3.470   0.116   9.760  0.0216  0.0450  0.6649
  757MPD2    C111234   3.601   0.101   9.782 -0.3971  0.7018  0.0505
  757MPD2    C211235   3.684   0.213   9.758  0.7289  0.2833  0.0866
  757MPD2    C311236   3.640   0.338   9.718  0.8514 -0.1933 -0.4832
  757MPD2    C411237   3.503   0.352   9.704  0.0219 -0.6101 -0.3738
  757MPD2    C511238   3.426   0.241   9.730 -0.0662  0.2314 -0.6018
  757MPD2     H11239   3.792   0.204   9.754  0.8036  0.8710  0.7429
  757MPD2    H111240   3.455   0.448   9.687  1.9401  0.3399 -0.4421
  757MPD2    H211241   3.390   0.043   9.767 -1.1121  1.2652  0.5176
  757MPD2    H311242   3.319   0.255   9.724  0.0718  1.1901 -0.8618
  757MPD2     N11243   3.723   0.461   9.696 -0.4269 -0.0725  0.3902
  757MPD2    H511244   3.680   0.549   9.672 -0.1011 -0.5448 -1.9516
  757MPD2    N111245   3.653   4.713   9.821 -0.2566  0.4992 -0.1782
  757MPD2    H711246   3.585   4.639   9.836 -0.0429  0.8627  2.6593
  758MPD2     C11247   0.004   4.520  15.379  0.2452 -0.1579 -0.0266
  758MPD2    C111248   0.110   4.492  15.465  0.5942 -0.8300  0.1548
  758MPD2    C211249   0.115   4.584  15.577  0.6314  0.5549 -0.1750
  758MPD2    C311250   0.024   4.685  15.590  0.0859 -0.4294  0.1641
  758MPD2    C411251   4.656   4.694  15.504  0.4270 -0.6493 -0.4239
  758MPD2    C511252   4.644   4.614  15.401 -0.0956 -1.3902  0.4850
  758MPD2     H11253   0.181   4.553  15.657 -1.7081 -0.1426  1.4870
  758MPD2    H111254   4.568   0.018  15.509  1.8477  1.2332  1.2063
  758MPD2    H211255   4.735   4.457  15.291  0.4075 -0.8086  0.4199
  758MPD2    H311256   4.561   4.607  15.331 -0.1496 -1.1593  0.5244
  758MPD2     N11257   0.024   0.026  15.712 -0.5392 -1.1383  0.3787
  758MPD2    H511258   4.675   0.077  15.725  0.8315  1.4421 -0.5765
  758MPD2    N111259   0.189   4.374  15.448 -1.0653  0.2112 -0.2173
  758MPD2    H711260   0.172   4.314  15.367  2.0852  2.3695 -2.4565
  759MPD2     C11261   3.960   3.254  10.634 -1.1125  0.1890 -0.0001
  759MPD2    C111262   3.978   3.220  10.497 -0.0208  0.7774  0.4831
  759MPD2    C211263   4.026   3.314  10.408  0.1877  0.1762  0.4744
  759MPD2    C311264   4.049   3.444  10.447  0.9188  0.2595 -0.6930
  759MPD2    C411265   4.029   3.481  10.579 -0.5394 -0.6961 -0.6707
  759MPD2    C511266   3.982   3.384  10.670  1.6379  0.1412 -0.1026
  759MPD2     H11267   4.045   3.276  10.308  0.4026  0.5206  0.3847
  759MPD2    H111268   4.058   3.579  10.616 -0.4423 -0.9972  0.0602
  759MPD2    H211269   3.921   3.184  10.708  1.5704  0.8087  1.9896
  759MPD2    H311270   3.972   3.404  10.776  2.0161 -1.1704  0.1723
  759MPD2     N11271   4.097   3.526  10.340  0.5243  0.6310  0.1238
  759MPD2    H511272   4.124   3.479  10.254  1.9254 -1.9793  1.9793
  759MPD2    N111273   3.968   3.084  10.445  0.6227 -0.2521  0.3587
  759MPD2    H711274   4.002   3.056  10.353 -2.1691 -0.7356 -0.5261
  760MPD2     C11275   3.035   4.491  11.506  0.1622  1.2381  0.5461
  760MPD2    C111276   3.075   4.588  11.414  0.2538  0.1031  0.3128
  760MPD2    C211277   3.125   4.533  11.292  0.7962 -0.2207 -0.0574
  760MPD2    C311278   3.153   4.399  11.271  0.2667  0.1612 -0.0905
  760MPD2    C411279   3.104   4.307  11.363 -0.0068 -1.0177 -0.0212
  760MPD2    C511280   3.049   4.360  11.479  0.1063 -0.1527  0.4148
  760MPD2     H11281   3.147   4.602  11.211 -0.2507  1.5257  1.1480
  760MPD2    H111282   3.130   4.205  11.337  1.6392 -0.4162 -0.7130
  760MPD2    H211283   2.984   4.515  11.598  0.0245 -2.6338  1.4547
  760MPD2    H311284   3.008   4.290  11.550 -0.7885  1.5170  1.5314
  760MPD2     N11285   3.234   4.350  11.158 -0.6011  0.0722 -0.1493
  760MPD2    H511286   3.243   4.249  11.150  1.6600  0.1968  1.0186
  760MPD2    N111287   3.076   4.729  11.430  0.4295 -0.4257 -0.2240
  760MPD2    H711288   3.131   0.053  11.373  0.8969 -1.7982 -1.2782
  761MPD2     C11289   4.328   4.110  11.423  0.7454 -0.0842  0.0883
  761MPD2    C111290   4.405   4.117  11.309  0.0791 -0.7937 -0.3907
  761MPD2    C211291   4.454   4.236  11.263  0.1375 -0.1536 -0.1617
  761MPD2    C311292   4.439   4.345  11.345  0.1858 -0.2010 -0.3198
  761MPD2    C411293   4.361   4.347  11.458 -0.2175 -0.0584 -0.3299
  761MPD2    C511294   4.304   4.229  11.491 -0.4123  0.6572 -0.4338
  761MPD2     H11295   4.505   4.234  11.167  2.6844  1.7209  1.1141
  761MPD2    H111296   4.358   4.427  11.530  0.5617  0.6134 -1.0500
  761MPD2    H211297   4.284   4.019  11.463  1.2961  0.0407  0.9869
  761MPD2    H311298   4.244   4.216  11.580  0.6938 -1.6845 -0.0287
  761MPD2     N11299   4.508   4.466  11.326  0.4485  0.0835  0.0393
  761MPD2    H511300   4.486   4.545  11.385  0.6568  1.6359 -1.9950
  761MPD2    N111301   4.445   3.994  11.253  0.1156 -0.1736 -0.4234
  761MPD2    H711302   4.418   3.907  11.296  2.4795 -1.3784 -1.3458
  762MPD2     C11303   4.703   3.282  10.674 -0.0333 -0.2332 -0.2908
  762MPD2    C111304   4.709   3.422  10.694  0.7973 -0.1617  1.1080
  762MPD2    C211305   0.048   3.491  10.599  0.0396  0.7657 -0.1562
  762MPD2    C311306   0.097   3.424  10.489 -0.6461  0.6457  0.2750
  762MPD2    C411307   0.065   3.289  10.460 -0.7573  0.5473  0.1127
  762MPD2    C511308   4.737   3.217  10.550  0.5730  0.4085 -0.5907
  762MPD2     H11309   0.069   3.597  10.608  0.5240  0.6218  0.4151
  762MPD2    H111310   0.090   3.231  10.371  0.1341 -0.6946  1.1683
  762MPD2    H211311   4.641   3.227  10.744  1.4207  0.0798  1.2432
  762MPD2    H311312   4.717   3.111  10.539  0.2244  0.1868  2.0807
  762MPD2     N11313   0.184   3.496  10.401  0.2800 -0.2309 -0.5571
  762MPD2    H511314   0.182   3.598  10.401  0.6932 -0.2239 -1.1551
  762MPD2    N111315   4.648   3.476  10.806 -0.5095 -0.3385  0.3640
  762MPD2    H711316   4.598   3.407  10.862  0.1146 -0.9554  0.1639
  763MPD2     C11317   1.091   0.128  16.139 -0.9384  0.6765  0.4254
  763MPD2    C111318   1.216   0.102  16.083 -0.1597  0.0311 -0.3826
  763MPD2    C211319   1.307   0.205  16.087 -0.5718 -0.3177 -0.9070
  763MPD2    C311320   1.271   0.325  16.143  0.3641 -0.6404 -0.8008
  763MPD2    C411321   1.145   0.342  16.190  0.4933  0.5007 -0.0987
  763MPD2    C511322   1.055   0.243  16.191  0.3481 -0.3453 -0.0079
  763MPD2     H11323   1.410   0.196  16.057 -0.7142 -1.0045 -1.2103
  763MPD2    H111324   1.113   0.436  16.233 -0.1540  0.2614 -0.0630
  763MPD2    H211325   1.009   0.058  16.125  0.3325 -0.4974 -1.2234
  763MPD2    H311326   0.952   0.273  16.205  1.2780  2.6695  0.2971
  763MPD2     N11327   1.365   0.434  16.140 -0.1784 -0.3021  0.1693
  763MPD2    H511328   1.447   0.416  16.083 -1.4121  0.7090 -1.9575
  763MPD2    N111329   1.243   4.715  16.016  0.2063 -0.0839  0.2545
  763MPD2    H711330   1.174   4.640  16.016 -0.3911  0.4723  1.8532
  764MPD2     C11331   4.414   1.443  16.830 -0.6421  0.2690 -0.0721
  764MPD2    C111332   4.320   1.368  16.889  0.1141 -0.4449  0.3083
  764MPD2    C211333   4.356   1.267  16.977  0.5121 -0.2001 -0.4019
  764MPD2    C311334   4.486   1.257  17.027 -0.0213 -0.6523 -0.1528
  764MPD2    C411335   4.578   1.352  16.975  0.2889 -0.2819 -0.2767
  764MPD2    C511336   4.546   1.436  16.870  0.7203 -0.2949 -0.1445
  764MPD2     H11337   4.273   1.209  17.016  0.6135 -1.0453 -1.4380
  764MPD2    H111338   4.679   1.365  17.012 -0.1278 -0.7132  1.0134
  764MPD2    H211339   4.392   1.496  16.738 -1.9411  1.4589  0.9408
  764MPD2    H311340   4.607   1.519  16.834  0.0438  0.9235  1.4770
  764MPD2     N11341   4.519   1.152  17.119  0.1500  0.3208 -0.2871
  764MPD2    H511342   4.443   1.100  17.161  0.0113 -0.9639 -2.1121
  764MPD2    N111343   4.190   1.380  16.849  1.2161  1.0184 -0.2278
  764MPD2    H711344   4.122   1.306  16.867  1.8682  0.2521 -0.8989
  765MPD2     C11345   4.650   4.246  15.675 -0.6666 -1.2695 -0.1551
  765MPD2    C111346   4.549   4.198  15.591 -0.2320 -0.2981 -0.1240
  765MPD2    C211347   4.572   4.082  15.515  0.7705 -0.9909 -0.1920
  765MPD2    C311348   4.687   4.011  15.529 -0.3922 -0.3421 -0.1503
  765MPD2    C411349   0.049   4.060  15.616  0.1956 -0.1515  0.0123
  765MPD2    C511350   0.022   4.172  15.683 -0.5016  0.4811 -0.2077
  765MPD2     H11351   4.507   4.037  15.441  1.3263  2.4022 -2.7420
  765MPD2    H111352   0.130   3.993  15.640  0.1915 -0.6144 -1.2442
  765MPD2    H211353   4.631   4.326  15.746 -0.2982  0.2556 -1.7861
  765MPD2    H311354   0.090   4.201  15.762 -0.7582 -0.8904  0.5199
  765MPD2     N11355   4.694   3.895  15.452  0.1150 -0.7543 -0.8598
  765MPD2    H511356   4.606   3.874  15.407  0.2632 -4.8053  0.7595
  765MPD2    N111357   4.419   4.259  15.591  0.4743  0.0607 -1.0275
  765MPD2    H711358   4.408   4.342  15.649  0.2572 -0.2696 -0.5940
  766MPD2     C11359   3.648   4.028  15.343 -0.2685 -0.6261 -0.2519
  766MPD2    C111360   3.788   4.009  15.340 -0.2829  0.3781  0.6950
  766MPD2    C211361   3.844   3.901  15.279  0.1055 -0.5825  0.8574
  766MPD2    C311362   3.759   3.809  15.217 -0.1181  0.1322 -0.3813
  766MPD2    C411363   3.623   3.830  15.211  0.1990  0.7443 -0.7208
  766MPD2    C511364   3.566   3.934  15.284 -0.3946 -0.3739  0.0569
  766MPD2     H11365   3.951   3.887  15.280  0.1216 -0.6221 -1.4139
  766MPD2    H111366   3.560   3.762  15.156 -2.0339  2.1077  0.1292
  766MPD2    H211367   3.602   4.112  15.393 -0.6784 -1.1009  0.1714
  766MPD2    H311368   3.459   3.951  15.289 -0.4543 -1.0375  0.9668
  766MPD2     N11369   3.822   3.709  15.125  0.0371  0.5101  0.3447
  766MPD2    H511370   3.764   3.662  15.056 -0.7342  0.7257  0.8371
  766MPD2    N111371   3.882   4.111  15.386  0.1132  0.1615  0.1935
  766MPD2    H711372   3.982   4.091  15.381 -0.4040 -2.0083 -1.4026
  767MPD2     C11373   3.505   4.008  14.902  0.4972  0.4325  0.7691
  767MPD2    C111374   3.635   3.976  14.876 -0.5439  0.1360  0.7408
  767MPD2    C211375   3.665   3.892  14.771  0.1681  0.3030  0.1063
  767MPD2    C311376   3.565   3.828  14.702  0.2731 -0.2620  0.6124
  767MPD2    C411377   3.437   3.851  14.735 -0.2507 -0.0054 -0.6495
  767MPD2    C511378   3.406   3.944  14.833 -0.1429 -0.0633  0.5237
  767MPD2     H11379   3.769   3.870  14.753  0.1841 -0.8894  1.5660
  767MPD2    H111380   3.362   3.786  14.692 -0.2965 -0.1896 -0.2966
  767MPD2    H211381   3.472   4.070  14.984 -0.0408 -0.8400  1.5097
  767MPD2    H311382   3.302   3.953  14.859 -0.5221  0.5970 -1.2207
  767MPD2     N11383   3.600   3.738  14.599 -0.3632  0.2506 -0.3616
  767MPD2    H511384   3.699   3.718  14.605 -0.2055  0.3820 -2.5187
  767MPD2    N111385   3.739   4.045  14.947 -0.1850 -0.8612 -0.0059
  767MPD2    H711386   3.697   4.103  15.019 -1.6236 -0.7309 -0.9551
  768MPD2     C11387   0.164   2.580  10.121 -0.3985  0.3232 -0.2344
  768MPD2    C111388   0.144   2.461  10.192  0.5223 -0.7285  0.9587
  768MPD2    C211389   0.239   2.420  10.284 -0.7859  0.6804  0.6998
  768MPD2    C311390   0.357   2.487  10.297 -0.6351  0.8696 -0.2102
  768MPD2    C411391   0.374   2.602  10.216 -0.3927  0.8173  0.2139
  768MPD2    C511392   0.281   2.645  10.119  0.5275  0.1605 -0.5695
  768MPD2     H11393   0.226   2.324  10.334  0.9093 -0.0304 -0.2081
  768MPD2    H111394   0.471   2.651  10.221 -0.0379  0.5225 -3.9745
  768MPD2    H211395   0.079   2.619  10.066  0.3088  1.3802 -0.5889
  768MPD2    H311396   0.294   2.737  10.063  0.6807  0.2821 -0.3367
  768MPD2     N11397   0.454   2.466  10.393  0.1304 -0.4435  0.2837
  768MPD2    H511398   0.533   2.529  10.407  1.0517 -1.1997 -1.4461
  768MPD2    N111399   0.022   2.388  10.207 -0.1623 -0.1112 -0.2554
  768MPD2    H711400   0.034   2.313  10.275 -2.8495 -0.0287  0.2879
  769MPD2     C11401   0.490   0.614  14.661 -0.0876  0.1998 -0.1923
  769MPD2    C111402   0.474   0.534  14.777  0.7577 -0.7534  0.7197
  769MPD2    C211403   0.538   0.569  14.897 -0.1327 -0.6680 -0.3983
  769MPD2    C311404   0.613   0.683  14.905  0.1580  0.2781  0.2569
  769MPD2    C411405   0.615   0.765  14.786  0.1762 -0.0180  0.1819
  769MPD2    C511406   0.547   0.735  14.668 -0.5879 -0.3458  0.8558
  769MPD2     H11407   0.528   0.514  14.990  0.4526 -1.7590 -0.9850
  769MPD2    H111408   0.672   0.857  14.784  0.0265  0.0416 -1.3377
  769MPD2    H211409   0.452   0.583  14.564 -0.1583  0.6249 -0.2980
  769MPD2    H311410   0.560   0.802  14.584  1.2922 -0.7764  0.8032
  769MPD2     N11411   0.682   0.717  15.025 -0.4869  0.3075 -0.2220
  769MPD2    H511412   0.659   0.662  15.108 -0.5966 -1.3811 -1.3765
  769MPD2    N111413   0.389   0.419  14.760  0.3179 -0.2820  0.5037
  769MPD2    H711414   0.354   0.400  14.666  1.4717 -1.2248  0.2536
  770MPD2     C11415   0.559   4.122  14.612 -0.0999  0.6745 -0.5521
  770MPD2    C111416   0.434   4.151  14.560  0.4292 -0.6426  0.2218
  770MPD2    C211417   0.370   4.269  14.590 -0.4572 -0.4185 -0.3095
  770MPD2    C311418   0.434   4.355  14.675  0.1368 -0.4115  0.0592
  770MPD2    C411419   0.556   4.332  14.724 -0.4914 -0.1507 -0.1100
  770MPD2    C511420   0.615   4.216  14.693 -0.2298  0.2284 -0.0612
  770MPD2     H11421   0.280   4.310  14.544 -0.3820 -0.6350 -0.6521
  770MPD2    H111422   0.609   4.400  14.790 -1.6679  0.3488  0.3210
  770MPD2    H211423   0.608   4.026  14.606 -2.2354 -0.4413 -0.1942
  770MPD2    H311424   0.706   4.193  14.748 -0.8337  2.7779  2.0565
  770MPD2     N11425   0.375   4.484  14.695 -0.1848  0.6178  0.5005
  770MPD2    H511426   0.284   4.500  14.653 -0.4971  1.2965  1.4198
  770MPD2    N111427   0.369   4.053  14.478  0.2917 -0.4923 -0.1604
  770MPD2    H711428   0.421   3.968  14.460 -2.6065 -1.9465 -1.7012
  771MPD2     C11429   0.830   2.555  14.008  0.4584  0.8963 -0.2133
  771MPD2    C111430   0.919   2.603  13.912  0.2589  0.1062  0.8724
  771MPD2    C211431   0.954   2.525  13.803  0.5621 -0.2160  0.4106
  771MPD2    C311432   0.902   2.396  13.800  0.8515  0.2513 -0.0986
  771MPD2    C411433   0.815   2.348  13.901  0.0275 -0.9829 -0.8615
  771MPD2    C511434   0.773   2.433  13.999  0.2352  0.3167  0.5378
  771MPD2     H11435   1.036   2.551  13.736 -0.8980 -0.5967 -1.5241
  771MPD2    H111436   0.782   2.245  13.910  0.0253 -0.9316 -0.2808
  771MPD2    H211437   0.805   2.612  14.097  1.5790  1.5109 -0.2919
  771MPD2    H311438   0.705   2.405  14.078 -1.6589 -1.6175 -1.7687
  771MPD2     N11439   0.953   2.306  13.702 -0.0698  0.5228  0.7924
  771MPD2    H511440   1.024   2.338  13.637  1.1687 -2.1671  0.7920
  771MPD2    N111441   0.972   2.733  13.920 -0.1879  0.2162  0.4174
  771MPD2    H711442   1.039   2.765  13.851 -1.0171 -0.6220 -0.7619
  772MPD2     C11443   0.676   3.513  13.931  0.1766  0.1228 -0.0726
  772MPD2    C111444   0.662   3.375  13.915 -0.5245 -0.2589 -0.0893
  772MPD2    C211445   0.535   3.331  13.876 -0.0828 -0.9384 -0.1778
  772MPD2    C311446   0.440   3.426  13.845 -0.1648 -0.0444 -0.0716
  772MPD2    C411447   0.459   3.557  13.870 -1.2600 -0.1667  0.1962
  772MPD2    C511448   0.578   3.600  13.922 -0.6301  0.5246 -0.6800
  772MPD2     H11449   0.534   3.223  13.860  0.9418 -0.7180 -1.7503
  772MPD2    H111450   0.375   3.622  13.846 -0.8735  0.1106 -0.4160
  772MPD2    H211451   0.762   3.554  13.984 -0.2608  3.0876 -1.6534
  772MPD2    H311452   0.603   3.704  13.938 -1.2425  0.6432 -0.5057
  772MPD2     N11453   0.319   3.383  13.782  0.4776  0.1631  0.1224
  772MPD2    H511454   0.245   3.451  13.791 -0.0685 -0.4650  0.3634
  772MPD2    N111455   0.769   3.281  13.935  0.4296 -0.1000  0.0900
  772MPD2    H711456   0.754   3.181  13.933  2.6951 -0.4195 -0.6018
  773MPD2     C11457   0.473   0.425  17.414 -0.0146 -0.0370 -0.0401
  773MPD2    C111458   0.420   0.305  17.379  0.5756 -0.1585 -0.3131
  773MPD2    C211459   0.437   0.189  17.454  0.1760 -0.4062 -0.6272
  773MPD2    C311460   0.519   0.190  17.571  0.4375  0.0776 -0.5234
  773MPD2    C411461   0.579   0.310  17.600 -0.4209 -0.1475  0.8699
  773MPD2    C511462   0.564   0.418  17.521 -0.9073  0.3865  0.2852
  773MPD2     H11463   0.387   0.095  17.437 -1.9243  0.6776 -0.4629
  773MPD2    H111464   0.653   0.312  17.679  0.4665 -1.4453  0.0702
  773MPD2    H211465   0.458   0.516  17.357 -0.4510  1.0487  1.8207
  773MPD2    H311466   0.610   0.511  17.550 -0.0654  0.4682 -1.2806
  773MPD2     N11467   0.526   0.077  17.653 -0.4091 -0.5343 -0.0621
  773MPD2    H511468   0.467   4.737  17.627  1.7500 -2.7978  1.8066
  773MPD2    N111469   0.335   0.294  17.260 -0.0754 -0.2142 -0.1776
  773MPD2    H711470   0.307   0.201  17.233  2.7725  0.1749 -4.3890
  774MPD2     C11471   4.434   3.264  13.001  0.0660 -0.6556  0.1184
  774MPD2    C111472   4.322   3.338  13.021  0.0206 -0.1426 -0.4841
  774MPD2    C211473   4.337   3.468  13.060  0.8633  0.6827 -0.3428
  774MPD2    C311474   4.458   3.524  13.088 -0.6634  0.0047  0.1448
  774MPD2    C411475   4.565   3.438  13.072  0.3544  0.4198  0.5166
  774MPD2    C511476   4.553   3.312  13.023  0.1380 -0.0252  0.0449
  774MPD2     H11477   4.250   3.532  13.072  0.0101 -0.5503  0.1081
  774MPD2    H111478   4.665   3.480  13.070  0.6728 -0.3268  0.5008
  774MPD2    H211479   4.422   3.169  12.949  1.2972 -0.3708 -0.6965
  774MPD2    H311480   4.642   3.252  13.007  1.4083  1.2756  2.1903
  774MPD2     N11481   4.476   3.656  13.136 -0.5953 -0.3177  0.0167
  774MPD2    H511482   4.394   3.712  13.154 -1.0687 -1.1948  0.6128
  774MPD2    N111483   4.197   3.282  12.985 -0.1631  0.0217 -0.9106
  774MPD2    H711484   4.202   3.184  12.959 -0.0152 -0.3868  0.6730
  775MPD2     C11485   0.858   0.543  15.395  0.0123 -0.0016 -0.1353
  775MPD2    C111486   0.895   0.624  15.501  0.5334  0.3161 -0.4929
  775MPD2    C211487   1.033   0.661  15.526  0.1408 -0.2375 -0.3685
  775MPD2    C311488   1.123   0.639  15.421  0.5146 -0.1625  0.7126
  775MPD2    C411489   1.084   0.568  15.303  0.3887 -0.5604 -0.1545
  775MPD2    C511490   0.951   0.525  15.299  0.5732 -0.2084  0.3759
  775MPD2     H11491   1.070   0.712  15.614 -0.6623 -0.8059  0.2952
  775MPD2    H111492   1.155   0.536  15.228  1.9383 -0.2491  1.1691
  775MPD2    H211493   0.760   0.497  15.392  0.3801 -0.6792 -1.5480
  775MPD2    H311494   0.916   0.464  15.217  2.2458 -1.1154  0.3490
  775MPD2     N11495   1.260   0.676  15.425 -0.1537 -0.7317 -0.4822
  775MPD2    H511496   1.322   0.658  15.347  0.9697  0.1393  0.2079
  775MPD2    N111497   0.795   0.664  15.593 -0.0997  0.2692  0.0617
  775MPD2    H711498   0.706   0.614  15.592  0.7500 -1.2251 -0.6636
  776MPD2     C11499   4.139   0.538  12.022  0.4400 -0.7398 -0.0707
  776MPD2    C111500   4.271   0.571  12.029  0.3405  0.4979  0.0096
  776MPD2    C211501   4.305   0.700  11.993  0.1430 -0.1484 -0.4794
  776MPD2    C311502   4.210   0.792  11.945  0.3281 -0.3765 -0.0792
  776MPD2    C411503   4.079   0.757  11.943 -0.4907  0.3053 -0.1403
  776MPD2    C511504   4.042   0.628  11.978  0.2843 -0.1818  0.5599
  776MPD2     H11505   4.411   0.722  11.991 -0.0269  0.8085  1.1534
  776MPD2    H111506   4.002   0.829  11.918  0.7691  1.6813 -0.0515
  776MPD2    H211507   4.105   0.440  12.054 -5.4131  1.1150 -0.5545
  776MPD2    H311508   3.936   0.606  11.979  0.3423 -0.3509  2.8721
  776MPD2     N11509   4.245   0.916  11.900 -0.0565  0.1337  0.4123
  776MPD2    H511510   4.170   0.980  11.877 -0.6764 -0.6281  0.3151
  776MPD2    N111511   4.362   0.474  12.079 -0.1989  0.6987 -0.0660
  776MPD2    H711512   4.325   0.385  12.112 -0.0694  0.9093  0.6456
  777MPD2     C11513   0.184   3.438   0.390 -0.5354 -0.2954 -0.1007
  777MPD2    C111514   0.238   3.354   0.484  0.2858 -0.9714  0.3133
  777MPD2    C211515   0.212   3.216   0.470 -0.3062  0.4339 -0.3922
  777MPD2    C311516   0.135   3.166   0.366  0.1242  0.0323 -0.1086
  777MPD2    C411517   0.072   3.250   0.279 -0.0712 -0.8439 -0.6338
  777MPD2    C511518   0.105   3.383   0.292  0.4302  0.5187  0.0968
  777MPD2     H11519   0.250   3.143   0.540 -1.9719 -0.2755 -0.2323
  777MPD2    H111520   0.013   3.222   0.192  1.3998 -0.8052 -1.6443
  777MPD2    H211521   0.211   3.543   0.385  0.6955 -0.5096  1.9554
  777MPD2    H311522   0.064   3.453   0.220  0.6616 -0.9244 -1.4388
  777MPD2     N11523   0.137   3.027   0.349  0.5593 -0.1720  0.0500
  777MPD2    H511524   0.193   2.973   0.413  0.2828 -0.3764  0.1188
  777MPD2    N111525   0.306   3.411   0.603  0.3924 -0.0948  0.9628
  777MPD2    H711526   0.302   3.512   0.611 -1.6083 -0.0913 -0.0266
  778MPD2     C11527   1.554   3.227  15.104 -0.4065  0.2598 -0.1064
  778MPD2    C111528   1.575   3.124  15.014 -0.0528 -0.3831  0.6017
  778MPD2    C211529   1.641   3.164  14.893  0.1390 -0.4264 -0.1121
  778MPD2    C311530   1.677   3.298  14.866  0.0776  0.1673  0.0444
  778MPD2    C411531   1.647   3.392  14.956 -0.4408 -0.2083  0.0838
  778MPD2    C511532   1.589   3.353  15.072  0.4082  0.3353  0.4095
  778MPD2     H11533   1.682   3.102  14.814 -0.1318 -1.8301  0.8335
  778MPD2    H111534   1.679   3.495  14.943 -3.3166  0.8545  1.1401
  778MPD2    H211535   1.509   3.208  15.201 -1.7779  5.4457  0.2425
  778MPD2    H311536   1.572   3.434  15.143 -2.1689 -1.4676  1.8418
  778MPD2     N11537   1.743   3.321  14.738 -0.4375  0.0525  0.6120
  778MPD2    H511538   1.774   3.241  14.684 -0.2778  1.2567 -1.0485
  778MPD2    N111539   1.539   2.988  15.039 -0.1068 -0.2798  0.3127
  778MPD2    H711540   1.555   2.921  14.965  0.5300 -0.1122  0.2948
  779MPD2     C11541   1.301   1.614  14.726 -1.1197 -0.1315  0.0393
  779MPD2    C111542   1.436   1.627  14.686  0.3555 -0.1621  0.1046
  779MPD2    C211543   1.485   1.751  14.663 -0.8020  0.8950  0.0422
  779MPD2    C311544   1.408   1.863  14.679 -0.3627 -0.2536 -0.0513
  779MPD2    C411545   1.277   1.850  14.696 -0.0569  0.3549  0.5514
  779MPD2    C511546   1.220   1.727  14.737  0.9119 -0.0729  0.1908
  779MPD2     H11547   1.588   1.765  14.632 -0.3902 -0.0430  1.0224
  779MPD2    H111548   1.199   1.925  14.689  1.6794  2.0045 -1.0854
  779MPD2    H211549   1.250   1.520  14.747 -2.1268  0.1991 -0.9162
  779MPD2    H311550   1.112   1.722  14.744  0.8791  1.2382  0.6725
  779MPD2     N11551   1.460   1.997  14.645  0.0636  0.0185 -0.6039
  779MPD2    H511552   1.390   2.068  14.662 -0.1110 -0.4301  0.5867
  779MPD2    N111553   1.524   1.523  14.662 -0.2276 -0.8700 -0.2658
  779MPD2    H711554   1.617   1.541  14.624  0.0333  1.2154  1.3769
  780MPD2     C11555   0.394   2.445   0.756 -0.4161  0.8383  0.3062
  780MPD2    C111556   0.419   2.365   0.650 -0.1410  0.6085  0.0021
  780MPD2    C211557   0.526   2.403   0.573  0.1646  0.5058  0.2338
  780MPD2    C311558   0.599   2.513   0.604 -0.1504  0.0400 -0.3801
  780MPD2    C411559   0.568   2.601   0.706 -0.0550 -0.6134 -0.0834
  780MPD2    C511560   0.465   2.558   0.780  0.7824 -0.0906  0.7566
  780MPD2     H11561   0.568   2.347   0.490  1.0443  0.6391  0.5864
  780MPD2    H111562   0.633   2.681   0.740  0.3874 -0.9322 -0.1851
  780MPD2    H211563   0.328   2.416   0.837 -2.4779  2.3358 -0.8539
  780MPD2    H311564   0.454   2.591   0.883 -1.4203 -0.7439  0.7477
  780MPD2     N11565   0.706   2.543   0.519 -0.8028  0.0704  0.4764
  780MPD2    H511566   0.728   2.476   0.447  1.5924 -1.0041  2.2114
  780MPD2    N111567   0.336   2.250   0.615  0.8262 -0.0124  0.0720
  780MPD2    H711568   0.276   2.224   0.692  0.1473  0.0473 -0.4361
  781MPD2     C11569   2.383   3.700  11.874 -0.0709 -0.3989 -0.3686
  781MPD2    C111570   2.466   3.613  11.944  0.5603  0.1141  0.3387
  781MPD2    C211571   2.596   3.602  11.911  0.3969 -0.0177 -1.1549
  781MPD2    C311572   2.650   3.674  11.806  0.1924 -0.5093  0.2694
  781MPD2    C411573   2.569   3.769  11.747  0.0714 -0.6949  0.1666
  781MPD2    C511574   2.436   3.770  11.775 -0.3535  0.3502 -0.1538
  781MPD2     H11575   2.652   3.522  11.959 -2.3938 -1.6275 -0.5799
  781MPD2    H111576   2.602   3.833  11.666  1.3281  1.5254  2.4287
  781MPD2    H211577   2.276   3.712  11.889 -0.3757 -1.6139 -1.6447
  781MPD2    H311578   2.378   3.836  11.713  0.9806  0.7352 -0.9853
  781MPD2     N11579   2.777   3.656  11.749  0.7432 -0.9046 -0.3178
  781MPD2    H511580   2.788   3.697  11.657  0.3764 -0.8545 -0.3398
  781MPD2    N111581   2.414   3.531  12.046  0.7319  0.6678  0.5095
  781MPD2    H711582   2.475   3.461  12.085  2.4053  0.9514 -1.5966
  782MPD2     C11583   0.806   0.101  10.379 -0.4649 -0.2369  0.7544
  782MPD2    C111584   0.826   0.046  10.507  0.0856  0.4137  0.0040
  782MPD2    C211585   0.866   0.122  10.618  0.3998  0.0082  0.6755
  782MPD2    C311586   0.880   0.256  10.596 -0.2631 -0.3378  0.0792
  782MPD2    C411587   0.876   0.304  10.466  0.0458 -0.0489  0.4302
  782MPD2    C511588   0.835   0.231  10.360  0.5584 -0.6000  0.1746
  782MPD2     H11589   0.867   0.074  10.715 -0.5149  0.1868  0.7768
  782MPD2    H111590   0.906   0.405  10.441 -1.5270  0.3946  0.3185
  782MPD2    H211591   0.781   0.045  10.290 -2.3888  2.6862 -0.5735
  782MPD2    H311592   0.821   0.267  10.259 -0.7418 -2.2506 -0.2428
  782MPD2     N11593   0.940   0.331  10.703  0.9339  0.5829  0.2998
  782MPD2    H511594   0.978   0.263  10.768 -0.6484 -0.3816  0.2233
  782MPD2    N111595   0.805   4.648  10.534 -0.2472 -1.0114  0.2540
  782MPD2    H711596   0.833   4.612  10.624  2.2911 -3.1393 -1.4136
  783MPD2     C11597   0.130   4.259  10.930 -0.7677  0.5306  0.1331
  783MPD2    C111598   0.198   4.375  10.933  0.0100 -1.0428 -0.3339
  783MPD2    C211599   0.308   4.397  10.852 -0.1742  0.7462 -0.0296
  783MPD2    C311600   0.347   4.293  10.770 -0.4966 -0.8162 -0.1606
  783MPD2    C411601   0.280   4.168  10.782 -0.6661  0.3764  0.5703
  783MPD2    C511602   0.169   4.160  10.852 -0.9303  0.4495  1.3002
  783MPD2     H11603   0.352   4.494  10.833  1.8610 -0.2739 -0.4823
  783MPD2    H111604   0.288   4.090  10.707  1.1003  0.8883  0.2471
  783MPD2    H211605   0.058   4.238  11.008 -0.0734 -1.0703  0.3419
  783MPD2    H311606   0.126   4.061  10.850  0.7365 -0.2220 -0.4873
  783MPD2     N11607   0.455   4.316  10.685 -0.1459 -0.0215  0.5515
  783MPD2    H511608   0.515   4.397  10.686  0.3604 -0.3810 -0.5026
  783MPD2    N111609   0.146   4.477  11.008  0.3363 -0.9702  0.0637
  783MPD2    H711610   0.058   4.464  11.056  0.0660  1.1203  0.1593
  784MPD2     C11611   2.883   0.201   0.438  0.9112  0.0455  0.0863
  784MPD2    C111612   2.908   0.302   0.525  1.0084  0.4617  0.3225
  784MPD2    C211613   2.803   0.395   0.551 -0.0576  0.5477 -0.8272
  784MPD2    C311614   2.671   0.375   0.501  0.2687  0.6511  0.5307
  784MPD2    C411615   2.658   0.270   0.413 -0.4137  0.3079  0.2462
  784MPD2    C511616   2.760   0.183   0.383 -0.1763 -0.3969  0.3846
  784MPD2     H11617   2.829   0.471   0.623  0.4616  1.5021 -2.0333
  784MPD2    H111618   2.561   0.245   0.371 -0.7906  1.6060  0.3451
  784MPD2    H211619   2.965   0.136   0.411  0.8713 -0.2567  0.7000
  784MPD2    H311620   2.755   0.092   0.324 -0.0777  0.3809 -0.8258
  784MPD2     N11621   2.564   0.461   0.541 -0.1041  0.0565 -0.3548
  784MPD2    H511622   2.579   0.535   0.609  1.2362  0.6885 -1.3358
  784MPD2    N111623   3.032   0.311   0.595  0.3552  0.2912 -0.1156
  784MPD2    H711624   3.044   0.383   0.665  1.7715  2.0700 -2.1846
  785MPD2     C11625   3.484   2.490  10.376 -1.0001 -0.4614 -0.2520
  785MPD2    C111626   3.385   2.562  10.435  0.4873  0.1491 -0.6357
  785MPD2    C211627   3.258   2.550  10.375 -0.5356 -0.1699  0.3716
  785MPD2    C311628   3.236   2.449  10.283  0.4494  0.0858  0.0396
  785MPD2    C411629   3.334   2.369  10.244 -0.5161 -0.0755 -0.2072
  785MPD2    C511630   3.458   2.395  10.288 -0.5267 -0.0638 -0.5772
  785MPD2     H11631   3.185   2.626  10.399  0.7879  1.7682 -1.6724
  785MPD2    H111632   3.318   2.287  10.175  1.0285 -0.8358  0.3277
  785MPD2    H211633   3.588   2.495  10.406 -0.6971 -0.4035 -1.3058
  785MPD2    H311634   3.544   2.332  10.271  1.3106  1.7225  2.2964
  785MPD2     N11635   3.105   2.461  10.222  0.0634  0.0002 -0.1616
  785MPD2    H511636   3.038   2.532  10.252 -1.6110 -1.1837 -1.0608
  785MPD2    N111637   3.420   2.666  10.524 -0.0542 -0.5912 -0.6170
  785MPD2    H711638   3.520   2.683  10.536 -0.1908  0.8732 -1.5000
  786MPD2     C11639   1.835   1.012  14.780  0.0380 -0.2598 -0.4122
  786MPD2    C111640   1.975   0.985  14.777  0.7746  0.4084  0.2101
  786MPD2    C211641   2.053   1.048  14.868 -0.0396 -0.6922  0.1899
  786MPD2    C311642   1.997   1.126  14.962 -0.7812  0.1605 -0.4395
  786MPD2    C411643   1.866   1.148  14.957 -0.0802  0.6336 -0.3467
  786MPD2    C511644   1.780   1.086  14.880 -0.7717 -0.0856 -0.6370
  786MPD2     H11645   2.160   1.037  14.861  0.1239  0.5034  0.9701
  786MPD2    H111646   1.825   1.218  15.028 -1.6254  0.7111 -1.3102
  786MPD2    H211647   1.763   0.961  14.717 -1.1268  0.1536  0.5917
  786MPD2    H311648   1.674   1.105  14.873 -1.2655 -2.1328  1.6026
  786MPD2     N11649   2.072   1.208  15.047 -0.2167 -0.1536 -0.0731
  786MPD2    H511650   2.016   1.269  15.105 -0.2071 -1.5953  1.4836
  786MPD2    N111651   2.034   0.895  14.687 -0.5714 -0.4593  0.1753
  786MPD2    H711652   2.130   0.867  14.705 -1.3331 -2.7318  0.6388
  787MPD2     C11653   2.396   0.244  14.629 -0.5887 -0.0264  0.5628
  787MPD2    C111654   2.333   0.295  14.519  0.3008  0.0825  0.0899
  787MPD2    C211655   2.319   0.211  14.403 -0.6625  0.6790  0.2840
  787MPD2    C311656   2.363   0.077  14.412  0.0406 -0.2869 -0.0887
  787MPD2    C411657   2.413   0.028  14.526 -0.4737 -0.1956  0.2937
  787MPD2    C511658   2.424   0.113  14.636 -0.3441  0.5522  0.2360
  787MPD2     H11659   2.297   0.244  14.302  1.1676 -0.9912 -0.6655
  787MPD2    H111660   2.448   4.664  14.534 -0.9109 -0.4830 -1.4325
  787MPD2    H211661   2.421   0.318  14.704  0.2234 -0.3709  0.6399
  787MPD2    H311662   2.467   0.086  14.732  2.0964 -0.7753 -1.2324
  787MPD2     N11663   2.359   4.736  14.294  0.6068  0.1221 -0.2107
  787MPD2    H511664   2.280   0.019  14.234 -0.5908  0.5608  1.5345
  787MPD2    N111665   2.311   0.434  14.505  0.3229  0.3336 -0.3515
  787MPD2    H711666   2.354   0.493  14.576  0.5970  0.5652 -0.7099
  788MPD2     C11667   3.685   0.424   0.551 -0.4296 -0.8502  0.4066
  788MPD2    C111668   3.636   0.301   0.503 -0.2933 -0.2608 -0.0655
  788MPD2    C211669   3.526   0.308   0.423 -0.2617 -0.0842  0.0736
  788MPD2    C311670   3.466   0.430   0.380 -0.3005 -0.4624  0.9927
  788MPD2    C411671   3.519   0.550   0.432 -0.0993 -0.0023  0.1274
  788MPD2    C511672   3.628   0.539   0.509 -0.4603  0.3804 -0.6641
  788MPD2     H11673   3.489   0.211   0.391 -1.7642  0.5012  0.0508
  788MPD2    H111674   3.482   0.647   0.398  0.0351 -0.0036 -0.0225
  788MPD2    H211675   3.753   0.431   0.635  0.6922 -3.2822 -0.2806
  788MPD2    H311676   3.672   0.633   0.542  0.1251 -0.7820  1.8821
  788MPD2     N11677   3.368   0.437   0.281 -0.0838  0.9552 -0.2900
  788MPD2    H511678   3.332   0.526   0.248 -1.4086 -0.0652 -1.6328
  788MPD2    N111679   3.698   0.179   0.529  0.0613  0.7501  0.4707
  788MPD2    H711680   3.656   0.092   0.497 -2.4393  1.0081  3.0522
  789MPD2     C11681   3.668   3.679  16.210 -0.0720 -0.4387  0.1785
  789MPD2    C111682   3.716   3.694  16.341 -0.9373 -0.9530 -0.0126
  789MPD2    C211683   3.625   3.744  16.433  0.4253 -0.1684  0.2709
  789MPD2    C311684   3.506   3.803  16.387 -0.2271  0.5986 -0.1347
  789MPD2    C411685   3.464   3.794  16.258 -0.7605  0.0359  0.2935
  789MPD2    C511686   3.545   3.725  16.173 -0.6105 -0.2128  0.0559
  789MPD2     H11687   3.657   3.762  16.535  2.8403  1.5224 -0.7951
  789MPD2    H111688   3.370   3.833  16.222  0.2426  1.9990 -0.2016
  789MPD2    H211689   3.736   3.643  16.134 -0.2983 -0.7462  0.1185
  789MPD2    H311690   3.519   3.703  16.070 -1.9732  0.2752  0.2922
  789MPD2     N11691   3.423   3.885  16.468 -0.0169  0.4358  0.6838
  789MPD2    H511692   3.340   3.924  16.425 -0.8107  0.7645  2.5073
  789MPD2    N111693   3.839   3.646  16.388  0.3948 -0.6930 -0.0049
  789MPD2    H711694   3.851   3.652  16.489  0.3364  1.4018 -0.1188
  790MPD2     C11695   4.649   0.886  13.738  0.0505  0.3716 -0.6059
  790MPD2    C111696   4.697   0.761  13.691  0.1238  0.4693 -0.1876
  790MPD2    C211697   4.632   0.702  13.583  0.1239 -0.1396  0.1656
  790MPD2    C311698   4.530   0.765  13.515  0.1966 -0.1853  0.1551
  790MPD2    C411699   4.476   0.883  13.562 -0.2167  0.4262  0.4035
  790MPD2    C511700   4.534   0.938  13.680 -0.2388 -0.0405  0.2499
  790MPD2     H11701   4.670   0.607  13.547  1.8332  0.1365  1.2129
  790MPD2    H111702   4.393   0.941  13.525 -0.5653 -0.3670 -0.0663
  790MPD2    H211703   4.682   0.935  13.829 -1.6089 -2.4070  1.4982
  790MPD2    H311704   4.485   1.027  13.718  0.4401  0.0510  0.8938
  790MPD2     N11705   4.480   0.702  13.402  0.0311 -0.1678 -0.2024
  790MPD2    H511706   4.532   0.621  13.369  1.1467  1.1874 -1.8192
  790MPD2    N111707   0.065   0.693  13.753  0.3675 -0.2036 -0.5085
  790MPD2    H711708   0.083   0.602  13.711  1.3312  1.0457 -2.8349
  791MPD2     C11709   3.725   0.545  13.289 -0.9278 -0.1190  0.2787
  791MPD2    C111710   3.800   0.485  13.192 -0.0818 -0.0573  0.3413
  791MPD2    C211711   3.737   0.401  13.098  0.2166 -0.0841 -0.0453
  791MPD2    C311712   3.602   0.359  13.125  0.3024 -0.6738  0.0235
  791MPD2    C411713   3.532   0.425  13.227  0.7963  0.4128 -0.3879
  791MPD2    C511714   3.593   0.523  13.304 -0.0633 -0.0956 -0.0547
  791MPD2     H11715   3.778   0.365  13.004  0.9367  2.0344 -0.5314
  791MPD2    H111716   3.424   0.412  13.235  0.7306  1.7516  0.7332
  791MPD2    H211717   3.776   0.611  13.358 -0.5470 -0.3224  0.1921
  791MPD2    H311718   3.540   0.584  13.376  1.6060  0.5190  0.6414
  791MPD2     N11719   3.546   0.257  13.044  0.3141 -0.4329 -0.4398
  791MPD2    H511720   3.615   0.220  12.979 -0.3307 -0.5250 -1.0689
  791MPD2    N111721   3.931   0.531  13.180 -0.2642 -0.5677  0.3873
  791MPD2    H711722   3.970   0.599  13.245  0.3071  0.1809 -0.7465
  792MPD2     C11723   0.274   0.849  11.822  0.1600  0.2605 -0.0333
  792MPD2    C111724   0.226   0.859  11.689  0.3505  0.5442  0.2037
  792MPD2    C211725   0.107   0.795  11.656  0.4136 -0.3428 -0.2164
  792MPD2    C311726   0.029   0.725  11.754  0.1597 -0.2362 -0.0071
  792MPD2    C411727   0.084   0.724  11.877 -0.3814  0.3933  0.0199
  792MPD2    C511728   0.202   0.776  11.917 -0.1795  0.1347  0.4785
  792MPD2     H11729   0.075   0.807  11.553 -0.4771  2.6107  0.4007
  792MPD2    H111730   0.038   0.665  11.955  0.0492 -0.3321 -0.2752
  792MPD2    H211731   0.369   0.891  11.854  1.0896 -2.5448  0.8613
  792MPD2    H311732   0.241   0.758  12.016  1.0187  3.2242  0.5699
  792MPD2     N11733   4.643   0.664  11.730  0.4671 -0.0383  0.3617
  792MPD2    H511734   4.576   0.642  11.803  0.7950 -1.6878  0.1683
  792MPD2    N111735   0.305   0.928  11.592  0.3111 -0.6611 -0.4873
  792MPD2    H711736   0.384   0.984  11.623  0.8514 -2.5014  1.4754
  793MPD2     C11737   4.207   0.858  10.887  0.1124 -0.0875  0.2165
  793MPD2    C111738   4.332   0.816  10.925 -0.7225 -0.3867  0.4321
  793MPD2    C211739   4.351   0.781  11.054 -0.7083 -0.2455 -0.4431
  793MPD2    C311740   4.245   0.784  11.153  0.2442 -0.3016 -0.2619
  793MPD2    C411741   4.122   0.833  11.113 -0.0530 -0.6820 -0.5177
  793MPD2    C511742   4.110   0.872  10.982  0.1793  0.3679 -0.3591
  793MPD2     H11743   4.446   0.734  11.078 -1.8298 -1.0821  2.4177
  793MPD2    H111744   4.033   0.852  11.172  0.7318 -1.9664  1.0993
  793MPD2    H211745   4.178   0.884  10.786  0.1902  0.8106  0.4279
  793MPD2    H311746   4.012   0.912  10.958 -0.2363 -0.5371 -0.1904
  793MPD2     N11747   4.269   0.729  11.284 -0.0251  0.3482  0.1006
  793MPD2    H511748   4.361   0.691  11.299  0.6607  1.7454 -0.5463
  793MPD2    N111749   4.431   0.790  10.829  0.1480 -0.8934  0.2847
  793MPD2    H711750   4.520   0.756  10.864 -0.2832 -0.8388  1.4501
  794MPD2     C11751   0.160   0.635  16.483 -0.0407  0.2670  0.4990
  794MPD2    C111752   0.046   0.588  16.528  0.6236  0.6794  1.3823
  794MPD2    C211753   4.667   0.593  16.454  0.1869  0.1275 -0.6277
  794MPD2    C311754   4.666   0.654  16.331  0.0239  0.1626 -0.4831
  794MPD2    C411755   0.053   0.695  16.282  0.3501  0.7480 -0.4850
  794MPD2    C511756   0.166   0.688  16.361  0.1070 -0.3690 -0.0789
  794MPD2     H11757   4.583   0.547  16.504 -0.6502  1.0571 -1.1887
  794MPD2    H111758   0.072   0.730  16.181 -0.3363 -1.9449 -1.5524
  794MPD2    H211759   0.253   0.628  16.539 -1.0567 -5.6109  1.4579
  794MPD2    H311760   0.255   0.730  16.316  0.7807 -1.7257 -0.0053
  794MPD2     N11761   4.555   0.661  16.249 -0.2972  0.3787  0.1667
  794MPD2    H511762   4.577   0.689  16.154 -1.2981  0.3888 -0.0591
  794MPD2    N111763   0.031   0.536  16.659  0.8104 -0.3864 -0.3991
  794MPD2    H711764   4.677   0.497  16.677  1.1110 -1.5930 -1.4888
  795MPD2     C11765   2.515   1.842  13.768  0.3644 -0.3080 -0.3018
  795MPD2    C111766   2.598   1.812  13.665 -0.5098  0.4418 -0.0028
  795MPD2    C211767   2.719   1.746  13.688 -0.6920  0.1473  0.2663
  795MPD2    C311768   2.759   1.718  13.814  0.0349 -0.1469 -0.0608
  795MPD2    C411769   2.680   1.763  13.915  0.6148  0.2564  0.1147
  795MPD2    C511770   2.561   1.825  13.890 -0.0630  0.0062  0.0498
  795MPD2     H11771   2.782   1.722  13.604  0.3274  2.4021  0.3753
  795MPD2    H111772   2.716   1.755  14.017  3.0817  0.1434 -0.7640
  795MPD2    H211773   2.416   1.881  13.749  0.3727 -0.4248 -0.5771
  795MPD2    H311774   2.505   1.870  13.972 -0.4492 -1.3224  0.5071
  795MPD2     N11775   2.883   1.654  13.839  0.5869 -0.5255  0.7840
  795MPD2    H511776   2.939   1.644  13.755 -2.6220 -0.9381 -1.2781
  795MPD2    N111777   2.555   1.833  13.532  0.3650  0.2480  0.8099
  795MPD2    H711778   2.618   1.792  13.464 -1.4257  0.1937 -0.8262
  796MPD2     C11779   2.160   3.887  15.870 -0.0543 -0.4193  0.4751
  796MPD2    C111780   2.182   3.977  15.973  0.4762 -0.0326  0.1344
  796MPD2    C211781   2.134   4.100  15.960  0.1171 -0.1889 -0.0270
  796MPD2    C311782   2.063   4.138  15.844 -0.3774  0.2603  0.3632
  796MPD2    C411783   2.043   4.050  15.741  0.3552  0.2749 -0.0471
  796MPD2    C511784   2.098   3.929  15.755 -0.1352  0.2061 -0.0618
  796MPD2     H11785   2.150   4.178  16.034 -1.4240  1.7778 -1.7579
  796MPD2    H111786   2.000   4.079  15.646 -1.4318  3.8509  1.8520
  796MPD2    H211787   2.186   3.782  15.876  1.7824 -0.0261 -0.6153
  796MPD2    H311788   2.075   3.859  15.676 -2.2086  0.1031  0.6215
  796MPD2     N11789   2.024   4.273  15.833  0.0053  0.4710  0.0849
  796MPD2    H511790   2.059   4.334  15.908  3.7403 -1.6056  0.0411
  796MPD2    N111791   2.251   3.926  16.088  0.2974 -0.1719 -0.3975
  796MPD2    H711792   2.310   3.847  16.063 -1.1999 -1.9876  1.7633
  797MPD2     C11793   3.177   3.492  17.213  0.5464 -0.1348  0.0951
  797MPD2    C111794   3.122   3.514  17.338 -0.1102  0.5609  0.2840
  797MPD2    C211795   2.992   3.555  17.344 -0.2636 -0.0564 -0.1692
  797MPD2    C311796   2.924   3.586  17.232  0.2152 -0.0049 -0.5395
  797MPD2    C411797   2.987   3.592  17.110  0.0424  0.3882  0.5246
  797MPD2    C511798   3.109   3.541  17.102 -0.7911  0.4685 -0.8092
  797MPD2     H11799   2.945   3.573  17.440 -0.4408  1.3719 -0.5341
  797MPD2    H111800   2.934   3.623  17.021 -0.0231 -1.9637 -0.2763
  797MPD2    H211801   3.278   3.454  17.205  0.9574  0.7363  1.2312
  797MPD2    H311802   3.155   3.535  17.004  2.3614  0.4419  0.6793
  797MPD2     N11803   2.796   3.641  17.245  0.1275  0.2471 -0.3860
  797MPD2    H511804   2.764   3.712  17.180  0.4386  2.2629  1.6865
  797MPD2    N111805   3.189   3.475  17.461 -0.5600 -0.2806 -0.5246
  797MPD2    H711806   3.138   3.502  17.545  0.0261  0.3253 -0.3643
  798MPD2     C11807   2.804   3.681   0.193 -0.1667 -0.6348 -0.0123
  798MPD2    C111808   2.847   3.778   0.109 -0.4406  0.4346 -0.2445
  798MPD2    C211809   2.979   3.806   0.103  0.0894  0.5697  0.0116
  798MPD2    C311810   3.066   3.728   0.169  0.2664 -0.4971 -0.3402
  798MPD2    C411811   3.027   3.639   0.265  0.0537  0.0824 -0.5556
  798MPD2    C511812   2.891   3.611   0.275 -0.1147  0.2289 -0.2422
  798MPD2     H11813   3.020   3.871   0.027 -0.6104 -0.5399 -1.3132
  798MPD2    H111814   3.091   3.565   0.311  0.4078 -0.0597 -1.2686
  798MPD2    H211815   2.696   3.669   0.199  0.0481 -2.1950  0.7728
  798MPD2    H311816   2.860   3.526   0.335 -0.2501  1.5272  1.5259
  798MPD2     N11817   3.193   3.710   0.117 -0.2156 -0.4369 -0.1032
  798MPD2    H511818   3.218   3.755   0.030 -0.4059  1.4204  0.8026
  798MPD2    N111819   2.750   3.831   0.026  0.7177 -0.0771  0.2247
  798MPD2    H711820   2.662   3.781   0.016  1.2413 -0.9401 -0.0906
  799MPD2     C11821   1.967   0.088  14.723 -0.1169 -0.2574 -0.6738
  799MPD2    C111822   1.887   4.725  14.685  0.8151  0.6166  0.1897
  799MPD2    C211823   1.808   4.731  14.569  0.0646 -0.2418 -0.4282
  799MPD2    C311824   1.822   0.103  14.478 -0.2770 -0.5083 -0.0769
  799MPD2    C411825   1.904   0.211  14.525 -0.2438 -0.5314 -1.2334
  799MPD2    C511826   1.975   0.198  14.641  0.6674 -0.0091  0.2107
  799MPD2     H11827   1.744   4.647  14.545 -0.1948 -0.3553  0.6642
  799MPD2    H111828   1.908   0.298  14.461  2.7642  1.3928  1.5393
  799MPD2    H211829   2.029   0.076  14.811 -0.2530 -2.3523 -0.8634
  799MPD2    H311830   2.053   0.267  14.670  3.3033 -3.0322  0.3287
  799MPD2     N11831   1.752   0.109  14.354  0.3081  0.0468 -0.1110
  799MPD2    H511832   1.781   0.179  14.286  0.2068  1.1347  0.9692
  799MPD2    N111833   1.879   4.599  14.752  0.2537 -0.2392 -0.0101
  799MPD2    H711834   1.799   4.542  14.730  0.5363 -0.3648 -0.7111
  800MPD2     C11835   2.748   1.258  14.156 -0.8706 -0.3979  0.4144
  800MPD2    C111836   2.845   1.231  14.249 -0.1571  0.6641 -0.7321
  800MPD2    C211837   2.882   1.097  14.283 -0.4246 -0.8348 -0.5015
  800MPD2    C311838   2.829   0.988  14.210  0.1774  0.0153 -0.7486
  800MPD2    C411839   2.738   1.011  14.115  0.7900  0.3031 -0.2113
  800MPD2    C511840   2.700   1.144  14.094  0.3372 -0.4741 -0.7038
  800MPD2     H11841   2.953   1.080  14.363 -0.9442 -0.1381  0.1188
  800MPD2    H111842   2.685   0.935  14.060 -0.2025  0.5947  0.3275
  800MPD2    H211843   2.709   1.357  14.135  2.6513  0.5610 -1.6296
  800MPD2    H311844   2.607   1.158  14.040 -0.2079  1.0541  0.6269
  800MPD2     N11845   2.865   0.860  14.251  0.3755 -0.1826 -0.2207
  800MPD2    H511846   2.935   0.852  14.324 -0.8606  1.7556  1.1751
  800MPD2    N111847   2.898   1.341  14.313  0.3198  0.2462 -0.0653
  800MPD2    H711848   2.883   1.434  14.275 -0.0470  0.1613 -0.1266
  801MPD2     C11849   2.741   2.021  14.479 -0.1178  0.0586  1.1083
  801MPD2    C111850   2.706   1.894  14.433  0.0708  0.0167  0.8827
  801MPD2    C211851   2.576   1.856  14.442 -0.4247 -1.1756 -0.0479
  801MPD2    C311852   2.479   1.948  14.480  0.0186 -0.7767  0.0490
  801MPD2    C411853   2.516   2.075  14.523 -0.5854 -0.0565  0.1569
  801MPD2    C511854   2.647   2.111  14.522 -0.1166  0.9473 -0.3397
  801MPD2     H11855   2.551   1.756  14.410 -0.8929 -1.4218  1.1096
  801MPD2    H111856   2.443   2.150  14.551 -0.7473 -0.1113 -0.1110
  801MPD2    H211857   2.845   2.050  14.469 -0.1301 -0.2578  0.0318
  801MPD2    H311858   2.672   2.212  14.553  1.2637  0.9798 -1.5701
  801MPD2     N11859   2.342   1.921  14.477  0.1717  0.2171  0.3902
  801MPD2    H511860   2.282   1.993  14.516  1.0634  0.7469  0.7864
  801MPD2    N111861   2.797   1.795  14.391  0.5190  0.1396 -0.2678
  801MPD2    H711862   2.755   1.713  14.348 -1.3861  1.6602 -1.3236
  802MPD2     C11863   1.916   3.254   0.400 -0.2717  0.0206  0.0890
  802MPD2    C111864   1.860   3.269   0.273  0.3823  0.6084 -0.2278
  802MPD2    C211865   1.925   3.225   0.160  0.0443  0.3011  0.1092
  802MPD2    C311866   2.055   3.173   0.169  0.2439 -0.5153 -0.1163
  802MPD2    C411867   2.115   3.180   0.292  0.5994 -0.0949  0.6344
  802MPD2    C511868   2.051   3.224   0.408  0.0907  0.7467  1.0484
  802MPD2     H11869   1.873   3.226   0.065  1.3493 -2.4519 -0.6687
  802MPD2    H111870   2.220   3.162   0.309  0.8728  1.1377  0.2411
  802MPD2    H211871   1.869   3.301   0.486  1.7203  1.1237  0.5848
  802MPD2    H311872   2.107   3.218   0.500 -0.3986  2.1994  1.4324
  802MPD2     N11873   2.120   3.131   0.049  0.0300  0.3557 -0.0766
  802MPD2    H511874   2.064   3.125  17.716 -1.5796  1.2242  0.9227
  802MPD2    N111875   1.742   3.352   0.272 -0.0721  0.2185 -0.0333
  802MPD2    H711876   1.684   3.354   0.355  2.0365  0.4282  1.4182
  803MPD2     C11877   2.755   0.287  12.050  0.3497 -0.1607 -0.3344
  803MPD2    C111878   2.699   0.394  12.126 -0.4222  0.0185 -0.3731
  803MPD2    C211879   2.654   0.369  12.256 -0.1560  0.0226 -0.4025
  803MPD2    C311880   2.646   0.246  12.309  0.2182  0.4861 -1.0999
  803MPD2    C411881   2.697   0.141  12.233 -0.1863  0.1251 -0.0361
  803MPD2    C511882   2.758   0.163  12.115  0.6855 -0.5429 -0.1659
  803MPD2     H11883   2.639   0.455  12.320 -3.5792 -1.6828  1.0609
  803MPD2    H111884   2.695   0.046  12.285 -5.4384  0.3442  0.2205
  803MPD2    H211885   2.803   0.302  11.953  1.7907  1.8360  0.6903
  803MPD2    H311886   2.796   0.070  12.075 -1.9223 -1.1968 -1.1241
  803MPD2     N11887   2.590   0.218  12.430  0.6419  0.0067 -0.3947
  803MPD2    H511888   2.607   0.121  12.456 -0.4439  0.1615  0.9142
  803MPD2    N111889   2.678   0.521  12.076 -0.4050  0.6162  0.3074
  803MPD2    H711890   2.678   0.601  12.138  2.7675  0.2293  0.8262
  804MPD2     C11891   2.695   2.312  16.813  0.0695  0.1366 -0.2860
  804MPD2    C111892   2.647   2.285  16.941  0.6197 -0.4940 -0.0273
  804MPD2    C211893   2.694   2.358  17.051  0.5075  0.3643 -0.1666
  804MPD2    C311894   2.796   2.447  17.038  0.0739  0.1848 -0.0228
  804MPD2    C411895   2.831   2.488  16.909  0.2855 -0.7346 -0.5012
  804MPD2    C511896   2.779   2.421  16.800  0.2021  0.7893 -0.3166
  804MPD2     H11897   2.653   2.322  17.145  0.8301 -0.8565 -0.5038
  804MPD2    H111898   2.900   2.571  16.898  1.0356 -1.0604  1.7484
  804MPD2    H211899   2.663   2.261  16.723  0.1195  0.4532 -0.4854
  804MPD2    H311900   2.801   2.453  16.699 -0.1807  2.6326  0.1938
  804MPD2     N11901   2.863   2.485  17.155 -0.3055  0.5171 -0.4551
  804MPD2    H511902   2.815   2.465  17.242  0.7761 -2.1428 -0.4749
  804MPD2    N111903   2.570   2.163  16.959 -0.1417 -0.2335 -0.1306
  804MPD2    H711904   2.551   2.140  17.057 -0.8976 -1.4776 -0.5678
  805MPD2     C11905   1.531   0.448  15.465 -0.3637  0.6746 -0.8831
  805MPD2    C111906   1.645   0.463  15.401  0.4304  0.3633  0.5054
  805MPD2    C211907   1.764   0.484  15.469  0.1471 -0.3064  0.1168
  805MPD2    C311908   1.764   0.497  15.603  0.5066 -0.0306 -0.5080
  805MPD2    C411909   1.641   0.504  15.665  0.4532  0.1207 -0.4116
  805MPD2    C511910   1.526   0.469  15.597 -0.2054  0.1306 -0.1740
  805MPD2     H11911   1.852   0.488  15.406  0.3385 -0.9226  0.3436
  805MPD2    H111912   1.625   0.525  15.770 -2.0610 -0.4230 -0.6683
  805MPD2    H211913   1.447   0.402  15.414  0.2291 -0.8446 -0.4901
  805MPD2    H311914   1.434   0.460  15.654 -0.5326 -3.1182 -1.2338
  805MPD2     N11915   1.886   0.514  15.680 -0.7604 -0.0049 -0.1152
  805MPD2    H511916   1.881   0.540  15.778  2.8030 -0.0924  0.0813
  805MPD2    N111917   1.656   0.458  15.264  0.2665  0.2277  0.5367
  805MPD2    H711918   1.749   0.451  15.224 -1.2890 -2.0271 -2.6853
  806MPD2     C11919   2.097   0.263   0.049  0.1873 -0.4154  0.4585
  806MPD2    C111920   2.078   0.334   0.170  0.2179 -0.0763 -0.5625
  806MPD2    C211921   2.086   0.472   0.160  0.0232 -0.2762  0.0702
  806MPD2    C311922   2.104   0.535   0.038 -0.4690 -0.0915  0.0197
  806MPD2    C411923   2.125   0.459  17.675 -0.2507 -0.1461  0.0589
  806MPD2    C511924   2.122   0.323  17.683  0.4901 -0.0895 -0.2805
  806MPD2     H11925   2.074   0.530   0.251  0.3081  0.4822 -0.3702
  806MPD2    H111926   2.151   0.508  17.582  0.8097  0.1955  0.5323
  806MPD2    H211927   2.114   0.156   0.060 -0.1358 -0.3834  1.2959
  806MPD2    H311928   2.148   0.264  17.596 -0.9440 -1.2569  0.0792
  806MPD2     N11929   2.118   0.678   0.032 -0.7954 -0.5784 -0.6489
  806MPD2    H511930   2.114   0.725   0.122  1.0753  0.6986 -1.2259
  806MPD2    N111931   2.068   0.263   0.291 -0.9902  0.0381 -0.3559
  806MPD2    H711932   2.071   0.162   0.284  0.2001 -0.2035  3.4293
  807MPD2     C11933   1.741   0.155   1.113 -0.8915  0.2633 -0.2835
  807MPD2    C111934   1.741   0.048   1.025  0.3323  0.1102 -0.6667
  807MPD2    C211935   1.685   4.669   1.065  0.3113 -0.5181 -0.4194
  807MPD2    C311936   1.643   4.652   1.201  0.1942  0.3689  0.1912
  807MPD2    C411937   1.658   0.017   1.285  0.0768  0.3638 -0.1431
  807MPD2    C511938   1.699   0.140   1.233  0.3761  0.5570  0.5062
  807MPD2     H11939   1.670   4.596   0.986  0.3557 -0.8933 -0.0778
  807MPD2    H111940   1.618   0.024   1.385  0.2342 -0.8845 -0.0008
  807MPD2    H211941   1.796   0.247   1.096 -0.9897  0.5827  1.0750
  807MPD2    H311942   1.699   0.226   1.299  1.2440  0.5578  0.5111
  807MPD2     N11943   1.586   4.525   1.230  0.7792  0.3536  0.1008
  807MPD2    H511944   1.589   4.448   1.165 -0.2603 -1.2656  1.9477
  807MPD2    N111945   1.792   0.060   0.896  0.2130  0.3088  0.2266
  807MPD2    H711946   1.810   4.714   0.842 -1.1730 -0.2903  0.6968
  808MPD2     C11947   2.916   1.689   9.621 -0.0136  0.2150  0.0380
  808MPD2    C111948   2.952   1.748   9.740  0.1678 -0.0677 -1.0793
  808MPD2    C211949   3.020   1.863   9.735  0.6249  0.0277  0.0556
  808MPD2    C311950   3.050   1.926   9.618 -0.3032  1.1949 -0.1362
  808MPD2    C411951   3.002   1.872   9.501  0.1036 -0.2593  0.0771
  808MPD2    C511952   2.938   1.747   9.505  0.1827  0.2118  0.6972
  808MPD2     H11953   3.057   1.903   9.828  0.5099 -0.6149  0.3710
  808MPD2    H111954   3.007   1.930   9.409  0.4874  0.1501  0.3566
  808MPD2    H211955   2.873   1.590   9.616  2.0869 -0.7708  1.4225
  808MPD2    H311956   2.903   1.695   9.417  1.8746 -0.5036  0.4435
  808MPD2     N11957   3.122   2.042   9.603 -0.0943  0.0819 -0.3206
  808MPD2    H511958   3.131   2.081   9.509 -2.2071  2.9028  0.6422
  808MPD2    N111959   2.927   1.682   9.867 -0.3804  0.0852 -0.3191
  808MPD2    H711960   2.959   1.728   9.952  2.5809 -1.0031 -0.8303
  809MPD2     C11961   3.852   1.867   9.219  0.5678  0.2981  0.1615
  809MPD2    C111962   3.881   1.938   9.330  0.2079 -0.0229  0.7233
  809MPD2    C211963   3.789   2.012   9.400 -0.8076 -0.2394  0.4586
  809MPD2    C311964   3.662   2.024   9.345  0.0995 -0.3645  0.2686
  809MPD2    C411965   3.623   1.938   9.245 -0.0489 -0.5569  0.4707
  809MPD2    C511966   3.723   1.864   9.179  0.0865 -0.3486  0.2054
  809MPD2     H11967   3.824   2.064   9.488 -0.4665  0.3212 -0.0145
  809MPD2    H111968   3.520   1.938   9.212 -0.2868  1.8541  1.1918
  809MPD2    H211969   3.929   1.819   9.159 -1.5911 -1.7113 -1.0066
  809MPD2    H311970   3.689   1.799   9.099  3.9407  1.3030 -2.7771
  809MPD2     N11971   3.562   2.109   9.395  0.4925  0.0211  0.5428
  809MPD2    H511972   3.480   2.104   9.336  0.1577  0.0752  1.0048
  809MPD2    N111973   4.007   1.945   9.388 -0.0877 -0.6150  0.8853
  809MPD2    H711974   4.016   1.987   9.480 -1.6190 -1.4601  1.4107
  810MPD2     C11975   2.640   0.140  10.819  0.5532  0.2537 -0.3969
  810MPD2    C111976   2.561   0.249  10.829 -0.1248  0.1363 -0.0035
  810MPD2    C211977   2.623   0.369  10.818  0.0903  0.3795 -0.0155
  810MPD2    C311978   2.763   0.379  10.789 -0.8373  0.8014  0.1578
  810MPD2    C411979   2.832   0.263  10.771  0.0020 -0.1984  0.2087
  810MPD2    C511980   2.773   0.144  10.791  0.8438 -0.4052 -0.1756
  810MPD2     H11981   2.566   0.460  10.824  0.7065  0.6386  1.8179
  810MPD2    H111982   2.935   0.255  10.737  1.4885  3.2160  4.0174
  810MPD2    H211983   2.592   0.044  10.829  0.2813  0.2488 -1.7770
  810MPD2    H311984   2.831   0.053  10.782 -0.5253 -1.1843 -1.1195
  810MPD2     N11985   2.825   0.497  10.745 -0.2378  0.1630 -0.2491
  810MPD2    H511986   2.920   0.494  10.711 -0.4388 -0.5977 -0.7464
  810MPD2    N111987   2.422   0.237  10.851 -0.9084  0.0101 -0.3041
  810MPD2    H711988   2.383   0.144  10.853  0.9744 -0.7579  0.4820
  811MPD2     C11989   1.582   0.541  10.552 -0.1431  0.7219 -0.0001
  811MPD2    C111990   1.715   0.555  10.543  0.2615  0.2752 -0.4524
  811MPD2    C211991   1.762   0.675  10.486 -0.4171 -0.8149 -0.2907
  811MPD2    C311992   1.672   0.765  10.437 -0.2445  0.0611  0.0119
  811MPD2    C411993   1.537   0.746  10.451 -0.3923  0.1903  0.2970
  811MPD2    C511994   1.486   0.635  10.510  0.9296 -0.2712  0.1936
  811MPD2     H11995   1.866   0.695  10.465 -0.4865 -0.1621 -0.0155
  811MPD2    H111996   1.458   0.814  10.420 -1.1234 -1.7072 -2.0251
  811MPD2    H211997   1.549   0.448  10.597  0.0456 -0.6333 -2.6592
  811MPD2    H311998   1.378   0.627  10.512  0.9777 -0.9429  0.3861
  811MPD2     N11999   1.719   0.885  10.375  0.7037  0.3622 -0.2971
  811MPD2    H512000   1.818   0.909  10.374  0.4405  1.3811 -1.2371
  811MPD2    N112001   1.797   0.454  10.604  0.0097 -0.1083  0.1743
  811MPD2    H712002   1.751   0.379  10.654 -3.1216  1.0040 -1.0193
  812MPD2     C12003   0.529   0.775  12.366 -0.2389  0.6833  0.2456
  812MPD2    C112004   0.627   0.871  12.365 -0.3228  0.3340  0.1880
  812MPD2    C212005   0.736   0.846  12.448  0.3254  0.7652 -0.0041
  812MPD2    C312006   0.753   0.719  12.522  0.3180 -0.0217  0.6198
  812MPD2    C412007   0.650   0.629  12.511  0.2343  0.1315 -0.5937
  812MPD2    C512008   0.540   0.658  12.439  0.6706  0.0717 -0.1045
  812MPD2     H12009   0.814   0.919  12.465 -0.7479  1.4656  2.0086
  812MPD2    H112010   0.647   0.530  12.554  1.4294  0.0973 -0.6068
  812MPD2    H212011   0.440   0.792  12.306  0.5959 -0.5546 -1.3445
  812MPD2    H312012   0.459   0.586  12.447  0.8760 -0.1207  0.2305
  812MPD2     N12013   0.863   0.695  12.601 -0.3261  0.4816  0.7834
  812MPD2    H512014   0.925   0.774  12.614  1.8240 -0.8091 -1.6144
  812MPD2    N112015   0.606   0.990  12.295 -0.5247 -0.8020 -0.0126
  812MPD2    H712016   0.524   0.983  12.236  0.5982 -0.0322 -1.6885
  813MPD2     C12017   0.000   2.651  12.446  0.5095  0.3793  0.2733
  813MPD2    C112018   0.062   2.585  12.542  0.6461 -0.1889  0.2047
  813MPD2    C212019   0.007   2.596  12.670 -0.0525 -0.6636  0.0480
  813MPD2    C312020   4.625   2.662  12.687 -0.5915 -0.0167 -0.1329
  813MPD2    C412021   4.557   2.711  12.574  0.2143 -0.6255 -0.3326
  813MPD2    C512022   4.618   2.718  12.460 -0.3643  0.2167 -0.7724
  813MPD2     H12023   0.061   2.563  12.758  2.0150  3.5912  0.3877
  813MPD2    H112024   4.455   2.747  12.582  0.3086 -0.5484  0.5394
  813MPD2    H212025   0.037   2.632  12.346  2.1288 -0.9072  1.1124
  813MPD2    H312026   4.573   2.766  12.374 -1.5792  1.5031  0.5806
  813MPD2     N12027   4.585   2.691  12.817 -0.0338 -0.4900  0.3939
  813MPD2    H512028   4.648   2.657  12.890  1.9110 -0.8237 -1.4510
  813MPD2    N112029   0.192   2.535  12.516  0.8051  0.9268  0.6623
  813MPD2    H712030   0.221   2.539  12.419  1.2350 -2.0970  0.6734
  814MPD2     C12031   0.533   3.278  12.210  0.2196  0.2297  0.6621
  814MPD2    C112032   0.477   3.370  12.125 -0.1242 -0.4541  0.2774
  814MPD2    C212033   0.492   3.506  12.153  0.3041 -0.2565  0.0091
  814MPD2    C312034   0.577   3.549  12.253  0.3717  0.5760  0.3535
  814MPD2    C412035   0.629   3.452  12.342  0.3242 -0.0738  0.0454
  814MPD2    C512036   0.601   3.317  12.319  0.6147  1.0153 -0.1823
  814MPD2     H12037   0.451   3.575  12.079  0.7952  1.4967  1.3892
  814MPD2    H112038   0.699   3.489  12.416 -0.3416  4.1027 -1.3618
  814MPD2    H212039   0.508   3.173  12.201  1.3926  0.1351 -1.4386
  814MPD2    H312040   0.634   3.236  12.384  0.5409  0.8821 -0.3114
  814MPD2     N12041   0.615   3.681  12.271 -0.0535 -0.0215 -0.1182
  814MPD2    H512042   0.690   3.699  12.337 -1.6542  0.5293  1.5388
  814MPD2    N112043   0.415   3.331  12.006  0.7730 -0.1831 -0.1803
  814MPD2    H712044   0.383   3.408  11.949  2.7697 -0.1677 -1.2599
  815MPD2     C12045   0.939   2.245  12.120  0.2911 -0.0937 -0.1771
  815MPD2    C112046   0.934   2.246  11.981  0.0525  0.3783  0.2771
  815MPD2    C212047   0.821   2.274  11.912  0.2269  0.4926 -0.1444
  815MPD2    C312048   0.709   2.301  11.980 -0.1291 -0.5007  0.0567
  815MPD2    C412049   0.715   2.312  12.122 -0.7126 -0.6580  0.1494
  815MPD2    C512050   0.832   2.294  12.193  0.1199  0.0816  0.4555
  815MPD2     H12051   0.809   2.279  11.805 -0.3806  0.6246 -0.0739
  815MPD2    H112052   0.622   2.337  12.171 -0.5535 -1.0090  0.6275
  815MPD2    H212053   1.030   2.220  12.173  0.7093 -1.5541 -1.5869
  815MPD2    H312054   0.839   2.302  12.300  2.5448  2.4885  0.1200
  815MPD2     N12055   0.585   2.314  11.906  0.7338 -0.3095  0.2463
  815MPD2    H512056   0.587   2.290  11.808 -1.0943 -0.4023  0.2415
  815MPD2    N112057   1.050   2.191  11.912  0.0332  0.3928  0.0052
  815MPD2    H712058   1.134   2.168  11.965  0.3631  1.4825 -0.0474
  816MPD2     C12059   1.738   2.248  17.240  0.5873  0.1426 -0.1277
  816MPD2    C112060   1.659   2.193  17.141  0.8515  0.0303  0.0353
  816MPD2    C212061   1.724   2.141  17.035  0.3937 -0.4825  0.2731
  816MPD2    C312062   1.864   2.129  17.026 -0.4515 -0.1791 -0.1372
  816MPD2    C412063   1.935   2.189  17.132 -0.5295 -0.1979 -0.3325
  816MPD2    C512064   1.874   2.246  17.239  0.3081 -0.0166 -0.3628
  816MPD2     H12065   1.661   2.092  16.962  1.6031 -1.2506 -0.2519
  816MPD2    H112066   2.042   2.204  17.121 -1.0359  3.6943  0.1264
  816MPD2    H212067   1.690   2.296  17.325  0.3644  1.5149 -1.0389
  816MPD2    H312068   1.926   2.284  17.326  0.3009 -1.2163  0.1671
  816MPD2     N12069   1.922   2.075  16.917  0.6997 -0.4407  0.0372
  816MPD2    H512070   1.859   2.036  16.847 -1.6390  1.2761  1.1659
  816MPD2    N112071   1.522   2.180  17.173 -0.0164  0.3592  0.2692
  816MPD2    H712072   1.493   2.231  17.256  1.6708  2.4482 -0.4348
  817MPD2     C12073   0.812   2.782   9.049 -0.8439  0.1266 -0.7446
  817MPD2    C112074   0.777   2.670   8.984  0.1738 -0.0078  0.5285
  817MPD2    C212075   0.664   2.678   8.902  0.2457  0.2371 -0.5146
  817MPD2    C312076   0.594   2.799   8.881  0.4284 -0.0766  0.4742
  817MPD2    C412077   0.638   2.914   8.944 -0.9009  0.3439 -0.1643
  817MPD2    C512078   0.748   2.900   9.028 -0.0791 -0.1584 -0.1513
  817MPD2     H12079   0.630   2.586   8.856  0.6688 -0.3949  0.4510
  817MPD2    H112080   0.586   3.010   8.944 -1.3218  0.1215  1.8687
  817MPD2    H212081   0.895   2.779   9.119 -2.7815  0.4038  1.5802
  817MPD2    H312082   0.786   2.991   9.074  1.6563 -2.3528  2.7640
  817MPD2     N12083   0.480   2.794   8.797 -0.2587  0.3895 -0.4792
  817MPD2    H512084   0.451   2.705   8.757 -0.6523  0.6028 -0.6683
  817MPD2    N112085   0.823   2.538   9.002 -0.4574 -0.3488  0.4689
  817MPD2    H712086   0.785   2.469   8.939 -1.0861 -0.1902  0.6731
  818MPD2     C12087   0.149   3.224   9.873 -0.2169  0.0888  0.0894
  818MPD2    C112088   0.042   3.154   9.919 -0.3836  0.0171  0.2094
  818MPD2    C212089   0.034   3.022   9.890 -0.1733  0.3876 -0.1580
  818MPD2    C312090   0.128   2.966   9.808  0.1408  0.5492 -0.6474
  818MPD2    C412091   0.239   3.037   9.770 -0.0213 -0.3841 -0.2834
  818MPD2    C512092   0.252   3.170   9.807 -0.3035  0.2533 -0.6432
  818MPD2     H12093   4.688   2.964   9.926 -0.4789  1.2919  0.6138
  818MPD2    H112094   0.323   3.000   9.713  1.7319  2.0510  0.7017
  818MPD2    H212095   0.161   3.329   9.900  1.5384  0.2878 -1.4165
  818MPD2    H312096   0.336   3.235   9.785  0.2565  0.2851  1.5792
  818MPD2     N12097   0.125   2.827   9.779  0.4658 -0.0626 -0.5068
  818MPD2    H512098   0.210   2.784   9.745  0.3900 -0.3001 -0.3961
  818MPD2    N112099   4.685   3.217  10.001  0.9197 -0.0567 -0.5127
  818MPD2    H712100   4.604   3.160  10.025  0.2106  0.5296 -1.5186
  819MPD2     C12101   2.374   0.112  15.510 -0.6539  0.6585  0.1309
  819MPD2    C112102   2.403   4.715  15.525 -0.5003  0.5093 -0.3124
  819MPD2    C212103   2.530   4.681  15.574 -0.2749  0.0587  0.4653
  819MPD2    C312104   2.620   0.038  15.607 -0.3160 -0.7285 -0.9988
  819MPD2    C412105   2.584   0.169  15.587 -0.5861 -0.2918 -0.5823
  819MPD2    C512106   2.465   0.211  15.536  0.0317  0.2597  0.7446
  819MPD2     H12107   2.543   4.574  15.586 -0.5551 -0.1167 -0.7180
  819MPD2    H112108   2.648   0.254  15.608 -2.4954  0.6762  1.3081
  819MPD2    H212109   2.275   0.141  15.479 -0.2374  2.2224  0.3050
  819MPD2    H312110   2.441   0.316  15.531  2.8457  0.8476 -0.2722
  819MPD2     N12111   2.749   0.003  15.652  0.1160 -0.5557  0.6541
  819MPD2    H512112   2.768   4.645  15.677  0.3601 -0.5219  0.5933
  819MPD2    N112113   2.301   4.628  15.487  0.1056 -0.1813 -0.0596
  819MPD2    H712114   2.231   4.662  15.422  1.1474 -2.3668 -2.3444
  820MPD2     C12115   1.447   4.535  14.992 -0.1148 -0.2133 -0.9400
  820MPD2    C112116   1.554   4.618  15.013  0.3569 -0.3751 -0.0443
  820MPD2    C212117   1.656   4.565  15.090  0.3541  0.4216  0.3250
  820MPD2    C312118   1.669   4.438  15.144  0.5311 -0.2536  0.0633
  820MPD2    C412119   1.563   4.355  15.106  0.1210 -0.5834 -0.0687
  820MPD2    C512120   1.455   4.403  15.035 -0.3585 -0.4889  0.5622
  820MPD2     H12121   1.734   4.636  15.118  1.4283 -0.7696  0.3892
  820MPD2    H112122   1.559   4.249  15.126  0.7349 -0.6228 -0.1585
  820MPD2    H212123   1.361   4.562  14.931 -0.6133  3.0392  1.1852
  820MPD2    H312124   1.368   4.346  15.005  1.2424 -0.2087 -4.5384
  820MPD2     N12125   1.779   4.391  15.222  0.4677  0.4811 -0.0060
  820MPD2    H512126   1.778   4.291  15.237  1.1638  0.7612  1.9189
  820MPD2    N112127   1.563   0.011  14.959 -0.8878  0.2849  0.3247
  820MPD2    H712128   1.486   0.047  14.903  0.6096  0.5816 -1.5320
  821MPD2     C12129   2.885   0.370  13.726  0.3790 -0.7021  0.2097
  821MPD2    C112130   2.998   0.427  13.782  0.5797  0.5141 -0.7744
  821MPD2    C212131   3.090   0.481  13.695 -0.4338  0.4319 -0.0937
  821MPD2    C312132   3.081   0.490  13.559  0.1592  0.7720  0.6316
  821MPD2    C412133   2.965   0.432  13.510  0.1963 -0.2860  0.4368
  821MPD2    C512134   2.881   0.361  13.591  0.5173 -0.7980  0.1464
  821MPD2     H12135   3.176   0.520  13.747 -0.0391  0.1863 -0.5658
  821MPD2    H112136   2.946   0.427  13.404 -0.2803  1.6780  0.4358
  821MPD2    H212137   2.805   0.329  13.788  0.1590 -1.3729 -0.5153
  821MPD2    H312138   2.801   0.305  13.545  2.2348 -2.2270 -1.1229
  821MPD2     N12139   3.171   0.575  13.487 -0.6139  0.7445 -0.2640
  821MPD2    H512140   3.244   0.623  13.539  0.4983 -2.7070  1.3312
  821MPD2    N112141   3.026   0.426  13.917  0.4710  0.8926 -0.3411
  821MPD2    H712142   3.118   0.462  13.940 -0.0862  1.5448  0.8820
  822MPD2     C12143   3.384   1.693  15.505 -0.1808  0.4419 -0.2640
  822MPD2    C112144   3.323   1.619  15.606  0.3108 -0.3929  0.0276
  822MPD2    C212145   3.233   1.692  15.679 -0.6147  0.4059  0.0630
  822MPD2    C312146   3.202   1.825  15.658  0.4756 -0.3981  0.1535
  822MPD2    C412147   3.258   1.894  15.548  0.3035  0.6448 -1.1294
  822MPD2    C512148   3.340   1.821  15.474  0.2989  0.7551 -0.6093
  822MPD2     H12149   3.188   1.631  15.757 -0.7269  2.2598  1.4452
  822MPD2    H112150   3.236   1.994  15.514  0.0828  0.9577 -0.0623
  822MPD2    H212151   3.452   1.637  15.442 -0.4877 -1.5369  1.1579
  822MPD2    H312152   3.386   1.860  15.384  0.7283  0.5356 -0.4834
  822MPD2     N12153   3.126   1.882  15.763 -0.1883 -0.7390  0.4271
  822MPD2    H512154   3.087   1.815  15.829 -1.0137  1.9632  2.7097
  822MPD2    N112155   3.347   1.481  15.649 -0.4019 -0.1599 -0.0342
  822MPD2    H712156   3.297   1.453  15.733  0.4472 -1.6496 -0.0188
  823MPD2     C12157   2.838   2.060  16.504  0.4162 -0.4598 -0.1184
  823MPD2    C112158   2.840   1.968  16.401  0.9714  0.2731 -0.0367
  823MPD2    C212159   2.855   1.832  16.430 -0.4234  0.7377  0.2523
  823MPD2    C312160   2.866   1.791  16.563  0.0731 -0.7738  0.8288
  823MPD2    C412161   2.857   1.879  16.664 -0.3748 -0.3175 -0.1764
  823MPD2    C512162   2.841   2.010  16.631 -0.2379  0.2274 -0.3595
  823MPD2     H12163   2.843   1.763  16.348  3.0120  1.5652 -0.9631
  823MPD2    H112164   2.861   1.857  16.770 -1.1234  0.7135  0.0677
  823MPD2    H212165   2.858   2.165  16.487  0.1108 -0.5639 -1.1077
  823MPD2    H312166   2.846   2.072  16.719  0.8431 -0.4859  0.0723
  823MPD2     N12167   2.887   1.659  16.607 -0.7087  0.5750 -0.4358
  823MPD2    H512168   2.880   1.633  16.704 -0.8516  0.6029 -0.4382
  823MPD2    N112169   2.842   2.031  16.278  0.0614 -0.5129  0.3929
  823MPD2    H712170   2.838   2.132  16.289 -1.9428 -0.5597 -0.0612
  824MPD2     C12171   3.816   0.711  15.880 -0.1508 -0.1544  0.6385
  824MPD2    C112172   3.808   0.798  15.775 -0.1401  0.1836 -0.3481
  824MPD2    C212173   3.885   0.774  15.665 -0.1786  0.0050 -0.0716
  824MPD2    C312174   3.990   0.691  15.666  0.0783 -0.1562  0.1347
  824MPD2    C412175   4.003   0.610  15.772 -0.5417 -0.3806 -0.2670
  824MPD2    C512176   3.918   0.617  15.881  0.2499  0.5482  0.4793
  824MPD2     H12177   3.870   0.837  15.578 -1.6405 -1.7543 -1.1069
  824MPD2    H112178   4.080   0.534  15.780  0.1053  0.1496 -1.5569
  824MPD2    H212179   3.749   0.720  15.964 -1.4569 -2.3888 -0.1679
  824MPD2    H312180   3.938   0.544  15.959 -3.2086  1.8030  2.5493
  824MPD2     N12181   4.074   0.697  15.547 -0.3972  0.1095  0.1990
  824MPD2    H512182   4.056   0.768  15.477  2.0546  1.4944  0.9592
  824MPD2    N112183   3.715   0.904  15.775 -0.3764 -0.3345 -0.4414
  824MPD2    H712184   3.654   0.898  15.856 -1.0638 -1.3134 -1.0366
  825MPD2     C12185   4.646   1.005  15.021 -0.3529  0.1513  0.0559
  825MPD2    C112186   4.534   1.015  15.107  0.5421  0.3242  0.1199
  825MPD2    C212187   4.507   1.135  15.168  0.1828  0.2873 -0.1459
  825MPD2    C312188   4.598   1.236  15.154  0.0140 -0.3599 -0.5169
  825MPD2    C412189   4.709   1.222  15.071  0.6667  0.0206 -0.2499
  825MPD2    C512190   4.727   1.113  15.000  0.3085  0.5626 -0.2879
  825MPD2     H12191   4.420   1.152  15.231 -0.6374 -3.3166 -0.3114
  825MPD2    H112192   0.038   1.307  15.061 -1.1423  1.2187 -2.1334
  825MPD2    H212193   4.666   0.922  14.954 -0.5784  0.1019  0.0475
  825MPD2    H312194   0.071   1.102  14.931 -0.0838  1.1946 -0.8677
  825MPD2     N12195   4.574   1.362  15.220  0.4317  0.5632  0.7957
  825MPD2    H512196   4.638   1.433  15.185 -0.8168  1.5371  0.4762
  825MPD2    N112197   4.454   0.902  15.121 -0.6635 -0.3352  0.0411
  825MPD2    H712198   4.493   0.814  15.089 -1.6353 -0.7830  0.0555
  826MPD2     C12199   3.336   4.343  13.898  0.9476 -0.3580  0.1150
  826MPD2    C112200   3.391   4.407  13.791  0.7577  0.4293  0.8157
  826MPD2    C212201   3.442   4.535  13.801 -0.6823 -0.0357 -0.7455
  826MPD2    C312202   3.426   4.617  13.912  0.3753 -0.0135  0.1116
  826MPD2    C412203   3.366   4.553  14.017  0.3562  0.7923 -0.5444
  826MPD2    C512204   3.325   4.421  14.013  0.0157 -0.1931  0.1610
  826MPD2     H12205   3.475   4.573  13.705 -0.4506  2.3063  0.2769
  826MPD2    H112206   3.355   4.607  14.111 -0.4732  3.4039 -2.1534
  826MPD2    H212207   3.309   4.238  13.896  2.1813 -0.6731 -0.1867
  826MPD2    H312208   3.286   4.370  14.101  0.6030  0.0887  0.5867
  826MPD2     N12209   3.476   0.010  13.921 -0.3122  0.2516 -0.5527
  826MPD2    H512210   3.453   0.058  14.008 -2.4359 -0.9032 -0.4846
  826MPD2    N112211   3.408   4.337  13.671  0.1487  0.4614  0.2061
  826MPD2    H712212   3.411   4.236  13.681 -0.9859  0.6669  2.7634
  827MPD2     C12213   0.190   1.898   9.837  0.9832  0.5468 -0.1221
  827MPD2    C112214   0.182   1.779   9.904  0.4836 -0.2416  0.4081
  827MPD2    C212215   0.084   1.684   9.867 -0.0752  0.7700 -0.9260
  827MPD2    C312216   4.732   1.716   9.771  0.0411 -0.2271 -0.4780
  827MPD2    C412217   4.733   1.841   9.724  0.6240  0.5612 -0.2702
  827MPD2    C512218   0.100   1.924   9.744 -0.0915  0.2386 -0.1949
  827MPD2     H12219   0.086   1.585   9.911 -1.3057  0.7938 -0.8364
  827MPD2    H112220   4.655   1.873   9.657 -1.0568 -1.2032  0.8235
  827MPD2    H212221   0.269   1.971   9.853  0.8309  0.4501  1.0228
  827MPD2    H312222   0.096   2.024   9.703  2.1713 -0.0912 -1.2126
  827MPD2     N12223   4.627   1.630   9.734  0.7282  0.1396 -0.1133
  827MPD2    H512224   4.626   1.546   9.791 -1.6140 -0.0183 -0.3709
  827MPD2    N112225   0.284   1.741   9.996  0.5095 -0.4576  0.6799
  827MPD2    H712226   0.359   1.809  10.000  0.0728  0.0614 -0.0604
  828MPD2     C12227   3.361   1.866  11.905  0.4152 -0.5623 -0.1599
  828MPD2    C112228   3.231   1.824  11.869 -0.7753 -0.0578 -0.0112
  828MPD2    C212229   3.178   1.872  11.754 -0.1061 -0.0732 -0.8338
  828MPD2    C312230   3.255   1.945  11.660 -0.4048  0.2581  0.1824
  828MPD2    C412231   3.384   1.974  11.692 -0.3448  0.0547 -0.0575
  828MPD2    C512232   3.437   1.936  11.813  0.5080 -0.2694 -0.4786
  828MPD2     H12233   3.078   1.839  11.730 -0.2459  0.0156 -0.3696
  828MPD2    H112234   3.446   2.021  11.616 -0.5990  0.4816  0.0015
  828MPD2    H212235   3.412   1.837  11.997  0.2154 -1.6581 -0.3993
  828MPD2    H312236   3.542   1.956  11.835  0.2258  1.7745 -1.0098
  828MPD2     N12237   3.200   1.978  11.525 -0.4412  0.6973  0.5534
  828MPD2    H512238   3.265   2.032  11.470  1.0282 -0.4098  1.1921
  828MPD2    N112239   3.154   1.734  11.945 -0.4488 -0.2634  0.0605
  828MPD2    H712240   3.065   1.695  11.918 -0.7106  1.1268 -1.0331
  829MPD2     C12241   2.250   1.531  12.325 -0.5083  0.4403  0.0964
  829MPD2    C112242   2.293   1.551  12.201 -0.5710  0.4265 -0.1969
  829MPD2    C212243   2.430   1.535  12.173 -0.6423 -0.2198 -0.0344
  829MPD2    C312244   2.522   1.501  12.274  0.0209 -0.7505  0.2420
  829MPD2    C412245   2.465   1.473  12.397 -0.0809  1.0019  0.5115
  829MPD2    C512246   2.335   1.489  12.423  0.2696 -0.2757 -0.1487
  829MPD2     H12247   2.461   1.565  12.074  1.3682  0.0870  0.6799
  829MPD2    H112248   2.528   1.436  12.477  0.7864 -2.7828 -1.9167
  829MPD2    H212249   2.144   1.541  12.345 -0.8473  1.1681 -2.0658
  829MPD2    H312250   2.305   1.460  12.523 -1.2428  1.2577 -0.1765
  829MPD2     N12251   2.662   1.485  12.258 -0.2575  0.4542  0.0367
  829MPD2    H512252   2.712   1.447  12.337 -3.3525  0.6864  2.1399
  829MPD2    N112253   2.196   1.588  12.103 -0.3154  0.0567  0.2761
  829MPD2    H712254   2.110   1.624  12.144  0.4209  1.8340  0.2446
  830MPD2     C12255   3.653   4.641  15.804  0.2275 -0.1999  0.8184
  830MPD2    C112256   3.564   4.699  15.719  0.2010  0.4578  0.1510
  830MPD2    C212257   3.606   0.013  15.599 -0.1484  0.1969 -0.5769
  830MPD2    C312258   3.727   4.711  15.543 -0.8253  0.3201 -0.1202
  830MPD2    C412259   3.815   4.643  15.624  0.7603 -0.0134 -0.1065
  830MPD2    C512260   3.780   4.614  15.753 -0.3352  0.5431 -0.8126
  830MPD2     H12261   3.537   0.072  15.540  0.0652  1.1529  0.1438
  830MPD2    H112262   3.920   4.623  15.604  1.1014  2.2196 -0.4647
  830MPD2    H212263   3.614   4.597  15.896 -0.3059  0.6666  1.0061
  830MPD2    H312264   3.862   4.580  15.815 -1.0735 -0.4093 -0.3567
  830MPD2     N12265   3.770   0.016  15.414  0.5469  0.3910 -0.0929
  830MPD2    H512266   3.870   0.018  15.394  0.4289 -4.9647 -1.3137
  830MPD2    N112267   3.427   4.711  15.763  0.4752 -0.0011  0.5505
  830MPD2    H712268   3.412   4.666  15.853 -1.1037 -0.2969  0.1481
  831MPD2     C12269   3.311   1.912  16.092  0.0986 -0.0996  0.5606
  831MPD2    C112270   3.354   1.796  16.022  0.1892  0.0749  0.4363
  831MPD2    C212271   3.276   1.691  16.016  0.3344 -0.0847 -0.3007
  831MPD2    C312272   3.154   1.698  16.085 -0.4513  0.1406  0.1047
  831MPD2    C412273   3.127   1.799  16.171 -0.4681  0.8181 -0.1178
  831MPD2    C512274   3.196   1.912  16.168 -0.4866  0.5890 -0.1568
  831MPD2     H12275   3.294   1.611  15.944 -0.7672  1.9127 -2.7997
  831MPD2    H112276   3.041   1.806  16.236  0.1120 -0.4624  0.7948
  831MPD2    H212277   3.371   2.002  16.089 -0.8894  0.5124 -0.6131
  831MPD2    H312278   3.168   2.003  16.221 -2.1396 -0.8616  1.4329
  831MPD2     N12279   3.059   1.600  16.075 -0.0890 -0.0395  0.1836
  831MPD2    H512280   2.980   1.606  16.139 -0.4425 -1.2733 -0.1314
  831MPD2    N112281   3.481   1.802  15.967 -0.1011  0.0786 -0.1576
  831MPD2    H712282   3.524   1.892  15.951 -1.8817  0.7131 -1.4346
  832MPD2     C12283   1.835   3.033  17.223  0.2070 -0.4468  0.4295
  832MPD2    C112284   1.842   3.139  17.130  0.3048  0.1391 -0.1812
  832MPD2    C212285   1.740   3.145  17.035 -0.2946  0.0046 -0.2069
  832MPD2    C312286   1.633   3.072  17.043 -1.2216 -0.0513  0.7632
  832MPD2    C412287   1.619   2.972  17.139  0.4576  0.3107  0.4642
  832MPD2    C512288   1.723   2.952  17.224  0.0718  0.1309 -0.6642
  832MPD2     H12289   1.743   3.226  16.963 -0.9116 -0.0426 -0.2804
  832MPD2    H112290   1.535   2.904  17.148 -0.3476  1.1356 -0.8314
  832MPD2    H212291   1.915   3.012  17.293 -0.0120 -0.8215  0.5691
  832MPD2    H312292   1.707   2.875  17.298 -2.0297  1.8868  0.6854
  832MPD2     N12293   1.524   3.083  16.958 -0.2067  0.3623  0.8300
  832MPD2    H512294   1.459   3.009  16.981 -0.0277  0.2662  1.0273
  832MPD2    N112295   1.942   3.240  17.137  0.1405  0.0048 -0.2305
  832MPD2    H712296   2.015   3.238  17.208 -0.9501  1.4810  0.9162
  833MPD2     C12297   3.454   4.295  12.582 -0.2830 -0.1765 -0.4558
  833MPD2    C112298   3.440   4.367  12.468 -0.5811 -0.6520  0.2762
  833MPD2    C212299   3.539   4.361  12.372 -0.3607 -0.5894 -0.1498
  833MPD2    C312300   3.658   4.294  12.394 -0.1463 -0.3871 -0.4868
  833MPD2    C412301   3.672   4.231  12.511  0.1272  0.2922  0.4807
  833MPD2    C512302   3.571   4.223  12.604  0.1868  0.1177 -0.1437
  833MPD2     H12303   3.520   4.427  12.288 -1.9498  0.5623  1.1177
  833MPD2    H112304   3.757   4.166  12.525 -0.4834 -0.6352 -0.1466
  833MPD2    H212305   3.370   4.283  12.650 -1.6217 -0.1741 -2.1094
  833MPD2    H312306   3.600   4.174  12.696  1.0804  2.3826  0.7678
  833MPD2     N12307   3.772   4.305  12.299  0.1157 -0.3180  0.3330
  833MPD2    H512308   3.865   4.276  12.327  0.1731 -1.2048 -0.7650
  833MPD2    N112309   3.325   4.449  12.452  0.3918  0.0781 -0.2097
  833MPD2    H712310   3.246   4.420  12.509 -0.0952 -0.4368 -1.1408
  834MPD2     C12311   4.169   3.677  11.708  0.0504  0.1996  0.7493
  834MPD2    C112312   4.097   3.753  11.615  0.2405  1.0927  0.2514
  834MPD2    C212313   4.066   3.885  11.641 -0.3269  0.6956 -0.1375
  834MPD2    C312314   4.106   3.939  11.766  0.4004 -0.3181 -0.2598
  834MPD2    C412315   4.193   3.868  11.848  0.7905 -0.9120 -0.2205
  834MPD2    C512316   4.216   3.739  11.820  0.0117  0.8739 -0.1769
  834MPD2     H12317   4.028   3.952  11.566 -0.8970  1.1079  0.5164
  834MPD2    H112318   4.230   3.908  11.942  2.8184 -1.8241 -0.6335
  834MPD2    H212319   4.191   3.572  11.695  1.9387  0.4482  1.9622
  834MPD2    H312320   4.282   3.685  11.887 -1.5822 -0.8194  0.0121
  834MPD2     N12321   4.072   4.076  11.783 -0.5219 -0.8382  0.2996
  834MPD2    H512322   4.018   4.118  11.708  0.1624  0.0332  0.2878
  834MPD2    N112323   4.041   3.688  11.497 -0.0703 -0.5559  0.2949
  834MPD2    H712324   4.029   3.587  11.496 -2.7281 -0.2444  0.2589
  835MPD2     C12325   3.982   2.183  11.328 -0.3210  0.0702  0.2827
  835MPD2    C112326   3.875   2.113  11.292  0.3018  0.6924 -0.4681
  835MPD2    C212327   3.834   2.005  11.367  0.8050  0.2263  0.1357
  835MPD2    C312328   3.884   1.984  11.496 -0.0690  0.5961  0.1296
  835MPD2    C412329   3.992   2.066  11.542  0.1494 -0.4530 -0.0677
  835MPD2    C512330   4.044   2.157  11.451 -0.3827  0.5218  0.7326
  835MPD2     H12331   3.769   1.930  11.323 -0.9274  0.6161  2.0273
  835MPD2    H112332   4.043   2.057  11.637 -1.6245 -0.0576  0.9296
  835MPD2    H212333   4.035   2.245  11.256 -0.1633  0.0922  0.4172
  835MPD2    H312334   4.131   2.217  11.475 -0.3387  0.3975  0.8894
  835MPD2     N12335   3.828   1.882  11.579 -0.5057  0.9957  0.2117
  835MPD2    H512336   3.888   1.866  11.659 -0.0074  1.5294 -0.0660
  835MPD2    N112337   3.798   2.146  11.174 -0.2150  0.0235 -0.3424
  835MPD2    H712338   3.732   2.074  11.146 -0.4894  0.9309 -2.0121
  836MPD2     C12339   4.055   1.781  12.112  0.4955 -0.8851  0.7242
  836MPD2    C112340   4.013   1.656  12.072 -0.1494 -0.0701 -0.0437
  836MPD2    C212341   4.051   1.552  12.162  0.7566 -0.1803 -0.0563
  836MPD2    C312342   4.131   1.577  12.272 -0.6661 -0.1334  0.3337
  836MPD2    C412343   4.179   1.707  12.297  0.0136 -0.1018  0.4545
  836MPD2    C512344   4.138   1.808  12.215 -0.3525  0.0281  0.0954
  836MPD2     H12345   4.034   1.451  12.128 -1.8892  1.2997 -3.1716
  836MPD2    H112346   4.231   1.738  12.387  1.6474 -1.8360  0.0905
  836MPD2    H212347   4.025   1.867  12.053  0.2323 -0.4662  1.4594
  836MPD2    H312348   4.163   1.911  12.237  1.4730 -0.4318  0.1359
  836MPD2     N12349   4.171   1.473  12.360 -0.3313 -0.2965 -0.1446
  836MPD2    H512350   4.230   1.498  12.438  0.4652 -1.0791 -0.4842
  836MPD2    N112351   3.947   1.637  11.948  0.3009  0.1663 -0.9112
  836MPD2    H712352   3.933   1.720  11.891 -2.6898  0.3781  0.1659
  837MPD2     C12353   2.100   1.565  10.464  0.2914 -0.2781  0.2487
  837MPD2    C112354   2.023   1.579  10.354 -0.1358  0.9579 -0.3754
  837MPD2    C212355   1.987   1.702  10.308  0.1651 -0.0246 -0.3851
  837MPD2    C312356   2.004   1.813  10.393  0.5816  0.2289 -0.3616
  837MPD2    C412357   2.067   1.793  10.518 -0.0970  0.7472 -0.2162
  837MPD2    C512358   2.128   1.670  10.545 -0.4096  0.3667  0.2574
  837MPD2     H12359   1.937   1.719  10.213  2.0998  2.9918 -0.8752
  837MPD2    H112360   2.096   1.878  10.580 -0.2153 -0.4895  1.5413
  837MPD2    H212361   2.128   1.469  10.504  1.1139 -0.2129 -0.1776
  837MPD2    H312362   2.199   1.667  10.627 -2.2401 -1.2446  1.7845
  837MPD2     N12363   1.959   1.932  10.340 -0.6149 -0.5329  0.1595
  837MPD2    H512364   1.922   1.932  10.245 -1.6686  0.7119  0.5674
  837MPD2    N112365   1.980   1.464  10.282  0.2545 -0.2221  0.4279
  837MPD2    H712366   1.929   1.480  10.196  2.3123  2.8713 -0.2165
  838MPD2     C12367   0.204   4.220  11.320  0.4093  0.2682 -0.1844
  838MPD2    C112368   0.179   4.287  11.435  0.1186  0.2371  0.3717
  838MPD2    C212369   0.066   4.254  11.510 -0.2059  0.5347  0.5788
  838MPD2    C312370   0.007   4.131  11.490 -0.0261 -0.0953  0.1018
  838MPD2    C412371   0.029   4.070  11.369  0.2455  0.1716  0.0421
  838MPD2    C512372   0.126   4.112  11.283 -0.4985 -0.6652 -0.1205
  838MPD2     H12373   0.040   4.306  11.601  2.0673  1.4995  0.6652
  838MPD2    H112374   4.709   3.988  11.331  0.1062  0.0009  0.6327
  838MPD2    H212375   0.296   4.237  11.265  0.4629  0.6327  0.0173
  838MPD2    H312376   0.150   4.058  11.191  0.2094 -2.3980  1.0777
  838MPD2     N12377   4.656   4.085  11.591 -0.7331 -0.5731  0.0833
  838MPD2    H512378   4.663   4.125  11.684 -0.7689 -1.1495  0.3270
  838MPD2    N112379   0.251   4.398  11.481  0.0542 -0.1146  0.4275
  838MPD2    H712380   0.224   4.438  11.570  1.6367 -0.9629  1.2770
  839MPD2     C12381   0.279   3.933  11.861 -0.1449  0.3221  0.0280
  839MPD2    C112382   0.315   3.964  11.730  0.0800 -0.5888 -0.0055
  839MPD2    C212383   0.395   4.078  11.708 -0.7436 -0.2129 -0.0451
  839MPD2    C312384   0.420   4.163  11.817  0.1290 -0.4996 -0.1504
  839MPD2    C412385   0.386   4.130  11.950  0.3276  0.2281  0.8756
  839MPD2    C512386   0.320   4.012  11.963  0.2860 -0.5667  0.1424
  839MPD2     H12387   0.417   4.108  11.606  0.3721 -2.4954 -0.4826
  839MPD2    H112388   0.419   4.195  12.030  2.1935 -0.1733  0.4533
  839MPD2    H212389   0.213   3.854  11.894 -0.2930 -0.1318 -1.3587
  839MPD2    H312390   0.278   3.981  12.058  0.8304  0.5134  0.7419
  839MPD2     N12391   0.486   4.286  11.805  0.6298  0.3395  0.1857
  839MPD2    H512392   0.494   4.349  11.885  1.3476  0.5859 -0.0742
  839MPD2    N112393   0.289   3.878  11.624  0.0327  0.3086 -0.5074
  839MPD2    H712394   0.326   3.903  11.532  0.6719 -0.0099 -0.3361
  840MPD2     C12395   0.806   2.006   9.869 -0.2921  0.0861 -0.2137
  840MPD2    C112396   0.808   1.971  10.000  0.7039  0.0198  0.4046
  840MPD2    C212397   0.882   2.047  10.085  0.3768  0.3132  0.4221
  840MPD2    C312398   0.954   2.155  10.032 -0.2176 -0.2092 -0.4121
  840MPD2    C412399   0.944   2.187   9.897 -0.1930  0.6161  0.1348
  840MPD2    C512400   0.865   2.110   9.814 -0.0808  0.2571 -0.3228
  840MPD2     H12401   0.882   2.028  10.192  0.5687 -1.7341  0.0596
  840MPD2    H112402   0.991   2.277   9.858 -2.0294  0.7429 -1.7924
  840MPD2    H212403   0.748   1.932   9.814 -2.4069  1.3128  0.3687
  840MPD2    H312404   0.859   2.118   9.706 -0.9007 -1.6170 -0.4158
  840MPD2     N12405   1.024   2.248  10.114  0.0777  0.6550 -0.4176
  840MPD2    H512406   1.071   2.324  10.067  1.7552 -0.1072  0.0340
  840MPD2    N112407   0.732   1.858  10.055  0.2852 -0.1066 -0.3786
  840MPD2    H712408   0.675   1.818   9.981  1.8260  0.6421 -1.9673
  841MPD2     C12409   0.005   2.073  14.425 -0.4521  0.0939  0.3822
  841MPD2    C112410   0.025   1.959  14.502  0.7368 -0.4694  0.3676
  841MPD2    C212411   0.122   1.957  14.599 -0.1954 -0.4612 -0.0478
  841MPD2    C312412   0.212   2.060  14.597  0.2155  0.5866 -0.2387
  841MPD2    C412413   0.203   2.162  14.509  0.5542  0.5646  0.9423
  841MPD2    C512414   0.102   2.164  14.417  0.0574  0.0164 -0.2552
  841MPD2     H12415   0.129   1.877  14.673  0.1003 -0.2896  0.1105
  841MPD2    H112416   0.277   2.241  14.510 -0.5277  1.5931 -1.1738
  841MPD2    H212417   4.644   2.090  14.384  0.7942  2.8971 -1.4808
  841MPD2    H312418   0.094   2.255  14.359 -0.6608 -0.5317 -1.0172
  841MPD2     N12419   0.310   2.065  14.695 -0.3469 -0.1775 -0.1459
  841MPD2    H512420   0.304   1.997  14.771 -0.8814 -0.8260 -0.7751
  841MPD2    N112421   4.667   1.855  14.501 -0.0996  0.0659  0.2717
  841MPD2    H712422   4.676   1.788  14.576  2.1667  1.3852  1.1787
  842MPD2     C12423   1.147   3.360  16.848  0.5887 -0.1660 -0.6026
  842MPD2    C112424   1.059   3.264  16.806 -0.1652  0.1507  0.4653
  842MPD2    C212425   1.007   3.169  16.895  0.0505  0.5073  0.2692
  842MPD2    C312426   1.037   3.179  17.031  0.3249  0.6549 -0.3841
  842MPD2    C412427   1.123   3.274  17.072  0.5862 -0.4401 -0.3537
  842MPD2    C512428   1.175   3.357  16.979  0.0570 -0.3682 -0.5076
  842MPD2     H12429   0.953   3.082  16.860 -0.2196  0.1406  1.5642
  842MPD2    H112430   1.154   3.281  17.176  0.2933 -1.1399 -0.2192
  842MPD2    H212431   1.203   3.420  16.777 -1.5399  0.0693 -2.1139
  842MPD2    H312432   1.251   3.428  17.006  0.2427 -0.8238  0.1776
  842MPD2     N12433   0.985   3.092  17.125 -0.0945  0.0450 -0.6038
  842MPD2    H512434   1.007   3.108  17.222  1.8373  1.4987 -1.2864
  842MPD2    N112435   1.027   3.264  16.666  0.8138  0.6719 -0.1555
  842MPD2    H712436   1.042   3.353  16.619 -0.7902  1.2966  0.4930
  843MPD2     C12437   2.998   3.886   0.542 -0.0052  0.5449  0.1160
  843MPD2    C112438   2.987   3.958   0.424  0.2115  0.1713  0.8648
  843MPD2    C212439   3.103   4.005   0.366  0.2005 -0.1984 -0.0981
  843MPD2    C312440   3.227   3.947   0.403  0.6866 -0.6120  0.0004
  843MPD2    C412441   3.240   3.860   0.508 -0.1065  0.0105 -0.0566
  843MPD2    C512442   3.125   3.841   0.586  0.1356 -0.4573 -0.2830
  843MPD2     H12443   3.094   4.064   0.276 -2.4476  1.8077  1.4799
  843MPD2    H112444   3.336   3.818   0.536 -0.1075 -0.4048 -0.6848
  843MPD2    H212445   2.915   3.853   0.604  1.4523 -0.9947  1.2499
  843MPD2    H312446   3.120   3.773   0.670 -1.0544  0.4381  0.3771
  843MPD2     N12447   3.348   3.978   0.329 -0.1218 -0.0020 -0.5718
  843MPD2    H512448   3.427   3.924   0.365 -1.1954 -1.2827 -0.1083
  843MPD2    N112449   2.857   3.993   0.387 -0.5218  1.0651  0.5265
  843MPD2    H712450   2.777   3.940   0.422  1.7339 -0.1493  3.9056
  844MPD2     C12451   1.379   2.521  16.538  0.3114  0.3599 -0.3008
  844MPD2    C112452   1.435   2.593  16.431  0.2074  0.0694  0.3307
  844MPD2    C212453   1.518   2.698  16.465 -0.2617  0.2302  0.4678
  844MPD2    C312454   1.541   2.739  16.597  0.1830  0.4835  0.8648
  844MPD2    C412455   1.488   2.663  16.697  0.1798  0.0914  0.4711
  844MPD2    C512456   1.411   2.558  16.667 -0.0092  0.3563 -0.3068
  844MPD2     H12457   1.558   2.757  16.383  3.1273 -0.4071  1.6545
  844MPD2    H112458   1.510   2.676  16.803  1.6659  0.8829  0.0587
  844MPD2    H212459   1.322   2.431  16.520  1.6717 -0.1094 -2.3794
  844MPD2    H312460   1.363   2.507  16.749 -1.4824 -1.6588 -2.4154
  844MPD2     N12461   1.621   2.845  16.627  0.4359 -0.5221 -0.9582
  844MPD2    H512462   1.654   2.852  16.723 -4.0412  3.5154  0.2586
  844MPD2    N112463   1.428   2.552  16.300 -0.0537 -0.7083  0.1015
  844MPD2    H712464   1.478   2.609  16.232 -0.0851  2.2091  2.5350
  845MPD2     C12465   1.724   3.890  16.679  0.1755 -0.4394  0.0203
  845MPD2    C112466   1.766   3.826  16.792 -0.1460 -0.1490  0.1474
  845MPD2    C212467   1.797   3.688  16.797 -0.5838  0.2880  0.7441
  845MPD2    C312468   1.787   3.615  16.683 -0.2582 -0.7827 -0.2963
  845MPD2    C412469   1.756   3.689  16.567 -0.1277  0.9200  0.6974
  845MPD2    C512470   1.717   3.820  16.567  0.0738 -0.1280  0.7830
  845MPD2     H12471   1.835   3.634  16.883  1.4244 -0.0021 -0.3079
  845MPD2    H112472   1.740   3.649  16.467 -0.7542 -1.2452  1.6654
  845MPD2    H212473   1.701   3.996  16.674 -0.5469 -0.6655 -1.3714
  845MPD2    H312474   1.678   3.861  16.475  0.0645  1.5139  1.5172
  845MPD2     N12475   1.822   3.475  16.682  0.5579 -0.1391  0.3483
  845MPD2    H512476   1.852   3.438  16.772 -0.9573 -1.3417  0.3661
  845MPD2    N112477   1.780   3.913  16.900  0.5349  0.3716 -0.2241
  845MPD2    H712478   1.763   4.012  16.884 -1.0201  0.2948  1.0873
  846MPD2     C12479   2.834   3.387  13.807 -0.3431 -0.0131 -0.2942
  846MPD2    C112480   2.704   3.423  13.795  0.1184  0.8507  0.3911
  846MPD2    C212481   2.628   3.433  13.913  0.7674 -0.0463  0.2160
  846MPD2    C312482   2.686   3.395  14.030 -0.1213 -0.1759  0.3109
  846MPD2    C412483   2.821   3.369  14.038 -0.1704  0.2640 -0.1086
  846MPD2    C512484   2.893   3.365  13.924  0.5222  0.6615  0.4549
  846MPD2     H12485   2.526   3.468  13.911  1.1812  1.2318  1.2069
  846MPD2    H112486   2.878   3.356  14.129  0.9505 -1.6294 -1.0724
  846MPD2    H212487   2.903   3.401  13.725  0.4221  2.6484  0.8217
  846MPD2    H312488   3.000   3.377  13.935  1.0450 -1.5649 -2.1858
  846MPD2     N12489   2.602   3.398  14.142  0.4976 -0.3639 -0.5803
  846MPD2    H512490   2.509   3.434  14.123 -0.0484 -1.0135  0.8409
  846MPD2    N112491   2.650   3.471  13.673 -0.4288 -0.2655 -0.6486
  846MPD2    H712492   2.579   3.544  13.679 -1.6136 -1.4432 -0.4330
  847MPD2     C12493   2.832   4.482  14.339 -0.0708 -0.1195  0.2929
  847MPD2    C112494   2.878   4.599  14.389 -0.5605  0.5365  0.4852
  847MPD2    C212495   3.015   4.621  14.404 -0.0609  0.5348  0.6014
  847MPD2    C312496   3.111   4.527  14.372 -0.1757  0.0800  0.2604
  847MPD2    C412497   3.059   4.402  14.330 -0.0356  0.0755  0.4784
  847MPD2    C512498   2.922   4.387  14.318 -0.3404  0.0602 -0.4055
  847MPD2     H12499   3.059   4.713  14.440 -0.7135 -0.2819  3.4551
  847MPD2    H112500   3.120   4.316  14.304 -1.8766 -0.5241 -1.7691
  847MPD2    H212501   2.727   4.468  14.315  0.7067 -2.4350 -1.7667
  847MPD2    H312502   2.886   4.288  14.292 -1.0096  0.5452 -1.3364
  847MPD2     N12503   3.245   4.563  14.382  0.5745 -0.1190 -0.5646
  847MPD2    H512504   3.269   4.661  14.394 -0.4087  0.1104 -0.4035
  847MPD2    N112505   2.781   4.699  14.416  0.2281 -0.0521 -0.1123
  847MPD2    H712506   2.683   4.680  14.396  0.0502  1.2147 -0.4436
  848MPD2     C12507   1.274   3.273  16.136  0.1309 -0.4083  0.3150
  848MPD2    C112508   1.339   3.320  16.247 -0.0761 -0.6333 -0.1329
  848MPD2    C212509   1.401   3.444  16.242 -0.1394  0.1625 -0.0003
  848MPD2    C312510   1.392   3.522  16.129  0.2935 -0.1083  0.6663
  848MPD2    C412511   1.332   3.469  16.017 -0.1816 -0.2490  0.4795
  848MPD2    C512512   1.268   3.349  16.021 -0.0204  0.1842  0.3242
  848MPD2     H12513   1.462   3.480  16.324 -0.1082  0.4377 -0.1450
  848MPD2    H112514   1.328   3.520  15.922  1.6633  0.1288  0.5971
  848MPD2    H212515   1.229   3.175  16.132 -0.1574 -0.3002  0.8672
  848MPD2    H312516   1.205   3.319  15.938 -0.9702  0.8207  0.8151
  848MPD2     N12517   1.442   3.655  16.114  0.4550  0.0452  0.4335
  848MPD2    H512518   1.413   3.688  16.022 -0.8715 -2.0579  0.1148
  848MPD2    N112519   1.351   3.252  16.373  0.0663  0.9690 -0.7364
  848MPD2    H712520   1.409   3.296  16.444 -0.2602  0.8908 -0.4226
  849MPD2     C12521   4.595   2.674  13.804 -0.1654 -0.3824  0.1909
  849MPD2    C112522   0.001   2.679  13.814 -0.2870  0.2465 -0.5188
  849MPD2    C212523   0.060   2.586  13.897  0.1923 -0.1007  0.1369
  849MPD2    C312524   4.733   2.495  13.959  0.2608 -0.5136 -0.6118
  849MPD2    C412525   4.595   2.484  13.953  0.2065  0.0151  0.2181
  849MPD2    C512526   4.533   2.576  13.873 -0.5271 -0.5216 -0.7405
  849MPD2     H12527   0.168   2.576  13.888  0.4156  1.3818  1.0305
  849MPD2    H112528   4.534   2.402  13.991  1.6108 -1.7971 -1.4582
  849MPD2    H212529   4.533   2.737  13.742 -2.3562 -0.9343  1.8240
  849MPD2    H312530   4.428   2.569  13.846 -0.8137 -0.8439  0.4537
  849MPD2     N12531   0.065   2.396  14.032 -0.7901  0.5545 -0.2578
  849MPD2    H512532   0.027   2.303  14.044  0.7540 -0.2187 -1.3738
  849MPD2    N112533   0.079   2.774  13.748 -0.3086  0.3575  0.9667
  849MPD2    H712534   0.030   2.833  13.681  2.3969 -0.4237 -1.7029
  850MPD2     C12535   3.329   0.864  14.559  0.6337 -0.4611  0.1073
  850MPD2    C112536   3.318   0.957  14.659  0.4982  0.2689  0.4368
  850MPD2    C212537   3.436   1.021  14.715 -0.5059  0.7926 -0.1655
  850MPD2    C312538   3.559   0.976  14.676 -0.3739 -0.1850 -0.8116
  850MPD2    C412539   3.564   0.873  14.593  0.4407  0.2167 -0.1882
  850MPD2    C512540   3.454   0.823  14.528 -0.3120 -0.4228 -0.1850
  850MPD2     H12541   3.432   1.103  14.786  1.9452 -1.5740  2.7202
  850MPD2    H112542   3.658   0.832  14.558 -0.7767 -1.4497 -1.5151
  850MPD2    H212543   3.240   0.817  14.518  1.5996 -0.4868 -1.9661
  850MPD2    H312544   3.466   0.734  14.467  0.8453 -1.2381  1.2287
  850MPD2     N12545   3.675   1.003  14.749 -0.0416 -0.0647  0.0468
  850MPD2    H512546   3.748   0.937  14.725 -0.2208 -0.0005 -0.6751
  850MPD2    N112547   3.188   1.004  14.693  0.2360  0.2295 -0.0947
  850MPD2    H712548   3.117   0.985  14.623 -0.9079 -1.1949  1.4466
  851MPD2     C12549   3.800   0.917  15.249  0.4001  0.3654 -0.7397
  851MPD2    C112550   3.693   0.858  15.175 -0.1720  0.2772 -0.0967
  851MPD2    C212551   3.709   0.726  15.131 -0.1819 -0.3848 -0.0654
  851MPD2    C312552   3.821   0.650  15.162 -0.3513  0.1772 -0.1565
  851MPD2    C412553   3.922   0.716  15.221 -0.6234 -0.4133 -1.0420
  851MPD2    C512554   3.919   0.849  15.266  0.3323 -0.2230  0.2082
  851MPD2     H12555   3.627   0.677  15.078  0.0914 -2.4514  1.4112
  851MPD2    H112556   4.017   0.662  15.218 -2.4668 -3.8275  1.6512
  851MPD2    H212557   3.795   1.020  15.282  0.6000  0.1436 -0.0329
  851MPD2    H312558   4.005   0.901  15.306  0.1047  1.5089 -1.5659
  851MPD2     N12559   3.815   0.514  15.130  0.0168 -0.8075  0.4754
  851MPD2    H512560   3.728   0.494  15.081 -0.1156  3.1164 -0.8491
  851MPD2    N112561   3.571   0.933  15.160  0.5550 -0.1538  0.0986
  851MPD2    H712562   3.583   1.030  15.185  2.0742  0.6028 -3.5038
  852MPD2     C12563   3.200   2.658   9.516 -0.0028 -0.6043  0.2132
  852MPD2    C112564   3.199   2.727   9.633 -0.4781 -0.4874  0.6772
  852MPD2    C212565   3.281   2.833   9.653  0.5544  0.4843 -0.4756
  852MPD2    C312566   3.374   2.865   9.563  0.3393  0.2876 -0.7571
  852MPD2    C412567   3.394   2.788   9.454 -0.1977 -0.3256 -0.0678
  852MPD2    C512568   3.303   2.686   9.429  0.7927  0.0930  0.3763
  852MPD2     H12569   3.272   2.882   9.749  1.0974 -3.2677  1.5094
  852MPD2    H112570   3.461   2.819   9.375 -1.2266 -0.1189 -0.8763
  852MPD2    H212571   3.126   2.584   9.490  0.0062 -0.3384 -0.5849
  852MPD2    H312572   3.301   2.635   9.333 -0.4544  0.5696  0.1360
  852MPD2     N12573   3.448   2.983   9.596  0.3740  0.4616  0.4669
  852MPD2    H512574   3.426   3.023   9.687  1.0524 -0.7382  1.1726
  852MPD2    N112575   3.098   2.694   9.731 -0.0159 -0.0029 -0.0585
  852MPD2    H712576   3.098   2.753   9.814 -2.4354 -2.4090  1.6463
  853MPD2     C12577   0.338   2.797  12.090  0.4168 -0.3163  0.2209
  853MPD2    C112578   0.206   2.824  12.066  0.8637 -0.0212 -0.2949
  853MPD2    C212579   0.152   2.791  11.946  0.1089  0.1058  0.5025
  853MPD2    C312580   0.232   2.727  11.850 -0.2947 -0.1267  0.9150
  853MPD2    C412581   0.363   2.695  11.880 -0.7049  0.0838 -0.3742
  853MPD2    C512582   0.412   2.729  11.998  0.5837  0.1889  0.5934
  853MPD2     H12583   0.049   2.807  11.917  0.0159  0.4580  1.0348
  853MPD2    H112584   0.434   2.644  11.815  0.8061  0.3629  1.0410
  853MPD2    H212585   0.386   2.843  12.176  1.7752  1.3535 -1.4101
  853MPD2    H312586   0.513   2.712  12.031  1.9344  1.1158 -3.0050
  853MPD2     N12587   0.191   2.706  11.719 -0.1150 -0.5691 -0.0125
  853MPD2    H512588   0.261   2.684  11.649  2.3291 -0.7764  2.4936
  853MPD2    N112589   0.129   2.904  12.160  0.2150  0.3872  0.4321
  853MPD2    H712590   0.175   2.921  12.249  0.6495 -2.1685  0.7046
  854MPD2     C12591   1.638   2.603  12.447 -0.5871  0.1659 -0.1640
  854MPD2    C112592   1.635   2.656  12.577 -0.3661  0.2658 -0.8954
  854MPD2    C212593   1.718   2.597  12.670  0.0791 -0.2852  0.6058
  854MPD2    C312594   1.789   2.483  12.641  0.1386 -0.2167  0.5987
  854MPD2    C412595   1.775   2.433  12.510  0.3692  0.0637  1.0594
  854MPD2    C512596   1.703   2.489  12.412  0.6896  0.5012 -0.5555
  854MPD2     H12597   1.713   2.650  12.764  1.0714 -1.4733  1.3185
  854MPD2    H112598   1.828   2.340  12.495 -0.2579 -0.1516  0.1722
  854MPD2    H212599   1.572   2.642  12.370  1.5020  3.5253 -0.2856
  854MPD2    H312600   1.689   2.430  12.322 -3.8537 -0.1538  0.5371
  854MPD2     N12601   1.851   2.393  12.735 -0.0817 -0.2930  0.5440
  854MPD2    H512602   1.913   2.320  12.702 -1.3651 -1.1218 -0.0031
  854MPD2    N112603   1.546   2.757  12.610  0.1217  0.3913  0.2889
  854MPD2    H712604   1.505   2.808  12.533 -0.6256  2.0310  1.7713
  855MPD2     C12605   1.935   2.632  13.682  0.5133  0.9016  0.2090
  855MPD2    C112606   1.994   2.505  13.680 -0.3783  0.2391 -0.4140
  855MPD2    C212607   2.021   2.447  13.555 -0.3265 -0.0604  0.1661
  855MPD2    C312608   2.000   2.521  13.440 -0.5033  0.5007 -0.7557
  855MPD2    C412609   1.934   2.647  13.444  0.6121  0.7137 -0.6624
  855MPD2    C512610   1.913   2.700  13.568  0.1432 -0.3651 -0.1489
  855MPD2     H12611   2.067   2.349  13.548  3.0432  1.3594  2.4466
  855MPD2    H112612   1.919   2.716  13.362  1.5255 -0.4575 -1.8090
  855MPD2    H212613   1.907   2.688  13.771  1.1798  2.3309 -0.4724
  855MPD2    H312614   1.878   2.800  13.590  1.2519  0.0320 -0.1768
  855MPD2     N12615   2.031   2.471  13.308  0.0136 -0.4506  0.0425
  855MPD2    H512616   1.999   2.521  13.226 -0.3674 -2.1876 -0.8572
  855MPD2    N112617   2.020   2.434  13.797 -0.0409 -1.0060 -0.4917
  855MPD2    H712618   2.063   2.343  13.785  0.7374 -0.3981 -2.2728
  856MPD2     C12619   4.230   3.413  13.971 -0.3999 -0.3224 -0.1193
  856MPD2    C112620   4.210   3.531  14.028 -0.0046 -0.1172 -0.1490
  856MPD2    C212621   4.084   3.584  14.021 -0.7503 -0.3204  0.1539
  856MPD2    C312622   3.981   3.522  13.948 -0.0984  0.0131 -0.7139
  856MPD2    C412623   4.008   3.399  13.894 -0.3836  0.0975  0.4624
  856MPD2    C512624   4.132   3.346  13.900  0.2233  0.2079  0.3355
  856MPD2     H12625   4.065   3.680  14.068 -1.1788 -0.5643  0.4786
  856MPD2    H112626   3.932   3.337  13.846  0.6110 -2.3801  2.0954
  856MPD2    H212627   4.329   3.370  13.964 -0.0415  0.4536  0.1795
  856MPD2    H312628   4.152   3.255  13.845  1.6431 -0.4177  1.8929
  856MPD2     N12629   3.864   3.587  13.914  0.5015  0.7320 -0.4856
  856MPD2    H512630   3.803   3.544  13.846  0.8446 -1.4665  0.5882
  856MPD2    N112631   4.315   3.607  14.089 -0.1558 -0.4332  0.2336
  856MPD2    H712632   4.291   3.700  14.123  0.2500 -0.3653  0.3389
  857MPD2     C12633   0.958   0.518  13.251  0.0004  0.0024 -0.0513
  857MPD2    C112634   0.959   0.629  13.163 -0.7138  0.5692 -0.4138
  857MPD2    C212635   1.065   0.716  13.174 -0.8732 -0.3173  0.6915
  857MPD2    C312636   1.172   0.696  13.257  0.1177  0.5614 -0.1383
  857MPD2    C412637   1.170   0.591  13.343  0.5999  0.1074  0.5068
  857MPD2    C512638   1.060   0.502  13.339  0.0811 -0.3814  0.4224
  857MPD2     H12639   1.072   0.795  13.099 -2.0654  0.0382  0.9567
  857MPD2    H112640   1.247   0.568  13.415  0.4889  3.7778  1.7768
  857MPD2    H212641   0.871   0.453  13.252 -0.7202  0.9676  2.5372
  857MPD2    H312642   1.053   0.429  13.418 -0.3691 -0.8338 -0.0289
  857MPD2     N12643   1.282   0.780  13.235 -0.7109  0.0092 -0.0438
  857MPD2    H512644   1.269   0.849  13.162 -1.1155 -1.5815 -1.4552
  857MPD2    N112645   0.848   0.650  13.074 -0.8235 -0.1186 -0.0921
  857MPD2    H712646   0.769   0.587  13.072 -1.0966  0.2592 -0.9797
  858MPD2     C12647   1.881   1.196  16.315 -0.6143  1.3739 -0.3375
  858MPD2    C112648   1.819   1.091  16.381  0.0485 -0.0059  0.1548
  858MPD2    C212649   1.830   1.078  16.518 -0.7786 -0.1228  0.1027
  858MPD2    C312650   1.905   1.175  16.588  0.7044 -0.7497  0.0804
  858MPD2    C412651   1.960   1.282  16.516  0.2730 -0.0137  0.2597
  858MPD2    C512652   1.950   1.293  16.383 -0.1134 -0.2585  0.4174
  858MPD2     H12653   1.782   1.001  16.578 -1.4179  1.0423  1.1014
  858MPD2    H112654   2.010   1.367  16.560  0.8602  0.1685 -0.7515
  858MPD2    H212655   1.871   1.203  16.207 -2.7738  1.4673 -0.1206
  858MPD2    H312656   1.995   1.369  16.320  0.9036 -0.2241  1.1820
  858MPD2     N12657   1.901   1.190  16.732 -0.0852 -0.0883  0.2539
  858MPD2    H512658   1.942   1.275  16.768 -1.1011 -0.6971  2.8507
  858MPD2    N112659   1.731   0.999  16.311 -0.1854  1.4174 -0.3385
  858MPD2    H712660   1.726   0.997  16.210 -0.5270 -2.9441 -0.2278
  859MPD2     C12661   0.155   2.711  15.964 -0.1458 -0.4622 -0.2700
  859MPD2    C112662   0.233   2.650  15.866  0.0568  0.5564  0.2413
  859MPD2    C212663   0.263   2.512  15.871  0.1497 -0.0538  0.2915
  859MPD2    C312664   0.228   2.438  15.984  0.3668 -0.3449  0.4344
  859MPD2    C412665   0.156   2.502  16.085  0.5199  0.2029  0.6983
  859MPD2    C512666   0.121   2.634  16.072 -0.2908  0.5721 -0.3152
  859MPD2     H12667   0.318   2.469  15.788  2.4005 -0.7957  2.1863
  859MPD2    H112668   0.120   2.444  16.169  0.1710 -1.5792 -0.6769
  859MPD2    H212669   0.132   2.817  15.964  0.6904 -0.2811  1.3188
  859MPD2    H312670   0.051   2.678  16.142  0.2208 -0.3438  0.7714
  859MPD2     N12671   0.275   2.302  16.005 -0.5653 -0.2204 -0.1158
  859MPD2    H512672   0.239   2.257  16.088 -1.5655  0.1207 -0.3741
  859MPD2    N112673   0.281   2.734  15.760 -0.8628 -0.4768 -0.1590
  859MPD2    H712674   0.262   2.834  15.767 -1.2942 -0.5214 -0.7108
  860MPD2     C12675   2.698   2.539  11.261 -0.5863  0.2788 -0.5708
  860MPD2    C112676   2.626   2.648  11.305  0.5411 -0.7424 -0.1865
  860MPD2    C212677   2.558   2.641  11.422 -0.4912  0.4418 -1.0157
  860MPD2    C312678   2.551   2.525  11.497  0.2020  0.0495 -0.1509
  860MPD2    C412679   2.627   2.418  11.459  0.0850  0.0390  0.1852
  860MPD2    C512680   2.696   2.432  11.346 -0.1509 -0.7509 -0.2761
  860MPD2     H12681   2.499   2.723  11.460  2.4357  1.7161  0.7482
  860MPD2    H112682   2.651   2.334  11.523 -0.3971 -0.5139 -0.3555
  860MPD2    H212683   2.764   2.541  11.175  0.7328 -1.0800  0.4071
  860MPD2    H312684   2.778   2.365  11.320  0.0377 -0.0360 -1.5522
  860MPD2     N12685   2.491   2.532  11.625  0.0436  0.6644 -0.5812
  860MPD2    H512686   2.465   2.621  11.668 -0.4231  0.3817 -0.2767
  860MPD2    N112687   2.617   2.770  11.238 -0.3546 -0.0344 -0.5150
  860MPD2    H712688   2.553   2.838  11.277  1.1121  0.4614  1.0495
  861MPD2     C12689   1.733   1.136  11.129  0.1786  0.0155 -0.1006
  861MPD2    C112690   1.609   1.124  11.187 -0.0272  0.2738 -0.2650
  861MPD2    C212691   1.490   1.140  11.117 -0.2791  0.4213  0.1677
  861MPD2    C312692   1.493   1.173  10.979 -0.3708  0.1969 -0.0061
  861MPD2    C412693   1.619   1.179  10.924 -0.2968  0.5300 -0.6927
  861MPD2    C512694   1.735   1.159  10.999  0.0230  0.3086  0.0175
  861MPD2     H12695   1.396   1.116  11.165 -1.5392  1.3372 -1.8257
  861MPD2    H112696   1.629   1.207  10.820 -0.9457  2.6192 -0.1879
  861MPD2    H212697   1.823   1.118  11.186 -1.5196 -1.0305  2.2683
  861MPD2    H312698   1.830   1.176  10.951  1.3313  0.3495  2.6371
  861MPD2     N12699   1.385   1.213  10.904  0.6714 -0.0227  0.2472
  861MPD2    H512700   1.405   1.236  10.808  1.2951 -2.9806 -0.3192
  861MPD2    N112701   1.600   1.096  11.325 -0.2274  0.2220 -0.3021
  861MPD2    H712702   1.512   1.107  11.374 -0.3028  0.6520 -0.5374
  862MPD2     C12703   0.817   1.297  10.434 -0.2181  0.0536 -0.6712
  862MPD2    C112704   0.934   1.289  10.501  0.1091  0.3499 -0.5111
  862MPD2    C212705   0.946   1.184  10.591  0.3927 -0.5142 -0.2982
  862MPD2    C312706   0.850   1.094  10.617 -0.2817 -0.0214 -0.7377
  862MPD2    C412707   0.723   1.112  10.558  0.2879  0.1952  0.9349
  862MPD2    C512708   0.709   1.215  10.467 -0.1012  0.6756 -0.4466
  862MPD2     H12709   1.048   1.156  10.617  0.1736 -0.4432  0.6366
  862MPD2    H112710   0.638   1.046  10.570 -1.1825  2.5563  3.6554
  862MPD2    H212711   0.803   1.382  10.368  1.1330 -1.8397 -3.3982
  862MPD2    H312712   0.620   1.220  10.406 -0.4515 -2.2681 -0.1884
  862MPD2     N12713   0.862   0.984  10.707  0.2025  0.5009 -0.0211
  862MPD2    H512714   0.779   0.925  10.713  2.1598 -2.3279 -0.4279
  862MPD2    N112715   1.033   1.382  10.464  0.0448 -0.0225  0.1961
  862MPD2    H712716   1.015   1.430  10.376 -1.9657  0.0977  0.6505
  863MPD2     C12717   0.617   0.026  16.234 -0.0478 -0.3529 -0.5824
  863MPD2    C112718   0.498   4.734  16.297 -0.3897 -0.0790 -0.0836
  863MPD2    C212719   0.507   4.681  16.423  0.1460  0.0628 -0.2137
  863MPD2    C312720   0.632   4.671  16.487  0.6354 -0.3224 -0.0547
  863MPD2    C412721   0.745   4.705  16.425  0.2741 -0.4972 -0.6413
  863MPD2    C512722   0.739   0.024  16.295 -0.1404  0.3353  0.3075
  863MPD2     H12723   0.413   4.655  16.471  0.4860  0.1656  0.5058
  863MPD2    H112724   0.843   4.696  16.471 -0.2113  1.4489  0.8123
  863MPD2    H212725   0.614   0.066  16.133  0.0587  1.9184  0.2997
  863MPD2    H312726   0.826   0.048  16.235 -0.6341  1.1278 -0.0993
  863MPD2     N12727   0.649   4.606  16.612 -0.2858 -0.4342 -0.1749
  863MPD2    H512728   0.736   4.624  16.660  0.0221  0.3327 -1.0077
  863MPD2    N112729   0.376   0.009  16.219  0.2521 -0.4795  0.2895
  863MPD2    H712730   0.389   0.059  16.132 -1.1490  0.6057  0.6974
  864MPD2     C12731   0.628   0.660  17.163 -0.2828  0.2063 -0.4622
  864MPD2    C112732   0.664   0.607  17.038  0.4812  0.1074  0.1481
  864MPD2    C212733   0.764   0.667  16.964  0.1352 -0.3824 -0.0438
  864MPD2    C312734   0.816   0.793  16.999 -0.0766  0.2456  0.3206
  864MPD2    C412735   0.762   0.852  17.114 -0.4057 -0.2389  0.3402
  864MPD2    C512736   0.670   0.788  17.195  1.3527 -0.1882 -0.6467
  864MPD2     H12737   0.794   0.640  16.864 -0.4451 -3.2582  0.5787
  864MPD2    H112738   0.800   0.948  17.150 -0.6859 -0.0740  0.1960
  864MPD2    H212739   0.559   0.605  17.226 -0.2728  0.9468  0.1904
  864MPD2    H312740   0.646   0.830  17.292 -0.9389 -1.0856 -0.8339
  864MPD2     N12741   0.899   0.869  16.913 -0.0636 -0.3765 -1.0838
  864MPD2    H512742   0.919   0.964  16.943 -2.5768 -0.6520  1.5078
  864MPD2    N112743   0.598   0.488  17.000  0.6582  0.5527  0.3235
  864MPD2    H712744   0.530   0.451  17.066  1.4374 -0.0761  0.7843
  865MPD2     C12745   0.467   1.182  16.327  0.2072 -0.0953  0.4711
  865MPD2    C112746   0.575   1.116  16.272 -0.1297 -0.4133 -0.2173
  865MPD2    C212747   0.700   1.136  16.322 -0.3797 -0.1182 -0.7023
  865MPD2    C312748   0.727   1.209  16.434  0.6369 -1.0139  0.4835
  865MPD2    C412749   0.616   1.270  16.487 -0.1237  0.0169 -0.1000
  865MPD2    C512750   0.494   1.263  16.433  0.3903 -0.4073  0.0271
  865MPD2     H12751   0.786   1.093  16.272  1.0010  1.5900  0.2073
  865MPD2    H112752   0.618   1.341  16.569 -0.9007 -1.0135  0.8141
  865MPD2    H212753   0.366   1.165  16.294  0.1039  1.1321  0.1572
  865MPD2    H312754   0.417   1.325  16.477  1.8359  1.1119  0.4171
  865MPD2     N12755   0.854   1.200  16.498  0.1728 -0.0954  0.3303
  865MPD2    H512756   0.922   1.142  16.450  1.9664  1.4932  0.9582
  865MPD2    N112757   0.556   1.032  16.157  0.0025  0.2947 -0.7275
  865MPD2    H712758   0.463   1.002  16.128  0.9735 -2.3819 -1.1056
  866MPD2     C12759   2.245   1.238  11.208 -0.2037 -0.2569  0.0071
  866MPD2    C112760   2.242   1.354  11.144  0.5338 -0.1185 -0.1322
  866MPD2    C212761   2.123   1.430  11.160 -0.5626 -0.6019  0.1200
  866MPD2    C312762   2.017   1.386  11.239  0.0737  0.2456  0.9097
  866MPD2    C412763   2.032   1.277  11.319 -0.7341  0.3385 -0.0682
  866MPD2    C512764   2.148   1.203  11.296 -0.5673  0.3821  0.1266
  866MPD2     H12765   2.121   1.526  11.110 -1.6067 -1.2164 -1.0239
  866MPD2    H112766   1.957   1.232  11.382  0.9617 -1.7401  0.4779
  866MPD2    H212767   2.339   1.184  11.209  0.5077  0.9654 -0.5088
  866MPD2    H312768   2.168   1.109  11.348 -0.0534 -1.1833 -2.8985
  866MPD2     N12769   1.885   1.445  11.232  0.3169  0.2874  0.0313
  866MPD2    H512770   1.824   1.419  11.308  1.2280  1.1392  1.0518
  866MPD2    N112771   2.360   1.398  11.077 -0.1669  0.4559  0.0105
  866MPD2    H712772   2.440   1.337  11.087  1.3233  2.5426  0.8046
  867MPD2     C12773   3.863   1.182  16.027  0.0529  1.5040 -0.0869
  867MPD2    C112774   3.890   1.098  16.137 -0.2867  0.8700  0.2303
  867MPD2    C212775   3.876   1.148  16.269  0.1260 -0.0335 -0.9232
  867MPD2    C312776   3.813   1.275  16.283 -0.0365 -0.5667  0.2228
  867MPD2    C412777   3.770   1.352  16.172 -0.0682  0.6841 -0.5268
  867MPD2    C512778   3.802   1.305  16.043  0.0725  0.1889 -0.1090
  867MPD2     H12779   3.908   1.090  16.355 -0.2878  0.3707 -0.4931
  867MPD2    H112780   3.736   1.455  16.175 -1.9268  0.0449  0.7067
  867MPD2    H212781   3.872   1.146  15.925  1.7607 -0.0211  0.6084
  867MPD2    H312782   3.782   1.362  15.953  3.6638 -0.5726 -1.3960
  867MPD2     N12783   3.801   1.338  16.409 -0.0368  0.4863  0.4540
  867MPD2    H512784   3.768   1.434  16.406 -0.2539  0.4487  1.7902
  867MPD2    N112785   3.960   0.979  16.110  0.6132 -0.3753  0.0687
  867MPD2    H712786   3.986   0.966  16.012 -1.6636  2.7626 -0.9341
  868MPD2     C12787   0.878   3.684  12.995 -0.2268 -0.4705 -0.1782
  868MPD2    C112788   0.947   3.766  13.073 -0.5885 -0.2069 -0.0812
  868MPD2    C212789   0.888   3.879  13.117 -0.5110 -0.2946  0.4630
  868MPD2    C312790   0.755   3.906  13.085 -0.0741  0.4487  0.8108
  868MPD2    C412791   0.676   3.828  13.003 -0.3474 -0.1945 -0.4134
  868MPD2    C512792   0.744   3.716  12.963 -0.2843  0.1435  0.3180
  868MPD2     H12793   0.939   3.951  13.180  1.8604 -1.3438 -0.2601
  868MPD2    H112794   0.572   3.845  12.975 -0.4943 -1.3698 -0.5820
  868MPD2    H212795   0.914   3.587  12.965  2.8358  0.9170 -0.9989
  868MPD2    H312796   0.691   3.639  12.908  0.2268  0.4625 -0.6027
  868MPD2     N12797   0.710   4.020  13.147  0.4723  0.4982 -0.1912
  868MPD2    H512798   0.770   4.059  13.219 -0.0760  1.3070 -0.1712
  868MPD2    N112799   1.088   3.739  13.096  0.2152  0.2957 -0.0783
  868MPD2    H712800   1.132   3.658  13.054 -0.8159 -1.0696  1.4924
  869MPD2     C12801   1.983   2.659   0.035 -0.0843 -0.9067  0.3777
  869MPD2    C112802   1.916   2.743   0.127  0.3407  0.1216 -0.7391
  869MPD2    C212803   1.992   2.805   0.227 -1.2465 -0.1721 -0.1022
  869MPD2    C312804   2.127   2.790   0.237  0.4051 -0.5254 -0.5088
  869MPD2    C412805   2.189   2.708   0.153  0.1923  0.3724 -0.1081
  869MPD2    C512806   2.125   2.650   0.047 -0.6358  0.9298 -0.2844
  869MPD2     H12807   1.948   2.852   0.315 -1.7682  0.7112 -0.8304
  869MPD2    H112808   2.294   2.686   0.169 -0.0460 -0.7161 -0.0290
  869MPD2    H212809   1.917   2.599  17.725  0.2932 -0.3125 -0.6150
  869MPD2    H312810   2.172   2.586  17.725 -0.5391 -1.6329  2.0298
  869MPD2     N12811   2.197   2.855   0.341 -0.3987 -0.1340  0.1540
  869MPD2    H512812   2.144   2.898   0.416 -0.3354 -0.1848  0.2266
  869MPD2    N112813   1.772   2.744   0.115 -0.3728  0.7805 -0.3034
  869MPD2    H712814   1.731   2.687   0.042  1.5073 -0.6345 -0.2466
  870MPD2     C12815   3.044   1.397   1.340  0.0416 -0.0876 -0.0703
  870MPD2    C112816   2.908   1.375   1.318  0.0433  0.9918 -0.6927
  870MPD2    C212817   2.815   1.477   1.315 -0.2117  0.6291  0.6683
  870MPD2    C312818   2.866   1.607   1.334  0.6325 -0.0933 -0.9603
  870MPD2    C412819   2.995   1.628   1.376  0.3094  0.3100 -0.0018
  870MPD2    C512820   3.077   1.521   1.377 -0.3548  0.0960  0.4159
  870MPD2     H12821   2.712   1.468   1.284 -0.5395  0.5052  1.7852
  870MPD2    H112822   3.034   1.727   1.396  1.3535 -0.2652  0.7595
  870MPD2    H212823   3.123   1.323   1.340  0.3924  0.2770 -1.5496
  870MPD2    H312824   3.181   1.550   1.390 -0.1781  0.1033 -1.0057
  870MPD2     N12825   2.773   1.715   1.314  0.2637 -0.1438 -0.1718
  870MPD2    H512826   2.688   1.688   1.266  0.6271  1.8246 -1.8892
  870MPD2    N112827   2.868   1.243   1.296  0.0102 -0.4924 -0.2295
  870MPD2    H712828   2.943   1.175   1.288  0.1367  0.0346 -3.8245
  871MPD2     C12829   3.138   1.059  16.128  0.3147 -0.0816  0.3313
  871MPD2    C112830   3.080   1.022  16.245 -1.0624  0.9626  0.6825
  871MPD2    C212831   3.037   0.892  16.264 -0.2337  0.1325 -0.1925
  871MPD2    C312832   3.063   0.791  16.168 -0.1098 -0.2650  0.8026
  871MPD2    C412833   3.111   0.829  16.050  0.6142  0.2261 -0.2969
  871MPD2    C512834   3.150   0.963  16.032 -0.5929  0.3254 -0.7693
  871MPD2     H12835   2.983   0.860  16.353  3.7544 -0.5446  1.9876
  871MPD2    H112836   3.113   0.768  15.960  0.4132 -0.5361  0.2198
  871MPD2    H212837   3.162   1.161  16.100  2.4062 -0.0585  2.1867
  871MPD2    H312838   3.194   1.000  15.940 -0.7507  2.6544  0.0785
  871MPD2     N12839   3.026   0.653  16.194  0.4674 -0.0164 -0.3898
  871MPD2    H512840   2.963   0.638  16.272 -0.8090 -1.7496 -1.7330
  871MPD2    N112841   3.061   1.121  16.345 -0.3457  0.2526  0.1375
  871MPD2    H712842   3.088   1.213  16.312 -2.1800  1.1198  1.0807
  872MPD2     C12843   3.402   3.379  13.340  0.0941 -0.6138  0.0811
  872MPD2    C112844   3.501   3.303  13.400 -0.2960 -0.7021  0.1164
  872MPD2    C212845   3.481   3.256  13.529  0.2633  0.0129 -0.1500
  872MPD2    C312846   3.359   3.288  13.596 -1.1462  0.1696 -0.8968
  872MPD2    C412847   3.258   3.353  13.524 -0.3030  0.5001  0.8520
  872MPD2    C512848   3.284   3.402  13.402  0.3987 -0.7411 -0.1083
  872MPD2     H12849   3.547   3.184  13.576 -0.5465 -0.5655  0.1187
  872MPD2    H112850   3.163   3.370  13.573 -0.1502  3.8593 -0.0408
  872MPD2    H212851   3.414   3.409  13.236 -0.2781  0.6635  0.4057
  872MPD2    H312852   3.205   3.457  13.353 -0.9791 -1.4086  1.3635
  872MPD2     N12853   3.315   3.246  13.720  0.1616 -0.2494 -0.5782
  872MPD2    H512854   3.215   3.250  13.733 -0.0071 -1.8496 -1.3132
  872MPD2    N112855   3.619   3.254  13.333  0.0487  0.1386  0.1917
  872MPD2    H712856   3.667   3.181  13.385  0.0734  0.3041  0.4008
  873MPD2     C12857   0.421   3.871   0.540  0.2694  0.6101  0.3330
  873MPD2    C112858   0.492   3.794   0.627 -0.0416  0.1372  0.2610
  873MPD2    C212859   0.540   3.673   0.590  0.2787  0.7258 -0.2263
  873MPD2    C312860   0.528   3.632   0.460  0.1161 -1.2008  0.9495
  873MPD2    C412861   0.467   3.710   0.368  0.2289 -0.6056  0.3314
  873MPD2    C512862   0.408   3.828   0.410 -0.6509  0.1775  0.5571
  873MPD2     H12863   0.592   3.604   0.654 -2.8085 -3.3607 -2.1425
  873MPD2    H112864   0.444   3.677   0.267 -0.0946 -0.7187  0.4428
  873MPD2    H212865   0.365   3.960   0.567  0.8465  0.8115  0.8796
  873MPD2    H312866   0.359   3.888   0.334 -1.1645  3.1621  3.2896
  873MPD2     N12867   0.577   3.503   0.418 -0.0837 -0.0859 -0.3480
  873MPD2    H512868   0.535   3.471   0.332  0.1328  1.7883 -1.1573
  873MPD2    N112869   0.500   3.846   0.765 -0.5579 -0.0680  0.3704
  873MPD2    H712870   0.449   3.932   0.781 -0.8133 -0.5922  2.4122
  874MPD2     C12871   0.883   3.638  15.883 -1.0111  0.0050 -0.1562
  874MPD2    C112872   0.938   3.608  16.010  0.6056 -0.3346 -0.1384
  874MPD2    C212873   1.043   3.694  16.054  0.0185 -0.2042  0.3580
  874MPD2    C312874   1.080   3.808  15.973  0.4868 -0.7804 -0.4686
  874MPD2    C412875   1.025   3.832  15.850 -0.5132  0.3962  0.2734
  874MPD2    C512876   0.917   3.751  15.811 -0.2916  0.0085 -0.6363
  874MPD2     H12877   1.084   3.681  16.154  0.8121  0.8300  0.1676
  874MPD2    H112878   1.057   3.917  15.792  1.7564  0.8936  2.2861
  874MPD2    H212879   0.809   3.579  15.830 -1.4760  1.3570 -1.0262
  874MPD2    H312880   0.870   3.784  15.719  0.3116 -2.5894 -1.8687
  874MPD2     N12881   1.192   3.881  16.022  0.1493  0.2983  0.6178
  874MPD2    H512882   1.208   3.881  16.122  3.0438  2.8180  0.1473
  874MPD2    N112883   0.878   3.505  16.091  0.3358 -0.9696 -0.3090
  874MPD2    H712884   0.809   3.451  16.040  1.7869 -3.0836 -0.0620
  875MPD2     C12885   2.209   1.412  14.609 -0.6166 -0.4877 -0.0284
  875MPD2    C112886   2.101   1.408  14.709  0.3961 -0.1926  0.0693
  875MPD2    C212887   2.124   1.472  14.830 -0.0802 -0.8527  0.0026
  875MPD2    C312888   2.244   1.531  14.862  0.4170  0.2461 -0.3696
  875MPD2    C412889   2.350   1.526  14.769 -0.3683  0.5040 -0.2880
  875MPD2    C512890   2.332   1.458  14.651  0.5727 -0.5210  0.3786
  875MPD2     H12891   2.043   1.464  14.902  0.3039  0.1376  0.5523
  875MPD2    H112892   2.451   1.553  14.796 -0.8057  2.8787 -1.0235
  875MPD2    H212893   2.188   1.366  14.514 -2.5673  0.8850 -0.2746
  875MPD2    H312894   2.411   1.465  14.577 -1.6193  2.0841 -1.7256
  875MPD2     N12895   2.267   1.592  14.987  0.3180  0.1215  0.3731
  875MPD2    H512896   2.359   1.631  15.002  0.7887 -0.9439  0.2052
  875MPD2    N112897   1.977   1.347  14.682  0.0415 -0.3827 -0.5486
  875MPD2    H712898   1.901   1.371  14.744  1.1813 -2.7512  1.7641
  876MPD2     C12899   0.528   2.975  15.970 -0.0718  0.0126 -0.3914
  876MPD2    C112900   0.666   3.000  15.960  0.1768  0.4115 -0.5199
  876MPD2    C212901   0.755   2.899  15.980  0.1090 -0.0507 -0.1865
  876MPD2    C312902   0.712   2.771  16.020  1.1528  0.6048  0.0717
  876MPD2    C412903   0.577   2.751  16.040 -0.2809  0.8077 -0.0133
  876MPD2    C512904   0.489   2.852  16.017 -0.1513  0.2207  0.2862
  876MPD2     H12905   0.859   2.928  15.967  0.3994 -0.6302  0.8913
  876MPD2    H112906   0.540   2.652  16.062 -0.3874 -0.1357 -4.4020
  876MPD2    H212907   0.452   3.046  15.941 -0.0763  1.3103  2.7829
  876MPD2    H312908   0.384   2.826  16.023  0.7920 -3.4802  1.2480
  876MPD2     N12909   0.806   2.671  16.061  0.4030  0.4415  0.1374
  876MPD2    H512910   0.902   2.701  16.046  0.4318  0.6560  0.7318
  876MPD2    N112911   0.699   3.129  15.907  0.4971 -0.1296  0.2536
  876MPD2    H712912   0.622   3.189  15.880  1.3627  0.5339 -0.7284
  877MPD2     C12913   0.562   3.287  15.164  0.0279 -0.1936 -0.2316
  877MPD2    C112914   0.699   3.276  15.187  0.2546  0.4466 -0.3074
  877MPD2    C212915   0.781   3.241  15.077 -0.0514  0.0694 -0.0599
  877MPD2    C312916   0.725   3.206  14.954 -0.6158 -0.3353  0.8484
  877MPD2    C412917   0.589   3.219  14.940 -0.4300  0.8175  0.8166
  877MPD2    C512918   0.510   3.254  15.049 -0.3862  1.0153 -0.1177
  877MPD2     H12919   0.886   3.224  15.095 -0.3294 -1.8652 -0.2935
  877MPD2    H112920   0.536   3.169  14.860  0.8195  1.4589 -0.4111
  877MPD2    H212921   0.495   3.314  15.245  1.3236  1.2240  0.3858
  877MPD2    H312922   0.403   3.246  15.031 -0.2767  1.2356 -0.8655
  877MPD2     N12923   0.788   3.142  14.848 -0.6799  0.6214  0.6087
  877MPD2    H512924   0.732   3.119  14.766  0.8716 -1.0277  0.0031
  877MPD2    N112925   0.753   3.308  15.309 -0.2184  0.4021 -0.4836
  877MPD2    H712926   0.853   3.325  15.300  0.6293 -2.4579  3.5318
  878MPD2     C12927   0.453   2.288  13.080 -0.5337 -0.1860 -0.3643
  878MPD2    C112928   0.491   2.393  13.011  0.6350  0.1338  0.5820
  878MPD2    C212929   0.476   2.529  13.063 -0.6140 -0.1403  1.0943
  878MPD2    C312930   0.419   2.543  13.181 -0.0143  0.0649 -0.2079
  878MPD2    C412931   0.367   2.437  13.252  0.4496 -1.4105 -0.3574
  878MPD2    C512932   0.389   2.311  13.201 -0.3010 -0.2118  0.6059
  878MPD2     H12933   0.503   2.617  13.006 -0.2610 -0.2724  1.0561
  878MPD2    H112934   0.334   2.448  13.354 -0.5547  0.3198 -0.8712
  878MPD2    H212935   0.478   2.192  13.034 -1.8325 -0.5867 -0.2499
  878MPD2    H312936   0.369   2.219  13.255  0.2913 -1.2453 -0.9364
  878MPD2     N12937   0.398   2.675  13.235 -0.1262  0.3604 -0.1782
  878MPD2    H512938   0.467   2.743  13.204  0.1042 -0.2869 -1.0982
  878MPD2    N112939   0.555   2.364  12.883  0.4135  0.1108  0.8267
  878MPD2    H712940   0.556   2.268  12.850 -1.9261  0.3787 -0.0633
  879MPD2     C12941   1.078   3.872  17.173  0.4010  0.1683 -0.0666
  879MPD2    C112942   1.029   3.976  17.109 -0.2696  0.5556 -0.2600
  879MPD2    C212943   0.983   3.946  16.979  0.0876 -0.3635  0.5402
  879MPD2    C312944   0.991   3.818  16.920 -0.2237 -0.0601 -0.6342
  879MPD2    C412945   1.044   3.721  16.999  0.6794  0.2230  0.1016
  879MPD2    C512946   1.090   3.748  17.125 -0.0089 -0.2258 -0.1045
  879MPD2     H12947   0.954   4.028  16.914 -0.1036 -1.4240 -0.7184
  879MPD2    H112948   1.040   3.618  16.966  0.1932  0.2900 -0.0487
  879MPD2    H212949   1.126   3.890  17.268  1.4015  1.9467 -0.8954
  879MPD2    H312950   1.145   3.675  17.184 -1.0739 -0.5594  0.4881
  879MPD2     N12951   0.949   3.788  16.785  0.4881  0.5049  0.5177
  879MPD2    H512952   0.962   3.695  16.747  1.9876  0.7912  0.3699
  879MPD2    N112953   1.030   4.107  17.168 -0.2178 -0.3048 -0.3858
  879MPD2    H712954   1.077   4.112  17.257  0.3793 -0.6068 -0.6814
  880MPD2     C12955   1.937   1.246   0.199 -0.8166 -0.4565 -0.6379
  880MPD2    C112956   2.038   1.277   0.290 -0.0041  0.1560 -0.5056
  880MPD2    C212957   2.083   1.178   0.373  0.0267 -0.0040 -1.1625
  880MPD2    C312958   2.046   1.046   0.348 -0.4402  0.3951  0.1361
  880MPD2    C412959   1.950   1.017   0.249  0.3095  0.0723  0.0533
  880MPD2    C512960   1.891   1.120   0.181  0.0576 -0.1458  0.7125
  880MPD2     H12961   2.156   1.196   0.451 -0.9803  0.7379 -0.3835
  880MPD2    H112962   1.915   0.918   0.226  0.7682  0.4729 -2.4374
  880MPD2    H212963   1.889   1.323   0.140 -0.0582  0.8777  0.5176
  880MPD2    H312964   1.821   1.083   0.106  0.0801 -0.7392  0.9843
  880MPD2     N12965   2.110   0.950   0.428 -0.0009 -0.6668  0.7177
  880MPD2    H512966   2.170   0.990   0.500 -2.7597  2.3339  1.3372
  880MPD2    N112967   2.094   1.407   0.290  0.6122 -0.6187 -0.1970
  880MPD2    H712968   2.059   1.478   0.228  1.6629 -0.2684 -0.3844
  881MPD2     C12969   2.155   2.137  17.392  0.3234 -0.2725  0.3433
  881MPD2    C112970   2.202   2.006  17.394  0.4501 -0.0358  0.2317
  881MPD2    C212971   2.210   1.939  17.510 -0.1137  0.0467  0.1495
  881MPD2    C312972   2.153   1.989  17.628 -0.7282 -0.6821  0.2958
  881MPD2    C412973   2.082   2.104  17.621 -0.8377  0.3269  0.3886
  881MPD2    C512974   2.086   2.176  17.506 -0.7067  0.0542  0.1930
  881MPD2     H12975   2.260   1.843  17.505 -3.2262 -1.5307 -1.0063
  881MPD2    H112976   2.027   2.139  17.707 -3.1525  0.0839 -0.9987
  881MPD2    H212977   2.152   2.201  17.305 -3.1848 -0.0945  0.6155
  881MPD2    H312978   2.031   2.269  17.520 -1.6296 -0.2782 -1.2070
  881MPD2     N12979   2.156   1.920   0.006  0.3360 -1.4818 -0.1338
  881MPD2    H512980   2.114   1.975   0.081  0.5089 -1.6302  0.0690
  881MPD2    N112981   2.273   1.968  17.280  0.5751  1.2969  0.1309
  881MPD2    H712982   2.248   2.029  17.202  0.5866  0.1458 -0.7750
  882MPD2     C12983   0.811   3.503  14.317  0.1440 -0.2230  0.0063
  882MPD2    C112984   0.767   3.371  14.319  0.1001  0.4057 -0.0126
  882MPD2    C212985   0.637   3.337  14.279  0.3565 -0.1200 -0.3518
  882MPD2    C312986   0.544   3.436  14.258  0.4753  0.0129  0.4791
  882MPD2    C412987   0.583   3.570  14.257 -0.4965  1.0998 -0.3032
  882MPD2    C512988   0.718   3.596  14.277 -0.5393  0.3034 -0.0244
  882MPD2     H12989   0.607   3.233  14.283 -0.0333  0.0053  0.1052
  882MPD2    H112990   0.519   3.656  14.243 -3.0911 -1.0167 -1.4635
  882MPD2    H212991   0.908   3.540  14.345 -0.6496  1.6639  0.2172
  882MPD2    H312992   0.759   3.696  14.275  1.8348 -0.6869 -0.8837
  882MPD2     N12993   0.408   3.416  14.218  0.1254  0.4573  0.1590
  882MPD2    H512994   0.342   3.493  14.217  0.5429  0.8017 -1.6842
  882MPD2    N112995   0.859   3.280  14.379  0.7580 -0.0909 -0.2146
  882MPD2    H712996   0.946   3.322  14.411  1.1367 -0.2250 -1.0578
  883MPD2     C12997   2.877   3.817  16.647 -0.2023 -0.0728 -0.9392
  883MPD2    C112998   2.990   3.733  16.631  0.1992 -0.1124  0.0446
  883MPD2    C212999   3.091   3.742  16.729  0.6446  0.1367  0.0683
  883MPD2    C313000   3.084   3.826  16.836  0.6191 -0.2524  0.3307
  883MPD2    C413001   2.982   3.916  16.838  0.3084  0.0983 -0.4503
  883MPD2    C513002   2.882   3.915  16.744  0.0745  0.0475  0.3449
  883MPD2     H13003   3.168   3.669  16.705 -0.8023 -0.9436 -1.2826
  883MPD2    H113004   2.978   4.002  16.905  0.0254  0.6817 -1.2162
  883MPD2    H213005   2.801   3.823  16.571  0.3509  0.4575 -1.4497
  883MPD2    H313006   2.811   3.997  16.744 -0.8199 -0.7393  1.7584
  883MPD2     N13007   3.184   3.818  16.935 -0.1951 -0.2292  0.3918
  883MPD2    H513008   3.257   3.747  16.937 -0.4434 -0.4850  0.3987
  883MPD2    N113009   2.997   3.631  16.537  0.7092  0.6641  0.2907
  883MPD2    H713010   3.068   3.560  16.555 -1.5432 -1.7476 -0.2295
  884MPD2     C13011   4.738   3.966  15.002 -0.8814  0.1466  1.3335
  884MPD2    C113012   4.662   3.938  14.896 -0.5469 -0.9555 -0.4219
  884MPD2    C213013   4.526   3.984  14.902  0.3249  0.2291 -0.3377
  884MPD2    C313014   4.485   4.070  15.006 -0.3911 -0.5245  0.4402
  884MPD2    C413015   4.572   4.086  15.113  0.1337  0.6770 -0.1865
  884MPD2    C513016   4.696   4.031  15.110 -0.5982  0.3765 -0.2314
  884MPD2     H13017   4.457   3.966  14.821  0.4567 -1.2916 -0.1205
  884MPD2    H113018   4.537   4.137  15.203  1.1093  1.4337 -0.2440
  884MPD2    H213019   0.099   3.922  15.005 -0.2582  1.4314 -0.2398
  884MPD2    H313020   0.025   4.037  15.194 -0.6475  0.7706 -0.2207
  884MPD2     N13021   4.351   4.120  15.003  0.0337 -0.3415  0.1088
  884MPD2    H513022   4.293   4.090  14.925  0.3354 -0.3388 -0.1173
  884MPD2    N113023   4.704   3.873  14.777 -0.1134 -0.1591 -0.3177
  884MPD2    H713024   4.643   3.871  14.696 -0.0511 -0.3827 -0.3585
  885MPD2     C13025   2.491   4.713   0.264 -0.2210  0.1353 -0.2911
  885MPD2    C113026   2.589   4.622   0.224  0.0794 -0.0593 -0.6543
  885MPD2    C213027   2.615   4.614   0.087  0.0716  0.2624 -0.2166
  885MPD2    C313028   2.532   4.678  17.746  0.1047  0.3854  0.4227
  885MPD2    C413029   2.450   0.040   0.045  0.3697 -0.0896  0.2725
  885MPD2    C513030   2.434   0.063   0.176 -0.0782 -0.1385 -0.0077
  885MPD2     H13031   2.678   4.533   0.053 -3.4679 -1.9643 -1.4402
  885MPD2    H113032   2.405   0.110  17.728  0.3570 -0.0193  0.3526
  885MPD2    H213033   2.465   4.713   0.369  0.6375  3.0124 -0.1003
  885MPD2    H313034   2.375   0.146   0.215 -1.9366  0.3689 -3.8170
  885MPD2     N13035   2.543   4.647  17.607 -0.1397  0.7927  0.5178
  885MPD2    H513036   2.611   4.578  17.576 -0.0315  0.3204  1.8155
  885MPD2    N113037   2.664   4.551   0.324  0.2584  0.6058  0.1499
  885MPD2    H713038   2.635   4.574   0.419 -1.0429 -0.4262  0.0051
  886MPD2     C13039   4.034   2.672  15.353 -0.2262 -0.7090  0.7882
  886MPD2    C113040   4.149   2.731  15.391  0.3917  0.0604  0.7761
  886MPD2    C213041   4.186   2.856  15.338  0.4979  0.0671 -0.4349
  886MPD2    C313042   4.106   2.931  15.256  0.5986  0.4876 -0.2324
  886MPD2    C413043   3.995   2.868  15.216  0.1691 -0.6425 -0.2600
  886MPD2    C513044   3.953   2.747  15.258 -0.4412  0.4328 -0.2550
  886MPD2     H13045   4.273   2.897  15.387  0.9578 -0.8063 -0.5249
  886MPD2    H113046   3.935   2.913  15.138  2.0531 -1.8500 -2.3925
  886MPD2    H213047   4.015   2.570  15.385 -0.6952 -0.8611  0.0349
  886MPD2    H313048   3.858   2.709  15.222 -1.3704  1.4630  1.1280
  886MPD2     N13049   4.133   3.059  15.216  0.0835  0.1945 -0.1937
  886MPD2    H513050   4.091   3.099  15.132 -4.3085  0.6482  2.2020
  886MPD2    N113051   4.236   2.670  15.483 -0.1648  0.1446 -0.1620
  886MPD2    H713052   4.323   2.721  15.474 -1.1716  1.6446 -1.5597
  887MPD2     C13053   4.701   3.050  15.847 -0.1616 -0.2878 -0.1475
  887MPD2    C113054   4.653   2.991  15.731 -0.0084 -0.4051  0.3996
  887MPD2    C213055   4.651   3.077  15.618  0.7326  0.3997 -0.0604
  887MPD2    C313056   4.690   3.210  15.621 -0.6848  0.8647 -0.0857
  887MPD2    C413057   4.732   3.265  15.742 -0.1157 -0.0360 -0.6379
  887MPD2    C513058   0.002   3.179  15.853  0.1362 -1.2336 -0.6896
  887MPD2     H13059   4.615   3.031  15.527  0.6870  1.6568 -0.6757
  887MPD2    H113060   0.027   3.367  15.756  2.1528 -0.9251  0.5137
  887MPD2    H213061   4.710   3.003  15.944 -0.7563  0.3378  0.2122
  887MPD2    H313062   0.043   3.216  15.947  1.2338 -0.1383 -1.6114
  887MPD2     N13063   4.679   3.292  15.501  0.6725 -0.3023 -0.0370
  887MPD2    H513064   4.660   3.251  15.410 -0.3860  1.0591 -0.4192
  887MPD2    N113065   4.598   2.867  15.714  0.5767  0.3549  0.3241
  887MPD2    H713066   4.564   2.843  15.621 -0.8131 -1.5709  1.3183
  888MPD2     C13067   2.055   3.006  15.811 -0.1566 -0.6937 -0.3468
  888MPD2    C113068   2.145   3.049  15.718 -0.0217  0.5686 -0.4711
  888MPD2    C213069   2.092   3.118  15.609 -0.5442 -0.1812 -0.6677
  888MPD2    C313070   1.957   3.144  15.599 -0.2611  0.1002 -1.2260
  888MPD2    C413071   1.871   3.114  15.705 -0.7358  0.0591  0.0036
  888MPD2    C513072   1.920   3.035  15.801 -0.1440 -0.2093  0.7173
  888MPD2     H13073   2.155   3.147  15.526 -0.1530  1.4881  0.2039
  888MPD2    H113074   1.764   3.127  15.692 -0.5031  0.7330 -1.2971
  888MPD2    H213075   2.078   2.924  15.878 -0.2023  0.7339  1.4136
  888MPD2    H313076   1.854   2.985  15.872 -0.1582 -1.3707 -0.1234
  888MPD2     N13077   1.911   3.227  15.494 -0.1978 -0.1134 -0.0288
  888MPD2    H513078   1.979   3.274  15.435  0.2424 -0.7115 -0.0041
  888MPD2    N113079   2.284   3.002  15.718 -0.2824  0.0000 -0.2361
  888MPD2    H713080   2.339   3.029  15.637  1.2489  2.4114  1.6314
  889MPD2     C13081   1.051   1.354  13.143 -0.4740 -0.0613 -0.4603
  889MPD2    C113082   1.175   1.386  13.201 -0.2684 -0.3836 -0.5042
  889MPD2    C213083   1.176   1.486  13.290 -0.7194  0.5818  0.0492
  889MPD2    C313084   1.070   1.579  13.296  0.0951  0.1298 -0.0463
  889MPD2    C413085   0.954   1.558  13.219  0.0293  0.1147  0.5285
  889MPD2    C513086   0.941   1.435  13.153 -0.7271 -0.2169  0.7716
  889MPD2     H13087   1.267   1.513  13.344 -1.5604 -0.3079  1.9085
  889MPD2    H113088   0.873   1.629  13.210  0.1504  0.0470 -1.0054
  889MPD2    H213089   1.033   1.257  13.100  0.9307 -0.8859  0.8054
  889MPD2    H313090   0.844   1.404  13.115 -0.3183  2.7927 -2.7782
  889MPD2     N13091   1.088   1.695  13.375  0.7156 -0.1874 -0.8905
  889MPD2    H513092   1.177   1.715  13.421  0.3671  0.7119 -0.5978
  889MPD2    N113093   1.260   1.271  13.204  0.3091 -0.6260 -0.1886
  889MPD2    H713094   1.228   1.195  13.145 -0.6939 -0.3973  0.0724
  890MPD2     C13095   0.911   4.015  14.393  0.3675  0.1506 -0.0911
  890MPD2    C113096   0.935   4.110  14.491  0.5249  0.0767  0.0787
  890MPD2    C213097   1.005   4.070  14.604 -0.4102  0.0324 -0.0974
  890MPD2    C313098   1.043   3.939  14.623 -0.1724 -0.7895 -0.4249
  890MPD2    C413099   1.007   3.848  14.523  0.7385 -0.6093 -0.2480
  890MPD2    C513100   0.947   3.885  14.407 -0.1178 -0.0860  0.3926
  890MPD2     H13101   1.017   4.143  14.683  0.7551 -0.6049  0.3078
  890MPD2    H113102   1.018   3.740  14.533  2.2525 -0.4643 -0.3575
  890MPD2    H213103   0.866   4.036  14.297  0.8403  0.6756 -0.1974
  890MPD2    H313104   0.919   3.816  14.328 -0.9502  0.0486  0.5657
  890MPD2     N13105   1.118   3.903  14.740  0.1805 -0.0369  0.2939
  890MPD2    H513106   1.134   3.982  14.801 -0.2243 -0.8076  1.4216
  890MPD2    N113107   0.899   4.251  14.477  0.3129 -0.3022 -0.7058
  890MPD2    H713108   0.845   4.268  14.393 -3.1038 -1.9623  1.1808
  891MPD2     C13109   3.873   2.484  16.666  0.6396 -0.1344 -0.4436
  891MPD2    C113110   3.786   2.547  16.750  0.0978  0.1798  0.1346
  891MPD2    C213111   3.814   2.547  16.883 -0.1235  0.7735 -0.1901
  891MPD2    C313112   3.916   2.465  16.934  0.5122 -0.0798 -0.2366
  891MPD2    C413113   3.984   2.385  16.846  0.2279  0.1257 -0.4422
  891MPD2    C513114   3.970   2.397  16.711 -0.1698  0.4386  0.0252
  891MPD2     H13115   3.758   2.613  16.949 -0.0289 -0.2240  0.8936
  891MPD2    H113116   4.063   2.316  16.873  0.2552 -1.6003 -4.8643
  891MPD2    H213117   3.854   2.492  16.559  0.8801  1.8342 -0.3457
  891MPD2    H313118   4.030   2.337  16.643 -1.2291 -0.7010  0.1045
  891MPD2     N13119   3.953   2.456  17.070  0.1572  0.1179 -0.7990
  891MPD2    H513120   3.920   2.527  17.134  1.2483  0.1928 -0.3165
  891MPD2    N113121   3.685   2.633  16.697 -0.8279 -0.7819 -0.1896
  891MPD2    H713122   3.687   2.638  16.596  0.8381 -0.0627 -0.1223
  892MPD2     C13123   4.660   3.574  14.919 -0.0308 -0.2233  1.2017
  892MPD2    C113124   4.565   3.553  14.821  0.4617  0.2710  0.1855
  892MPD2    C213125   4.596   3.484  14.707 -0.3742  0.2480  0.1230
  892MPD2    C313126   4.727   3.448  14.679 -0.3408 -0.6304  0.4747
  892MPD2    C413127   0.080   3.455  14.784 -0.2160 -0.3382 -0.3367
  892MPD2    C513128   0.043   3.513  14.905 -0.9107  0.0723  0.2474
  892MPD2     H13129   4.524   3.476  14.627 -0.1657 -1.0680  0.0655
  892MPD2    H113130   0.179   3.412  14.772 -0.1350 -0.1757 -0.2522
  892MPD2    H213131   4.631   3.629  15.008 -0.6945  0.5069  0.5433
  892MPD2    H313132   0.103   3.515  14.996  0.1871  0.0159 -0.4783
  892MPD2     N13133   0.028   3.410  14.548  0.0014 -0.2877 -0.6969
  892MPD2    H513134   0.127   3.392  14.538 -0.2737 -1.6823 -0.9420
  892MPD2    N113135   4.434   3.605  14.842 -0.4285  0.1605  1.0165
  892MPD2    H713136   4.369   3.602  14.765 -1.7681  0.1926  2.1422
  893MPD2     C13137   1.244   2.208   1.553 -0.2357 -0.4174  0.5686
  893MPD2    C113138   1.197   2.324   1.506  0.5152  0.1991 -0.5835
  893MPD2    C213139   1.070   2.360   1.528  0.2271 -0.4251  0.3609
  893MPD2    C313140   0.986   2.284   1.611 -0.1918  0.0543 -0.5021
  893MPD2    C413141   1.035   2.166   1.659 -0.0156 -0.0494  0.2072
  893MPD2    C513142   1.160   2.134   1.628 -0.2769 -0.0244  0.1237
  893MPD2     H13143   1.029   2.445   1.476  0.1052 -0.9834 -0.4636
  893MPD2    H113144   0.971   2.100   1.716 -0.7398  0.4639 -0.0026
  893MPD2    H213145   1.347   2.180   1.531  0.3206  1.2606  1.0635
  893MPD2    H313146   1.201   2.044   1.672  0.3278 -1.2430 -2.9005
  893MPD2     N13147   0.855   2.316   1.659 -0.6574 -0.1747  0.6093
  893MPD2    H513148   0.811   2.249   1.722  0.8316 -0.1900  1.6304
  893MPD2    N113149   1.278   2.399   1.425  0.0708  0.0180 -0.1362
  893MPD2    H713150   1.369   2.360   1.401 -0.0481 -0.0777 -0.4313
  894MPD2     C13151   4.532   0.184   0.572  0.4486 -0.6236  0.2098
  894MPD2    C113152   4.566   0.214   0.703  0.3491  0.1481 -0.1172
  894MPD2    C213153   4.681   0.292   0.717  0.2451  0.1500 -0.2831
  894MPD2    C313154   0.016   0.332   0.606 -0.2182 -0.2414 -0.1918
  894MPD2    C413155   4.725   0.299   0.479  0.6665  0.1607 -0.0348
  894MPD2    C513156   4.608   0.224   0.466 -0.7978 -0.2057  0.4226
  894MPD2     H13157   4.718   0.330   0.812  1.3356  1.0009 -1.0493
  894MPD2    H113158   0.040   0.318   0.387  0.8381  1.9781  0.4410
  894MPD2    H213159   4.451   0.114   0.554  0.1536 -0.0144 -0.7891
  894MPD2    H313160   4.571   0.197   0.368 -1.1395 -1.2501  0.8414
  894MPD2     N13161   0.115   0.426   0.630 -0.1993  0.0486 -0.2234
  894MPD2    H513162   0.125   0.462   0.725 -0.7618  1.9461 -0.8793
  894MPD2    N113163   4.498   0.166   0.819  0.0947  0.0856 -0.4226
  894MPD2    H713164   4.545   0.182   0.907 -1.9045 -0.8935  0.8102
  895MPD2     C13165   2.946   2.628  13.243 -0.3590  0.2900 -0.2313
  895MPD2    C113166   3.044   2.644  13.149  0.4374 -0.2340  1.0979
  895MPD2    C213167   3.122   2.528  13.118  0.4810 -0.3747  0.0396
  895MPD2    C313168   3.125   2.409  13.193  0.0429 -0.0705  0.3382
  895MPD2    C413169   3.024   2.394  13.286 -0.3912  0.0889  0.3651
  895MPD2    C513170   2.942   2.502  13.311  0.4363 -0.0909 -0.0284
  895MPD2     H13171   3.193   2.546  13.038  0.7357  0.2645  0.4078
  895MPD2    H113172   3.011   2.303  13.343 -0.0963  0.4198  0.9619
  895MPD2    H213173   2.882   2.704  13.288 -0.3918 -0.2308  0.6102
  895MPD2    H313174   2.863   2.485  13.383  0.7495  0.1067  0.3574
  895MPD2     N13175   3.198   2.294  13.154 -0.7609 -0.1591 -0.3705
  895MPD2    H513176   3.163   2.207  13.193 -0.1880 -1.2049 -2.1635
  895MPD2    N113177   3.064   2.768  13.081 -0.3268  0.0866 -0.3811
  895MPD2    H713178   3.135   2.772  13.009  0.3447 -4.2487  0.0421
  896MPD2     C13179   1.442   0.933   1.666  0.5621  0.7926 -0.1741
  896MPD2    C113180   1.401   0.970   1.541 -0.2830 -0.6675 -0.6600
  896MPD2    C213181   1.287   0.914   1.488  0.1170 -0.3494 -0.0363
  896MPD2    C313182   1.203   0.844   1.568  0.3839  0.3721 -0.0422
  896MPD2    C413183   1.239   0.823   1.695 -0.7094 -0.3519 -0.3246
  896MPD2    C513184   1.356   0.863   1.749  0.7727  0.5549  0.0776
  896MPD2     H13185   1.265   0.927   1.383  1.1654  2.7094  0.1304
  896MPD2    H113186   1.170   0.777   1.765 -0.0260  1.4519  1.5367
  896MPD2    H213187   1.538   0.960   1.709 -0.1300 -0.3660  2.1144
  896MPD2    H313188   1.394   0.834   1.846 -0.2934 -1.8857 -0.2332
  896MPD2     N13189   1.089   0.787   1.508  0.3816  0.3052  0.1245
  896MPD2    H513190   1.076   0.824   1.414 -1.4708 -1.1659 -0.2063
  896MPD2    N113191   1.500   1.036   1.457  0.1479 -0.9772  0.9743
  896MPD2    H713192   1.596   1.049   1.488  0.2525  1.3046 -0.2608
  897MPD2     C13193   2.608   2.258  10.618 -0.3358 -0.3443  0.0574
  897MPD2    C113194   2.507   2.298  10.537 -0.2009 -0.7011 -0.6238
  897MPD2    C213195   2.378   2.274  10.569  0.5342  0.8175  0.0187
  897MPD2    C313196   2.347   2.209  10.692 -0.6951  0.0321  0.1188
  897MPD2    C413197   2.449   2.170  10.771  0.5796  0.0208  0.5329
  897MPD2    C513198   2.579   2.194  10.740  0.0896 -0.5837 -0.0705
  897MPD2     H13199   2.305   2.282  10.490 -0.5670 -2.4949  0.7295
  897MPD2    H113200   2.438   2.114  10.863  1.9835 -1.7583 -0.3737
  897MPD2    H213201   2.711   2.273  10.591  0.0740  1.0222  2.4771
  897MPD2    H313202   2.660   2.171  10.809 -0.4414  1.6830  1.3089
  897MPD2     N13203   2.215   2.199  10.726 -0.5185 -0.1546 -0.8341
  897MPD2    H513204   2.151   2.246  10.662 -0.1846  3.1610  1.2690
  897MPD2    N113205   2.532   2.349  10.409  0.4278 -0.4598  0.1072
  897MPD2    H713206   2.632   2.344  10.388  0.7366 -0.4049  1.5970
  898MPD2     C13207   3.830   3.484  17.572 -0.3745 -0.1634 -0.8095
  898MPD2    C113208   3.969   3.488  17.577  0.9100 -0.7873 -0.1069
  898MPD2    C213209   4.038   3.598  17.621  0.0906  0.4905  0.5243
  898MPD2    C313210   3.963   3.707  17.668  0.0124  0.4306  0.2363
  898MPD2    C413211   3.825   3.711  17.655 -0.0308 -0.2109 -0.2698
  898MPD2    C513212   3.764   3.595  17.616 -0.0448 -0.0231 -0.0829
  898MPD2     H13213   4.147   3.596  17.617  0.1283  1.0622  1.3832
  898MPD2    H113214   3.760   3.795  17.675 -0.6396 -1.2866  2.2982
  898MPD2    H213215   3.775   3.399  17.532  0.8566 -1.4427  0.2190
  898MPD2    H313216   3.657   3.589  17.599 -0.2243 -1.6503  1.6036
  898MPD2     N13217   4.033   3.823  17.701 -0.3624  0.4586 -0.3844
  898MPD2    H513218   4.134   3.815  17.696 -0.4038 -0.2997 -0.0375
  898MPD2    N113219   4.041   3.375  17.546  0.0162  0.1865 -0.6614
  898MPD2    H713220   4.141   3.378  17.560 -0.2320 -1.1268  1.4161
  899MPD2     C13221   0.300   4.013  16.962  0.1178  0.0907  0.1810
  899MPD2    C113222   0.365   4.089  17.057 -0.2307 -0.2990  0.3058
  899MPD2    C213223   0.332   4.064  17.190  0.2301  0.2384 -1.0313
  899MPD2    C313224   0.226   3.981  17.224 -0.3665 -0.6763 -0.0893
  899MPD2    C413225   0.156   3.910  17.124 -0.3514 -0.1020  0.2945
  899MPD2    C513226   0.198   3.925  16.999 -0.8897 -0.3766 -0.0331
  899MPD2     H13227   0.391   4.117  17.264 -0.6212  1.2718 -1.1018
  899MPD2    H113228   0.068   3.848  17.128 -0.6652  0.2486 -1.1991
  899MPD2    H213229   0.321   4.026  16.857  1.6401  0.3670  0.5118
  899MPD2    H313230   0.143   3.870  16.924  0.6097  0.5888 -1.8453
  899MPD2     N13231   0.176   3.972  17.350  0.2541  0.6296 -0.2517
  899MPD2    H513232   0.080   3.943  17.366  0.0012  1.1487 -0.8441
  899MPD2    N113233   0.465   4.178  17.012  0.0789 -0.1676 -0.2952
  899MPD2    H713234   0.477   4.182  16.911 -0.2966 -0.2402 -0.3408
  900MPD2     C13235   4.144   4.697  13.017  0.1869  0.6987 -0.4068
  900MPD2    C113236   4.208   4.727  12.899  0.5324  0.0436 -0.0499
  900MPD2    C213237   4.129   0.056  12.811  0.0142 -0.5563  0.1844
  900MPD2    C313238   3.993   0.082  12.825 -0.0649 -0.3032  1.0316
  900MPD2    C413239   3.938   0.052  12.946  0.2871  0.3453 -0.3616
  900MPD2    C513240   4.011   4.721  13.039  0.5560 -0.4182 -0.1223
  900MPD2     H13241   4.170   0.087  12.716 -2.7193 -1.7693 -1.3851
  900MPD2    H113242   3.835   0.072  12.973  0.7444  1.1346  0.8261
  900MPD2    H213243   4.209   4.668  13.099 -2.8765 -0.2596  1.7184
  900MPD2    H313244   3.961   4.701  13.133 -1.4246  0.8402 -0.9016
  900MPD2     N13245   3.934   0.149  12.720 -0.6514  0.0189  0.2840
  900MPD2    H513246   3.994   0.150  12.638  0.2202  0.2826  0.9221
  900MPD2    N113247   4.337   4.684  12.877  0.5793 -0.2231 -1.0164
  900MPD2    H713248   4.379   4.629  12.950  0.6527  0.1282 -0.7964
  901MPD2     C13249   4.564   3.710  12.806 -0.5401  0.1016 -0.2151
  901MPD2    C113250   4.685   3.767  12.773 -0.0431  0.6204 -0.0761
  901MPD2    C213251   4.694   3.904  12.760 -0.2564  1.0240 -0.0080
  901MPD2    C313252   4.584   3.989  12.786  1.4949  0.7498 -0.2048
  901MPD2    C413253   4.467   3.929  12.826 -0.0918 -0.0892 -0.3874
  901MPD2    C513254   4.457   3.790  12.839 -0.0670 -0.6155  0.4108
  901MPD2     H13255   0.051   3.949  12.735  0.7965 -0.2585  1.6842
  901MPD2    H113256   4.377   3.983  12.851  0.1681  1.1727 -2.1299
  901MPD2    H213257   4.538   3.604  12.803  0.8071 -0.3302  2.8833
  901MPD2    H313258   4.363   3.744  12.867 -0.8491  0.4410 -0.4624
  901MPD2     N13259   4.599   4.125  12.770 -0.3668 -0.3656  1.0479
  901MPD2    H513260   4.691   4.161  12.747 -1.8584  3.2466  0.7419
  901MPD2    N113261   0.048   3.676  12.749  0.4729 -0.8596  0.4112
  901MPD2    H713262   0.023   3.581  12.723  0.5385 -0.8050  0.1469
  902MPD2     C13263   3.136   3.958  12.031  0.1884 -0.8486 -0.3315
  902MPD2    C113264   3.259   3.891  12.050 -0.4242  0.0940 -0.7311
  902MPD2    C213265   3.251   3.752  12.079  0.1240  0.3002 -0.1063
  902MPD2    C313266   3.126   3.691  12.084 -0.1166 -0.0422  0.2508
  902MPD2    C413267   3.008   3.766  12.054 -0.2618  0.2605  0.5691
  902MPD2    C513268   3.018   3.896  12.034  0.3382  0.3011 -0.2997
  902MPD2     H13269   3.341   3.696  12.099 -0.2661 -0.0914  0.5471
  902MPD2    H113270   2.906   3.732  12.052  0.2618 -1.1727 -1.7656
  902MPD2    H213271   3.131   4.064  12.011 -1.8344 -1.1214 -1.2613
  902MPD2    H313272   2.925   3.951  12.020  0.9837  1.8220  1.2590
  902MPD2     N13273   3.108   3.557  12.120  0.2845  0.3122  0.1288
  902MPD2    H513274   3.016   3.522  12.096  0.6071 -0.8642  0.6099
  902MPD2    N113275   3.388   3.946  12.035 -0.3261  0.2141  0.3566
  902MPD2    H713276   3.468   3.886  12.055  0.4007  1.7109  1.9035
  903MPD2     C13277   3.281   3.277  11.579 -0.2740  0.2305  0.0455
  903MPD2    C113278   3.172   3.239  11.643 -0.5377  0.1239 -0.6767
  903MPD2    C213279   3.060   3.210  11.570  0.3216 -0.6016  0.1950
  903MPD2    C313280   3.053   3.223  11.431  0.6127  0.0119 -0.6677
  903MPD2    C413281   3.169   3.255  11.368  0.3434 -0.3063  0.0882
  903MPD2    C513282   3.280   3.288  11.445 -0.4227  0.4344 -0.1266
  903MPD2     H13283   2.972   3.165  11.615 -1.6139 -0.3494 -3.3834
  903MPD2    H113284   3.184   3.266  11.261 -0.2031 -0.4126  0.0048
  903MPD2    H213285   3.375   3.293  11.632  1.9864 -1.1701 -3.5586
  903MPD2    H313286   3.373   3.311  11.395 -0.1687  1.1917  0.7063
  903MPD2     N13287   2.940   3.176  11.363  0.1359 -0.1384 -0.2802
  903MPD2    H513288   2.864   3.128  11.408 -0.2680  1.8490  1.1444
  903MPD2    N113289   3.187   3.224  11.779 -0.3881 -0.1212 -0.6562
  903MPD2    H713290   3.269   3.266  11.820 -2.1427  2.0075  0.6896
  904MPD2     C13291   3.515   1.810  14.118  0.1796  0.1621  0.3815
  904MPD2    C113292   3.495   1.939  14.085  0.9693  0.3996  0.3518
  904MPD2    C213293   3.603   2.019  14.052 -0.0878 -0.3373  0.2879
  904MPD2    C313294   3.735   1.975  14.051 -0.2305  0.1374  0.2109
  904MPD2    C413295   3.748   1.842  14.084 -0.0383 -0.1861  0.1670
  904MPD2    C513296   3.642   1.764  14.114 -0.4359 -0.0625  0.5933
  904MPD2     H13297   3.580   2.121  14.023  1.0183  0.1967  1.2978
  904MPD2    H113298   3.848   1.800  14.086  0.2520  0.5245  0.3099
  904MPD2    H213299   3.439   1.738  14.144 -0.1212 -0.0106 -0.9841
  904MPD2    H313300   3.655   1.659  14.137  3.1432  0.8294  2.6804
  904MPD2     N13301   3.841   2.058  14.005  0.6168 -0.2636  0.2080
  904MPD2    H513302   3.815   2.147  13.963  0.9995 -0.3343 -0.1735
  904MPD2    N113303   3.373   1.993  14.079  0.1118 -0.4264  0.2181
  904MPD2    H713304   3.383   2.090  14.051 -0.2604 -1.1462 -2.4180
  905MPD2     C13305   2.753   2.121  13.472 -0.7854 -0.2806  0.5318
  905MPD2    C113306   2.865   2.064  13.529 -0.1487 -0.4703 -0.2373
  905MPD2    C213307   2.961   2.026  13.433 -0.0516 -0.6404 -0.1690
  905MPD2    C313308   2.939   2.027  13.294  0.0265 -0.9876  0.0820
  905MPD2    C413309   2.815   2.070  13.251  0.2411 -0.1559 -0.1201
  905MPD2    C513310   2.723   2.125  13.338  0.0555  0.0409  0.0250
  905MPD2     H13311   3.052   1.972  13.456  0.4751  0.4695  0.3432
  905MPD2    H113312   2.784   2.041  13.151  0.3218  0.4062 -0.3077
  905MPD2    H213313   2.688   2.171  13.543  0.0559 -0.5571  1.5032
  905MPD2    H313314   2.629   2.169  13.307 -0.4303 -1.9470 -1.3151
  905MPD2     N13315   3.031   1.985  13.195 -0.6039 -0.1082  0.1343
  905MPD2    H513316   3.007   1.999  13.097 -2.3863  1.6064  0.8207
  905MPD2    N113317   2.893   2.081  13.669 -0.4788  0.2529  0.4386
  905MPD2    H713318   2.820   2.127  13.721 -1.0787 -0.1980 -0.0027
  906MPD2     C13319   1.003   2.591  10.890 -0.3677 -0.4230  0.2510
  906MPD2    C113320   1.026   2.478  10.814 -0.1307  0.4511  0.9217
  906MPD2    C213321   1.008   2.358  10.889 -1.0728  0.4230 -1.2022
  906MPD2    C313322   0.965   2.357  11.023 -0.2099  0.5400  0.0699
  906MPD2    C413323   0.956   2.475  11.095 -0.7043  0.2221 -0.2986
  906MPD2    C513324   0.965   2.590  11.021 -0.5613  0.0297  0.4161
  906MPD2     H13325   1.007   2.259  10.845 -2.4500 -0.6603  1.2618
  906MPD2    H113326   0.909   2.481  11.193  0.7801 -1.5000  0.4977
  906MPD2    H213327   0.998   2.693  10.852  1.2250  0.3267  2.0562
  906MPD2    H313328   0.939   2.687  11.061 -0.2264  0.2409  0.1236
  906MPD2     N13329   0.934   2.234  11.093  0.0588 -0.4264  0.8874
  906MPD2    H513330   0.951   2.153  11.036  1.4714  0.6031 -0.1417
  906MPD2    N113331   1.047   2.463  10.677  0.0726  0.0577 -0.2836
  906MPD2    H713332   1.043   2.371  10.635 -1.3497  0.8956 -1.9566
  907MPD2     C13333   4.229   1.901  15.759 -0.1360 -0.1494  0.0744
  907MPD2    C113334   4.281   1.778  15.747  0.2926  0.3400 -0.0130
  907MPD2    C213335   4.350   1.715  15.841 -0.4396  1.2562 -0.3037
  907MPD2    C313336   4.386   1.789  15.951  0.3135  0.3844 -0.2591
  907MPD2    C413337   4.342   1.923  15.966 -0.2492 -0.1770 -0.5840
  907MPD2    C513338   4.262   1.972  15.868  0.6117  0.4714 -0.7732
  907MPD2     H13339   4.390   1.617  15.817 -1.7885  1.0384 -1.6538
  907MPD2    H113340   4.358   1.990  16.049 -1.8084 -0.5385  0.0102
  907MPD2    H213341   4.177   1.954  15.680 -1.2057  0.6772  1.3304
  907MPD2    H313342   4.231   2.075  15.859 -0.4444  0.1706 -0.5082
  907MPD2     N13343   4.476   1.731  16.048  0.2423  0.6080  0.1019
  907MPD2    H513344   4.497   1.633  16.029  0.3452  0.6851 -0.1710
  907MPD2    N113345   4.272   1.704  15.630 -0.5286 -0.4707  0.0583
  907MPD2    H713346   4.325   1.617  15.630 -0.9691 -0.7376 -1.5485
  908MPD2     C13347   2.687   2.063   9.541 -0.1199 -0.1321 -0.5288
  908MPD2    C113348   2.648   2.010   9.666  0.3881  0.0030  0.2596
  908MPD2    C213349   2.648   2.100   9.772  0.0183 -0.0030  0.7855
  908MPD2    C313350   2.659   2.240   9.753 -1.0427 -0.1017 -0.7839
  908MPD2    C413351   2.686   2.289   9.623 -0.2677 -0.2565 -0.2959
  908MPD2    C513352   2.701   2.196   9.524 -0.2304 -0.1376 -0.7899
  908MPD2     H13353   2.631   2.067   9.874  0.6787 -3.5025 -0.2297
  908MPD2    H113354   2.700   2.395   9.605  1.2936 -0.4373 -0.1071
  908MPD2    H213355   2.699   2.001   9.452 -0.1319  0.0805 -0.6783
  908MPD2    H313356   2.727   2.237   9.427  0.3428 -2.7837 -1.7619
  908MPD2     N13357   2.634   2.318   9.870 -0.5113 -0.5151  0.2325
  908MPD2    H513358   2.623   2.270   9.959 -0.7872 -0.4942  0.2091
  908MPD2    N113359   2.613   1.875   9.675 -0.5338 -0.2146  0.4800
  908MPD2    H713360   2.632   1.827   9.587 -0.0803 -0.4472  0.7054
  909MPD2     C13361   2.520   0.039  11.683 -0.7429  0.2980  0.0537
  909MPD2    C113362   2.549   0.170  11.726 -0.0340 -0.8315 -0.3039
  909MPD2    C213363   2.499   0.207  11.850 -0.3748  0.0717  0.4241
  909MPD2    C313364   2.422   0.116  11.923  0.3166  0.3505 -0.2396
  909MPD2    C413365   2.399   4.727  11.880  0.1253 -0.3514 -0.1444
  909MPD2    C513366   2.444   4.691  11.754 -0.7618 -0.1990 -0.6588
  909MPD2     H13367   2.522   0.307  11.885  0.9582  0.5918 -1.9439
  909MPD2    H113368   2.334   4.666  11.942 -1.2276 -0.3112 -1.5462
  909MPD2    H213369   2.561   4.726  11.597 -1.1805  0.8342 -0.4768
  909MPD2    H313370   2.412   4.591  11.726 -1.5390  0.1601 -1.0542
  909MPD2     N13371   2.385   0.166  12.049 -0.6090  0.1643  0.0681
  909MPD2    H513372   2.394   0.265  12.068 -0.6457  0.3733 -0.9703
  909MPD2    N113373   2.638   0.269  11.661  0.4481 -0.0209  0.3570
  909MPD2    H713374   2.647   0.356  11.713 -1.2865  0.7720 -0.6715
  910MPD2     C13375   3.761   1.949  16.094  0.9295  0.3196 -0.7134
  910MPD2    C113376   3.880   1.943  16.021 -0.4722  0.2127  0.0212
  910MPD2    C213377   3.901   2.032  15.914 -0.0225 -0.4146  0.4491
  910MPD2    C313378   3.798   2.121  15.877  1.2318  0.3774 -0.5569
  910MPD2    C413379   3.686   2.120  15.955 -0.0421  0.2059 -0.2446
  910MPD2    C513380   3.669   2.037  16.058  0.1113 -0.1656  0.0161
  910MPD2     H13381   3.989   2.015  15.853  0.2106  0.5561  0.5237
  910MPD2    H113382   3.607   2.190  15.929 -1.1377 -0.6571  0.8399
  910MPD2    H213383   3.750   1.892  16.186  0.1594 -1.4010 -1.8673
  910MPD2    H313384   3.580   2.047  16.119 -0.4872  1.3031 -1.0916
  910MPD2     N13385   3.801   2.210  15.771 -0.4371  0.4170  0.2820
  910MPD2    H513386   3.742   2.291  15.787  0.0288  0.9851 -0.9107
  910MPD2    N113387   3.988   1.857  16.051 -0.2888 -0.0688 -0.1181
  910MPD2    H713388   4.077   1.873  16.005  1.2670  0.0747  2.9921
  911MPD2     C13389   2.024   2.811  16.232 -0.2956  0.2915 -0.5261
  911MPD2    C113390   2.103   2.914  16.279  0.6198 -0.0587 -0.7485
  911MPD2    C213391   2.054   3.044  16.276  0.5869  0.1397 -0.3192
  911MPD2    C313392   1.923   3.064  16.232 -0.0421  0.1727 -0.1518
  911MPD2    C413393   1.842   2.955  16.210  0.2795 -0.2309  0.4122
  911MPD2    C513394   1.896   2.830  16.211 -0.1981 -0.0406  0.6461
  911MPD2     H13395   2.119   3.126  16.305 -0.3498  0.5201  0.6881
  911MPD2    H113396   1.742   2.972  16.172  0.2153 -1.5412  0.0025
  911MPD2    H213397   2.054   2.707  16.224  0.0631  0.3355  0.2964
  911MPD2    H313398   1.837   2.740  16.193 -1.9536  1.0017  1.1606
  911MPD2     N13399   1.866   3.191  16.205 -0.4322  0.2643  0.2686
  911MPD2    H513400   1.777   3.187  16.156 -0.6365  1.0386  0.5893
  911MPD2    N113401   2.241   2.888  16.313  0.5228 -0.2857  0.2478
  911MPD2    H713402   2.279   2.794  16.299  1.9754  0.3707 -0.2604
  912MPD2     C13403   1.431   3.111  15.646 -0.0595 -0.2168  0.2124
  912MPD2    C113404   1.487   3.108  15.776  0.5398  0.1364 -0.1533
  912MPD2    C213405   1.479   2.990  15.843 -0.3040  0.2334  0.1306
  912MPD2    C313406   1.403   2.886  15.792 -0.0027 -0.6048  0.3069
  912MPD2    C413407   1.353   2.886  15.656  0.1192  0.4415 -0.0632
  912MPD2    C513408   1.369   3.002  15.589 -0.5518  0.5112 -0.0392
  912MPD2     H13409   1.525   2.970  15.939 -0.0730  1.0785  0.1901
  912MPD2    H113410   1.290   2.810  15.612  1.6773 -0.6322 -0.4392
  912MPD2    H213411   1.428   3.202  15.587  0.1559  0.0213  0.5701
  912MPD2    H313412   1.318   3.012  15.494 -0.6612 -0.5835 -0.0911
  912MPD2     N13413   1.412   2.759  15.858  0.1333  0.0625 -0.6856
  912MPD2    H513414   1.445   2.756  15.954 -2.1254  1.2034  0.1371
  912MPD2    N113415   1.552   3.223  15.831  0.1989  0.0608 -0.4236
  912MPD2    H713416   1.558   3.310  15.780  0.6077 -0.3462 -1.0702
  913MPD2     C13417   1.828   4.014  10.430 -0.9997 -0.8784 -0.2364
  913MPD2    C113418   1.916   4.094  10.497 -0.2127 -0.0986 -0.1099
  913MPD2    C213419   1.971   4.202  10.430  0.0725 -0.2721  0.5245
  913MPD2    C313420   1.942   4.223  10.292 -0.4243  0.0103  0.7323
  913MPD2    C413421   1.852   4.139  10.228  0.2740 -0.5394  0.0857
  913MPD2    C513422   1.793   4.034  10.300  0.2291  0.6382 -0.0883
  913MPD2     H13423   2.048   4.269  10.467  0.4490  0.7995 -2.1720
  913MPD2    H113424   1.825   4.140  10.123  0.9171  1.2042 -0.0711
  913MPD2    H213425   1.789   3.928  10.482 -0.3212 -0.9126  0.2093
  913MPD2    H313426   1.719   3.970  10.253  0.6459  0.1040 -0.0065
  913MPD2     N13427   1.995   4.336  10.221 -0.8022  0.5874  0.8319
  913MPD2    H513428   1.964   4.360  10.127 -0.6548 -1.4671  0.2528
  913MPD2    N113429   1.955   4.062  10.628 -0.1240 -0.4861  0.1281
  913MPD2    H713430   1.905   3.979  10.660 -0.2900 -0.4743 -0.0995
  914MPD2     C13431   4.677   3.421  11.947 -0.2050 -0.4013  0.1620
  914MPD2    C113432   4.667   3.531  12.016  0.7808 -0.3287 -0.2494
  914MPD2    C213433   0.001   3.545  12.136  0.4284  0.0289 -0.1195
  914MPD2    C313434   0.083   3.448  12.184 -0.1505 -0.4909  0.2876
  914MPD2    C413435   0.088   3.331  12.110  0.4752 -0.0991  0.2768
  914MPD2    C513436   0.017   3.323  11.996  0.1518  0.3941 -0.2134
  914MPD2     H13437   0.006   3.641  12.186 -1.0577  0.0821 -0.0572
  914MPD2    H113438   0.151   3.249  12.143 -0.4132 -1.5733 -1.7555
  914MPD2    H213439   4.622   3.406  11.855 -0.0507  0.0401 -0.0032
  914MPD2    H313440   0.024   3.227  11.948 -3.2157 -0.8471  1.7692
  914MPD2     N13441   0.152   3.471  12.308 -0.4795 -0.2474  0.0812
  914MPD2    H513442   0.156   3.565  12.348  0.5090 -0.3137  0.1414
  914MPD2    N113443   4.595   3.630  11.952 -0.4816  0.2932  0.1109
  914MPD2    H713444   4.575   3.615  11.854 -1.8381 -2.0364  0.7341
  915MPD2     C13445   2.988   3.866  15.772  0.3138 -0.2702  0.3629
  915MPD2    C113446   2.910   3.932  15.684 -0.0296  0.1448 -0.8459
  915MPD2    C213447   2.834   4.028  15.737 -0.1445 -0.3055  0.1978
  915MPD2    C313448   2.823   4.066  15.871 -0.0016  0.3065 -0.9537
  915MPD2    C413449   2.897   3.991  15.956 -0.7859 -0.5300 -0.2488
  915MPD2    C513450   2.979   3.892  15.908  0.0259  0.5569  0.1137
  915MPD2     H13451   2.765   4.076  15.669  0.0585  1.2149  1.0738
  915MPD2    H113452   2.901   4.015  16.062  0.3843 -0.0708 -0.3933
  915MPD2    H213453   3.052   3.782  15.746  0.8265  0.2494 -0.0542
  915MPD2    H313454   3.017   3.817  15.977  1.0913 -1.1867 -2.3409
  915MPD2     N13455   2.723   4.153  15.923  0.1960  0.5154  0.3457
  915MPD2    H513456   2.682   4.223  15.861 -0.6678 -0.2012  0.1102
  915MPD2    N113457   2.922   3.908  15.540  0.1446 -0.5198  0.3062
  915MPD2    H713458   2.987   3.833  15.520 -0.4025 -0.7309 -0.6707
  916MPD2     C13459   1.145   2.343  15.589 -0.6664 -0.4149  0.4677
  916MPD2    C113460   1.149   2.272  15.707 -1.0583  0.7594 -0.6855
  916MPD2    C213461   1.212   2.150  15.696 -0.0117  0.0770 -0.7166
  916MPD2    C313462   1.271   2.110  15.576  0.2315 -0.2088  0.4586
  916MPD2    C413463   1.267   2.190  15.463 -0.1794  0.3511 -0.0970
  916MPD2    C513464   1.191   2.303  15.468  0.0583  0.8878  0.7576
  916MPD2     H13465   1.233   2.090  15.783 -1.1493  0.6141 -0.0603
  916MPD2    H113466   1.303   2.161  15.365  1.7243 -0.7534  0.9198
  916MPD2    H213467   1.081   2.430  15.593  1.1616  1.0244 -1.8381
  916MPD2    H313468   1.160   2.362  15.383  2.8005 -0.3876 -1.1361
  916MPD2     N13469   1.335   1.982  15.583 -0.3233 -0.1487  0.2768
  916MPD2    H513470   1.327   1.922  15.665 -0.6100  1.7589  1.6391
  916MPD2    N113471   1.093   2.327  15.831 -0.3116  0.2428  0.3052
  916MPD2    H713472   1.036   2.409  15.812  0.1575  0.6596  0.6820
  917MPD2     C13473   1.036   4.356  11.281 -0.7484 -0.2311  0.8064
  917MPD2    C113474   1.105   4.366  11.402  1.3333  0.1743 -0.1990
  917MPD2    C213475   1.219   4.447  11.404 -0.1533  0.4344  0.0255
  917MPD2    C313476   1.266   4.512  11.291 -0.5168 -0.1188  0.3042
  917MPD2    C413477   1.202   4.500  11.174 -0.9575 -1.0449 -0.0827
  917MPD2    C513478   1.088   4.423  11.169 -0.0960  0.0213 -0.2895
  917MPD2     H13479   1.262   4.450  11.504 -1.1903 -0.4077  0.4906
  917MPD2    H113480   1.229   4.554  11.084  2.6143  0.5818  2.0176
  917MPD2    H213481   0.945   4.297  11.278 -2.5810  2.5260  1.8068
  917MPD2    H313482   1.024   4.415  11.082 -0.9061 -0.9774  0.4050
  917MPD2     N13483   1.378   4.599  11.295  0.0906  0.2473 -0.3549
  917MPD2    H513484   1.413   4.643  11.210 -0.2046 -0.0347 -0.6195
  917MPD2    N113485   1.042   4.300  11.509  0.4115  0.2241  0.0721
  917MPD2    H713486   0.971   4.233  11.483  2.8099 -1.7699 -1.2841
  918MPD2     C13487   1.035   4.558  12.471  0.3655  0.1751 -0.5093
  918MPD2    C113488   1.139   4.506  12.397 -0.2894  0.6233 -0.5578
  918MPD2    C213489   1.111   4.434  12.284  0.0226 -0.2875 -0.0109
  918MPD2    C313490   0.983   4.414  12.239 -0.2458  0.9602 -0.3615
  918MPD2    C413491   0.879   4.455  12.311  0.2440 -0.1367 -0.1827
  918MPD2    C513492   0.907   4.527  12.430  0.2225  0.6720 -0.2675
  918MPD2     H13493   1.195   4.401  12.224  0.1277 -1.1381  0.5999
  918MPD2    H113494   0.775   4.447  12.279  0.5826 -2.0495 -0.8268
  918MPD2    H213495   1.049   4.617  12.561 -0.6128  0.1933 -0.3589
  918MPD2    H313496   0.825   4.558  12.495 -0.0053  0.7951 -0.6127
  918MPD2     N13497   0.962   4.344  12.118  0.3027  0.3704  0.0241
  918MPD2    H513498   1.048   4.326  12.067 -1.8981 -2.5354 -2.6031
  918MPD2    N113499   1.266   4.530  12.433  0.7532 -0.0287  0.4341
  918MPD2    H713500   1.336   4.496  12.367  0.2205  2.8141 -1.5946
  919MPD2     C13501   1.959   3.483  11.818 -0.1813  0.1005  0.1540
  919MPD2    C113502   1.914   3.373  11.751 -0.6670  0.8061 -0.4134
  919MPD2    C213503   1.868   3.393  11.623 -1.0183 -0.1230 -0.2358
  919MPD2    C313504   1.848   3.521  11.573 -0.0078  0.1996 -0.0339
  919MPD2    C413505   1.892   3.624  11.648  0.5658 -0.0311 -0.0416
  919MPD2    C513506   1.943   3.612  11.774 -0.0807  1.3409  0.2354
  919MPD2     H13507   1.833   3.305  11.570  1.4378 -0.1272 -1.8261
  919MPD2    H113508   1.886   3.723  11.605  0.1277  0.6777  1.6298
  919MPD2    H213509   2.008   3.471  11.915 -1.0771  2.2799  0.8848
  919MPD2    H313510   1.999   3.687  11.829  3.2149 -1.9054  1.3079
  919MPD2     N13511   1.799   3.553  11.444 -0.4444  0.1545 -0.0245
  919MPD2    H513512   1.802   3.652  11.421  1.6345  0.5025  1.7603
  919MPD2    N113513   1.929   3.244  11.802 -0.0082 -0.6755  0.0357
  919MPD2    H713514   1.912   3.161  11.745 -0.2235 -2.3274  2.5114
  920MPD2     C13515   1.614   4.259  10.806  0.2534  0.3356 -0.4039
  920MPD2    C113516   1.547   4.157  10.741  0.2155  0.3304  0.3344
  920MPD2    C213517   1.558   4.018  10.775 -0.6861  0.0214  0.6506
  920MPD2    C313518   1.645   3.985  10.882  0.0870  0.6728  0.0184
  920MPD2    C413519   1.717   4.088  10.946 -0.2905  0.4640 -0.1055
  920MPD2    C513520   1.700   4.220  10.903  0.1122 -0.3916 -0.6501
  920MPD2     H13521   1.507   3.939  10.722 -0.2122 -1.0035  1.7358
  920MPD2    H113522   1.785   4.070  11.029 -1.6701 -2.4773  0.3662
  920MPD2    H213523   1.602   4.360  10.769 -2.3215 -0.4060 -1.6360
  920MPD2    H313524   1.777   4.287  10.940 -0.3653  0.6042 -1.4991
  920MPD2     N13525   1.650   3.855  10.927  0.3296  0.0869 -0.0059
  920MPD2    H513526   1.598   3.790  10.869  1.6977 -0.4165 -0.6539
  920MPD2    N113527   1.464   4.185  10.629  0.8363  0.0536  0.0400
  920MPD2    H713528   1.432   4.104  10.577 -3.3734 -0.0918  2.8158
  921MPD2     C13529   3.016   2.871  17.027  0.1492 -0.4677 -0.1277
  921MPD2    C113530   3.043   2.912  16.897 -0.3464 -0.2812  0.0498
  921MPD2    C213531   2.936   2.925  16.811 -0.8047 -0.3326 -0.2600
  921MPD2    C313532   2.809   2.886  16.850  0.1362  0.3300  0.0179
  921MPD2    C413533   2.781   2.854  16.979  0.1644  0.6853 -0.0041
  921MPD2    C513534   2.889   2.846  17.068  0.5939 -0.4323 -0.1382
  921MPD2     H13535   2.957   2.942  16.706 -0.3661 -1.6196 -0.3820
  921MPD2    H113536   2.682   2.819  17.006  1.9159 -4.2702  0.1821
  921MPD2    H213537   3.098   2.849  17.094  0.1871 -2.3953 -0.8170
  921MPD2    H313538   2.871   2.810  17.169 -0.0408  2.6105  0.8368
  921MPD2     N13539   2.708   2.866  16.754  0.2700  0.0788 -0.7039
  921MPD2    H513540   2.620   2.829  16.789 -0.2116  2.2729  0.3688
  921MPD2    N113541   3.177   2.922  16.857  0.4509  0.0066 -0.2661
  921MPD2    H713542   3.247   2.857  16.892  0.3666  0.3321  0.4994
  922MPD2     C13543   3.305   0.211  16.939 -0.1270 -0.6640  0.2608
  922MPD2    C113544   3.268   0.234  17.067 -0.3378 -0.1132 -1.2437
  922MPD2    C213545   3.138   0.262  17.104 -0.6207 -0.1281 -0.1043
  922MPD2    C313546   3.038   0.269  17.012  0.5690 -0.3247  0.1866
  922MPD2    C413547   3.075   0.237  16.881  0.5235  0.0871  0.3571
  922MPD2    C513548   3.204   0.212  16.844  0.6025 -0.0828  0.7192
  922MPD2     H13549   3.119   0.295  17.205  0.7934  1.1709 -0.2513
  922MPD2    H113550   2.998   0.232  16.805  1.4147 -0.0510 -0.5201
  922MPD2    H213551   3.410   0.220  16.914 -0.2145  1.2571  0.5682
  922MPD2    H313552   3.237   0.194  16.742  0.1890 -0.4696  0.6575
  922MPD2     N13553   2.905   0.296  17.040  0.2889 -0.2476 -0.2559
  922MPD2    H513554   2.834   0.284  16.968 -0.3243  2.5579 -0.1138
  922MPD2    N113555   3.361   0.240  17.170 -0.6259  0.1298  0.0325
  922MPD2    H713556   3.319   0.284  17.252 -4.5371 -2.2020 -0.7086
  923MPD2     C13557   4.411   2.566   9.019  0.3589  0.7488  0.4964
  923MPD2    C113558   4.455   2.694   9.032  0.2649  0.7126  0.9227
  923MPD2    C213559   4.597   2.706   9.033 -0.1458  0.5346 -0.1067
  923MPD2    C313560   4.678   2.591   9.019  0.8297 -0.1854 -0.4518
  923MPD2    C413561   4.621   2.466   9.026 -0.4269 -0.1795  0.0695
  923MPD2    C513562   4.490   2.453   9.008 -0.5008 -0.3987 -0.3775
  923MPD2     H13563   4.639   2.806   9.043  0.4164 -0.0294  3.1422
  923MPD2    H113564   4.690   2.383   9.022 -1.2378 -0.8922  0.8232
  923MPD2    H213565   4.306   2.542   9.015  1.0425 -1.5844 -3.5258
  923MPD2    H313566   4.449   2.353   8.996 -1.5822 -0.1434  1.2655
  923MPD2     N13567   0.084   2.592   9.037 -0.6968  0.6843 -0.3109
  923MPD2    H513568   0.124   2.499   9.045 -0.4761  0.8161  0.0965
  923MPD2    N113569   4.359   2.800   9.047 -0.0497  0.0291  0.4513
  923MPD2    H713570   4.262   2.770   9.053 -0.4986  1.3329 -0.4096
  924MPD2     C13571   4.532   0.987  16.333  0.5119  0.1765 -0.0999
  924MPD2    C113572   4.658   1.027  16.367  0.5353  0.5278 -0.4925
  924MPD2    C213573   4.702   1.147  16.316 -0.4265  0.7355  0.8024
  924MPD2    C313574   4.631   1.213  16.216 -0.2627 -0.1921  0.9108
  924MPD2    C413575   4.507   1.168  16.186  0.3335  0.0596 -0.3295
  924MPD2    C513576   4.461   1.053  16.235 -0.1001  0.0158 -0.3482
  924MPD2     H13577   0.056   1.187  16.355 -0.7461  2.2568 -0.0142
  924MPD2    H113578   4.444   1.226  16.119 -0.6323  0.0140  0.5412
  924MPD2    H213579   4.488   0.907  16.392  0.1108  1.6921  1.6306
  924MPD2    H313580   4.359   1.018  16.227  0.5901 -2.7103  2.4852
  924MPD2     N13581   4.666   1.344  16.167 -0.3994 -0.3219 -0.0540
  924MPD2    H513582   4.599   1.401  16.117 -0.7736 -1.3684 -0.7264
  924MPD2    N113583   4.726   0.955  16.473  0.4869 -0.1558  0.1954
  924MPD2    H713584   4.670   0.896  16.534 -0.7209  0.0482 -0.7183
  925MPD2     C13585   3.372   3.378  14.544 -0.3377  0.9177 -0.2134
  925MPD2    C113586   3.267   3.288  14.531 -0.4840  0.2328  0.9579
  925MPD2    C213587   3.169   3.267  14.629  0.1341 -0.1867  0.1027
  925MPD2    C313588   3.185   3.343  14.746  0.6081 -0.1514  0.1819
  925MPD2    C413589   3.288   3.439  14.751  0.4891 -0.3308 -0.2792
  925MPD2    C513590   3.380   3.450  14.658  0.2697 -0.6494  0.3052
  925MPD2     H13591   3.086   3.200  14.612 -1.5603  1.6371  1.1040
  925MPD2    H113592   3.302   3.493  14.844  1.6675 -0.3923 -0.4112
  925MPD2    H213593   3.461   3.380  14.482 -0.2226  2.6447 -0.0137
  925MPD2    H313594   3.464   3.515  14.680  0.8035 -1.3006  0.2098
  925MPD2     N13595   3.113   3.310  14.866  0.1611 -0.8774  0.5225
  925MPD2    H513596   3.062   3.222  14.863 -1.2844 -0.0310  0.2113
  925MPD2    N113597   3.263   3.216  14.409 -1.0059  0.2077 -0.1294
  925MPD2    H713598   3.197   3.138  14.407 -1.1091  0.3518 -2.3555
  926MPD2     C13599   2.797   1.333  13.700 -0.4543  0.9648 -0.1897
  926MPD2    C113600   2.719   1.364  13.595 -0.2563  0.4646 -0.2618
  926MPD2    C213601   2.779   1.407  13.474  0.2435 -0.4438  0.2540
  926MPD2    C313602   2.922   1.407  13.461 -0.5025  0.0155 -0.2725
  926MPD2    C413603   2.984   1.371  13.569  0.5898 -0.5732  0.0192
  926MPD2    C513604   2.933   1.333  13.688 -0.3488  0.3012 -0.6400
  926MPD2     H13605   2.712   1.429  13.392  1.3257 -0.2538 -0.5695
  926MPD2    H113606   3.092   1.356  13.566  0.5753 -0.4280 -1.0790
  926MPD2    H213607   2.749   1.296  13.790 -1.3190 -0.3912 -1.2220
  926MPD2    H313608   2.987   1.293  13.773  0.5573  0.7447 -1.0107
  926MPD2     N13609   2.998   1.458  13.356 -0.1114 -0.6942 -0.1770
  926MPD2    H513610   3.097   1.444  13.372 -0.6092 -3.2641  0.6075
  926MPD2    N113611   2.577   1.364  13.602 -0.5840  0.0965  0.0231
  926MPD2    H713612   2.533   1.404  13.520 -1.0968 -0.7261 -0.1020
  927MPD2     C13613   1.996   4.331  17.697 -0.9209  0.0087 -0.1013
  927MPD2    C113614   1.876   4.397  17.667  0.2177  0.2945 -0.3253
  927MPD2    C213615   1.867   4.463  17.542 -0.0686  0.0836 -0.3463
  927MPD2    C313616   1.975   4.462  17.455 -0.0572 -0.3285 -0.3944
  927MPD2    C413617   2.096   4.423  17.501  1.5247 -0.3154 -0.9154
  927MPD2    C513618   2.104   4.348  17.609  0.1401  0.0120  0.3488
  927MPD2     H13619   1.770   4.496  17.508  0.8625  2.0644 -1.0709
  927MPD2    H113620   2.191   4.447  17.456  0.7436  1.9057 -1.4051
  927MPD2    H213621   2.009   4.279   0.039  0.8124  0.4593 -0.1064
  927MPD2    H313622   2.202   4.313  17.640 -0.4828 -1.1784  0.9672
  927MPD2     N13623   1.959   4.497  17.321 -0.7024 -0.1359 -0.2440
  927MPD2    H513624   1.867   4.533  17.299 -0.5503 -0.3961 -1.2872
  927MPD2    N113625   1.775   4.395   0.010  0.2778  0.3221  0.3296
  927MPD2    H713626   1.799   4.350   0.097  1.1850  0.1630 -0.0036
  928MPD2     C13627   4.637   2.308   0.904  0.7368 -0.3987 -0.6435
  928MPD2    C113628   4.710   2.424   0.911  0.2371 -0.3605  0.1320
  928MPD2    C213629   0.031   2.480   0.793  0.3249 -0.2475 -0.3274
  928MPD2    C313630   0.012   2.414   0.673 -0.1264  0.3052 -0.1288
  928MPD2    C413631   4.679   2.293   0.667 -0.1564 -0.3416  0.3576
  928MPD2    C513632   4.623   2.243   0.780  0.4442 -0.3306  0.0975
  928MPD2     H13633   0.089   2.572   0.797 -0.9472  0.5027  0.9402
  928MPD2    H113634   4.665   2.238   0.575  1.5275 -0.8980  0.4315
  928MPD2    H213635   4.590   2.266   0.992 -2.3107  0.9694 -1.5956
  928MPD2    H313636   4.584   2.142   0.772  0.0922 -0.1227 -0.8517
  928MPD2     N13637   0.058   2.465   0.546  0.3438  0.4240  0.2251
  928MPD2    H513638   0.023   2.421   0.462  2.0166  1.6838 -1.1413
  928MPD2    N113639   4.730   2.489   1.037  0.3091 -0.3924  0.2122
  928MPD2    H713640   0.053   2.570   1.029 -1.1366  0.6368 -0.3542
  929MPD2     C13641   0.709   2.381  10.067  0.5851  0.1477  0.3141
  929MPD2    C113642   0.604   2.295  10.098  0.2129  0.0770  0.5996
  929MPD2    C213643   0.489   2.310  10.018 -0.6421  0.7832 -0.2350
  929MPD2    C313644   0.487   2.399   9.914  0.0889 -0.3561  0.6318
  929MPD2    C413645   0.590   2.474   9.891 -0.6205 -0.9159  0.6760
  929MPD2    C513646   0.704   2.463   9.962 -0.1623  0.0539 -0.1434
  929MPD2     H13647   0.399   2.254  10.039 -0.2297 -0.2686 -1.2881
  929MPD2    H113648   0.588   2.551   9.814  0.5925 -0.8114  0.7504
  929MPD2    H213649   0.803   2.374  10.120  1.0681  2.1140 -0.2920
  929MPD2    H313650   0.791   2.516   9.924 -0.3692  0.2231 -0.3829
  929MPD2     N13651   0.373   2.428   9.840 -0.4193  0.4672  0.0119
  929MPD2    H513652   0.379   2.507   9.777  2.3125 -1.4368 -2.1488
  929MPD2    N113653   0.612   2.211  10.213 -0.6320  0.5412 -0.5403
  929MPD2    H713654   0.697   2.219  10.268 -0.4383 -0.6289 -0.6640
  930MPD2     C13655   1.394   4.330  14.357  0.0229 -0.0432  0.0296
  930MPD2    C113656   1.512   4.278  14.329  0.0408 -0.2089 -0.1641
  930MPD2    C213657   1.528   4.173  14.246 -0.4344  0.3296 -0.2708
  930MPD2    C313658   1.414   4.112  14.200 -0.1595 -0.6208 -0.2048
  930MPD2    C413659   1.288   4.154  14.247 -0.8281 -0.4061  0.2152
  930MPD2    C513660   1.278   4.269  14.313  0.0783 -0.1819  0.3128
  930MPD2     H13661   1.633   4.148  14.233 -0.1116  1.3845  0.3421
  930MPD2    H113662   1.194   4.111  14.214 -1.3999  1.4742 -0.6541
  930MPD2    H213663   1.392   4.417  14.420 -1.1349  1.2658 -1.7927
  930MPD2    H313664   1.184   4.309  14.351 -0.8428 -2.2340  0.2235
  930MPD2     N13665   1.412   4.014  14.097  0.3388  0.7164  0.3854
  930MPD2    H513666   1.325   3.970  14.070  0.4409 -0.2458  1.5921
  930MPD2    N113667   1.623   4.350  14.368 -0.1610  0.0199 -0.1100
  930MPD2    H713668   1.617   4.450  14.386  1.8164  0.3254 -1.1197
  931MPD2     C13669   1.792   3.892   0.273  0.0853 -0.4086 -0.1890
  931MPD2    C113670   1.680   3.948   0.337  0.3357 -0.5836  0.0236
  931MPD2    C213671   1.626   3.875   0.445  0.1184  0.8351 -0.0879
  931MPD2    C313672   1.663   3.741   0.469  0.5241  0.3672  0.2848
  931MPD2    C413673   1.767   3.683   0.400  0.6224  0.0580 -0.2717
  931MPD2    C513674   1.824   3.758   0.302  0.1946 -0.5759 -0.6604
  931MPD2     H13675   1.547   3.916   0.507 -0.0041  1.0849 -0.4078
  931MPD2    H113676   1.803   3.582   0.415 -1.3043 -0.2331  2.3385
  931MPD2    H213677   1.831   3.946   0.188  0.2102 -1.8478 -1.0563
  931MPD2    H313678   1.905   3.709   0.249  2.8504  2.4765  0.5645
  931MPD2     N13679   1.612   3.664   0.572  0.9373  0.1688  0.2969
  931MPD2    H513680   1.650   3.571   0.589  1.1578 -0.2373 -2.4462
  931MPD2    N113681   1.644   4.075   0.292 -0.3425  0.0771 -0.9487
  931MPD2    H713682   1.704   4.125   0.227 -0.7022  0.8764 -0.6699
  932MPD2     C13683   3.815   3.060  11.243 -0.2343  0.5806  0.0527
  932MPD2    C113684   3.874   3.138  11.336  0.6623 -1.5945 -0.5822
  932MPD2    C213685   3.889   3.091  11.467 -0.7732 -0.7485 -0.2158
  932MPD2    C313686   3.868   2.958  11.495 -0.9838 -0.1882 -0.0032
  932MPD2    C413687   3.817   2.883  11.394  0.0056 -0.0322  0.1012
  932MPD2    C513688   3.783   2.931  11.273 -0.5988  0.0678 -0.8813
  932MPD2     H13689   3.920   3.162  11.543  0.3661 -1.4625 -0.0121
  932MPD2    H113690   3.811   2.777  11.419 -0.3032 -0.5881 -2.3562
  932MPD2    H213691   3.775   3.094  11.149  0.4999  1.8097  0.1864
  932MPD2    H313692   3.731   2.863  11.206  0.6621 -1.3199 -0.4617
  932MPD2     N13693   3.908   2.899  11.613 -0.7509 -0.1856 -0.6629
  932MPD2    H513694   3.880   2.803  11.624 -0.5979 -0.4638 -2.7834
  932MPD2    N113695   3.898   3.275  11.315 -0.3776 -0.1335 -0.8565
  932MPD2    H713696   3.930   3.332  11.393 -1.7368  1.6778 -1.6353
  933MPD2     C13697   0.261   3.081   1.594 -0.9770 -0.1790 -1.1256
  933MPD2    C113698   0.163   3.055   1.508  0.3019 -0.0409  0.2030
  933MPD2    C213699   0.077   3.167   1.467 -0.4581  0.6982 -0.1875
  933MPD2    C313700   0.096   3.292   1.521 -0.4150 -0.4525 -0.3690
  933MPD2    C413701   0.211   3.312   1.597  1.0351  0.4419 -0.3233
  933MPD2    C513702   0.279   3.207   1.647  0.6287  0.7699  0.5023
  933MPD2     H13703   4.732   3.145   1.401 -1.5474  1.9355  0.7823
  933MPD2    H113704   0.228   3.404   1.650 -0.4068  0.5143  0.0249
  933MPD2    H213705   0.336   3.009   1.624 -2.3998  0.5100  4.0843
  933MPD2    H313706   0.362   3.223   1.715 -0.5342  0.7787  1.9005
  933MPD2     N13707   0.001   3.394   1.490 -0.3635 -0.4057 -0.3085
  933MPD2    H513708   4.658   3.362   1.438 -0.0404 -0.4053 -0.8099
  933MPD2    N113709   0.155   2.918   1.463 -0.4122 -0.3527  0.5559
  933MPD2    H713710   0.224   2.853   1.497  1.6190  1.2644 -0.5061
  934MPD2     C13711   0.449   0.070   2.096 -0.0330 -0.1007 -0.2459
  934MPD2    C113712   0.545   4.735   2.028 -0.4037  0.0250  0.4128
  934MPD2    C213713   0.518   4.704   1.899  0.2080 -0.1499 -0.9701
  934MPD2    C313714   0.409   0.017   1.832 -0.5861 -0.2179 -0.0894
  934MPD2    C413715   0.320   0.095   1.894 -0.4098  0.7211 -0.3639
  934MPD2    C513716   0.336   0.118   2.028 -0.0018  0.1259 -0.1659
  934MPD2     H13717   0.583   4.635   1.846  1.8200 -1.8138  3.1885
  934MPD2    H113718   0.230   0.127   1.842 -0.1187 -0.7881 -1.8107
  934MPD2    H213719   0.465   0.097   2.199 -0.9411 -0.6385  0.0301
  934MPD2    H313720   0.259   0.173   2.081  2.5816  2.0385  1.6211
  934MPD2     N13721   0.380   4.720   1.696  0.3036  0.0372 -0.2855
  934MPD2    H513722   0.299   0.024   1.651  0.6982  0.3352 -0.7186
  934MPD2    N113723   0.673   4.695   2.077 -0.3501  0.0101  0.2198
  934MPD2    H713724   0.737   4.659   2.007 -0.7940  0.8347 -0.6098
  935MPD2     C13725   0.899   4.143   1.116  0.4109  0.6772  0.3478
  935MPD2    C113726   0.798   4.172   1.030 -0.9485  0.7412  0.5645
  935MPD2    C213727   0.702   4.262   1.071 -0.0612 -0.3088 -0.1687
  935MPD2    C313728   0.722   4.332   1.184 -0.3448 -0.6183  1.2331
  935MPD2    C413729   0.835   4.310   1.258 -0.4534  0.0626  0.5822
  935MPD2    C513730   0.914   4.210   1.229  0.3037 -0.0701 -0.2858
  935MPD2     H13731   0.623   4.291   1.004 -0.5425  1.3661  1.1210
  935MPD2    H113732   0.857   4.372   1.345 -2.5625 -0.9120  1.8081
  935MPD2    H213733   0.973   4.064   1.104 -1.8327 -1.5015  0.8140
  935MPD2    H313734   0.998   4.189   1.295  1.5228  2.2374 -1.1097
  935MPD2     N13735   0.630   4.419   1.236  0.2767  0.1764 -0.4867
  935MPD2    H513736   0.650   4.455   1.328  1.4259 -2.3584  0.2510
  935MPD2    N113737   0.788   4.104   0.906 -0.0465  0.5354 -0.6788
  935MPD2    H713738   0.724   4.148   0.840  0.3891  0.5240 -1.1066
  936MPD2     C13739   4.549   1.794  13.147  0.0490 -0.6973  0.4423
  936MPD2    C113740   4.430   1.857  13.119 -0.2259  0.6027  0.0474
  936MPD2    C213741   4.442   1.958  13.032  0.3306  0.3670 -0.0335
  936MPD2    C313742   4.559   2.010  12.978  0.3941 -0.7993 -1.0859
  936MPD2    C413743   4.676   1.940  13.001 -0.7930  0.1538 -0.0679
  936MPD2    C513744   4.670   1.830  13.086 -0.2131 -0.1396 -0.0054
  936MPD2     H13745   4.348   2.001  12.999 -0.5572  0.7931  3.1263
  936MPD2    H113746   0.035   1.978  12.971  0.5755 -3.3053  0.0809
  936MPD2    H213747   4.559   1.705  13.209  0.4460 -0.5268  0.6164
  936MPD2    H313748   0.013   1.760  13.099  0.7934  0.6983 -1.9294
  936MPD2     N13749   4.561   2.135  12.909 -0.3151 -0.3585 -0.0862
  936MPD2    H513750   4.638   2.156  12.847  0.1715  1.9089  1.2734
  936MPD2    N113751   4.302   1.824  13.164 -0.2807  0.2421  0.0675
  936MPD2    H713752   4.219   1.872  13.131 -0.4451  0.0334  0.1775
  937MPD2     C13753   2.181   2.741  11.437 -0.7864 -0.2862  0.4923
  937MPD2    C113754   2.156   2.864  11.489  0.0457  1.0348 -0.5540
  937MPD2    C213755   2.159   2.968  11.391 -0.5040  0.3959  0.3471
  937MPD2    C313756   2.193   2.951  11.256 -0.4512  0.6776  0.5746
  937MPD2    C413757   2.215   2.821  11.218  0.1969  0.1457 -0.1552
  937MPD2    C513758   2.212   2.716  11.304 -0.1606 -1.2730 -0.3480
  937MPD2     H13759   2.147   3.065  11.437 -0.0724  1.4532 -1.7578
  937MPD2    H113760   2.230   2.795  11.114  1.1226  0.2091 -0.0413
  937MPD2    H213761   2.178   2.658  11.507  1.2862  0.1772  1.1376
  937MPD2    H313762   2.236   2.613  11.278 -1.8487 -1.1014 -2.5784
  937MPD2     N13763   2.190   3.059  11.166  0.2092 -0.1300  0.4734
  937MPD2    H513764   2.167   3.151  11.202  1.0501  0.5902 -0.8147
  937MPD2    N113765   2.099   2.884  11.614  0.4571 -0.1692  0.1641
  937MPD2    H713766   2.068   2.974  11.648 -2.0096  0.1044 -2.8011
  938MPD2     C13767   0.055   4.703   0.315 -0.7767  0.0537 -0.2921
  938MPD2    C113768   0.107   4.732   0.437 -0.1109 -0.3202 -0.3673
  938MPD2    C213769   0.042   4.680   0.550  0.1573  0.6528 -0.5513
  938MPD2    C313770   4.670   4.598   0.534  0.1236 -0.7544 -0.5532
  938MPD2    C413771   4.620   4.582   0.405  0.4987  0.0986  0.2910
  938MPD2    C513772   4.682   4.640   0.301 -0.0715  0.2450  0.0425
  938MPD2     H13773   0.082   4.710   0.646  0.3355 -0.2801 -0.3303
  938MPD2    H113774   4.527   4.528   0.393 -0.2634  0.7109  3.4665
  938MPD2    H213775   0.106   4.736   0.225 -0.1727 -0.1244 -0.0130
  938MPD2    H313776   4.656   4.615   0.199  1.8708 -1.0994 -0.1370
  938MPD2     N13777   4.607   4.525   0.637  0.3345 -0.5026 -0.3154
  938MPD2    H513778   4.537   4.457   0.608 -1.6448  1.4892 -0.2496
  938MPD2    N113779   0.220   0.071   0.456  0.1279 -0.4234 -0.6683
  938MPD2    H713780   0.238   0.097   0.553  2.0539  0.4077 -1.2504
  939MPD2     C13781   1.013   0.798   0.890 -0.2143  0.5074  0.2211
  939MPD2    C113782   0.995   0.929   0.849  0.2730  0.3347 -0.5660
  939MPD2    C213783   1.037   0.965   0.722  0.3428 -0.5752 -0.7123
  939MPD2    C313784   1.089   0.868   0.637 -0.2908  0.2540 -0.3307
  939MPD2    C413785   1.114   0.746   0.686  0.7368 -0.5384  0.2399
  939MPD2    C513786   1.071   0.710   0.812 -0.6755  0.4275  0.6694
  939MPD2     H13787   1.016   1.064   0.684  1.8686 -0.1492 -0.4499
  939MPD2    H113788   1.151   0.664   0.626  0.2624  0.2514 -1.1328
  939MPD2    H213789   0.987   0.779   0.993 -3.2707 -1.4214 -0.9171
  939MPD2    H313790   1.095   0.613   0.854 -1.1784  0.3048  0.6713
  939MPD2     N13791   1.123   0.911   0.504 -0.3892 -0.1062  0.5399
  939MPD2    H513792   1.107   1.008   0.480  0.3904 -0.2958 -0.8000
  939MPD2    N113793   0.935   1.009   0.947 -0.1789 -0.9762  0.2256
  939MPD2    H713794   0.891   0.961   1.025  0.8165 -0.7104  0.9549
  940MPD2     C13795   4.726   0.945  12.944 -0.3604  0.7507  0.2236
  940MPD2    C113796   4.594   0.952  12.976 -0.3382  0.6700 -0.2812
  940MPD2    C213797   4.501   0.922  12.883  0.0094 -0.3492  0.2917
  940MPD2    C313798   4.531   0.861  12.760 -0.3504 -0.6299  0.0511
  940MPD2    C413799   4.668   0.846  12.723  0.2805 -0.7463  0.6101
  940MPD2    C513800   0.017   0.885  12.824  0.4774  0.1998  0.1697
  940MPD2     H13801   4.396   0.934  12.904  0.0497  0.0284  0.2789
  940MPD2    H113802   4.702   0.822  12.623  1.2192  1.4075  0.4121
  940MPD2    H213803   0.064   0.986  13.009  0.6728 -0.6822 -0.0758
  940MPD2    H313804   0.119   0.877  12.788 -0.3586 -3.5213 -1.4093
  940MPD2     N13805   4.444   0.808  12.669  0.0171 -0.2512  0.3339
  940MPD2    H513806   4.486   0.764  12.588 -1.5850 -1.1694  0.0178
  940MPD2    N113807   4.544   1.001  13.104 -0.3527  0.2046 -0.3157
  940MPD2    H713808   4.443   0.998  13.113 -0.1410 -2.7463  1.3161
  941MPD2     C13809   3.725   0.956   9.811  0.8188  1.0265 -0.2725
  941MPD2    C113810   3.794   0.900   9.909  0.2841 -0.5819  0.7082
  941MPD2    C213811   3.746   0.794   9.979  0.5006 -0.1918 -0.3025
  941MPD2    C313812   3.616   0.752   9.955  0.4063  0.5245 -0.9818
  941MPD2    C413813   3.542   0.824   9.862  0.1042 -0.2338 -0.3024
  941MPD2    C513814   3.598   0.917   9.783 -0.6850  0.1622  0.2340
  941MPD2     H13815   3.805   0.750  10.059 -1.2568  0.4152  1.3384
  941MPD2    H113816   3.438   0.799   9.843  0.6709  0.6887 -4.6635
  941MPD2    H213817   3.767   1.039   9.755 -0.9335  1.1798 -1.3749
  941MPD2    H313818   3.537   0.971   9.712 -1.1029 -2.2667 -1.2633
  941MPD2     N13819   3.555   0.642  10.016 -0.2810  0.4688 -0.1972
  941MPD2    H513820   3.460   0.624   9.986 -0.5340  0.5810  0.5512
  941MPD2    N113821   3.922   0.935   9.942 -0.4166  0.4378 -0.3450
  941MPD2    H713822   3.967   0.898  10.025  1.2073 -1.7631 -2.2017
  942MPD2     C13823   3.830   2.271   9.152 -0.1186  0.4509 -0.0756
  942MPD2    C113824   3.954   2.221   9.132  0.2097  0.1504 -0.4294
  942MPD2    C213825   4.051   2.284   9.204  0.9829  0.0189  0.2012
  942MPD2    C313826   4.038   2.401   9.277  1.0028 -0.2791  0.6626
  942MPD2    C413827   3.912   2.456   9.286  0.1521  0.3629  0.5250
  942MPD2    C513828   3.809   2.389   9.222  0.9413 -0.9436  0.1258
  942MPD2     H13829   4.152   2.257   9.174  1.4268 -0.6655  2.2779
  942MPD2    H113830   3.896   2.558   9.320  3.0213  0.7821  0.6923
  942MPD2    H213831   3.742   2.218   9.118  0.0239  1.3948 -1.9041
  942MPD2    H313832   3.707   2.425   9.230  1.0341 -0.7454  0.4009
  942MPD2     N13833   4.148   2.464   9.341  0.1821  0.1008 -0.6174
  942MPD2    H513834   4.133   2.555   9.384 -0.1249 -1.4278  2.5568
  942MPD2    N113835   3.978   2.112   9.042 -0.1345  0.6851  0.0836
  942MPD2    H713836   4.067   2.063   9.054 -1.4002 -0.9079  3.1832
  943MPD2     C13837   3.239   1.071   9.871 -0.0961 -0.2323 -0.2895
  943MPD2    C113838   3.185   0.991   9.966 -0.1297  0.4516  0.0581
  943MPD2    C213839   3.258   0.964  10.083  0.2383 -0.3357 -0.4012
  943MPD2    C313840   3.392   1.000  10.092 -0.5325 -0.5181 -0.0226
  943MPD2    C413841   3.447   1.082   9.989  0.0407  0.2350  0.5601
  943MPD2    C513842   3.365   1.117   9.890 -0.8906 -0.2876 -0.0489
  943MPD2     H13843   3.213   0.904  10.161  1.1268 -0.2310  0.1852
  943MPD2    H113844   3.542   1.133   9.999 -0.0111  0.4263  0.0853
  943MPD2    H213845   3.194   1.109   9.780  1.0622  2.8291  0.4307
  943MPD2    H313846   3.404   1.180   9.812  0.8161  0.9182  1.7716
  943MPD2     N13847   3.482   0.956  10.196 -0.7239 -0.1617  0.3839
  943MPD2    H513848   3.581   0.976  10.184 -0.6576 -1.3497 -1.0846
  943MPD2    N113849   3.058   0.940   9.943  0.0211 -0.9897 -0.8070
  943MPD2    H713850   3.008   0.978   9.863  0.9222 -2.0905 -1.8940
  944MPD2     C13851   2.504   0.098  11.195  0.5378 -0.3753  0.1129
  944MPD2    C113852   2.454   0.007  11.278  0.0381  0.3395  0.0348
  944MPD2    C213853   2.382   0.061  11.389  0.8458 -0.0244  0.2211
  944MPD2    C313854   2.363   0.194  11.411  0.6113 -0.7989 -0.5911
  944MPD2    C413855   2.417   0.286  11.325 -0.3524  0.6617  0.0236
  944MPD2    C513856   2.480   0.229  11.218 -0.2045 -0.9490 -0.1136
  944MPD2     H13857   2.357   4.738  11.474  0.2670  0.0326  0.0930
  944MPD2    H113858   2.412   0.394  11.334  1.8388  0.9082 -1.7263
  944MPD2    H213859   2.570   0.077  11.112  1.7644  1.6253  0.5614
  944MPD2    H313860   2.527   0.296  11.146  0.7812 -2.0850 -0.5303
  944MPD2     N13861   2.291   0.235  11.525  0.5246 -0.2320  0.5389
  944MPD2    H513862   2.242   0.166  11.580  0.8556  0.9631  2.3087
  944MPD2    N113863   2.479   4.606  11.256  0.5316 -0.4177  0.0818
  944MPD2    H713864   2.527   4.582  11.170 -2.7975  0.2598 -1.9629
    1TMC1    C113865   0.782   0.556  14.414 -0.3930 -1.2516 -0.0928
    1TMC1    C213866   0.664   0.519  14.355 -0.1840 -0.1817 -0.0843
    1TMC1    C313867   0.648   0.383  14.333  0.4238 -0.2993 -0.0099
    1TMC1    C413868   0.890   0.467  14.434  0.0302  0.4176 -0.0629
    1TMC1    C513869   0.864   0.335  14.404 -0.6937 -0.3674  0.2814
    1TMC1    C613870   0.742   0.293  14.354  0.2725 -0.5851 -0.3287
    1TMC1     C13871   0.802   0.697  14.444  0.5068 -0.4858  0.1396
    1TMC1     O13872   0.899   0.726  14.512  0.4272  0.0267  0.1942
    1TMC1     H13873   0.580   0.586  14.364  0.6064  0.9570 -1.1827
    1TMC1    H113874   0.983   0.511  14.469  1.1073 -1.9753  0.0855
    1TMC1    H213875   0.726   0.186  14.340  2.6105 -0.8824 -0.7185
    1TMC1    C713876   0.971   0.232  14.412 -0.2888  0.5185 -0.3202
    1TMC1    C813877   0.510   0.353  14.336  0.0733 -0.0370 -0.5652
    1TMC1    O113878   0.938   0.116  14.411  0.2621  0.0046  0.4065
    1TMC1    O213879   0.434   0.431  14.282 -0.4448  0.8366  0.1651
    1TMC1    O313880   1.091   0.286  14.427  0.7932  0.0805  0.2724
    1TMC1    H313881   1.087   0.384  14.420 -0.1776  0.0664  0.6583
    1TMC1    O513882   0.498   0.312  14.465  0.5596  0.5158 -0.3651
    1TMC1    H513883   0.579   0.260  14.481 -0.4387 -0.7001  0.8154
    2MPD2     C13884   0.714   1.192  14.355  0.5373  0.2309 -0.1449
    2MPD2    C113885   0.638   1.113  14.267  0.5244 -0.4483 -0.6637
    2MPD2    C213886   0.639   0.974  14.275 -0.5200 -0.2464  0.1090
    2MPD2    C313887   0.726   0.920  14.366 -0.4643  0.1373  0.1641
    2MPD2    C413888   0.799   0.997  14.456  0.1569  0.4135 -0.2355
    2MPD2    C513889   0.795   1.134  14.447 -0.2510  0.5222  0.1263
    2MPD2     H13890   0.581   0.908  14.211 -0.7402  1.4108 -1.3940
    2MPD2    H113891   0.868   0.954  14.527 -0.8383 -1.2854 -0.2876
    2MPD2    H213892   0.709   1.301  14.355  1.9436  0.2721  2.6550
    2MPD2    H313893   0.860   1.194  14.509 -0.0324 -0.7110  1.0807
    2MPD2     N13894   0.726   0.779  14.368 -0.0807  0.3051 -0.5787
    2MPD2    H513895   0.661   0.733  14.304 -0.5900 -1.5642  1.3023
    2MPD2    N113896   0.547   1.185  14.180  0.4175 -0.0788 -0.1734
    2MPD2    H713897   0.545   1.286  14.194  1.5402  0.0541 -0.9590
    3TMC2    C113898   0.414   1.232  13.994 -0.2221  0.3372 -0.1815
    3TMC2    C213899   0.417   1.213  13.854  0.8997 -0.2670  0.7835
    3TMC2    C313900   0.354   1.309  13.784  0.3767 -0.0789 -0.0704
    3TMC2    C413901   0.324   1.317  14.051 -0.2216 -0.0764  0.4515
    3TMC2    C513902   0.262   1.408  13.970  0.2199  0.6595 -0.3521
    3TMC2    C613903   0.272   1.409  13.831 -0.0987  0.1779  0.0423
    3TMC2     C13904   0.481   1.133  14.071 -0.4411  0.0743 -0.4492
    3TMC2     O13905   0.480   1.021  14.019 -0.3817 -0.8492 -0.4664
    3TMC2     H13906   0.469   1.130  13.807  2.4586  1.6677 -0.9238
    3TMC2    H113907   0.308   1.312  14.158  1.7614  1.5230  0.8329
    3TMC2    H213908   0.221   1.474  13.763 -0.4776 -2.1388 -1.8871
    3TMC2    C713909   0.180   1.509  14.032 -0.3459 -0.2421 -0.6588
    3TMC2    C813910   0.357   1.307  13.632 -0.2195  0.2479 -0.2101
    3TMC2    O113911   0.149   1.500  14.150 -0.7286 -0.0011  0.6496
    3TMC2    O213912   0.366   1.415  13.579  0.2546 -0.3097  0.2125
    3TMC2    O513913   0.402   1.187  13.589  0.0826 -0.6298 -0.3465
    3TMC2    H513914   0.375   1.117  13.653  1.2699 -0.1070  0.7391
    4TMC2    C113915   4.483   2.136  13.393  0.6057 -0.1152 -0.6461
    4TMC2    C213916   4.554   2.206  13.300 -0.3798  0.4642 -0.2344
    4TMC2    C313917   4.691   2.176  13.300  0.5380  0.1370 -0.2947
    4TMC2    C413918   4.534   2.062  13.494 -0.0080  0.5316 -1.5804
    4TMC2    C513919   4.667   2.045  13.496  0.1105 -0.6285  0.0578
    4TMC2    C613920   0.012   2.101  13.400 -0.4738 -0.3560 -0.7963
    4TMC2     C13921   4.340   2.139  13.383  0.1499  0.4009  0.0966
    4TMC2     O13922   4.280   2.049  13.441 -0.3061 -0.4505  0.0363
    4TMC2     H13923   4.505   2.238  13.208 -0.9246  1.8771  0.5499
    4TMC2    H113924   4.473   2.017  13.571  0.3125 -0.4129 -1.8793
    4TMC2    H213925   0.120   2.096  13.408 -0.5132 -0.2156 -0.1000
    4TMC2    C713926   4.733   1.967  13.599  0.4395 -0.0515 -0.3062
    4TMC2    C813927   0.031   2.233  13.191  0.4001 -0.4089 -0.2478
    4TMC2    O113928   0.106   1.914  13.567 -0.3010 -0.3723  0.0158
    4TMC2    O213929   4.721   2.324  13.123 -0.5037 -0.5971 -0.0212
    4TMC2    O513930   0.115   2.139  13.138 -0.3110 -0.1414 -0.1316
    4TMC2    H513931   0.150   2.069  13.196 -0.3529  1.3352  1.6674
    5MPD2     C13932   3.903   2.358  13.223 -0.1349  0.0606  1.2938
    5MPD2    C113933   4.010   2.428  13.163  0.1635 -0.0449  0.0428
    5MPD2    C213934   4.136   2.377  13.191  0.2228 -0.4089 -0.8618
    5MPD2    C313935   4.155   2.286  13.294 -0.1818 -0.1345 -0.3729
    5MPD2    C413936   4.046   2.236  13.360 -0.2314 -0.0814  0.6804
    5MPD2    C513937   3.924   2.258  13.307  0.2467  0.7282  0.6423
    5MPD2     H13938   4.222   2.423  13.144  0.2366  2.9439  2.4142
    5MPD2    H113939   4.058   2.163  13.440  1.9983 -0.9914 -0.4942
    5MPD2    H213940   3.803   2.378  13.187 -0.0062 -1.5264  0.0900
    5MPD2    H313941   3.835   2.212  13.348 -0.7296 -1.1729 -3.5429
    5MPD2     N13942   4.290   2.255  13.329 -0.4643  0.0827 -0.0041
    5MPD2    H513943   4.363   2.317  13.296  0.4361 -1.2371 -0.5007
    5MPD2    N113944   3.977   2.534  13.073 -0.1571 -0.1694 -0.0003
    5MPD2    H713945   3.876   2.542  13.064 -0.3948  0.0875  2.9160
    6MPD1     C13946   3.059   4.085  12.406 -0.1971  0.5820  0.1239
    6MPD1    C113947   3.001   4.043  12.522  0.3705 -0.0425  0.4415
    6MPD1    C213948   3.065   3.949  12.597  0.4597 -0.8698  0.1453
    6MPD1    C313949   3.187   3.896  12.554  0.1803  0.0262  0.6484
    6MPD1    C413950   3.253   3.944  12.441  0.0007 -0.5803  0.5590
    6MPD1    C513951   3.181   4.045  12.369 -0.3940  0.1302 -0.4814
    6MPD1     H13952   3.014   3.919  12.687  0.1233  0.6576  0.4618
    6MPD1    H113953   3.348   3.904  12.408 -0.5239 -0.2459 -1.3868
    6MPD1    H213954   3.014   4.166  12.349  0.6774 -0.4584 -2.0515
    6MPD1    H313955   3.236   4.086  12.286 -0.1570 -0.7740 -0.7776
    6MPD1     N13956   3.246   3.796  12.633  0.1469  0.3614  0.1170
    6MPD1    H513957   3.328   3.755  12.589  0.1184  1.8837 -1.3693
    6MPD1    N113958   2.868   4.091  12.550 -0.3932  0.8072 -0.6957
    6MPD1    H613959   2.850   4.188  12.525 -0.0357  0.9661 -0.3478
    6MPD1    H713960   2.828   4.075  12.642  1.0836 -4.0565 -0.8939
    7MPD2     C13961   3.324   3.072  13.148 -0.2037  0.0954 -0.3440
    7MPD2    C113962   3.378   3.105  13.027 -0.2538  1.0120  0.2100
    7MPD2    C213963   3.466   3.018  12.974  0.4147 -0.2255  0.6723
    7MPD2    C313964   3.484   2.892  13.022  0.5003 -0.6198  0.8198
    7MPD2    C413965   3.422   2.853  13.134  0.2869 -0.0672 -0.2070
    7MPD2    C513966   3.350   2.946  13.194 -0.4200 -0.3281  0.1693
    7MPD2     H13967   3.517   3.046  12.882 -0.2540 -3.1694 -0.5941
    7MPD2    H113968   3.439   2.755  13.178  0.6182  0.5817  1.1029
    7MPD2    H213969   3.254   3.124  13.212  1.2470  0.2965  1.0820
    7MPD2    H313970   3.306   2.909  13.287 -1.8098  1.6506  0.2917
    7MPD2     N13971   3.581   2.801  12.963  0.0759  0.1315 -0.8267
    7MPD2    H513972   3.603   2.714  13.011 -1.4168  0.5039  0.5248
    7MPD2    N113973   3.373   3.232  12.968 -0.7968 -0.3246  0.2330
    7MPD2    H713974   3.426   3.238  12.882 -0.5206 -3.1268  0.2173
    8TMC3    C113975   3.765   2.734  12.818 -0.7946 -0.2007 -0.1668
    8TMC3    C213976   3.845   2.685  12.922  0.5101 -0.4806  0.6537
    8TMC3    C313977   3.980   2.698  12.914  0.2747 -0.6276 -0.4949
    8TMC3    C413978   3.825   2.774  12.701  0.5325 -0.1584 -0.4059
    8TMC3    C513979   3.964   2.786  12.690  0.3032 -0.1322  0.0515
    8TMC3    C613980   4.042   2.750  12.798 -0.7582  0.5193  0.5008
    8TMC3     C13981   3.650   2.824  12.846 -0.2537  0.5022  0.4577
    8TMC3     O13982   3.620   2.901  12.758  0.3291 -0.1170 -0.4411
    8TMC3     H13983   3.815   2.683  13.026  0.1480  0.1868  0.5615
    8TMC3    H113984   3.756   2.794  12.620 -1.2829 -1.4372  0.8214
    8TMC3    H213985   4.150   2.753  12.790 -0.8204  0.9557 -0.2345
    8TMC3    C713986   4.007   2.911  12.632  0.5932 -0.5003 -0.6517
    8TMC3    C813987   4.060   2.615  12.998 -0.2131 -0.2058  0.5537
    8TMC3    O113988   4.126   2.944  12.620 -0.2334  0.0738 -0.4759
    8TMC3    O213989   4.181   2.607  12.975  0.0566 -0.3232 -0.7081
    9TMC3    C113990   3.303   3.655  12.806 -0.2108  0.3795  0.3469
    9TMC3    C213991   3.433   3.663  12.758  0.0944  0.0857  0.0802
    9TMC3    C313992   3.515   3.561  12.802  0.0794 -0.0713  0.3410
    9TMC3    C413993   3.253   3.560  12.890 -0.3014 -1.1661  0.0259
    9TMC3    C513994   3.341   3.462  12.926  0.2966  0.5322 -0.6867
    9TMC3    C613995   3.471   3.464  12.889 -0.1007 -0.1652 -0.0877
    9TMC3     C13996   3.205   3.742  12.752  0.3009  0.1906 -0.2902
    9TMC3     O13997   3.112   3.779  12.820 -0.2154  0.4091  0.1710
    9TMC3     H13998   3.467   3.744  12.694  2.1907 -0.3506  0.6602
    9TMC3    H113999   3.151   3.544  12.920 -0.7573 -0.4139 -1.1002
    9TMC3    H214000   3.542   3.387  12.915 -0.5094  0.0521  1.6768
    9TMC3    C714001   3.295   3.345  12.999 -0.1145  0.6526  0.1382
    9TMC3    C814002   3.631   3.534  12.712 -1.1706 -0.3746  0.1428
    9TMC3    O114003   3.191   3.356  13.063 -0.0882 -0.0521  0.2795
    9TMC3    O214004   3.694   3.627  12.661  0.4737 -0.1022 -0.0285
   10MPD2     C14005   4.014   3.221  12.602  0.0150 -0.0159 -0.3037
   10MPD2    C114006   3.903   3.142  12.627  0.0713 -0.0934  0.1443
   10MPD2    C214007   3.780   3.205  12.643 -0.2973  0.8816 -0.0677
   10MPD2    C314008   3.772   3.342  12.655 -0.9528  0.4365 -0.3411
   10MPD2    C414009   3.888   3.417  12.646 -0.2104  0.0577  1.1316
   10MPD2    C514010   4.013   3.358  12.614 -0.9637 -0.7267 -1.2397
   10MPD2     H14011   3.691   3.147  12.667 -0.5485  1.6433  0.8653
   10MPD2    H114012   3.904   3.524  12.651  0.3240  0.0444 -0.1889
   10MPD2    H214013   4.109   3.173  12.582  0.7051  0.6701  1.3242
   10MPD2    H314014   4.108   3.408  12.606 -1.1057 -0.4515 -1.2057
   10MPD2     N14015   3.648   3.397  12.693  0.0161 -0.7541  0.3349
   10MPD2    H514016   3.573   3.334  12.719  0.2312 -1.0492  0.2379
   10MPD2    N114017   3.900   2.998  12.636 -0.1679 -0.1261 -0.2639
   10MPD2    H714018   3.811   2.950  12.648  0.3774 -0.8106  1.0348
   11MPD2     C14019   4.706   1.706  14.042  0.1221 -0.3702  0.6735
   11MPD2    C114020   0.062   1.707  13.945 -0.4717 -0.1976 -0.2525
   11MPD2    C214021   0.052   1.795  13.838  0.0160  0.0739  0.3342
   11MPD2    C314022   4.682   1.877  13.824  0.3054  0.0517  0.1883
   11MPD2    C414023   4.588   1.878  13.926  0.0846 -0.1276  0.0065
   11MPD2    C514024   4.605   1.791  14.036  0.0117 -0.1934 -0.0944
   11MPD2     H14025   0.129   1.787  13.762 -0.7204  2.2141 -0.6374
   11MPD2    H114026   4.495   1.934  13.919  1.9118  3.0756  1.5494
   11MPD2    H214027   4.707   1.634  14.122  2.1626 -0.1770  0.8278
   11MPD2    H314028   4.532   1.795  14.117  1.3422  0.3871  1.0682
   11MPD2     N14029   4.656   1.948  13.713 -0.3478  0.5146  0.4336
   11MPD2    H514030   4.566   1.994  13.720 -0.8992 -0.6152  0.5800
   11MPD2    N114031   0.165   1.613  13.941  0.2807  0.2032  0.1273
   11MPD2    H714032   0.238   1.615  13.870 -1.2123  0.4980 -1.4116
    1MPD1     C14033   3.259   3.111   0.232  1.1548 -0.7581  0.2945
    1MPD1    C114034   3.357   3.083   0.139  0.0024 -0.1728  0.3367
    1MPD1    C214035   3.324   3.098  17.751 -0.4846  0.4653  0.0986
    1MPD1    C314036   3.196   3.134  17.706  0.1589 -0.7063  0.1542
    1MPD1    C414037   3.107   3.169   0.052 -0.1994 -0.0918 -0.0020
    1MPD1    C514038   3.137   3.150   0.190 -0.2717  0.4353  0.0248
    1MPD1     H14039   3.403   3.073  17.682  0.3349  2.4317  0.3232
    1MPD1    H114040   3.007   3.204   0.027 -1.2750 -0.8354  3.3273
    1MPD1    H214041   3.280   3.102   0.338  0.2330  2.5121  0.7689
    1MPD1    H314042   3.064   3.172   0.266 -1.3169 -2.4287 -0.1806
    1MPD1     N14043   3.144   3.136  17.574 -0.8351  0.0151  0.8173
    1MPD1    H514044   3.054   3.180  17.561  0.3382  2.0628 -0.2550
    1MPD1    N114045   3.482   3.033   0.179 -0.4513  0.0216  0.2771
    1MPD1    H614046   3.555   3.043   0.109 -0.7213  3.1376  0.4494
    1MPD1    H714047   3.526   3.070   0.263  2.3113  2.6353 -2.3544
    2MPD1     C14048   3.712   3.157  16.718 -0.1775 -0.1825 -0.3082
    2MPD1    C114049   3.713   3.065  16.822 -0.4765 -0.1288 -0.0483
    2MPD1    C214050   3.612   3.067  16.916  0.2468  0.2872  0.0252
    2MPD1    C314051   3.514   3.160  16.912 -0.5747  0.4022  0.1476
    2MPD1    C414052   3.509   3.253  16.806  0.2225  0.4210 -0.2983
    2MPD1    C514053   3.609   3.253  16.714 -0.6514  0.3768 -0.5094
    2MPD1     H14054   3.605   2.998  17.000  0.2532 -1.6508 -1.5488
    2MPD1    H114055   3.438   3.336  16.804  0.0527  0.2235 -2.5953
    2MPD1    H214056   3.784   3.152  16.637  0.1390  0.8503 -0.0868
    2MPD1    H314057   3.604   3.331  16.639 -1.6763  1.5224  0.7492
    2MPD1     N14058   3.413   3.150  17.010  0.6961  0.5589  0.0008
    2MPD1    H514059   3.414   3.068  17.069  0.5639 -0.2760 -1.1543
    2MPD1    N114060   3.804   2.960  16.827  0.0862 -0.3344  0.4312
    2MPD1    H614061   3.893   2.992  16.789  0.2020  1.0419  1.8667
    2MPD1    H714062   3.817   2.931  16.924 -0.3600  0.7153  0.7967
    3TMC3    C114063   3.207   3.156  17.109 -0.1140  0.6212  0.3460
    3TMC3    C214064   3.077   3.199  17.087 -0.4439  0.1083 -0.8860
    3TMC3    C314065   2.990   3.195  17.191  0.2288  0.5282  0.2784
    3TMC3    C414066   3.250   3.120  17.236  0.3685 -0.6028  0.0479
    3TMC3    C514067   3.156   3.128  17.343  0.3031  0.1913 -0.4190
    3TMC3    C614068   3.027   3.157  17.315 -0.8932 -0.3379 -0.0372
    3TMC3     C14069   3.299   3.223  17.021  0.7010 -0.3664 -0.1625
    3TMC3     O14070   3.250   3.305  16.944  0.2120  0.2286  0.1799
    3TMC3     H14071   3.037   3.204  16.986  0.0369 -1.7866 -1.1590
    3TMC3    H114072   3.355   3.098  17.252  0.0234 -1.6419  0.9250
    3TMC3    H214073   2.962   3.173  17.400 -1.0474 -0.8190 -0.0673
    3TMC3    C714074   3.206   3.081  17.464  0.0483  0.7570  0.3093
    3TMC3    C814075   2.849   3.230  17.180  0.1671  0.3781 -0.1720
    3TMC3    O114076   3.303   3.006  17.456 -0.1942  0.6218  0.0724
    3TMC3    O214077   2.766   3.211  17.270 -0.0067 -0.6192 -0.0889
    4MPD1     C14078   2.500   3.516  16.924 -0.1941  0.5571 -0.3486
    4MPD1    C114079   2.623   3.521  16.854  0.3050  0.7180  0.1364
    4MPD1    C214080   2.721   3.431  16.899 -0.3422 -0.7561 -0.1854
    4MPD1    C314081   2.711   3.363  17.016 -0.1913 -0.3910 -0.0770
    4MPD1    C414082   2.591   3.365  17.085 -0.6104  0.0428 -0.5560
    4MPD1    C514083   2.484   3.441  17.041 -0.9370  0.0563  0.3894
    4MPD1     H14084   2.818   3.435  16.850 -0.4802 -0.7868 -0.4566
    4MPD1    H114085   2.571   3.304  17.173 -0.1753 -0.2688 -0.6698
    4MPD1    H214086   2.410   3.569  16.894 -0.1064  1.0554  0.2687
    4MPD1    H314087   2.391   3.440  17.096 -0.8718  0.9454  0.5133
    4MPD1     N14088   2.828   3.297  17.056  0.3782 -0.3172  0.3906
    4MPD1    H514089   2.913   3.323  17.008 -0.4743  1.8870  0.0562
    4MPD1    N114090   2.641   3.586  16.731  0.0635  0.6586 -0.2660
    4MPD1    H614091   2.740   3.611  16.728  0.1798  0.3756  1.4397
    4MPD1    H714092   2.590   3.674  16.731  1.1714  1.3132 -0.7802
    1TCq1    O114093   1.084   1.359  12.741 -0.4101 -0.0349 -0.1060
    1TCq1    C114094   1.066   1.493  12.751 -0.4445  0.2905 -0.2147
    1TCq1    O214095   0.962   1.555  12.761 -0.4296  0.0382 -0.5563
    1TCq1    C214096   1.187   1.527  12.823  0.1159 -0.4873 -0.2052
    1TCq1    C314097   1.306   1.465  12.793  0.0795  0.6622  0.6369
    1TCq1    C414098   1.414   1.509  12.862  0.2745  0.5070  0.8399
    1TCq1    C514099   1.400   1.610  12.952 -0.0582  0.3152  0.3063
    1TCq1    C614100   1.277   1.661  12.983 -0.1716  0.4115  0.8811
    1TCq1    C714101   1.166   1.629  12.910  0.4794  0.6825  0.3947
    1TCq1    C814102   1.281   1.786  13.059  0.5556 -0.1005  0.1698
    1TCq1    O414103   1.384   1.818  13.115 -0.2867 -0.4738  0.2755
    1TCq1    C914104   1.556   1.472  12.829 -0.0836  0.3208  0.4992
    1TCq1    O514105   1.575   1.390  12.734  0.0359  0.2762 -0.1413
    1TCq1    O614106   1.642   1.512  12.912  0.4125 -0.2490  0.0068
    1TCq1    H114107   1.173   1.318  12.732 -1.1881 -1.8281  0.4146
    1TCq1    H214108   1.332   1.411  12.703 -0.2598  0.0940  0.8814
    1TCq1    H314109   1.493   1.653  12.989 -0.1930  2.0797 -1.4384
    1TCq1    H414110   1.070   1.669  12.939  1.5771  1.5894  2.8148
    2MPD1     C14111   1.084   2.249  13.192  0.1479 -0.2059 -0.1936
    2MPD1    C114112   0.984   2.159  13.167 -0.0119 -0.2461  0.7130
    2MPD1    C214113   1.014   2.037  13.116 -0.1273  0.1273 -0.2517
    2MPD1    C314114   1.144   1.987  13.096  0.5321 -0.6100  0.1461
    2MPD1    C414115   1.245   2.079  13.126 -0.0649 -0.7222  0.6540
    2MPD1    C514116   1.211   2.203  13.173  0.2283 -0.4180  0.9483
    2MPD1     H14117   0.930   1.976  13.085 -1.8467  1.5840  1.6145
    2MPD1    H114118   1.351   2.053  13.121  0.1781  0.0250  1.8123
    2MPD1    H214119   1.070   2.350  13.229 -0.6163  0.1416 -1.4386
    2MPD1    H314120   1.291   2.271  13.202 -1.4216  1.1407  1.8271
    2MPD1     N14121   1.161   1.856  13.051 -0.0247  0.5803 -0.0323
    2MPD1    H514122   1.084   1.809  13.003 -0.7660  1.3286  0.4338
    2MPD1    N114123   0.854   2.197  13.173  0.0639  0.3921  0.7479
    2MPD1    H614124   0.830   2.261  13.249 -0.4390  0.9161  0.1522
    2MPD1    H714125   0.797   2.113  13.181  0.2984  0.2364  0.7677
    1TMC1    C114126   1.881   1.663   0.782  0.0253  0.0245 -0.3838
    1TMC1    C214127   1.780   1.726   0.844  0.1849  0.5077 -0.1730
    1TMC1    C314128   1.805   1.750   0.977  0.4499  0.8488 -0.2680
    1TMC1    C414129   2.000   1.632   0.843  0.0021  0.2075 -0.8771
    1TMC1    C514130   2.026   1.667   0.971  0.8668  0.3808  0.2525
    1TMC1    C614131   1.925   1.726   1.044 -0.1082 -0.2003  0.1728
    1TMC1     C14132   1.879   1.644   0.641  0.8949  0.1572 -0.0430
    1TMC1     O14133   1.905   1.534   0.595  0.3610  0.8905  0.0803
    1TMC1     H14134   1.682   1.732   0.799  0.0582 -0.9999 -0.0938
    1TMC1    H114135   2.083   1.613   0.777  0.5319  0.4542 -0.2792
    1TMC1    H214136   1.944   1.778   1.137 -2.2507 -0.7209  0.8985
    1TMC1    C714137   2.156   1.636   1.030 -0.4034  0.6645 -0.2607
    1TMC1    C814138   1.701   1.806   1.056 -0.1293 -0.2327  0.0089
    1TMC1    O114139   2.172   1.670   1.147  0.1601 -0.4466 -0.1615
    1TMC1    O214140   1.694   1.789   1.178  0.3476 -0.0719 -0.3538
    1TMC1    O314141   2.179   1.506   0.993 -0.1977  0.2390  0.1715
    1TMC1    H314142   2.125   1.482   0.915 -0.0162  1.7006 -0.4018
    1TMC1    O514143   1.669   1.919   0.989  0.5092 -0.2465 -0.4804
    1TMC1    H514144   1.675   1.909   0.891 -1.3273 -2.1314 -0.4071
    2MPD1     C14145   1.776   1.823   0.172  0.2511  0.3467  0.0992
    2MPD1    C114146   1.739   1.915   0.258 -0.4087  0.6015 -0.4906
    2MPD1    C214147   1.753   1.883   0.394  0.6623 -0.3986  0.4210
    2MPD1    C314148   1.811   1.761   0.436 -0.3308 -0.5627 -0.1568
    2MPD1    C414149   1.856   1.676   0.339  0.5138 -0.7046  0.4199
    2MPD1    C514150   1.834   1.704   0.206  0.8166  0.7953 -0.1772
    2MPD1     H14151   1.715   1.946   0.474 -0.2823  0.8396 -0.9931
    2MPD1    H114152   1.912   1.586   0.364  0.2820 -0.6826  1.0048
    2MPD1    H214153   1.770   1.845   0.066 -0.8362 -3.7814 -0.6872
    2MPD1    H314154   1.874   1.638   0.130  0.5282 -0.4498  0.7451
    2MPD1     N14155   1.826   1.751   0.576  0.9323  0.0942  0.0777
    2MPD1    H514156   1.793   1.820   0.643  1.7826  0.6779 -0.1120
    2MPD1    N114157   1.704   2.041   0.206  0.3455 -0.2605 -0.0467
    2MPD1    H614158   1.661   2.025   0.115 -1.5823 -1.2990  1.0399
    2MPD1    H714159   1.640   2.100   0.260 -0.3441  1.2600 -2.5516
    1MPD1     C14160   0.748   3.269  11.308 -0.1604  0.0712  0.2296
    1MPD1    C114161   0.821   3.280  11.422  0.1588 -0.1982 -0.2660
    1MPD1    C214162   0.875   3.165  11.475 -0.1293  0.0769  0.2935
    1MPD1    C314163   0.840   3.040  11.430  0.8494  0.6473 -0.5254
    1MPD1    C414164   0.743   3.030  11.333  0.2015  0.3642 -0.3422
    1MPD1    C514165   0.707   3.146  11.268  0.3439  0.6602  0.5715
    1MPD1     H14166   0.938   3.176  11.563  0.4440 -2.1103  0.1483
    1MPD1    H114167   0.711   2.938  11.285 -1.5581  1.1003 -0.5563
    1MPD1    H214168   0.703   3.347  11.247  1.0825  0.2625 -0.4512
    1MPD1    H314169   0.641   3.124  11.185 -0.4925  0.9414  1.1589
    1MPD1     N14170   0.911   2.927  11.481  0.1562 -0.2016 -0.6118
    1MPD1    H514171   0.970   2.953  11.559 -1.7388  1.4304  0.2858
    1MPD1    N114172   0.869   3.404  11.461  0.4854 -0.0694  0.8204
    1MPD1    H614173   0.868   3.415  11.562 -0.4604  1.3783  0.6411
    1MPD1    H714174   0.805   3.475  11.427  1.0861  0.3958  0.6728
    2MPD1     C14175   1.731   3.970  11.593  0.1056 -0.4805  0.5070
    2MPD1    C114176   1.724   3.932  11.460  0.1305  0.5859 -0.2033
    2MPD1    C214177   1.609   3.868  11.420 -0.9686 -0.0424  0.1834
    2MPD1    C314178   1.508   3.823  11.509 -0.6809  0.0450 -0.8033
    2MPD1    C414179   1.522   3.865  11.643 -0.0156  0.5073 -0.0236
    2MPD1    C514180   1.636   3.934  11.684  0.1816  0.8723  0.1696
    2MPD1     H14181   1.597   3.836  11.318  0.4175  2.3034 -0.7090
    2MPD1    H114182   1.443   3.847  11.716  1.3011  0.2254  1.3374
    2MPD1    H214183   1.816   4.019  11.638 -1.4275 -0.2256  3.1426
    2MPD1    H314184   1.647   3.956  11.789 -0.3436  1.4282  0.1092
    2MPD1     N14185   1.387   3.747  11.473  0.2935  0.3464 -0.3437
    2MPD1    H514186   1.341   3.705  11.553  2.4861 -2.5180 -0.5968
    2MPD1    N114187   1.841   3.914  11.385 -0.2667 -0.1284 -0.1136
    2MPD1    H614188   1.903   3.994  11.390 -0.0853 -0.3633  1.2971
    2MPD1    H714189   1.826   3.910  11.284 -2.0186 -0.9004  0.1863
    3MPD1     C14190   0.675   3.818  10.762 -0.7249  0.0176  0.6589
    3MPD1    C114191   0.693   3.890  10.883  0.0802  0.7594 -0.4924
    3MPD1    C214192   0.777   3.834  10.976 -0.7084  0.0326 -0.2895
    3MPD1    C314193   0.840   3.714  10.953  0.2476 -0.3138  0.8011
    3MPD1    C414194   0.818   3.648  10.830  0.4383  0.0153  1.2636
    3MPD1    C514195   0.730   3.693  10.739  0.4049 -0.9235  1.1975
    3MPD1     H14196   0.804   3.894  11.063  2.0682 -0.2498 -0.9429
    3MPD1    H114197   0.848   3.545  10.816 -0.3427 -0.0577  0.1726
    3MPD1    H214198   0.603   3.858  10.692 -0.1088  0.7630  0.4476
    3MPD1    H314199   0.692   3.631  10.658  0.8273  3.4435 -2.3123
    3MPD1     N14200   0.936   3.679  11.050  0.2712  0.2022 -0.7973
    3MPD1    H514201   0.954   3.747  11.123  1.4988  1.9934 -2.7725
    3MPD1    N114202   0.634   4.012  10.897 -0.5323  0.1944 -0.1711
    3MPD1    H614203   0.572   4.029  10.977 -0.8788  0.7797 -0.5590
    3MPD1    H714204   0.569   4.034  10.821  0.9236 -1.0887 -1.7768
    4MPD2     C14205   1.403   2.908  11.850  0.5041 -0.1303  0.0334
    4MPD2    C114206   1.395   2.817  11.748 -0.6589  0.6334 -0.2773
    4MPD2    C214207   1.490   2.817  11.654  0.6257  0.6120 -0.5721
    4MPD2    C314208   1.604   2.897  11.657  0.0682  0.4519 -0.2389
    4MPD2    C414209   1.608   2.998  11.748 -0.1071 -0.5573 -0.0257
    4MPD2    C514210   1.515   2.996  11.845 -0.7168  0.0680  1.3529
    4MPD2     H14211   1.489   2.752  11.567  0.3347  0.4295 -0.4360
    4MPD2    H114212   1.691   3.067  11.754 -2.5653  2.2009  2.1298
    4MPD2    H214213   1.324   2.921  11.923 -1.6262 -3.4749 -1.6884
    4MPD2    H314214   1.517   3.071  11.924 -1.7890  1.9061 -0.3596
    4MPD2     N14215   1.697   2.878  11.556  0.1709 -0.1528  0.1143
    4MPD2    H514216   1.674   2.812  11.482 -3.1976 -0.5624  1.5448
    4MPD2    N114217   1.287   2.725  11.730  0.2235  0.4633 -0.4102
    4MPD2    H714218   1.289   2.656  11.655 -0.2697 -0.6326  0.5884
    5TMC3    C114219   1.079   2.645  11.705  0.5682  0.4514 -0.0610
    5TMC3    C214220   0.981   2.717  11.644  0.8748  0.8708 -0.0748
    5TMC3    C314221   0.960   2.694  11.510 -0.2673  0.2409  0.4731
    5TMC3    C414222   1.136   2.538  11.639  0.4075  0.6636 -0.0046
    5TMC3    C514223   1.109   2.515  11.507 -0.0457  0.3733  0.1208
    5TMC3    C614224   1.018   2.597  11.442  0.0870 -0.0345  0.3220
    5TMC3     C14225   1.166   2.721  11.794 -0.1031 -0.2759  0.2218
    5TMC3     O14226   1.117   2.791  11.880  0.3182 -0.1119  0.0349
    5TMC3     H14227   0.933   2.798  11.697  0.5687 -1.6018  3.3882
    5TMC3    H114228   1.204   2.472  11.691  0.1663 -0.1400 -0.7291
    5TMC3    H214229   1.003   2.596  11.335 -1.5344  0.5172  0.5410
    5TMC3    C714230   1.238   2.506  11.441 -0.4316  0.2783  0.2463
    5TMC3    C814231   0.902   2.797  11.435  0.2609  0.3117  0.0786
    5TMC3    O114232   1.332   2.560  11.499 -0.7980 -0.3887  0.4434
    5TMC3    O214233   0.854   2.764  11.327 -0.1240 -0.2252 -0.5391
    6TMC3    C114234   1.232   3.646  11.327  0.3867  0.1723  0.2749
    6TMC3    C214235   1.152   3.656  11.219 -0.3824 -0.1002 -0.1033
    6TMC3    C314236   1.089   3.542  11.165  0.4345 -0.1185 -0.9635
    6TMC3    C414237   1.264   3.517  11.374  0.2589  0.3479 -0.2300
    6TMC3    C514238   1.196   3.408  11.329  0.1698 -0.3779 -0.0029
    6TMC3    C614239   1.100   3.417  11.222  0.4279  0.6637  0.1758
    6TMC3     C14240   1.337   3.744  11.349 -0.6009 -0.1973 -0.1409
    6TMC3     O14241   1.368   3.809  11.251 -0.4291  0.6555  0.3346
    6TMC3     H14242   1.139   3.752  11.172  3.2901  0.4218 -0.0391
    6TMC3    H114243   1.343   3.509  11.448 -0.6498 -2.3923  0.4523
    6TMC3    H214244   1.037   3.336  11.187  1.3096 -0.3133  0.8242
    6TMC3    C714245   1.251   3.278  11.343  0.4738 -0.3816 -0.0256
    6TMC3    C814246   1.001   3.558  11.052 -0.7374  0.0728  0.1225
    6TMC3    O114247   1.364   3.273  11.394 -0.3563  0.1428 -0.6111
    6TMC3    O214248   0.963   3.458  10.994 -0.0574  0.3478  0.1651
    7MPD2     C14249   1.515   2.478  11.007 -0.0756  0.3844  0.1483
    7MPD2    C114250   1.548   2.537  11.130  0.4469  0.3827  0.0775
    7MPD2    C214251   1.451   2.535  11.228  0.2003  0.5365  0.3212
    7MPD2    C314252   1.327   2.476  11.208 -0.0632 -0.1837 -0.9340
    7MPD2    C414253   1.297   2.415  11.083  0.0410 -0.1791  0.4971
    7MPD2    C514254   1.392   2.417  10.984  0.3437  0.1414 -0.2798
    7MPD2     H14255   1.478   2.582  11.322  1.5014  2.5395 -1.0730
    7MPD2    H114256   1.211   2.351  11.066  1.0435 -1.2636 -0.4782
    7MPD2    H214257   1.596   2.468  10.935  1.0986 -2.8014  1.8824
    7MPD2    H314258   1.374   2.376  10.885 -0.2911 -2.1554  0.7918
    7MPD2     N14259   1.226   2.467  11.312 -0.2900  0.2276 -0.3985
    7MPD2    H514260   1.143   2.411  11.295 -1.4775  2.2126 -1.0747
    7MPD2    N114261   1.673   2.600  11.148 -0.0441  0.3046 -0.1486
    7MPD2    H714262   1.728   2.597  11.063  1.0868  1.8739  0.5373
    8TMC3    C114263   1.829   2.748  11.237 -0.0253  0.1784 -0.1741
    8TMC3    C214264   1.788   2.832  11.145 -0.1024  0.2690 -0.4221
    8TMC3    C314265   1.777   2.966  11.166  0.5645 -0.4301 -0.4929
    8TMC3    C414266   1.871   2.794  11.356  0.2591 -0.2115  0.1733
    8TMC3    C514267   1.856   2.927  11.383  0.4220  0.4803 -0.3676
    8TMC3    C614268   1.812   3.011  11.289 -0.4347  0.7246 -0.4177
    8TMC3     C14269   1.722   2.656  11.260  0.4848 -0.4029  0.2043
    8TMC3     O14270   1.682   2.666  11.371  0.2097  0.1339 -0.6578
    8TMC3     H14271   1.749   2.793  11.051 -0.4629  3.1301 -1.4513
    8TMC3    H114272   1.899   2.723  11.434  0.0382 -0.5590 -0.0667
    8TMC3    H214273   1.807   3.118  11.310  1.7718  0.2204  2.7115
    8TMC3    C714274   1.798   2.963  11.516  0.1729 -0.4871 -0.6007
    8TMC3    C814275   1.651   3.025  11.128 -0.1938  0.2520  0.1625
    8TMC3    O114276   1.831   3.066  11.576 -0.2420 -0.0388  0.1621
    8TMC3    O214277   1.640   3.146  11.120 -0.6127  0.1324  0.2696
    9MPD2     C14278   1.341   2.828  11.143 -1.3725 -0.7660  0.1237
    9MPD2    C114279   1.418   2.940  11.153  0.3497  0.2065  0.1059
    9MPD2    C214280   1.369   3.049  11.215  0.0197 -0.0103  0.6409
    9MPD2    C314281   1.227   3.059  11.241 -0.0053  0.3100  0.3084
    9MPD2    C414282   1.149   2.943  11.227  0.4684 -0.7214 -0.0360
    9MPD2    C514283   1.211   2.825  11.174 -0.0092 -0.0276  0.1451
    9MPD2     H14284   1.440   3.131  11.223 -0.3894  0.3648  0.4470
    9MPD2    H114285   1.041   2.945  11.237  0.4516  3.9629 -0.8866
    9MPD2    H214286   1.383   2.740  11.095  1.4648  0.0041  1.2237
    9MPD2    H314287   1.149   2.744  11.136 -0.6486  1.0898 -1.2133
    9MPD2     N14288   1.169   3.178  11.296 -0.4642 -0.3381  0.2231
    9MPD2    H514289   1.070   3.201  11.287  0.2359  2.5681 -0.1565
    9MPD2    N114290   1.556   2.926  11.117  0.5162  0.0245 -0.3773
    9MPD2    H714291   1.588   2.831  11.101  1.6550  0.1245  1.4123
    1MPD1     C14292   0.687   2.173  16.132 -0.7293 -0.0528  0.0956
    1MPD1    C114293   0.765   2.063  16.100  0.3684  0.1324 -0.2647
    1MPD1    C214294   0.805   2.040  15.968 -0.0587 -0.4375 -0.1171
    1MPD1    C314295   0.782   2.136  15.873 -0.2169  1.3159 -0.4093
    1MPD1    C414296   0.711   2.251  15.904 -0.1514  0.1693  0.0428
    1MPD1    C514297   0.670   2.269  16.037  0.0523 -0.1371  0.4404
    1MPD1     H14298   0.864   1.952  15.945 -0.0469 -0.1519 -1.1855
    1MPD1    H114299   0.682   2.328  15.833  1.6938  0.5709 -0.2573
    1MPD1    H214300   0.641   2.185  16.229 -0.8694 -0.1600  0.0421
    1MPD1    H314301   0.615   2.359  16.061 -2.6444 -1.7900  0.4556
    1MPD1     N14302   0.806   2.113  15.735  0.2394 -0.3086  1.0117
    1MPD1    H514303   0.764   2.180  15.671 -0.2983 -0.6583  0.9975
    1MPD1    N114304   0.793   1.968  16.197 -0.2428  0.6522 -0.3936
    1MPD1    H614305   0.870   1.902  16.184  0.0340  0.4339  2.3180
    1MPD1    H714306   0.791   2.008  16.291  3.7376 -0.3818  0.1397
    2TMC2    C114307   0.995   1.999  15.341  0.2398 -0.0313 -0.7701
    2TMC2    C214308   0.949   2.114  15.278  0.1017  0.7679 -0.3311
    2TMC2    C314309   0.882   2.207  15.357 -0.1057 -0.4922  0.4242
    2TMC2    C414310   0.961   1.968  15.468 -0.1949 -0.4486 -0.3346
    2TMC2    C514311   0.893   2.055  15.537  0.5390  0.1248 -0.3856
    2TMC2    C614312   0.857   2.179  15.487 -0.3942 -0.0325  0.1160
    2TMC2     C14313   1.065   1.913  15.254 -0.4841  0.2708 -0.7388
    2TMC2     O14314   1.056   1.944  15.134  0.6824  0.0736 -0.8156
    2TMC2     H14315   0.973   2.143  15.176 -0.2427  1.4242 -0.2254
    2TMC2    H114316   0.983   1.874  15.517 -0.9244  0.0128  0.8796
    2TMC2    H214317   0.801   2.252  15.544 -1.1068 -0.1917 -0.3791
    2TMC2    C714318   0.883   2.017  15.679  0.2592  0.0626  0.6448
    2TMC2    C814319   0.781   2.285  15.287 -0.4717 -0.1231 -0.3118
    2TMC2    O114320   0.951   1.926  15.731  0.3274 -0.7631 -0.2527
    2TMC2    O214321   0.663   2.269  15.315 -0.5820 -0.3799 -0.7092
    2TMC2    O514322   0.826   2.311  15.164 -0.6564  0.0863 -0.4840
    2TMC2    H514323   0.922   2.331  15.160 -0.3198 -0.9608  2.1554
    3MPD1     C14324   1.359   1.513  15.144  0.1248 -0.2792 -0.1182
    3MPD1    C114325   1.268   1.476  15.238  0.0882 -0.2186 -0.8154
    3MPD1    C214326   1.181   1.568  15.292 -0.3728 -0.0742  0.2553
    3MPD1    C314327   1.185   1.698  15.248 -0.6918  0.1231 -0.4073
    3MPD1    C414328   1.273   1.734  15.142 -0.2534  0.2533 -0.8047
    3MPD1    C514329   1.357   1.640  15.091  0.0685  0.8124 -0.2157
    3MPD1     H14330   1.111   1.541  15.370  0.6652 -0.2972  1.1082
    3MPD1    H114331   1.283   1.834  15.102 -3.0761  0.1288 -1.8261
    3MPD1    H214332   1.426   1.444  15.094  3.0343  1.9274  0.7630
    3MPD1    H314333   1.416   1.660  15.003 -1.8274 -0.5422 -1.7806
    3MPD1     N14334   1.100   1.794  15.312  0.5232  0.1215 -0.2692
    3MPD1    H514335   1.061   1.770  15.403  0.4134  0.0420 -0.3372
    3MPD1    N114336   1.276   1.345  15.288  0.4292 -0.3429 -0.1051
    3MPD1    H614337   1.195   1.308  15.336 -0.3592  1.6340  0.0930
    3MPD1    H714338   1.310   1.277  15.220  0.9503 -0.4401  0.2476
    1TMC1    C114339   3.725   0.241  13.480  0.0310  0.5826  0.8270
    1TMC1    C214340   3.717   0.140  13.393  0.0264 -0.8784 -0.1141
    1TMC1    C314341   3.596   0.074  13.382 -0.4808 -0.6096  0.3801
    1TMC1    C414342   3.618   0.293  13.542  0.1037  0.4581 -0.5306
    1TMC1    C514343   3.498   0.242  13.509 -0.2604  0.0511  0.0211
    1TMC1    C614344   3.479   0.129  13.430 -0.3003  0.4258 -0.3731
    1TMC1     C14345   3.852   0.311  13.506 -0.3593 -0.8514  0.1490
    1TMC1     O14346   3.840   0.422  13.562 -0.1090 -0.3783 -0.5250
    1TMC1     H14347   3.801   0.104  13.335 -0.7801 -1.3200 -1.0078
    1TMC1    H114348   3.626   0.369  13.618 -0.5245  0.3154 -0.3179
    1TMC1    H214349   3.379   0.104  13.396 -0.5227  1.8095 -0.7086
    1TMC1    C714350   3.381   0.287  13.586  1.0595 -0.2167  0.2343
    1TMC1    C814351   3.573   4.725  13.268  0.3583  0.4310 -0.4881
    1TMC1    O114352   3.297   0.209  13.631  0.0414 -0.4653 -0.0851
    1TMC1    O214353   3.463   4.704  13.223  0.7454 -0.0781  0.0376
    1TMC1    O314354   3.396   0.418  13.616 -0.0945  0.5234  0.5701
    1TMC1    H314355   3.479   0.452  13.576 -0.2496  0.4363  0.1731
    1TMC1    O514356   3.669   4.631  13.257 -0.3764 -0.0312 -0.2539
    1TMC1    H514357   3.741   4.635  13.324 -1.1579 -1.9466  0.7020
    2MPD2     C14358   4.121   0.397  13.579  0.3160 -0.2807 -0.1655
    2MPD2    C114359   4.093   0.302  13.483 -0.8543  1.0228 -0.1589
    2MPD2    C214360   4.198   0.259  13.398 -0.5627 -0.4067 -0.4706
    2MPD2    C314361   4.327   0.309  13.398 -0.0687  0.5875 -0.6279
    2MPD2    C414362   4.351   0.406  13.495  1.6123  0.4650 -0.3765
    2MPD2    C514363   4.248   0.444  13.580 -0.5960  0.7359 -0.1679
    2MPD2     H14364   4.184   0.191  13.315  1.7298  1.5906 -2.4677
    2MPD2    H114365   4.451   0.433  13.525  1.2432  0.5358  0.7723
    2MPD2    H214366   4.051   0.436  13.651  0.8584  1.3171 -0.4969
    2MPD2    H314367   4.264   0.520  13.656  1.4050 -1.6737  1.8226
    2MPD2     N14368   4.415   0.280  13.289  0.6348 -0.7804 -0.5372
    2MPD2    H514369   4.395   0.200  13.231 -3.1749  0.1438 -0.5021
    2MPD2    N114370   3.966   0.251  13.459 -0.3923  0.0583 -0.3533
    2MPD2    H714371   3.958   0.175  13.392 -0.0925 -0.7933  0.5772
    3TCq1    O114372   0.239   0.215  13.335 -0.3798 -0.6328 -0.1943
    3TCq1    C114373   0.247   0.212  13.203 -0.0389 -0.2975 -1.1154
    3TCq1    O214374   0.341   0.167  13.138 -0.1067 -0.3205 -0.2791
    3TCq1    C214375   0.107   0.203  13.167 -0.1630  0.0662  0.2770
    3TCq1    C314376   0.068   0.082  13.116 -0.1498 -0.0077 -0.2086
    3TCq1    C414377   4.669   0.056  13.092 -0.6483 -0.2019  0.8843
    3TCq1    C514378   4.577   0.163  13.115 -0.8453  0.5513  0.1002
    3TCq1    C614379   4.622   0.280  13.173 -0.3547 -0.2511  0.5561
    3TCq1    C714380   0.015   0.298  13.207  0.1840  0.2310 -0.6194
    3TCq1    C814381   4.530   0.351  13.267 -0.1050 -1.1733  0.0622
    3TCq1    O414382   4.566   0.453  13.317 -0.2814 -0.5141  0.2628
    3TCq1    C914383   4.620   4.657  13.080  0.7999 -0.1056  0.5418
    3TCq1    O514384   4.707   4.563  13.098 -0.3529 -0.0183 -0.0740
    3TCq1    O614385   4.497   4.644  13.097  0.4288 -0.2009 -0.2205
    3TCq1    H114386   0.145   0.207  13.362 -0.4397 -0.6840 -0.4195
    3TCq1    H214387   0.149   0.012  13.096  0.4875  0.7382 -0.2277
    3TCq1    H314388   4.472   0.155  13.094 -0.5712 -1.4917 -0.4258
    3TCq1    H414389   0.048   0.401  13.218 -1.8282  0.9499 -1.3233
    1MPD2     C14390   3.758   2.213  14.668  0.3586  0.1553  0.4019
    1MPD2    C114391   3.675   2.128  14.738  0.3100 -0.9024  0.0900
    1MPD2    C214392   3.729   2.005  14.778  0.0880  0.3572  0.0870
    1MPD2    C314393   3.856   1.974  14.758 -0.1482  0.2951  0.0455
    1MPD2    C414394   3.939   2.066  14.702  0.4643 -0.1641 -0.5783
    1MPD2    C514395   3.892   2.189  14.665 -0.1061  0.2767 -1.2364
    1MPD2     H14396   3.670   1.931  14.831 -1.1900  0.7024 -0.8416
    1MPD2    H114397   4.046   2.054  14.692  0.5653 -0.0984  0.3890
    1MPD2    H214398   3.723   2.305  14.623 -0.2662 -0.3258 -0.1071
    1MPD2    H314399   3.962   2.263  14.626  1.1727 -0.7105 -0.8003
    1MPD2     N14400   3.888   1.840  14.789  0.1661 -0.4581  0.0668
    1MPD2    H514401   3.813   1.788  14.834 -0.8568  0.7119 -0.2675
    1MPD2    N114402   3.541   2.165  14.746  0.4846 -0.1068 -0.1236
    1MPD2    H714403   3.517   2.247  14.691 -1.4030 -0.8915 -0.4642
    2TMC3    C114404   3.308   2.142  14.804 -0.4397  0.0054 -0.6906
    2TMC3    C214405   3.225   2.053  14.854  0.0982 -0.7740 -0.5500
    2TMC3    C314406   3.119   2.009  14.779  0.3916 -0.5889 -0.3127
    2TMC3    C414407   3.270   2.221  14.701  0.1348 -0.5992  0.3839
    2TMC3    C514408   3.163   2.185  14.627  0.0234  0.8056  0.0867
    2TMC3    C614409   3.081   2.081  14.666  0.2518  0.1013  0.5121
    2TMC3     C14410   3.443   2.092  14.811 -0.6109  0.3743  0.4178
    2TMC3     O14411   3.453   1.983  14.860  0.5074  0.0916 -0.3466
    2TMC3     H14412   3.250   1.998  14.943  2.5861  0.1455 -0.6980
    2TMC3    H114413   3.329   2.310  14.684 -0.4903  0.0772  1.7707
    2TMC3    H214414   2.994   2.041  14.615  1.3389 -0.9157 -0.5028
    2TMC3    C714415   3.099   2.279  14.533 -0.5124 -0.2583 -1.1930
    2TMC3    C814416   3.115   1.869  14.765 -0.1964  0.6969 -0.9448
    2TMC3    O114417   2.982   2.262  14.499 -0.6223 -0.4041 -0.3297
    2TMC3    O214418   3.011   1.813  14.741  0.1404 -0.0192 -0.1549
    3TCq1    O114419   3.913   3.108  14.062  0.1992  0.0658 -0.5181
    3TCq1    C114420   3.807   3.037  14.021 -0.2274  0.2032 -0.3145
    3TCq1    O214421   3.800   2.973  13.918  0.0768  0.4904 -0.2851
    3TCq1    C214422   3.706   3.029  14.131  0.2079  0.2953  0.2166
    3TCq1    C314423   3.737   3.048  14.262  0.1836 -0.0082  0.2901
    3TCq1    C414424   3.656   2.996  14.356 -0.8971  0.0061  0.1214
    3TCq1    C514425   3.545   2.930  14.330 -0.5041 -0.2372  0.1837
    3TCq1    C614426   3.513   2.910  14.194  0.6333  0.2579  0.2230
    3TCq1    C714427   3.600   2.947  14.096  0.0956 -0.3520 -0.3536
    3TCq1    C814428   3.399   2.827  14.151 -0.0365 -0.0547 -0.5224
    3TCq1    O414429   3.363   2.836  14.036  0.2782 -0.1289  0.4276
    3TCq1    C914430   3.685   3.022  14.497 -0.2965  0.1135  0.4892
    3TCq1    O514431   3.793   3.073  14.523 -0.0904 -0.4368  0.1553
    3TCq1    O614432   3.589   3.014  14.581 -0.2250 -0.7576 -0.1323
    3TCq1    H114433   3.889   3.169  14.135  1.0294 -1.7007  1.2063
    3TCq1    H214434   3.833   3.092  14.290  0.9998 -0.3725 -1.9632
    3TCq1    H314435   3.471   2.916  14.408 -2.5702  0.0645 -1.6996
    3TCq1    H414436   3.590   2.914  13.993 -2.3475 -1.9862  0.3918
    4MPD2     C14437   3.174   2.640  14.169  0.2326  0.0127  0.0072
    4MPD2    C114438   3.269   2.654  14.262 -0.0254 -0.8624  0.3850
    4MPD2    C214439   3.271   2.570  14.372  0.1920  0.0510  0.2471
    4MPD2    C314440   3.180   2.467  14.382 -0.2111 -0.3933  0.1074
    4MPD2    C414441   3.081   2.458  14.290  0.5350  0.4684 -0.1875
    4MPD2    C514442   3.078   2.541  14.180 -0.4680  0.0886  0.3744
    4MPD2     H14443   3.342   2.595  14.451  2.2700 -0.0335 -1.6014
    4MPD2    H114444   3.007   2.379  14.297  1.0260  0.1551  1.5952
    4MPD2    H214445   3.170   2.712  14.088 -0.6053 -0.1577 -0.1007
    4MPD2    H314446   2.993   2.546  14.113  0.5505 -1.3721 -1.0544
    4MPD2     N14447   3.191   2.371  14.490 -0.3456 -0.2871 -0.2408
    4MPD2    H514448   3.287   2.361  14.522 -0.8511 -0.5998  1.2037
    4MPD2    N114449   3.364   2.756  14.261 -0.4672 -0.1948  0.0747
    4MPD2    H714450   3.422   2.771  14.343  1.2194 -1.3695 -0.8962
    5TMC2    C114451   3.812   1.528  14.865 -0.0301  0.5516 -0.1318
    5TMC2    C214452   3.825   1.437  14.764 -0.5168  0.0706 -0.5531
    5TMC2    C314453   3.941   1.435  14.689  0.3854 -0.0952  0.8335
    5TMC2    C414454   3.899   1.627  14.882 -0.6322 -0.3890 -0.3525
    5TMC2    C514455   3.994   1.640  14.782  0.0825 -0.1403  0.4793
    5TMC2    C614456   4.022   1.543  14.691 -0.9198 -0.5021  0.3387
    5TMC2     C14457   3.687   1.576  14.876 -0.5523 -0.3363  0.8311
    5TMC2     O14458   3.679   1.694  14.909 -0.5838  0.3432 -0.1370
    5TMC2     H14459   3.760   1.350  14.768 -1.1297  0.5716  0.3145
    5TMC2    H114460   3.907   1.672  14.980  1.2648 -0.3343 -0.5309
    5TMC2    H214461   4.090   1.573  14.611  0.2998 -3.8784  0.1312
    5TMC2    C714462   4.003   1.777  14.735  0.3219 -0.1616  0.3544
    5TMC2    C814463   3.980   1.318  14.619 -0.5519  0.3958  0.2137
    5TMC2    O114464   4.096   1.817  14.667 -0.1418 -0.2803  0.5066
    5TMC2    O214465   3.904   1.223  14.599  0.0106 -0.5724 -0.7115
    5TMC2    O514466   4.109   1.311  14.619 -0.1199 -0.6518  0.1590
    5TMC2    H514467   4.142   1.389  14.668 -1.5689 -1.2197  2.0018
    6MPD2     C14468   3.195   1.570  14.753 -0.0597  0.2480  0.2350
    6MPD2    C114469   3.278   1.675  14.780 -0.3920  0.1073  0.2777
    6MPD2    C214470   3.405   1.648  14.820 -0.4254  0.5451  0.2053
    6MPD2    C314471   3.454   1.519  14.821 -0.0502  0.5969  0.1392
    6MPD2    C414472   3.375   1.413  14.788  0.1423  0.1024 -0.0142
    6MPD2    C514473   3.242   1.435  14.750 -0.0838 -0.4562 -0.0215
    6MPD2     H14474   3.474   1.729  14.841 -2.1150  1.7711  1.0980
    6MPD2    H114475   3.415   1.313  14.786  1.3073  0.5932 -1.0054
    6MPD2    H214476   3.088   1.587  14.744  0.2082  1.2257 -1.1141
    6MPD2    H314477   3.177   1.355  14.716 -2.0897  0.7161  1.0327
    6MPD2     N14478   3.591   1.482  14.849 -0.2701  0.2055  0.1680
    6MPD2    H514479   3.609   1.383  14.840  1.8943  0.6533 -0.3692
    6MPD2    N114480   3.238   1.815  14.778 -0.7273  0.0550  0.3426
    6MPD2    H714481   3.311   1.882  14.802 -1.5043  1.0765 -0.1174
  945NH4     N114482   4.126   1.727   0.763  0.2600 -0.1392  0.0134
  945NH4     H214483   4.174   1.635   0.766  0.4580 -0.0466 -0.3085
  945NH4     H314484   4.193   1.787   0.711 -1.2108  1.9525  0.5108
  945NH4     H414485   4.100   1.764   0.857 -2.3759  0.2156 -0.8498
  945NH4     H514486   4.041   1.709   0.706 -1.1143 -0.1832  2.0836
  946SOD     NA14487   0.197   3.720  13.187  0.4202 -0.2945 -0.6601
  947SOD     NA14488   1.613   2.053  16.562  0.0943 -0.0191 -0.4073
  948SOD     NA14489   0.332   2.739  14.082 -0.0637  0.0430 -0.3727
  949SOD     NA14490   3.628   3.397  15.552  0.5319  0.1320 -0.2094
  950SOD     NA14491   1.076   3.939   9.774 -0.3121  0.1501  0.3621
  951SOD     NA14492   2.544   0.734  13.752 -0.1719  0.0955 -0.1924
  952SOD     NA14493   0.716   1.941  13.826  0.1122 -0.0768 -0.0495
  953SOL     OW14494   0.703   1.296   9.296  0.4572 -0.0123  0.3001
  953SOL    HW114495   0.665   1.376   9.331  0.4470 -0.2619  0.8564
  953SOL    HW214496   0.784   1.334   9.264  0.5647 -1.3172 -0.9644
  954SOL     OW14497   0.996   1.650   6.060 -0.2475 -0.2625 -0.1853
  954SOL    HW114498   0.996   1.586   6.131 -1.4091 -1.2804 -1.1040
  954SOL    HW214499   0.963   1.591   5.993  0.4208 -0.1480 -0.6135
  955SOL     OW14500   3.035   2.679  16.553 -0.6423 -0.5162  0.0440
  955SOL    HW114501   3.046   2.774  16.556  0.5067 -0.7412  2.2597
  955SOL    HW214502   3.086   2.640  16.624 -0.9330  1.4909  1.3587
  956SOL     OW14503   1.676   4.373   7.151  0.1349  0.0338 -0.1980
  956SOL    HW114504   1.611   4.435   7.118  0.5494  0.5621 -0.0121
  956SOL    HW214505   1.722   4.363   7.067  0.9207  0.8744  0.1460
  957SOL     OW14506   2.196   1.506   5.580  0.7233 -0.3775 -0.4316
  957SOL    HW114507   2.155   1.454   5.649 -0.9733  0.8869 -0.4954
  957SOL    HW214508   2.278   1.460   5.564  1.7062 -0.9011  6.0300
  958SOL     OW14509   0.832   1.825   6.619  0.6821 -0.0707  0.1132
  958SOL    HW114510   0.773   1.750   6.616 -1.1779  1.4369 -0.3349
  958SOL    HW214511   0.884   1.822   6.538 -2.3364  1.3152 -1.8754
  959SOL     OW14512   0.996   3.274   9.081 -0.5194 -0.5190 -0.1530
  959SOL    HW114513   0.922   3.241   9.133  1.1224 -2.7410  0.7813
  959SOL    HW214514   0.991   3.210   9.010  0.5513 -0.0692 -0.6240
  960SOL     OW14515   3.194   2.887   5.311  0.1348  0.0096  0.1858
  960SOL    HW114516   3.264   2.822   5.313  0.9324  0.9056  1.3179
  960SOL    HW214517   3.251   2.963   5.301 -1.3110  0.9958 -0.6636
  961SOL     OW14518   1.357   2.112   3.122  0.6395 -0.4168  0.4101
  961SOL    HW114519   1.307   2.031   3.137  0.0108 -0.0550  0.2799
  961SOL    HW214520   1.441   2.083   3.087  0.1268 -1.8224  0.3331
  962SOL     OW14521   2.348   0.430   3.477  0.4391  0.2819  0.0873
  962SOL    HW114522   2.432   0.474   3.484  0.8702 -0.5098 -0.1659
  962SOL    HW214523   2.364   0.350   3.428 -0.1982  0.4918 -0.4715
  963SOL     OW14524   2.172   4.213  13.465  0.5463 -1.0094  0.0664
  963SOL    HW114525   2.145   4.240  13.552 -2.4873 -0.4220 -1.0323
  963SOL    HW214526   2.140   4.287  13.413  1.2663 -0.8586 -0.1531
  964SOL     OW14527   2.650   4.329   4.469 -0.3810 -0.4088  0.0935
  964SOL    HW114528   2.712   4.336   4.542 -0.2248  3.7380 -0.4675
  964SOL    HW214529   2.570   4.349   4.518  0.1104  0.6122  0.4571
  965SOL     OW14530   1.440   3.479   5.451 -0.4606 -0.3434  0.0526
  965SOL    HW114531   1.367   3.487   5.513  1.3541  1.2097  1.9857
  965SOL    HW214532   1.387   3.510   5.377 -1.9985 -1.9180  0.4911
  966SOL     OW14533   2.426   3.945   1.719 -0.3199  0.1831  0.4471
  966SOL    HW114534   2.496   3.971   1.779 -0.0558 -0.3043  0.3547
  966SOL    HW214535   2.371   4.022   1.727 -0.7084 -0.0904  0.4165
  967SOL     OW14536   4.177   4.216   6.194  0.5358  0.4506  0.5835
  967SOL    HW114537   4.248   4.158   6.222 -0.4748 -1.1463 -0.1945
  967SOL    HW214538   4.104   4.182   6.246  0.2007  0.4269  0.0960
  968SOL     OW14539   3.220   1.538   3.849  0.4305  0.4465 -0.1341
  968SOL    HW114540   3.276   1.573   3.918 -1.3720  0.5713  1.2725
  968SOL    HW214541   3.139   1.576   3.884 -0.5635  0.9488 -2.9912
  969SOL     OW14542   4.565   3.325   6.743 -0.6055 -0.0570 -0.3015
  969SOL    HW114543   4.521   3.403   6.709  0.1251  0.4050 -0.1822
  969SOL    HW214544   4.643   3.345   6.692  0.0014  1.7064  1.3214
  970SOL     OW14545   2.624   4.197   6.045  0.7291  0.7005  0.1121
  970SOL    HW114546   2.571   4.266   6.006 -1.5471 -0.1104  1.7304
  970SOL    HW214547   2.706   4.215   5.999  0.5220 -0.6949 -0.7840
  971SOL     OW14548   3.473   1.195  10.733  0.0145 -0.7759  0.4029
  971SOL    HW114549   3.403   1.170  10.794  0.0323 -0.6363  0.4798
  971SOL    HW214550   3.548   1.172  10.787  1.5971 -0.4944 -1.6964
  972SOL     OW14551   3.576   3.523   3.658 -0.6540 -0.0813 -0.2517
  972SOL    HW114552   3.626   3.448   3.690  1.0896  0.4920 -1.6774
  972SOL    HW214553   3.639   3.595   3.664  1.3657 -1.8426 -0.2067
  973SOL     OW14554   4.685   3.752   7.553 -0.0860 -0.0066 -0.0280
  973SOL    HW114555   4.669   3.842   7.524 -0.1702 -0.1858 -0.5475
  973SOL    HW214556   4.637   3.730   7.633 -3.9203  2.9559 -1.4776
  974SOL     OW14557   4.667   2.147  11.131  0.0081  0.2542 -0.2206
  974SOL    HW114558   4.604   2.191  11.074  0.2172  2.3849  1.1931
  974SOL    HW214559   4.723   2.220  11.158  0.4690  0.0186 -0.5357
  975SOL     OW14560   3.080   1.303   3.772  0.2295 -0.1754  0.2491
  975SOL    HW114561   3.130   1.228   3.804  2.4153  1.2795  0.2449
  975SOL    HW214562   3.129   1.378   3.806  1.6344 -0.9020 -0.1787
  976SOL     OW14563   1.875   3.330   1.359 -0.0192 -0.5228  0.6140
  976SOL    HW114564   1.953   3.359   1.407  1.0993 -0.4062 -1.2854
  976SOL    HW214565   1.890   3.238   1.377 -2.3476 -0.6898  1.7033
  977SOL     OW14566   0.497   1.362   7.177 -0.2408  0.3261  0.0347
  977SOL    HW114567   0.426   1.318   7.223  0.4425 -0.2099  0.5900
  977SOL    HW214568   0.476   1.453   7.198 -0.2710  0.3210  0.0257
  978SOL     OW14569   1.403   2.107   8.376  0.6292  0.1666 -0.0534
  978SOL    HW114570   1.435   2.125   8.287  1.3867 -2.3542 -0.2963
  978SOL    HW214571   1.445   2.025   8.402 -1.2242 -0.9530 -0.5931
  979SOL     OW14572   1.530   1.540   5.337  0.3556 -0.7815 -0.0705
  979SOL    HW114573   1.530   1.526   5.242 -1.5259  1.2697 -0.3662
  979SOL    HW214574   1.443   1.577   5.354  1.1033  1.5234 -1.3488
  980SOL     OW14575   2.553   0.971   8.298  0.0305  0.1433  0.2487
  980SOL    HW114576   2.466   0.937   8.318 -0.2794 -1.4316 -3.7437
  980SOL    HW214577   2.599   0.894   8.330 -0.9946 -0.3534  0.5394
  981SOL     OW14578   2.757   2.310   7.294  0.4633  0.6677 -0.2865
  981SOL    HW114579   2.784   2.219   7.283  0.5083  0.4786  1.3445
  981SOL    HW214580   2.752   2.338   7.203  0.5350  0.2968 -0.4021
  982SOL     OW14581   1.152   3.802  16.333 -0.5605 -0.9693 -0.1179
  982SOL    HW114582   1.193   3.745  16.398  1.7838  0.6997 -0.1695
  982SOL    HW214583   1.083   3.743  16.303 -0.4463 -1.3655  0.3984
  983SOL     OW14584   1.954   3.050   7.899  0.0197 -0.6446  0.1005
  983SOL    HW114585   2.044   3.026   7.921 -0.4095 -3.2889 -0.9696
  983SOL    HW214586   1.926   3.105   7.972  0.0628  1.7526 -1.6775
  984SOL     OW14587   1.296   0.444   4.408 -0.2386  0.1512  0.1862
  984SOL    HW114588   1.203   0.427   4.392 -0.4371 -0.3326  1.8346
  984SOL    HW214589   1.321   0.484   4.325  1.1730 -1.5480 -0.2030
  985SOL     OW14590   2.749   3.075   1.960  0.3151 -0.3831  0.0839
  985SOL    HW114591   2.733   3.140   2.029  1.1705  0.5365 -0.5951
  985SOL    HW214592   2.844   3.067   1.970  0.5323  0.2461 -1.6002
  986SOL     OW14593   3.446   1.388  12.218 -0.5033  0.5336 -0.5922
  986SOL    HW114594   3.486   1.301  12.212 -4.3016 -1.0634 -2.3520
  986SOL    HW214595   3.522   1.442  12.195  0.3167  0.1456  1.2635
  987SOL     OW14596   1.013   3.459   5.994 -0.1936  0.3465 -0.4574
  987SOL    HW114597   1.026   3.543   6.038  0.9381 -0.8789  1.5887
  987SOL    HW214598   1.015   3.496   5.905  0.1926 -1.3940 -1.1710
  988SOL     OW14599   1.023   1.442   3.224 -0.2099  0.5914 -0.0365
  988SOL    HW114600   1.086   1.435   3.152  0.4645 -0.4930  0.6650
  988SOL    HW214601   1.060   1.384   3.290  0.6969  0.5370 -0.5870
  989SOL     OW14602   2.143   1.805  10.911 -0.5037  0.1418 -0.0642
  989SOL    HW114603   2.197   1.883  10.908  0.3992 -0.5568 -1.8224
  989SOL    HW214604   2.192   1.735  10.955  1.8798  1.1262 -1.1841
  990SOL     OW14605   0.529   0.862   9.298 -0.3366  0.5125  0.0884
  990SOL    HW114606   0.589   0.936   9.287 -0.8093  0.7663 -0.7901
  990SOL    HW214607   0.583   0.789   9.269 -0.2123  1.1483 -1.2762
  991SOL     OW14608   4.667   2.961  15.298 -0.0272 -0.2289  0.1714
  991SOL    HW114609   0.023   2.959  15.315 -0.0129 -0.5853  0.0498
  991SOL    HW214610   4.661   3.047  15.257 -1.8776 -0.6835 -0.5084
  992SOL     OW14611   3.735   2.587   2.145 -0.1110  0.4580  0.2325
  992SOL    HW114612   3.697   2.667   2.184 -0.9521 -1.1017  2.6201
  992SOL    HW214613   3.806   2.621   2.091 -1.2115 -0.8527 -2.0256
  993SOL     OW14614   4.562   4.591   6.827  0.0770 -0.8268 -0.1343
  993SOL    HW114615   4.470   4.582   6.853 -0.3583  0.0862 -1.3425
  993SOL    HW214616   4.609   4.565   6.906  1.9792  1.6828 -0.4305
  994SOL     OW14617   2.106   0.226   2.491  0.2784 -0.2489  0.1192
  994SOL    HW114618   2.064   0.197   2.572 -1.3165  2.3950  0.2414
  994SOL    HW214619   2.196   0.223   2.523  0.3066  1.0818  0.1468
  995SOL     OW14620   2.128   2.404   4.130 -0.1092 -0.0061  0.5103
  995SOL    HW114621   2.082   2.366   4.205 -1.4152 -1.2692 -0.9216
  995SOL    HW214622   2.145   2.493   4.160 -0.8118  1.3552 -3.1902
  996SOL     OW14623   2.929   3.187   6.881  0.0262 -0.5861 -0.1140
  996SOL    HW114624   2.928   3.272   6.836  1.8646  0.2683  1.4915
  996SOL    HW214625   2.851   3.193   6.936 -1.3116 -1.8868 -1.8510
  997SOL     OW14626   1.317   0.333   8.638  0.8740 -0.3916 -0.5115
  997SOL    HW114627   1.365   0.280   8.701 -0.8553 -1.6893 -0.2709
  997SOL    HW214628   1.313   0.273   8.563  1.8631 -0.8187 -0.2202
  998SOL     OW14629   4.652   4.115   9.471 -0.3277  0.1414  0.3427
  998SOL    HW114630   4.627   4.053   9.540  0.9883 -0.5084  0.2235
  998SOL    HW214631   4.715   4.172   9.515 -1.1900  2.7667 -1.8092
  999SOL     OW14632   3.476   0.468   9.378 -0.1869  0.6646  0.2807
  999SOL    HW114633   3.492   0.375   9.398  2.1787  0.9060 -0.4223
  999SOL    HW214634   3.385   0.467   9.348 -0.2393 -0.5428  0.4820
 1000SOL     OW14635   3.896   0.179   9.335 -0.1009  0.1074 -0.2797
 1000SOL    HW114636   3.879   0.099   9.284  1.1757 -1.3652  1.6034
 1000SOL    HW214637   3.949   0.151   9.410 -3.3889 -1.2826  1.5021
 1001SOL     OW14638   0.281   1.133   3.637 -0.2489 -0.1540  0.3908
 1001SOL    HW114639   0.252   1.172   3.720  2.3268  2.2346  0.1780
 1001SOL    HW214640   0.223   1.180   3.576  0.4757  0.3128  0.0583
 1002SOL     OW14641   1.631   1.422   3.566 -0.2302 -0.1399 -0.5770
 1002SOL    HW114642   1.565   1.485   3.593  0.9516 -0.1008  2.2673
 1002SOL    HW214643   1.637   1.431   3.471  0.7506 -2.7971 -0.7738
 1003SOL     OW14644   1.655   3.867   3.523  0.2146 -0.3550 -0.3998
 1003SOL    HW114645   1.589   3.891   3.588 -0.0939  0.1312 -0.8921
 1003SOL    HW214646   1.600   3.803   3.478  0.0158  0.1148 -0.8222
 1004SOL     OW14647   1.695   3.018   9.053  0.0571 -0.2874  0.8338
 1004SOL    HW114648   1.638   3.005   9.129 -1.9610  0.3524 -0.5640
 1004SOL    HW214649   1.690   2.936   9.005  1.2414 -0.0436  0.3069
 1005SOL     OW14650   0.756   1.444  15.099 -0.6022  0.3038  0.4429
 1005SOL    HW114651   0.850   1.436  15.079 -0.7525  0.3902 -0.2816
 1005SOL    HW214652   0.756   1.380  15.170 -2.2004 -0.2256 -0.0422
 1006SOL     OW14653   2.804   0.192   3.610  0.4744  0.2987  0.7846
 1006SOL    HW114654   2.725   0.185   3.665 -0.8162  3.9083 -0.6292
 1006SOL    HW214655   2.874   0.160   3.668  1.0249 -2.2209 -1.2726
 1007SOL     OW14656   3.346   4.620   2.361 -0.4706  1.0607 -0.4387
 1007SOL    HW114657   3.301   4.552   2.311 -1.4969  3.5556 -2.9041
 1007SOL    HW214658   3.423   4.577   2.399 -4.0829 -2.6722  2.6884
 1008SOL     OW14659   1.203   1.387   2.973 -0.6110 -0.3699  0.1774
 1008SOL    HW114660   1.202   1.462   2.914 -2.2204  0.7357  1.5975
 1008SOL    HW214661   1.290   1.393   3.012 -0.0242 -1.5740 -0.9355
 1009SOL     OW14662   1.423   1.953   7.729  0.7317 -0.0375  0.0060
 1009SOL    HW114663   1.489   1.954   7.799  1.0179  0.5205 -0.2729
 1009SOL    HW214664   1.352   1.990   7.781  1.7627  2.2058 -0.1815
 1010SOL     OW14665   1.930   2.849   8.354  0.1515 -0.7869  0.1942
 1010SOL    HW114666   1.978   2.806   8.283  0.4476 -0.1567  0.0079
 1010SOL    HW214667   1.922   2.936   8.314  1.0530  0.1224  2.0018
 1011SOL     OW14668   3.460   1.838  17.412 -0.2463 -0.3262  0.0467
 1011SOL    HW114669   3.384   1.890  17.440 -2.0533 -2.8453 -0.1978
 1011SOL    HW214670   3.418   1.758  17.382  0.0529  0.9342 -3.6778
 1012SOL     OW14671   3.437   3.567   6.571  0.2635 -0.0035 -0.1445
 1012SOL    HW114672   3.341   3.568   6.579  0.1498  3.0540 -2.1148
 1012SOL    HW214673   3.445   3.471   6.574  0.6035  0.0457  0.4414
 1013SOL     OW14674   1.432   3.863  12.132  0.0274  0.1348  0.1247
 1013SOL    HW114675   1.382   3.807  12.072 -2.5307  2.4954  0.0689
 1013SOL    HW214676   1.416   3.816  12.214  2.1051  0.3504  0.6486
 1014SOL     OW14677   0.025   3.368  17.669  0.3116 -0.1615  0.1908
 1014SOL    HW114678   4.710   3.292  17.691 -0.2695  0.3610  0.5983
 1014SOL    HW214679   0.110   3.324  17.670 -0.3143 -1.3488  1.0844
 1015SOL     OW14680   0.793   1.548  14.300  0.3754 -0.5662 -0.0032
 1015SOL    HW114681   0.866   1.570  14.242 -0.5758  0.8404 -0.6476
 1015SOL    HW214682   0.802   1.625  14.356 -0.9409 -0.0502 -0.4998
 1016SOL     OW14683   2.578   1.154   6.914 -0.0227  0.5395 -0.1110
 1016SOL    HW114684   2.542   1.168   7.002 -1.3616 -0.1691 -0.5611
 1016SOL    HW214685   2.626   1.073   6.931 -2.2559 -0.6884  0.2114
 1017SOL     OW14686   0.221   0.482   3.893 -0.6131  1.0922  0.4901
 1017SOL    HW114687   0.300   0.466   3.944 -0.8698 -1.1064  0.1859
 1017SOL    HW214688   0.230   0.403   3.839  1.5261  1.3946  0.4093
 1018SOL     OW14689   1.391   1.412   8.654 -0.2135  0.2090  0.4970
 1018SOL    HW114690   1.434   1.428   8.570 -3.5343 -0.1222 -1.2775
 1018SOL    HW214691   1.453   1.347   8.687  1.4382  0.9615 -1.1062
 1019SOL     OW14692   3.343   3.028   4.167 -0.3123  0.1145 -0.6042
 1019SOL    HW114693   3.369   2.936   4.170  1.1218  0.5649  1.0867
 1019SOL    HW214694   3.267   3.013   4.111 -1.5788  1.4317  0.7178
 1020SOL     OW14695   3.558   1.805   1.968 -0.2824 -0.3200  0.1830
 1020SOL    HW114696   3.513   1.876   1.921 -0.7318 -0.0616  1.0021
 1020SOL    HW214697   3.566   1.746   1.893 -2.7432  1.0398 -1.1491
 1021SOL     OW14698   1.872   0.175   1.598 -0.2547  0.3612 -0.5582
 1021SOL    HW114699   1.885   0.167   1.692  3.0477 -1.8641 -1.1885
 1021SOL    HW214700   1.857   0.082   1.578 -0.8406 -0.1220  2.0601
 1022SOL     OW14701   3.743   0.534   8.838 -0.2035 -0.0578  0.3045
 1022SOL    HW114702   3.704   0.460   8.884  0.1035 -0.8399 -0.6895
 1022SOL    HW214703   3.811   0.569   8.896  0.7004  0.2485 -0.9518
 1023SOL     OW14704   0.978   4.041   8.070  0.0963  0.0503  0.3300
 1023SOL    HW114705   1.061   4.075   8.102 -0.8449  0.6759  2.1005
 1023SOL    HW214706   0.921   4.111   8.101 -0.3887 -0.6732  1.0865
 1024SOL     OW14707   1.270   3.153   6.382  0.2789 -0.0682  0.2065
 1024SOL    HW114708   1.201   3.217   6.363  1.2936  0.6725 -0.9803
 1024SOL    HW214709   1.330   3.179   6.312 -0.3952  1.0345  0.0514
 1025SOL     OW14710   1.405   0.555   4.177 -0.0819  0.0122  0.4214
 1025SOL    HW114711   1.403   0.529   4.085  0.0673  1.7611 -0.0939
 1025SOL    HW214712   1.495   0.588   4.183 -0.0083  0.1264 -1.1008
 1026SOL     OW14713   3.810   0.160   5.806 -0.0161  0.4506 -0.6807
 1026SOL    HW114714   3.865   0.239   5.807  1.4133 -0.5493 -1.3235
 1026SOL    HW214715   3.850   0.114   5.733 -0.6062 -1.5019  0.2461
 1027SOL     OW14716   3.713   4.637  12.408  0.1915  0.1789 -0.5878
 1027SOL    HW114717   3.655   4.662  12.479 -0.2491 -2.2532 -0.0972
 1027SOL    HW214718   3.732   4.546  12.429  1.8137  0.1563 -2.0651
 1028SOL     OW14719   4.063   1.250  13.064 -0.5528  0.0288 -0.1971
 1028SOL    HW114720   4.141   1.280  13.111 -0.0004 -1.2689 -0.2837
 1028SOL    HW214721   4.041   1.325  13.008  0.0217 -1.4673 -2.4164
 1029SOL     OW14722   3.338   3.686   2.053 -0.4010  0.1080 -0.1039
 1029SOL    HW114723   3.291   3.703   1.971 -0.6036 -0.6701 -0.1515
 1029SOL    HW214724   3.307   3.597   2.070  1.9396 -0.8881 -1.0809
 1030SOL     OW14725   0.901   2.631  10.192 -0.3482  0.3593 -0.0940
 1030SOL    HW114726   0.948   2.587  10.121  1.7032  1.9517  0.2889
 1030SOL    HW214727   0.931   2.721  10.192  2.0504 -0.4104  4.1722
 1031SOL     OW14728   3.171   0.670   7.078 -0.0293  0.1557  0.1801
 1031SOL    HW114729   3.115   0.607   7.032 -1.4427  1.7166 -0.2125
 1031SOL    HW214730   3.117   0.682   7.156 -0.5317 -1.6856  0.1289
 1032SOL     OW14731   0.198   2.063   2.519  0.0899  0.3111  0.3717
 1032SOL    HW114732   0.288   2.087   2.541  0.9841 -2.5571 -0.1792
 1032SOL    HW214733   0.201   1.968   2.520  2.5157  0.3926  0.7470
 1033SOL     OW14734   2.669   1.595  14.228 -0.1790  0.3456  0.0007
 1033SOL    HW114735   2.585   1.559  14.200  0.6237 -0.1063 -1.7848
 1033SOL    HW214736   2.726   1.562  14.159 -2.9368 -3.7086 -0.3092
 1034SOL     OW14737   3.512   2.238   8.327 -0.1234 -0.2128 -0.2648
 1034SOL    HW114738   3.417   2.255   8.326 -0.0482  0.0952 -1.7557
 1034SOL    HW214739   3.512   2.146   8.300  0.9193 -0.6891  1.3517
 1035SOL     OW14740   1.480   4.529   4.129  0.0127  0.2217  0.2781
 1035SOL    HW114741   1.514   4.469   4.196 -2.1554 -0.9962  0.2734
 1035SOL    HW214742   1.386   4.516   4.142 -0.2152 -0.0551 -1.6831
 1036SOL     OW14743   0.373   1.711   8.090 -0.6182 -0.2919 -0.2540
 1036SOL    HW114744   0.369   1.616   8.078 -1.0083 -0.6010  2.5355
 1036SOL    HW214745   0.384   1.745   8.001 -0.8013 -1.2434 -0.6365
 1037SOL     OW14746   1.984   3.714   4.407 -0.3170  0.0474  0.0834
 1037SOL    HW114747   2.022   3.761   4.333 -1.9364 -1.6628 -1.8603
 1037SOL    HW214748   1.940   3.790   4.446  1.3214  0.4327  1.1595
 1038SOL     OW14749   1.362   1.130   4.951 -0.3282  0.2803 -0.2300
 1038SOL    HW114750   1.337   1.064   4.887  1.0849 -1.2216  0.7874
 1038SOL    HW214751   1.292   1.120   5.015 -0.5047 -0.7893 -0.6040
 1039SOL     OW14752   2.074   0.580   5.386  0.4252  0.0169  0.3997
 1039SOL    HW114753   2.035   0.619   5.307 -0.2320  0.3796  0.9051
 1039SOL    HW214754   2.049   0.642   5.455  1.8114  0.2146  0.7186
 1040SOL     OW14755   3.045   1.113   4.959  0.1117 -0.2831 -0.0453
 1040SOL    HW114756   2.979   1.144   4.898  2.0822 -0.4595 -2.2887
 1040SOL    HW214757   3.128   1.142   4.920 -0.3491 -1.8744 -2.1930
 1041SOL     OW14758   0.468   3.157   7.507 -0.4519 -0.2780 -0.1919
 1041SOL    HW114759   0.421   3.074   7.517 -1.3480  0.3590  0.7708
 1041SOL    HW214760   0.464   3.186   7.416  0.7818  1.4475  0.3135
 1042SOL     OW14761   3.461   0.553   7.900  0.2103 -0.3090 -0.5312
 1042SOL    HW114762   3.554   0.537   7.910  0.2479 -0.0916 -0.5237
 1042SOL    HW214763   3.450   0.535   7.807  1.9311  2.2179 -1.2260
 1043SOL     OW14764   0.230   1.242  10.360 -0.4060  0.2154  0.1710
 1043SOL    HW114765   0.186   1.224  10.443  2.7143 -0.6500  1.6463
 1043SOL    HW214766   0.299   1.293  10.403  0.4459 -0.2904 -0.5956
 1044SOL     OW14767   0.342   1.282   6.631 -0.2726 -0.6103 -0.2512
 1044SOL    HW114768   0.375   1.193   6.634  2.1096  0.3110  1.1161
 1044SOL    HW214769   0.271   1.276   6.566 -0.6677  2.6766 -0.1395
 1045SOL     OW14770   3.883   3.548   1.550  0.4764 -0.8444  1.0797
 1045SOL    HW114771   3.949   3.499   1.599  0.5664  1.9520  3.7730
 1045SOL    HW214772   3.904   3.639   1.571 -0.1902 -0.1003 -1.4818
 1046SOL     OW14773   0.905   3.462   1.922  0.1192  0.3828 -0.1926
 1046SOL    HW114774   0.890   3.443   1.829 -0.0505  1.4191 -0.3773
 1046SOL    HW214775   0.818   3.453   1.961 -1.1419 -1.8647 -3.4391
 1047SOL     OW14776   1.431   3.846   9.127  0.6699 -0.4981 -0.3637
 1047SOL    HW114777   1.406   3.900   9.202 -1.3045 -0.1205 -1.2935
 1047SOL    HW214778   1.505   3.793   9.156  0.0516 -0.2769  1.5966
 1048SOL     OW14779   4.215   3.926  14.141 -0.4544  0.4417  0.7372
 1048SOL    HW114780   4.232   4.002  14.197  0.7998  1.2888 -0.7980
 1048SOL    HW214781   4.120   3.915  14.143 -0.2487 -1.5812 -0.6340
 1049SOL     OW14782   3.666   0.974   3.502  0.4382  0.4129 -0.2147
 1049SOL    HW114783   3.652   0.942   3.591 -0.4430 -1.9464 -1.1876
 1049SOL    HW214784   3.594   0.933   3.453  1.6281 -1.1067 -0.6986
 1050SOL     OW14785   2.883   2.628   7.940  0.5770  0.1008  0.3880
 1050SOL    HW114786   2.895   2.628   8.035 -2.6852  0.5487  0.8231
 1050SOL    HW214787   2.973   2.617   7.909 -0.2966 -0.5974 -1.9338
 1051SOL     OW14788   3.547   3.346  10.741  0.0595 -0.1332  0.1763
 1051SOL    HW114789   3.558   3.429  10.787 -1.9725  1.4438 -2.1751
 1051SOL    HW214790   3.570   3.282  10.808 -1.0493  1.0787  1.7103
 1052SOL     OW14791   2.719   4.401  11.621 -0.0759 -0.0681 -0.7621
 1052SOL    HW114792   2.722   4.487  11.578 -0.8590  1.1283  1.5632
 1052SOL    HW214793   2.746   4.434  11.706 -0.2500  0.1245 -0.7834
 1053SOL     OW14794   0.487   4.308   7.632 -0.1487  0.7736 -0.2470
 1053SOL    HW114795   0.578   4.277   7.623 -1.2047 -2.4422  0.0612
 1053SOL    HW214796   0.458   4.248   7.701  1.5373 -1.2605 -1.2947
 1054SOL     OW14797   3.807   1.495  17.600  0.7048 -0.3317  0.6939
 1054SOL    HW114798   3.900   1.512  17.583  0.9116 -1.4137  0.7841
 1054SOL    HW214799   3.771   1.545  17.527 -2.2667 -0.5518  2.0219
 1055SOL     OW14800   3.738   1.521  15.484 -0.8707 -0.2535  0.3243
 1055SOL    HW114801   3.725   1.588  15.417  0.6792 -0.5927 -0.3248
 1055SOL    HW214802   3.658   1.468  15.479 -2.7885  2.6788 -0.0156
 1056SOL     OW14803   2.870   3.595   0.776  0.2318 -0.8504 -0.2901
 1056SOL    HW114804   2.890   3.505   0.802 -0.7511 -0.1644  2.8296
 1056SOL    HW214805   2.792   3.585   0.721 -0.3195 -1.6271  0.6358
 1057SOL     OW14806   0.626   2.171   2.410 -0.5295  0.1221 -0.1275
 1057SOL    HW114807   0.672   2.106   2.357  1.9827 -0.2191  2.5148
 1057SOL    HW214808   0.619   2.128   2.495  0.8232 -0.0897 -0.1327
 1058SOL     OW14809   4.346   4.346   4.479 -0.3680 -0.5081 -0.2496
 1058SOL    HW114810   4.368   4.273   4.537 -1.0668 -0.9061 -0.4813
 1058SOL    HW214811   4.304   4.302   4.405 -3.8815  0.1084  1.3378
 1059SOL     OW14812   3.294   1.206   5.742  0.3204  0.1707  0.1458
 1059SOL    HW114813   3.295   1.294   5.781  2.2963 -0.2386  1.0253
 1059SOL    HW214814   3.202   1.182   5.748  0.6489 -1.1721 -0.1280
 1060SOL     OW14815   3.378   3.705   4.805  0.0520 -0.0792 -0.2719
 1060SOL    HW114816   3.435   3.702   4.728 -0.6235 -3.1363 -0.6422
 1060SOL    HW214817   3.424   3.765   4.864  0.0037 -0.1995 -0.1133
 1061SOL     OW14818   1.743   4.140   8.806  0.4273 -0.1020 -1.0630
 1061SOL    HW114819   1.709   4.051   8.801  1.3207 -0.5375  0.6236
 1061SOL    HW214820   1.837   4.122   8.809  0.3974 -0.1693 -0.3628
 1062SOL     OW14821   0.918   3.935  13.565 -0.3199 -0.3739  0.7000
 1062SOL    HW114822   0.941   3.851  13.525  0.0799  0.8171 -1.5784
 1062SOL    HW214823   0.937   4.002  13.499  1.0059 -2.6036 -1.1854
 1063SOL     OW14824   4.111   4.505   2.711  0.3001  0.1998  0.0626
 1063SOL    HW114825   4.205   4.523   2.716  0.1247  1.1856 -0.0628
 1063SOL    HW214826   4.077   4.530   2.625  2.6350  0.7433 -0.6824
 1064SOL     OW14827   0.633   2.700   2.981 -0.3215  0.1131 -0.3335
 1064SOL    HW114828   0.724   2.724   2.962 -0.3777  0.6336  0.0427
 1064SOL    HW214829   0.591   2.782   2.952  0.2564 -0.6343 -3.2689
 1065SOL     OW14830   3.556   1.776  10.670 -0.0243 -0.4941  0.2164
 1065SOL    HW114831   3.532   1.833  10.597  1.0417  0.5653  0.6963
 1065SOL    HW214832   3.553   1.690  10.629  0.6392 -0.2648 -0.3088
 1066SOL     OW14833   3.731   0.406   4.134 -0.1395 -0.0165  0.6291
 1066SOL    HW114834   3.672   0.396   4.059 -1.0882 -0.1176  1.3999
 1066SOL    HW214835   3.700   0.493   4.161 -0.7657  0.3139 -1.0867
 1067SOL     OW14836   4.384   2.729   2.871  0.8347 -0.0431  0.4623
 1067SOL    HW114837   4.409   2.643   2.835  2.8617  1.1023 -0.8990
 1067SOL    HW214838   4.289   2.718   2.880  0.9612  0.5019  2.4315
 1068SOL     OW14839   2.267   2.666  16.066 -0.0069  0.2828 -0.0230
 1068SOL    HW114840   2.224   2.621  15.994  0.7653  1.2665 -1.0940
 1068SOL    HW214841   2.266   2.758  16.038 -6.0343  0.2575 -0.0539
 1069SOL     OW14842   2.320   4.302  15.085  0.0126  0.0891  0.0271
 1069SOL    HW114843   2.398   4.309  15.141  0.5391  0.6670 -0.7755
 1069SOL    HW214844   2.294   4.394  15.089  0.1592  0.1072  0.5444
 1070SOL     OW14845   3.367   1.877   6.626  0.4257 -0.5380  0.7730
 1070SOL    HW114846   3.366   1.968   6.597 -0.2561 -0.9799 -0.6185
 1070SOL    HW214847   3.452   1.859   6.665 -0.4040 -2.5391  1.6892
 1071SOL     OW14848   3.703   4.272  10.596 -0.1113  0.2548  0.0594
 1071SOL    HW114849   3.650   4.348  10.571 -1.0940 -0.4910 -0.1135
 1071SOL    HW214850   3.776   4.327  10.625  0.6543 -1.3321  1.1422
 1072SOL     OW14851   0.429   3.790   8.229  0.2877 -0.1747 -0.4377
 1072SOL    HW114852   0.513   3.746   8.244  0.6657  0.3132 -1.1333
 1072SOL    HW214853   0.392   3.793   8.317 -0.5848 -1.1802 -0.7702
 1073SOL     OW14854   0.556   0.834  12.015  0.5519  0.3064  0.4712
 1073SOL    HW114855   0.583   0.868  11.930 -0.4469 -0.8803 -0.3279
 1073SOL    HW214856   0.642   0.822  12.055  0.6030  2.1079  0.8860
 1074SOL     OW14857   2.359   4.543   9.809  0.5741 -0.3100 -0.4285
 1074SOL    HW114858   2.331   4.487   9.881  0.5808  0.8219  0.4424
 1074SOL    HW214859   2.396   4.476   9.751  1.2189 -1.7380  1.6246
 1075SOL     OW14860   2.760   4.379   8.792  0.5920 -0.4267 -0.5268
 1075SOL    HW114861   2.780   4.325   8.716  1.5629  0.0316 -0.5986
 1075SOL    HW214862   2.833   4.358   8.851 -0.3076 -1.0877  0.3597
 1076SOL     OW14863   0.362   2.150   8.004  0.2645  0.1796 -0.1100
 1076SOL    HW114864   0.420   2.093   7.953  0.2905  0.3113 -0.2269
 1076SOL    HW214865   0.281   2.102   7.986  0.4592 -0.9284  1.8894
 1077SOL     OW14866   4.615   2.340   6.152  0.0807  0.5805 -0.2121
 1077SOL    HW114867   4.611   2.427   6.112  2.2132  0.9176  0.2579
 1077SOL    HW214868   4.706   2.350   6.183  0.6115 -1.6774 -1.0499
 1078SOL     OW14869   4.723   2.785   2.566 -0.2770  0.4898 -0.5203
 1078SOL    HW114870   4.692   2.698   2.545  0.7237  0.5398 -2.1902
 1078SOL    HW214871   0.080   2.779   2.570 -0.1643  0.4982 -2.9594
 1079SOL     OW14872   4.101   4.622   8.077 -0.1044 -0.5955  0.3090
 1079SOL    HW114873   4.181   4.650   8.033 -0.8397 -2.6835 -2.3641
 1079SOL    HW214874   4.107   4.671   8.159  0.6955  1.1239 -0.7706
 1080SOL     OW14875   3.813   3.985   3.592 -0.0951  0.3191  0.3584
 1080SOL    HW114876   3.758   4.062   3.581  0.8056  0.9278  0.1050
 1080SOL    HW214877   3.754   3.921   3.553 -1.0034  0.7335  1.0682
 1081SOL     OW14878   4.280   1.140   3.603 -0.5488 -0.0355 -0.4175
 1081SOL    HW114879   4.374   1.137   3.588 -0.1183  0.4520  2.1079
 1081SOL    HW214880   4.263   1.050   3.575 -0.0977 -0.4119  0.4980
 1082SOL     OW14881   4.010   4.299  16.162 -0.7714 -0.3145 -0.8440
 1082SOL    HW114882   4.097   4.269  16.134  0.5426  1.0075  1.7885
 1082SOL    HW214883   3.951   4.246  16.110 -1.9980 -0.4973  0.7159
 1083SOL     OW14884   3.177   2.080   5.562 -0.3652 -0.0839  0.3582
 1083SOL    HW114885   3.246   2.019   5.538 -0.7035 -0.1568 -0.4535
 1083SOL    HW214886   3.116   2.070   5.488  1.2286  0.1731 -1.0027
 1084SOL     OW14887   3.556   3.300   3.396 -0.1264 -0.2843 -0.5926
 1084SOL    HW114888   3.485   3.255   3.442  1.4699 -1.1343  0.9946
 1084SOL    HW214889   3.601   3.230   3.349 -1.1145 -1.0167 -0.4445
 1085SOL     OW14890   4.167   0.966   3.225 -0.4098 -0.1309 -0.5606
 1085SOL    HW114891   4.127   1.053   3.223 -0.8776 -0.2715  2.4519
 1085SOL    HW214892   4.226   0.973   3.150  2.9241  1.2015  2.2221
 1086SOL     OW14893   0.315   2.022   5.345  0.3815  0.3788 -0.1304
 1086SOL    HW114894   0.246   2.026   5.279  0.4039  1.1610 -0.1086
 1086SOL    HW214895   0.266   2.042   5.425 -1.2129 -0.3686 -0.9170
 1087SOL     OW14896   2.304   1.932  14.157  0.5793  0.1618 -0.1620
 1087SOL    HW114897   2.214   1.940  14.188  0.1725 -1.3124 -0.9516
 1087SOL    HW214898   2.331   1.844  14.183  0.8613  1.1842  3.0549
 1088SOL     OW14899   3.300   4.402  15.690 -0.1492 -0.4459 -0.5845
 1088SOL    HW114900   3.354   4.399  15.769 -0.4056 -2.0706 -0.4637
 1088SOL    HW214901   3.368   4.444  15.637  2.2220 -3.0456  0.3604
 1089SOL     OW14902   1.433   0.060  11.017 -0.1605  0.8301 -0.5105
 1089SOL    HW114903   1.478   4.714  11.023 -0.3169  0.8401  0.7858
 1089SOL    HW214904   1.426   0.071  10.922 -0.7874 -0.4437 -0.6031
 1090SOL     OW14905   0.066   0.087   3.403  0.3605  0.3707  0.5794
 1090SOL    HW114906   0.156   0.076   3.374 -0.1040  0.2623 -0.8197
 1090SOL    HW214907   0.075   0.085   3.498 -0.0964  1.2507  0.6397
 1091SOL     OW14908   4.293   3.342   4.510 -0.0973  0.5405  0.3428
 1091SOL    HW114909   4.279   3.437   4.512 -1.5582  0.3777 -2.3934
 1091SOL    HW214910   4.226   3.317   4.573 -1.4378 -2.0129 -2.0854
 1092SOL     OW14911   1.517   1.986   5.851 -0.0916  0.2620  0.1405
 1092SOL    HW114912   1.458   2.061   5.859 -1.1838 -0.3205 -2.4971
 1092SOL    HW214913   1.505   1.956   5.941  0.3669 -3.2358 -0.9740
 1093SOL     OW14914   1.073   0.663   5.834  0.5661  0.2798  0.0191
 1093SOL    HW114915   1.112   0.701   5.755 -2.0510  2.7774 -0.0873
 1093SOL    HW214916   1.072   0.735   5.897 -2.3472  1.4737 -1.3763
 1094SOL     OW14917   1.118   0.105  10.789  0.2996  0.3560  0.3648
 1094SOL    HW114918   1.072   0.024  10.811 -2.6852  1.7140 -0.8775
 1094SOL    HW214919   1.205   0.069  10.806  0.5803  0.9216  0.1049
 1095SOL     OW14920   0.393   4.015   1.866  0.3107 -0.0574 -0.6238
 1095SOL    HW114921   0.410   4.005   1.959 -1.7360  2.4055  0.0109
 1095SOL    HW214922   0.423   4.103   1.843 -0.5929  0.1495 -1.0279
 1096SOL     OW14923   2.223   2.676  16.979  0.1652 -0.5309  0.0920
 1096SOL    HW114924   2.162   2.743  17.009 -1.3516 -1.5841 -0.6766
 1096SOL    HW214925   2.160   2.612  16.946 -0.6142  0.5913 -0.5667
 1097SOL     OW14926   2.917   3.603   2.737 -0.3475  0.1874 -0.2717
 1097SOL    HW114927   3.006   3.607   2.772  0.5367  0.1003 -2.4929
 1097SOL    HW214928   2.876   3.651   2.808 -1.5555  1.6417 -1.9664
 1098SOL     OW14929   2.446   1.499  14.105  0.8205 -0.2194 -0.1714
 1098SOL    HW114930   2.406   1.412  14.102 -0.0257  0.1688 -0.2062
 1098SOL    HW214931   2.400   1.547  14.037 -3.4954  0.0381  2.9222
 1099SOL     OW14932   1.968   0.446   1.133  0.3846  0.2278 -0.4149
 1099SOL    HW114933   1.968   0.431   1.227  1.8309  1.9765 -0.1439
 1099SOL    HW214934   1.874   0.460   1.124  0.4778  0.8586 -0.3462
 1100SOL     OW14935   2.872   2.523  10.466 -0.1231 -0.1424  0.6023
 1100SOL    HW114936   2.867   2.618  10.474  1.2358 -0.1554  1.6633
 1100SOL    HW214937   2.870   2.507  10.561  1.1074  1.0040  0.8267
 1101SOL     OW14938   3.106   3.709   6.797 -0.1669  0.4591  0.4130
 1101SOL    HW114939   3.056   3.787   6.773  0.5958  0.7303 -0.2960
 1101SOL    HW214940   3.084   3.696   6.889  1.8019  1.5992  1.0506
 1102SOL     OW14941   4.690   0.819   8.018  0.0701  0.3299 -0.1346
 1102SOL    HW114942   4.735   0.790   8.097  0.6283  1.0546 -0.1860
 1102SOL    HW214943   4.599   0.807   8.046  0.1847  1.2467  0.6080
 1103SOL     OW14944   0.305   0.050  12.318 -0.1226 -0.3798 -0.2697
 1103SOL    HW114945   0.248   0.044  12.395  1.1630  0.3263  0.7163
 1103SOL    HW214946   0.329   0.142  12.322 -0.7694 -0.2280  0.0454
 1104SOL     OW14947   1.672   1.466   4.368  0.4722 -0.1246  0.4471
 1104SOL    HW114948   1.750   1.442   4.419 -0.7711 -1.9291  1.4959
 1104SOL    HW214949   1.702   1.435   4.283 -1.5831 -0.7688 -0.0202
 1105SOL     OW14950   2.733   4.695   6.107  0.3728  0.2588 -0.1112
 1105SOL    HW114951   2.685   0.005   6.174  0.3856  0.0153  0.0752
 1105SOL    HW214952   2.807   0.013   6.087 -0.0491  0.3847 -1.3298
 1106SOL     OW14953   0.121   1.296   7.525  0.0043 -0.0937 -0.5921
 1106SOL    HW114954   0.069   1.255   7.594 -1.3367  1.4011 -0.7105
 1106SOL    HW214955   0.078   1.382   7.526  0.8885  0.3588 -1.5137
 1107SOL     OW14956   0.793   0.551   2.541 -0.0672  0.0030  0.2463
 1107SOL    HW114957   0.717   0.607   2.557 -0.0980  0.0947 -0.2317
 1107SOL    HW214958   0.789   0.536   2.447 -1.6852 -0.2358  0.3578
 1108SOL     OW14959   4.218   3.037  12.841 -0.0633 -0.5569  0.0431
 1108SOL    HW114960   4.299   2.987  12.852 -0.5415 -1.3176  0.0568
 1108SOL    HW214961   4.190   3.010  12.754  1.9604 -2.2798 -0.0726
 1109SOL     OW14962   1.075   2.462  12.839  0.1423 -0.0054  0.1947
 1109SOL    HW114963   1.112   2.430  12.922 -0.2975 -0.4923  0.2076
 1109SOL    HW214964   1.004   2.399  12.829  2.1153 -2.0545 -0.9587
 1110SOL     OW14965   1.341   0.630   8.359  0.3180 -0.3481  0.1014
 1110SOL    HW114966   1.259   0.588   8.335  0.0898  0.7529 -1.0152
 1110SOL    HW214967   1.358   0.604   8.450  0.7392 -0.0546  0.1059
 1111SOL     OW14968   0.343   0.227   5.872 -0.5720 -0.2737  0.1178
 1111SOL    HW114969   0.426   0.208   5.828 -0.9350 -0.5538 -0.4444
 1111SOL    HW214970   0.316   0.137   5.892 -0.4133 -0.2922  0.2444
 1112SOL     OW14971   3.334   1.722   1.497 -0.1139 -0.0753  0.6480
 1112SOL    HW114972   3.350   1.812   1.470  1.5528  0.2397  2.6999
 1112SOL    HW214973   3.287   1.734   1.579  1.6959  1.5076  1.4362
 1113SOL     OW14974   3.394   3.897   2.273  0.1311 -0.2473 -0.0951
 1113SOL    HW114975   3.342   3.846   2.335 -0.0934 -3.0199 -2.5936
 1113SOL    HW214976   3.375   3.861   2.187 -1.3973  2.1626 -0.7738
 1114SOL     OW14977   3.228   1.540   8.517  0.1954 -0.0552  0.3225
 1114SOL    HW114978   3.164   1.595   8.472 -0.3685  0.1413  1.3631
 1114SOL    HW214979   3.244   1.596   8.594  0.1442  0.5629 -0.1172
 1115SOL     OW14980   2.370   2.531   2.359  0.3339  0.5132  0.0263
 1115SOL    HW114981   2.322   2.448   2.360  1.5664 -0.1883  0.7764
 1115SOL    HW214982   2.414   2.528   2.274 -0.5924 -0.0414 -0.4366
 1116SOL     OW14983   0.181   0.513  14.283 -0.1389  0.0552  0.5262
 1116SOL    HW114984   0.270   0.481  14.270 -0.1322 -0.3516  1.6205
 1116SOL    HW214985   0.133   0.434  14.304  1.1385 -1.1563 -1.0767
 1117SOL     OW14986   4.180   0.910   2.294  0.3333 -0.4644 -0.1496
 1117SOL    HW114987   4.168   1.003   2.273 -1.8247 -0.3669  1.4678
 1117SOL    HW214988   4.263   0.923   2.339 -0.3663  1.1053  0.6975
 1118SOL     OW14989   1.070   1.253  14.693 -0.0147 -0.5617 -0.5855
 1118SOL    HW114990   1.142   1.306  14.730 -2.0556  0.0636  2.4975
 1118SOL    HW214991   1.035   1.212  14.772 -2.0762  2.5267  0.1178
 1119SOL     OW14992   0.163   3.399   7.490  0.2596  0.0944 -0.3931
 1119SOL    HW114993   0.104   3.338   7.446 -0.8759  0.6612  0.3252
 1119SOL    HW214994   0.139   3.374   7.580 -1.8597  1.0563 -0.6915
 1120SOL     OW14995   3.370   4.239   7.786 -0.5066 -0.1147 -0.4045
 1120SOL    HW114996   3.329   4.156   7.811  1.5912 -0.4041  2.0701
 1120SOL    HW214997   3.382   4.275   7.874  0.5982 -0.8567 -0.2457
 1121SOL     OW14998   3.710   2.583   8.569 -0.1150  0.5959  0.2959
 1121SOL    HW114999   3.735   2.675   8.561  1.1188  0.1772 -0.6149
 1121SOL    HW215000   3.649   2.590   8.642  0.1704 -2.5746  0.8568
 1122SOL     OW15001   3.470   1.907   6.953 -0.1526 -0.1049  0.0301
 1122SOL    HW115002   3.520   1.880   7.030  0.1182  0.4598  0.0537
 1122SOL    HW215003   3.536   1.888   6.887 -0.7354 -1.4453 -0.1543
 1123SOL     OW15004   4.273   0.048   9.081 -0.1566  0.0977 -0.4999
 1123SOL    HW115005   4.350   0.017   9.033  0.9733  1.0706  0.6702
 1123SOL    HW215006   4.204   0.069   9.018 -0.5129 -1.1978 -0.5542
 1124SOL     OW15007   2.741   1.345   6.378  0.3945  0.0129 -0.0599
 1124SOL    HW115008   2.720   1.431   6.342  0.4806 -0.3719 -1.0449
 1124SOL    HW215009   2.787   1.379   6.454  2.0790  0.4293 -1.2442
 1125SOL     OW15010   3.571   3.369   4.602  0.4552  0.1367  0.7452
 1125SOL    HW115011   3.486   3.324   4.610 -0.3648  1.3719 -0.8950
 1125SOL    HW215012   3.570   3.403   4.512 -0.6716 -3.5442 -0.6412
 1126SOL     OW15013   2.333   1.680   6.704 -0.2783 -0.3819  0.5810
 1126SOL    HW115014   2.328   1.638   6.790 -1.6087  0.6512  1.0003
 1126SOL    HW215015   2.242   1.708   6.694 -0.7391 -1.8176  0.7489
 1127SOL     OW15016   3.373   3.101   5.338 -0.1855  0.2219  0.2839
 1127SOL    HW115017   3.403   3.173   5.393 -0.1293  0.7468 -0.4383
 1127SOL    HW215018   3.453   3.053   5.315  0.0340 -0.3999  2.3183
 1128SOL     OW15019   3.935   3.253   7.736  0.0294  0.2411 -0.3475
 1128SOL    HW115020   3.846   3.218   7.735 -0.4640  1.4138  1.1838
 1128SOL    HW215021   3.914   3.346   7.745 -2.3799 -0.2353 -1.1828
 1129SOL     OW15022   0.500   3.972   6.654 -0.0442 -0.4373  0.2623
 1129SOL    HW115023   0.504   4.010   6.742 -2.6850  0.4782 -0.0269
 1129SOL    HW215024   0.473   4.048   6.603  1.9288 -0.5133 -0.9022
 1130SOL     OW15025   2.522   4.615   3.195 -0.7229  0.3011  0.4815
 1130SOL    HW115026   2.591   4.648   3.252 -1.6704  1.8547  0.7186
 1130SOL    HW215027   2.584   4.560   3.147  0.4339  0.9247  1.2833
 1131SOL     OW15028   4.687   4.165  10.096 -0.6898 -0.1809 -0.1464
 1131SOL    HW115029   4.612   4.107  10.081 -0.4289  0.0746 -2.4017
 1131SOL    HW215030   0.015   4.115  10.143 -0.4970  1.6593  1.5235
 1132SOL     OW15031   0.830   1.851   1.164 -0.8989  0.6547  0.4408
 1132SOL    HW115032   0.828   1.929   1.220 -0.7954  0.2818  0.9551
 1132SOL    HW215033   0.837   1.781   1.228 -1.9189 -0.2048 -0.3962
 1133SOL     OW15034   4.618   0.881   5.070  0.1059 -0.4413 -0.3053
 1133SOL    HW115035   4.692   0.849   5.018 -0.5541 -0.6569 -1.0986
 1133SOL    HW215036   4.607   0.965   5.027 -0.0943 -0.0781  0.4498
 1134SOL     OW15037   0.131   0.590  13.400 -0.3018 -0.4105 -0.2954
 1134SOL    HW115038   0.190   0.663  13.417  0.1990 -0.8759 -0.0508
 1134SOL    HW215039   0.079   0.627  13.328 -0.5121  0.3874  0.2726
 1135SOL     OW15040   3.813   1.332   5.521  0.0445  0.1018  0.3458
 1135SOL    HW115041   3.827   1.238   5.534  0.1699  0.2266  1.1142
 1135SOL    HW215042   3.722   1.332   5.492  0.0667  1.9712  0.2738
 1136SOL     OW15043   1.850   1.838   5.214 -0.3170 -0.3083  0.3295
 1136SOL    HW115044   1.765   1.848   5.171  0.1045  3.7581  0.4096
 1136SOL    HW215045   1.907   1.848   5.137 -0.5976 -0.1452  0.1417
 1137SOL     OW15046   2.217   4.106   7.201 -0.3275 -0.8398  0.7354
 1137SOL    HW115047   2.164   4.155   7.264  0.7587  3.1591 -1.4439
 1137SOL    HW215048   2.149   4.047   7.168  0.3653 -0.5587 -1.2169
 1138SOL     OW15049   1.638   1.299   7.900 -0.0128  0.3549  0.0245
 1138SOL    HW115050   1.592   1.234   7.954 -0.7304  1.0258  0.2214
 1138SOL    HW215051   1.709   1.318   7.961 -0.9429  2.2040  0.5569
 1139SOL     OW15052   2.995   3.047   1.067  0.4802 -0.3320 -0.3390
 1139SOL    HW115053   2.957   3.016   1.149  0.2678 -1.7088 -0.9616
 1139SOL    HW215054   3.088   3.058   1.087  0.4595 -1.2726  0.2621
 1140SOL     OW15055   1.935   3.022   4.931  0.0867  0.4800  0.4141
 1140SOL    HW115056   1.973   2.993   5.014 -1.9907 -2.5451  0.2717
 1140SOL    HW215057   1.918   2.942   4.882  3.4596 -0.2911  0.5068
 1141SOL     OW15058   3.170   1.269  17.649  0.0978  0.2720  0.3878
 1141SOL    HW115059   3.103   1.288  17.583  1.1801 -1.2214 -1.1427
 1141SOL    HW215060   3.223   1.205  17.601 -0.7469 -0.3362  0.2750
 1142SOL     OW15061   4.404   0.520   1.778 -0.1871 -0.2874  0.0135
 1142SOL    HW115062   4.355   0.499   1.857 -1.8623  0.8585 -0.7152
 1142SOL    HW215063   4.458   0.595   1.804 -1.9656  1.6605 -1.9121
 1143SOL     OW15064   3.665   1.407   4.321  0.0480  0.0899 -0.5939
 1143SOL    HW115065   3.607   1.482   4.306  2.0032  1.9306  0.8812
 1143SOL    HW215066   3.734   1.467   4.351 -1.1964  0.6778  1.0782
 1144SOL     OW15067   1.871   2.324   2.866  0.0829 -0.6621  0.2190
 1144SOL    HW115068   1.792   2.346   2.815  0.0492  0.0462  0.5789
 1144SOL    HW215069   1.931   2.393   2.840 -1.4880  0.2097 -1.1496
 1145SOL     OW15070   2.303   0.828   6.641 -0.4470 -0.1729  0.2614
 1145SOL    HW115071   2.247   0.820   6.718 -0.7702  1.5673  0.2040
 1145SOL    HW215072   2.325   0.735   6.634  0.8697 -0.0239  2.2618
 1146SOL     OW15073   1.429   1.124   7.933  0.1420  0.6223 -0.0877
 1146SOL    HW115074   1.384   1.142   7.850  3.2450  1.6970 -1.5691
 1146SOL    HW215075   1.351   1.136   7.986 -0.1228  2.8950 -0.9843
 1147SOL     OW15076   3.974   0.421  14.432  0.0651  0.3048 -0.3280
 1147SOL    HW115077   3.914   0.470  14.375  0.1109 -0.8307 -1.3384
 1147SOL    HW215078   4.058   0.465  14.417  0.1430  0.3902  0.3647
 1148SOL     OW15079   2.313   1.985   5.290 -0.3348 -0.0665  0.4475
 1148SOL    HW115080   2.231   1.997   5.337 -0.2206 -0.5177  0.7589
 1148SOL    HW215081   2.334   2.065   5.241  4.4474 -0.6556  1.4684
 1149SOL     OW15082   4.423   2.617  16.574  0.0792  0.3659  0.1746
 1149SOL    HW115083   4.389   2.530  16.554  0.1187  0.4230 -0.1432
 1149SOL    HW215084   4.357   2.675  16.537 -1.9179 -2.9880 -1.5318
 1150SOL     OW15085   3.880   0.226   1.314  0.6544  0.0110  0.8729
 1150SOL    HW115086   3.909   0.198   1.401 -0.0483 -3.8938 -0.1975
 1150SOL    HW215087   3.939   0.300   1.296  2.6314 -1.9227 -0.6218
 1151SOL     OW15088   3.437   2.776   4.279  1.0662 -0.0948 -0.0550
 1151SOL    HW115089   3.458   2.835   4.352  1.1554 -0.1934  0.0003
 1151SOL    HW215090   3.518   2.731   4.255  0.5069 -0.3451 -1.4459
 1152SOL     OW15091   0.635   4.605   7.074  0.1938 -0.1140  0.0986
 1152SOL    HW115092   0.646   4.669   7.145  2.9311 -0.0958 -0.3270
 1152SOL    HW215093   0.715   4.608   7.022 -0.5648 -1.4134 -1.1117
 1153SOL     OW15094   2.257   4.240   8.505 -0.6251  0.5070  0.1545
 1153SOL    HW115095   2.341   4.284   8.508 -0.1215 -0.4630  0.1913
 1153SOL    HW215096   2.249   4.197   8.590 -0.1603  0.2473  0.0602
 1154SOL     OW15097   3.874   3.332   6.342  0.3480  0.2753  0.1164
 1154SOL    HW115098   3.931   3.257   6.358  0.0843  0.8218  3.6590
 1154SOL    HW215099   3.846   3.344   6.432 -4.7161  0.0823 -1.4430
 1155SOL     OW15100   2.028   2.776   3.761  0.4764 -0.3884 -0.1978
 1155SOL    HW115101   2.034   2.683   3.785  1.9942 -0.3577 -0.4471
 1155SOL    HW215102   1.948   2.800   3.809 -1.6258 -1.9627 -2.9525
 1156SOL     OW15103   0.904   1.890   1.862  0.2761 -0.3134 -0.3948
 1156SOL    HW115104   0.962   1.866   1.789 -2.8970 -1.6700 -2.4749
 1156SOL    HW215105   0.957   1.848   1.930 -1.6541 -1.5490  0.3284
 1157SOL     OW15106   2.572   0.793   3.345  0.1536  0.0429 -0.4664
 1157SOL    HW115107   2.628   0.738   3.399  1.2742  0.4996 -1.1599
 1157SOL    HW215108   2.641   0.844   3.302  0.7583 -0.0639  0.3834
 1158SOL     OW15109   4.021   0.747   1.525 -0.0077  0.0447  0.2081
 1158SOL    HW115110   3.951   0.701   1.478  2.3412  0.4557 -3.7327
 1158SOL    HW215111   4.057   0.788   1.446  1.9915  0.5304  1.3751
 1159SOL     OW15112   2.578   0.807   4.130 -0.0725  0.7439  0.2000
 1159SOL    HW115113   2.534   0.748   4.192 -0.8759  0.6636 -0.4551
 1159SOL    HW215114   2.499   0.830   4.083  0.3632 -0.7350 -1.2599
 1160SOL     OW15115   4.220   0.092   5.212  0.1471  0.0876  0.1294
 1160SOL    HW115116   4.189   0.173   5.172  1.2798  0.3744 -0.1853
 1160SOL    HW215117   4.146   0.034   5.194  2.1574 -2.9057  1.5191
 1161SOL     OW15118   1.757   2.944  10.835  0.1708 -0.1513  0.4262
 1161SOL    HW115119   1.715   2.860  10.816 -1.0157  0.5876 -0.2543
 1161SOL    HW215120   1.847   2.913  10.843 -0.0205 -0.7430  0.2385
 1162SOL     OW15121   2.819   2.449  13.710 -0.6644 -0.1310 -0.3394
 1162SOL    HW115122   2.755   2.468  13.641 -1.8150  1.3939  1.1403
 1162SOL    HW215123   2.786   2.378  13.765 -1.5659 -1.8023 -3.0243
 1163SOL     OW15124   3.707   2.260  13.825  0.0412 -0.4275  0.1514
 1163SOL    HW115125   3.676   2.282  13.738  0.5009 -0.6696 -0.0709
 1163SOL    HW215126   3.640   2.293  13.885 -1.0483 -0.6601 -0.9314
 1164SOL     OW15127   0.884   4.276   9.939  0.2634 -0.0118  0.0283
 1164SOL    HW115128   0.880   4.348  10.002  0.9042 -0.9146  1.0921
 1164SOL    HW215129   0.795   4.285   9.903  0.3162  0.2420 -0.0430
 1165SOL     OW15130   3.674   3.389  13.779 -0.3108  0.4601  0.1017
 1165SOL    HW115131   3.607   3.430  13.835 -1.2656  0.1565 -0.8138
 1165SOL    HW215132   3.626   3.306  13.785  0.6120 -0.1286 -0.5898
 1166SOL     OW15133   1.548   4.307   2.704  0.3223  0.1586  0.3521
 1166SOL    HW115134   1.555   4.218   2.738  1.4011  0.9960  2.3822
 1166SOL    HW215135   1.640   4.332   2.707  0.3635  0.0474 -0.0654
 1167SOL     OW15136   2.541   1.285   4.907  0.1358 -0.2660 -0.0778
 1167SOL    HW115137   2.524   1.291   5.001  1.3057 -3.5720  0.3471
 1167SOL    HW215138   2.508   1.368   4.872  0.6076 -1.0912 -2.4945
 1168SOL     OW15139   1.489   3.584   7.080  0.2913  0.2245 -0.8455
 1168SOL    HW115140   1.437   3.504   7.088  1.1812 -0.2572  0.1627
 1168SOL    HW215141   1.573   3.550   7.113 -0.9413 -1.7691  0.1986
 1169SOL     OW15142   0.672   1.479   6.222  0.6658 -0.6549 -0.1088
 1169SOL    HW115143   0.765   1.468   6.242  0.7840  0.5627  0.0177
 1169SOL    HW215144   0.631   1.478   6.309  1.2592 -3.9345  0.1492
 1170SOL     OW15145   3.384   4.721   3.791 -0.1441  0.4073  0.2042
 1170SOL    HW115146   3.334   4.686   3.717 -0.1321 -0.4309  0.5865
 1170SOL    HW215147   3.436   4.641   3.799  0.3213  0.7252  0.3270
 1171SOL     OW15148   3.879   0.516  16.920  0.5035 -0.2156  0.1591
 1171SOL    HW115149   3.910   0.491  16.833  1.4748  2.8924 -0.4196
 1171SOL    HW215150   3.806   0.455  16.917  2.1738 -2.1324 -0.9812
 1172SOL     OW15151   2.957   4.440   9.093  0.4813 -0.0501 -0.8215
 1172SOL    HW115152   3.027   4.484   9.141 -0.5217  0.5871  0.0676
 1172SOL    HW215153   2.946   4.500   9.019 -2.0553  0.2248 -0.2212
 1173SOL     OW15154   2.282   0.264   6.935  0.4134 -0.6640  0.3742
 1173SOL    HW115155   2.325   0.219   7.008  1.4280 -0.8994 -0.3679
 1173SOL    HW215156   2.338   0.244   6.859  1.4795  2.7189  0.2876
 1174SOL     OW15157   1.910   4.147   0.481  0.0159 -0.0498  0.4558
 1174SOL    HW115158   1.923   4.056   0.508  2.0992 -0.2905 -1.3228
 1174SOL    HW215159   1.882   4.172   0.569 -0.7290 -0.1694  0.2550
 1175SOL     OW15160   3.654   2.123   4.882  0.3066 -0.0387 -0.5056
 1175SOL    HW115161   3.638   2.212   4.851 -1.2634  0.2224  1.0222
 1175SOL    HW215162   3.630   2.126   4.975 -2.4090  3.1334 -1.2973
 1176SOL     OW15163   3.958   3.653   4.552  0.3357  0.2294 -0.3381
 1176SOL    HW115164   4.012   3.578   4.578 -0.0869  1.0113  2.8528
 1176SOL    HW215165   3.924   3.680   4.638  1.9520  2.3800 -0.3758
 1177SOL     OW15166   3.404   2.452  13.430  0.1233  0.2639  0.4422
 1177SOL    HW115167   3.352   2.522  13.469  1.0436  0.9390  0.4723
 1177SOL    HW215168   3.363   2.377  13.474  1.2666 -1.0251 -0.7001
 1178SOL     OW15169   2.569   0.175   3.763  0.1515  0.5951  0.1381
 1178SOL    HW115170   2.512   0.106   3.729  1.1390 -0.2306  0.1462
 1178SOL    HW215171   2.510   0.221   3.822 -0.1414  0.5767 -0.1377
 1179SOL     OW15172   3.564   2.919  15.031  0.5352 -0.3774 -0.1931
 1179SOL    HW115173   3.493   2.907  14.968 -1.2687  2.5772  1.3065
 1179SOL    HW215174   3.628   2.930  14.960  1.2857  1.2235  0.7338
 1180SOL     OW15175   2.976   3.010   7.998  0.3100 -0.8138  0.1582
 1180SOL    HW115176   2.963   3.042   8.088 -2.6299  3.5307 -1.8305
 1180SOL    HW215177   3.067   2.980   8.004  0.7531  0.1922 -1.7477
 1181SOL     OW15178   0.839   3.657   8.553 -0.3268  0.1258  0.7139
 1181SOL    HW115179   0.850   3.637   8.646 -1.1758  0.5446  0.9071
 1181SOL    HW215180   0.884   3.587   8.506  1.6694  1.3531  0.7975
 1182SOL     OW15181   1.193   1.229   8.645  0.1891  0.0583 -0.1260
 1182SOL    HW115182   1.236   1.156   8.689  0.8006  0.0862 -0.6714
 1182SOL    HW215183   1.256   1.301   8.648 -1.3002  1.3252  0.7937
 1183SOL     OW15184   0.594   0.339   7.851  0.2425  0.4009 -0.3944
 1183SOL    HW115185   0.614   0.354   7.758  0.0160  2.1288 -0.1555
 1183SOL    HW215186   0.525   0.274   7.842  1.8444 -1.4353  0.4970
 1184SOL     OW15187   4.577   0.916   9.231 -0.4265  0.6919 -0.7419
 1184SOL    HW115188   4.520   0.987   9.201 -0.3916  0.3225 -1.6849
 1184SOL    HW215189   4.515   0.882   9.296  0.5624  0.7014  0.2228
 1185SOL     OW15190   0.942   3.184   6.984 -0.3672 -0.2194 -0.1392
 1185SOL    HW115191   0.874   3.148   7.042  0.1957  3.1342  2.6061
 1185SOL    HW215192   0.892   3.241   6.926 -0.2420 -1.5366 -1.5355
 1186SOL     OW15193   2.285   4.550   3.831  0.0424  0.1128 -0.4597
 1186SOL    HW115194   2.280   4.618   3.898  1.2971 -0.3951  0.1432
 1186SOL    HW215195   2.193   4.525   3.819  0.4294 -1.4511 -0.1643
 1187SOL     OW15196   0.698   0.263   6.076  0.4203 -0.2261  0.2306
 1187SOL    HW115197   0.632   0.329   6.097 -0.2151 -0.4750 -0.9398
 1187SOL    HW215198   0.659   0.186   6.116 -0.0134  0.2490  0.7300
 1188SOL     OW15199   3.707   0.301   4.514  0.1593 -0.3194 -0.3443
 1188SOL    HW115200   3.750   0.345   4.587  0.1325  2.0817 -1.7806
 1188SOL    HW215201   3.664   0.374   4.470  1.0990  0.1453 -0.4965
 1189SOL     OW15202   4.358   2.448   4.151 -0.9834 -0.2925  0.1517
 1189SOL    HW115203   4.367   2.382   4.220 -0.8427  1.9118  2.2099
 1189SOL    HW215204   4.437   2.498   4.169 -1.0841 -0.2714  0.5377
 1190SOL     OW15205   2.189   4.107   5.936  0.0094  0.1933 -0.3431
 1190SOL    HW115206   2.215   4.195   5.962  1.3917 -1.0988  2.6709
 1190SOL    HW215207   2.270   4.057   5.950 -0.3207 -0.2649 -0.0454
 1191SOL     OW15208   3.705   2.368   1.146  0.1789 -0.0991  0.2999
 1191SOL    HW115209   3.675   2.374   1.237  0.1625 -1.5807  0.3900
 1191SOL    HW215210   3.786   2.321   1.162  0.3656  0.0831 -0.1287
 1192SOL     OW15211   0.222   0.652   3.664 -0.1550 -0.0787 -0.0820
 1192SOL    HW115212   0.213   0.600   3.743 -0.9428  0.1994  0.0094
 1192SOL    HW215213   0.177   0.735   3.683  2.3088  1.7319 -2.0530
 1193SOL     OW15214   0.132   2.260   9.116  0.0156  0.4446  0.1788
 1193SOL    HW115215   0.094   2.176   9.089 -1.5301  1.2610 -0.1663
 1193SOL    HW215216   0.187   2.230   9.188 -1.1957  0.0534  0.9282
 1194SOL     OW15217   3.220   0.266   6.078  1.0636 -0.3870  0.2518
 1194SOL    HW115218   3.207   0.246   5.985  2.5804 -1.7289  0.3258
 1194SOL    HW215219   3.133   0.302   6.094  0.2219 -2.6752  0.8992
 1195SOL     OW15220   4.680   4.471  14.882  0.1818 -0.0110  0.0726
 1195SOL    HW115221   4.603   4.414  14.887 -0.2551  0.5482 -0.2343
 1195SOL    HW215222   0.004   4.404  14.854 -0.9118 -1.0124 -0.0004
 1196SOL     OW15223   2.994   1.228  11.505 -0.1329 -0.3999 -0.0780
 1196SOL    HW115224   2.965   1.145  11.543 -1.7355 -0.9390 -2.5654
 1196SOL    HW215225   3.089   1.214  11.507 -0.3782 -2.0017  1.1611
 1197SOL     OW15226   2.871   0.871   2.883  0.0668  0.0599  0.6076
 1197SOL    HW115227   2.841   0.880   2.973 -0.4280  0.9390  0.3594
 1197SOL    HW215228   2.812   0.921   2.826  1.1292 -0.4985 -1.0026
 1198SOL     OW15229   2.258   0.980   6.421  0.0435 -0.1638 -0.2416
 1198SOL    HW115230   2.260   1.069   6.457  1.9164 -1.1079  1.9892
 1198SOL    HW215231   2.279   0.929   6.499  1.9523  0.2201 -0.5103
 1199SOL     OW15232   1.010   3.547   2.334 -0.5790 -0.4355 -0.1466
 1199SOL    HW115233   1.047   3.574   2.418  1.2217 -1.0187 -0.7537
 1199SOL    HW215234   0.921   3.578   2.352 -0.8563 -1.8570  0.9364
 1200SOL     OW15235   3.341   1.395   6.045  0.1145 -0.3557  0.3207
 1200SOL    HW115236   3.303   1.457   6.107  0.9199  0.5539 -0.0883
 1200SOL    HW215237   3.422   1.443   6.026 -0.5810  0.4127 -0.7176
 1201SOL     OW15238   1.063   1.183   9.029  0.2072 -0.7902  0.0342
 1201SOL    HW115239   0.985   1.238   9.028 -0.5150 -1.8192  0.3595
 1201SOL    HW215240   1.023   1.105   8.990  0.7183 -0.8107 -0.4486
 1202SOL     OW15241   3.482   0.585   6.583  0.0168 -0.0436 -0.1222
 1202SOL    HW115242   3.420   0.638   6.631  1.4064  0.5469  1.0160
 1202SOL    HW215243   3.512   0.526   6.653  0.2162  3.2340  2.5362
 1203SOL     OW15244   2.026   1.014   0.853  0.2817 -0.3964  0.1988
 1203SOL    HW115245   2.042   1.043   0.943 -1.7929  0.8003  0.1750
 1203SOL    HW215246   2.096   0.951   0.838  1.5658  1.4511 -1.5794
 1204SOL     OW15247   1.457   1.272   7.112 -0.1444  0.1790  0.1685
 1204SOL    HW115248   1.540   1.315   7.088 -0.5518  0.3180 -1.0237
 1204SOL    HW215249   1.469   1.179   7.131 -1.2680  0.3312  1.5964
 1205SOL     OW15250   4.733   0.109   5.969 -0.2031  0.6303  0.3507
 1205SOL    HW115251   0.012   0.194   5.928 -3.3688  1.4780  0.7760
 1205SOL    HW215252   4.698   0.129   6.056  0.6989 -0.8437  1.0489
 1206SOL     OW15253   1.018   3.834   1.939  0.0139 -0.3769 -0.2918
 1206SOL    HW115254   0.924   3.846   1.956  0.3904 -1.1710  2.3402
 1206SOL    HW215255   1.047   3.920   1.969  0.4443 -0.9796  1.0036
 1207SOL     OW15256   2.298   0.779   4.308  0.5864  0.1967  0.2079
 1207SOL    HW115257   2.316   0.775   4.214  1.3590 -0.6730  0.3897
 1207SOL    HW215258   2.310   0.873   4.325  1.3376  0.2017 -0.3222
 1208SOL     OW15259   0.985   0.236  15.119 -0.2119 -1.0130  0.7669
 1208SOL    HW115260   0.892   0.242  15.142 -0.1287  2.3524  0.1224
 1208SOL    HW215261   0.976   0.248  15.024 -0.9106 -2.5279  0.6291
 1209SOL     OW15262   0.592   1.116   1.932  0.5072  0.1575 -0.0967
 1209SOL    HW115263   0.669   1.069   1.965 -0.6910 -0.1347  2.2552
 1209SOL    HW215264   0.534   1.105   2.007  0.0342  0.0141 -0.4847
 1210SOL     OW15265   1.415   3.328   6.574 -0.8039  0.2804 -0.2922
 1210SOL    HW115266   1.331   3.363   6.544  1.9548  2.9139 -4.8740
 1210SOL    HW215267   1.422   3.255   6.512  0.9894 -0.7170  1.0935
 1211SOL     OW15268   0.443   0.871   7.649  0.1430 -0.0089 -0.1976
 1211SOL    HW115269   0.470   0.821   7.572 -1.8123 -0.5044 -0.5694
 1211SOL    HW215270   0.347   0.862   7.647  0.2249 -0.5836 -1.3246
 1212SOL     OW15271   1.075   3.390   0.572 -0.3390  0.0778 -0.9979
 1212SOL    HW115272   1.132   3.360   0.501  0.2391 -0.2792 -0.3826
 1212SOL    HW215273   1.059   3.480   0.543 -2.5448 -0.1472 -0.5350
 1213SOL     OW15274   0.776   1.944  17.053  0.4602  0.2879  0.0333
 1213SOL    HW115275   0.744   2.029  17.083 -1.7364  0.4315 -2.7301
 1213SOL    HW215276   0.869   1.954  17.075  0.5759 -0.6223 -0.0591
 1214SOL     OW15277   3.024   4.359   1.727  0.4372 -0.0328  0.0045
 1214SOL    HW115278   2.977   4.284   1.763  1.8758 -0.2945  1.3055
 1214SOL    HW215279   2.986   4.349   1.639 -0.1049  0.9855  0.1152
 1215SOL     OW15280   2.254   0.261   7.405  0.3604  0.2744  0.9584
 1215SOL    HW115281   2.180   0.231   7.351 -1.4145  1.7980  2.5328
 1215SOL    HW215282   2.318   0.192   7.391 -2.6498 -1.5717 -3.6296
 1216SOL     OW15283   4.729   0.822  14.546 -1.0467 -0.1603 -0.4454
 1216SOL    HW115284   4.680   0.879  14.488 -0.9280 -0.7785 -1.1589
 1216SOL    HW215285   4.656   0.782  14.593 -0.8818 -0.7965 -0.7230
 1217SOL     OW15286   3.248   2.394   0.881  0.1559  0.0343  0.3518
 1217SOL    HW115287   3.329   2.387   0.932  0.9084  0.7840 -0.7175
 1217SOL    HW215288   3.240   2.489   0.889  1.8507  0.5390 -3.5749
 1218SOL     OW15289   2.557   3.412   3.823  0.4165  0.1116  0.3577
 1218SOL    HW115290   2.646   3.395   3.792  0.8152 -0.2282  1.6792
 1218SOL    HW215291   2.522   3.325   3.843 -1.2048  0.9709  1.2304
 1219SOL     OW15292   4.214   2.477   1.627 -0.2269  0.0270  0.0781
 1219SOL    HW115293   4.241   2.547   1.686 -0.5908  2.0520 -2.1567
 1219SOL    HW215294   4.121   2.482   1.650  0.1390  1.8872  1.1172
 1220SOL     OW15295   3.656   0.891   6.143 -0.0032 -0.1656  0.0876
 1220SOL    HW115296   3.606   0.816   6.110  0.0399  0.1768 -0.7698
 1220SOL    HW215297   3.646   0.864   6.234  1.9511 -2.2058 -0.3059
 1221SOL     OW15298   3.134   0.118   4.127 -0.1448  0.9669  0.0573
 1221SOL    HW115299   3.125   0.044   4.066  1.8364  0.6148  0.1743
 1221SOL    HW215300   3.205   0.091   4.186 -0.7599 -2.4535 -0.7275
 1222SOL     OW15301   3.356   2.252   0.469 -0.0621 -0.2898  0.2529
 1222SOL    HW115302   3.301   2.329   0.457  1.3388  0.9818  1.9411
 1222SOL    HW215303   3.352   2.220   0.379  3.4996  0.8491 -0.2893
 1223SOL     OW15304   2.827   0.059   5.684  0.4112 -0.2827 -0.1058
 1223SOL    HW115305   2.808   0.020   5.599  0.6208 -0.7574  0.0630
 1223SOL    HW215306   2.880   0.135   5.658 -1.6494  1.7097  1.5473
 1224SOL     OW15307   2.396   4.174  12.880  0.2939 -0.1637 -0.2782
 1224SOL    HW115308   2.458   4.238  12.843 -0.7635  1.5184  0.8591
 1224SOL    HW215309   2.407   4.099  12.822  0.5867 -0.8589  0.6830
 1225SOL     OW15310   3.075   1.295   0.150  0.3346  0.0808  0.2518
 1225SOL    HW115311   3.094   1.278   0.058 -0.9575 -1.3825  0.2526
 1225SOL    HW215312   3.063   1.390   0.157 -0.9386 -0.1104  0.5728
 1226SOL     OW15313   4.487   2.560  11.306  0.3642  0.2438 -0.3681
 1226SOL    HW115314   4.549   2.568  11.233 -1.0033  1.9818 -1.3260
 1226SOL    HW215315   4.544   2.506  11.362  0.3658 -2.4081 -2.9370
 1227SOL     OW15316   0.872   3.609   0.760 -0.6127  0.1565 -0.0533
 1227SOL    HW115317   0.825   3.558   0.694  1.9805  0.8032 -2.3948
 1227SOL    HW215318   0.797   3.631   0.815  0.9141 -1.5263  2.6818
 1228SOL     OW15319   1.371   0.013  12.921  0.4178  0.2138 -0.2439
 1228SOL    HW115320   1.456   0.029  12.880  1.0106  0.8854  1.2408
 1228SOL    HW215321   1.325   0.090  12.888 -0.2828  0.5702  1.5398
 1229SOL     OW15322   0.859   4.228   8.222  0.0553  0.4897 -0.0257
 1229SOL    HW115323   0.940   4.271   8.249 -0.4479 -0.4162  2.9222
 1229SOL    HW215324   0.802   4.253   8.295  0.3170 -0.2254  0.4229
 1230SOL     OW15325   3.340   0.747   6.727 -0.6639  0.0849  0.0290
 1230SOL    HW115326   3.384   0.759   6.811  1.7730  3.1905 -1.6890
 1230SOL    HW215327   3.367   0.827   6.682 -1.9730 -0.2368 -1.3414
 1231SOL     OW15328   3.207   1.464   4.188 -0.2252 -0.4043 -0.1580
 1231SOL    HW115329   3.211   1.554   4.157  0.9155 -0.2324  0.5011
 1231SOL    HW215330   3.297   1.436   4.169 -1.2300 -2.1471 -2.4245
 1232SOL     OW15331   1.176   4.286   3.918 -0.3133  0.1087  0.4171
 1232SOL    HW115332   1.132   4.251   3.996 -2.1539  0.5853 -0.4095
 1232SOL    HW215333   1.246   4.328   3.968 -0.6049  0.1804  0.7647
 1233SOL     OW15334   3.500   3.434   0.838  1.2829  0.0524  0.1888
 1233SOL    HW115335   3.513   3.339   0.841 -0.3624 -0.1515  0.6144
 1233SOL    HW215336   3.531   3.453   0.927  1.1382 -2.0158  0.6655
 1234SOL     OW15337   4.014   3.751   3.198  0.1187 -0.6005  0.4150
 1234SOL    HW115338   4.017   3.847   3.196  2.3100 -0.6724  0.6066
 1234SOL    HW215339   3.948   3.741   3.129 -0.1234  1.3344  0.3607
 1235SOL     OW15340   4.301   0.319   2.729  0.2595  0.2093  0.2345
 1235SOL    HW115341   4.309   0.224   2.718 -0.5543  0.0190  1.2491
 1235SOL    HW215342   4.267   0.313   2.818 -2.8179  3.4431 -0.7065
 1236SOL     OW15343   0.446   0.518   5.677 -0.0447  0.5820  0.1438
 1236SOL    HW115344   0.352   0.525   5.694 -0.0384 -1.3504  0.9759
 1236SOL    HW215345   0.440   0.454   5.606 -1.0777  0.9091 -0.0630
 1237SOL     OW15346   3.068   4.681   8.097  0.1267  0.2775  0.0602
 1237SOL    HW115347   3.123   4.615   8.137  1.5334  0.7664 -1.0640
 1237SOL    HW215348   3.123   4.715   8.027  2.1540 -1.1653  0.9768
 1238SOL     OW15349   1.820   2.201   3.812 -0.6988  0.0952  0.2913
 1238SOL    HW115350   1.811   2.117   3.767 -0.9067 -0.7972  1.9916
 1238SOL    HW215351   1.727   2.223   3.811 -0.5900  0.5940  0.7027
 1239SOL     OW15352   1.920   4.587   4.725  0.8299 -0.1608 -0.2638
 1239SOL    HW115353   1.961   4.674   4.730  0.3641 -0.0207  1.1423
 1239SOL    HW215354   1.829   4.616   4.713  0.3026 -0.4257  3.0349
 1240SOL     OW15355   2.667   2.299  16.430  0.0460  0.4938  0.1275
 1240SOL    HW115356   2.581   2.339  16.443  0.8049  1.4781  2.0886
 1240SOL    HW215357   2.729   2.367  16.457  0.3535 -0.9835  3.1277
 1241SOL     OW15358   2.944   1.284   7.059  0.8445 -0.4947  0.4245
 1241SOL    HW115359   2.880   1.345   7.023  1.3239 -1.3745 -1.9010
 1241SOL    HW215360   2.941   1.212   6.997  1.5944 -2.2034  2.3982
 1242SOL     OW15361   1.300   1.932   4.756 -0.0104  0.4429  0.2709
 1242SOL    HW115362   1.333   1.847   4.727 -1.3507 -0.6139  1.8350
 1242SOL    HW215363   1.211   1.939   4.721 -1.2767 -0.3786  3.3252
 1243SOL     OW15364   2.802   4.660   4.211  0.0201 -0.4129  0.3728
 1243SOL    HW115365   2.727   4.600   4.208 -1.6518  1.6784  0.0366
 1243SOL    HW215366   2.807   4.683   4.118 -0.4123  0.7955  0.6530
 1244SOL     OW15367   1.451   3.124   6.780 -0.1310  0.2792  0.0296
 1244SOL    HW115368   1.436   3.071   6.701 -0.2682  2.0720 -1.1454
 1244SOL    HW215369   1.463   3.211   6.744  0.6519  0.3465  0.4509
 1245SOL     OW15370   4.233   0.055   7.273 -0.1833  0.8140 -0.1774
 1245SOL    HW115371   4.267   0.090   7.191 -0.5120  0.4654 -0.4664
 1245SOL    HW215372   4.282   0.113   7.331  0.0907  0.9830 -0.5866
 1246SOL     OW15373   2.178   1.331   8.295  0.3250  0.5119 -0.5849
 1246SOL    HW115374   2.108   1.268   8.278 -0.0590  0.0905  2.6058
 1246SOL    HW215375   2.159   1.376   8.213 -0.4579  1.1880 -0.0329
 1247SOL     OW15376   3.887   3.034  16.448 -0.3118 -0.2880 -0.1855
 1247SOL    HW115377   3.913   2.977  16.520 -2.3350 -1.2173 -0.1888
 1247SOL    HW215378   3.807   2.985  16.427 -1.4465  1.2075  0.6585
 1248SOL     OW15379   4.570   1.584   6.434 -0.4533  0.0578 -0.2163
 1248SOL    HW115380   4.536   1.663   6.393  0.0903 -1.1985 -3.0853
 1248SOL    HW215381   4.534   1.519   6.374  0.1151  0.3181 -0.8455
 1249SOL     OW15382   3.810   0.979   8.577 -0.2195  0.1566 -0.1708
 1249SOL    HW115383   3.840   1.064   8.610 -0.7880  0.6892 -1.0006
 1249SOL    HW215384   3.888   0.965   8.525 -0.0828  0.5250 -0.0706
 1250SOL     OW15385   4.124   1.001  10.594 -0.7077 -0.0273 -0.7093
 1250SOL    HW115386   4.167   0.919  10.619 -0.8364 -0.3431 -1.4996
 1250SOL    HW215387   4.143   0.990  10.500 -0.1626 -1.3169 -0.4488
 1251SOL     OW15388   1.958   0.088  17.383  1.1135  0.2967  0.0268
 1251SOL    HW115389   1.981   0.064  17.473 -0.3415 -0.6587  0.1459
 1251SOL    HW215390   1.974   0.181  17.370 -0.4675  0.5850  0.1618
 1252SOL     OW15391   2.584   4.435   5.849 -0.0246  0.8575 -0.2170
 1252SOL    HW115392   2.490   4.448   5.837  0.3028  1.4750 -2.1117
 1252SOL    HW215393   2.612   4.527   5.843 -1.7008  1.2927 -1.4125
 1253SOL     OW15394   0.389   0.758  14.367 -0.4027  0.0590 -0.5481
 1253SOL    HW115395   0.346   0.826  14.314  1.4098  1.7555  0.1305
 1253SOL    HW215396   0.365   0.677  14.323  0.3703 -0.3731 -0.1562
 1254SOL     OW15397   0.927   1.432   4.601  0.7205  0.5879 -0.3049
 1254SOL    HW115398   0.993   1.406   4.537  0.9602 -1.4829  0.7935
 1254SOL    HW215399   0.979   1.432   4.682 -1.4588 -3.5574  1.0461
 1255SOL     OW15400   0.372   0.027   6.636  0.4119  0.5753  0.3111
 1255SOL    HW115401   0.330   0.087   6.698  0.3630  0.4836  0.3658
 1255SOL    HW215402   0.405   0.095   6.576  1.3191 -1.7654 -1.8286
 1256SOL     OW15403   0.003   3.921  16.564 -0.4620 -0.5850 -0.1674
 1256SOL    HW115404   0.091   3.916  16.527  1.2674 -1.2215  4.0808
 1256SOL    HW215405   4.683   3.969  16.505  1.2072 -1.1842 -2.2970
 1257SOL     OW15406   2.128   2.838   3.518  0.0852  0.4252 -0.0835
 1257SOL    HW115407   2.096   2.828   3.608  0.7341  2.5623  0.3692
 1257SOL    HW215408   2.114   2.932   3.509  0.4185  0.3889 -0.9141
 1258SOL     OW15409   2.567   3.139   7.784 -0.3041 -0.0460 -0.5454
 1258SOL    HW115410   2.552   3.196   7.709  1.9700  1.2877  0.0367
 1258SOL    HW215411   2.476   3.140   7.816  0.3500  0.6930  1.2646
 1259SOL     OW15412   2.687   2.789  10.753  0.4423  0.4645  0.2238
 1259SOL    HW115413   2.681   2.703  10.795 -1.1050  0.4310 -0.0681
 1259SOL    HW215414   2.781   2.808  10.749  0.2229  1.0076 -2.2707
 1260SOL     OW15415   1.328   0.957   8.261  0.6668  0.2499 -0.6624
 1260SOL    HW115416   1.344   0.963   8.355 -3.5080  2.0940 -0.0228
 1260SOL    HW215417   1.235   0.941   8.278  0.8506 -1.7601 -1.6858
 1261SOL     OW15418   4.200   3.411   7.033 -0.3180 -0.6753 -0.4764
 1261SOL    HW115419   4.292   3.433   7.023 -0.0742 -1.6473 -0.3679
 1261SOL    HW215420   4.167   3.468   6.963 -1.1459 -0.1480  0.3513
 1262SOL     OW15421   2.133   1.389   9.683 -0.5857 -0.1319  0.1431
 1262SOL    HW115422   2.066   1.322   9.686  0.6885 -1.2177  4.3300
 1262SOL    HW215423   2.149   1.408   9.775  0.0390  1.4504 -0.2826
 1263SOL     OW15424   4.671   2.768  14.805 -0.3042  0.3960 -0.5744
 1263SOL    HW115425   4.717   2.767  14.889 -1.1217 -1.4563 -0.1515
 1263SOL    HW215426   4.656   2.673  14.803  1.3802  0.0943  1.2801
 1264SOL     OW15427   4.247   0.643   0.969 -0.1486  0.1946  0.0188
 1264SOL    HW115428   4.310   0.715   0.980 -0.0450 -0.1023  1.4053
 1264SOL    HW215429   4.192   0.684   0.902  0.4552  1.2028  0.1417
 1265SOL     OW15430   2.396   3.753   6.633  0.0011  0.5605  0.0841
 1265SOL    HW115431   2.359   3.789   6.713 -0.8282 -2.0640  0.8895
 1265SOL    HW215432   2.368   3.813   6.564 -3.2386  0.6040  1.4588
 1266SOL     OW15433   1.372   2.912   1.628  0.4990  0.6549  0.1664
 1266SOL    HW115434   1.299   2.850   1.626 -0.3891  1.6887  0.9909
 1266SOL    HW215435   1.345   2.970   1.556  1.1965 -0.0026 -0.6357
 1267SOL     OW15436   3.422   2.639   6.600  0.2279  0.0050 -0.6442
 1267SOL    HW115437   3.451   2.713   6.546  1.8754  0.4901  0.8707
 1267SOL    HW215438   3.441   2.559   6.552 -0.7468 -0.5377 -0.1087
 1268SOL     OW15439   0.455   4.702   8.225  0.0519 -0.1038  0.3491
 1268SOL    HW115440   0.381   4.669   8.173  0.7523  1.3413 -1.5478
 1268SOL    HW215441   0.518   4.704   8.153 -0.1173 -2.7685  0.1365
 1269SOL     OW15442   0.383   1.606  11.770  0.3807  0.1017  0.1341
 1269SOL    HW115443   0.426   1.674  11.719 -1.9839  1.0781 -0.5742
 1269SOL    HW215444   0.367   1.644  11.856  1.6449 -0.3996  0.5825
 1270SOL     OW15445   3.632   4.089   7.927 -0.6842  0.0345  0.0402
 1270SOL    HW115446   3.565   4.089   7.995 -1.4644  2.0083 -0.7219
 1270SOL    HW215447   3.593   4.022   7.871  1.5667 -0.2632 -1.1856
 1271SOL     OW15448   3.796   3.119  15.161  0.1896 -0.6550 -0.4590
 1271SOL    HW115449   3.822   3.089  15.248  1.1263 -1.7585 -1.1280
 1271SOL    HW215450   3.850   3.199  15.161 -2.0511  0.8603  1.6236
 1272SOL     OW15451   4.417   0.835   1.037  0.0837  0.3607  0.0829
 1272SOL    HW115452   4.512   0.826   1.037  0.0944  0.5324 -1.2599
 1272SOL    HW215453   4.409   0.931   1.039 -0.6339  0.3513 -2.9912
 1273SOL     OW15454   1.935   3.866   5.455  0.9381  0.0933  0.1036
 1273SOL    HW115455   1.842   3.844   5.447  0.8989  0.9915 -1.8633
 1273SOL    HW215456   1.941   3.934   5.388 -1.5881  1.7407  1.5788
 1274SOL     OW15457   1.503   1.637   8.011 -0.1796  0.4611  0.3591
 1274SOL    HW115458   1.522   1.684   7.930 -0.3170 -0.4658 -0.2126
 1274SOL    HW215459   1.520   1.551   7.973 -0.9423 -0.5473  2.3236
 1275SOL     OW15460   0.764   0.235   4.079  0.4368 -0.1220 -0.2499
 1275SOL    HW115461   0.709   0.157   4.068  1.1758 -0.1993 -3.3593
 1275SOL    HW215462   0.738   0.254   4.169  0.4612  0.7533 -0.4327
 1276SOL     OW15463   0.799   1.706   7.085  0.3150 -0.5443  0.1426
 1276SOL    HW115464   0.723   1.695   7.028 -1.5295  0.7353  2.3485
 1276SOL    HW215465   0.786   1.799   7.103  2.8003 -0.3844  1.1847
 1277SOL     OW15466   2.565   4.072   8.313  0.3477  0.1029  0.2208
 1277SOL    HW115467   2.653   4.049   8.339  0.1074  0.6286  1.4813
 1277SOL    HW215468   2.573   4.137   8.242 -0.4313  0.5499  0.5378
 1278SOL     OW15469   2.095   2.916   5.438 -0.0925 -0.0738  0.2740
 1278SOL    HW115470   2.066   2.984   5.500  0.0180  0.7426 -0.5676
 1278SOL    HW215471   2.143   2.972   5.377 -0.4025 -0.3677 -0.2365
 1279SOL     OW15472   3.499   2.589   5.417 -0.3880 -0.5365  0.0503
 1279SOL    HW115473   3.454   2.506   5.430 -0.0322 -1.1482 -2.6003
 1279SOL    HW215474   3.426   2.652   5.411 -2.1368 -2.6446 -0.9041
 1280SOL     OW15475   0.944   0.346   3.163 -0.2182  1.0318 -0.1927
 1280SOL    HW115476   0.979   0.305   3.085  2.0871  1.1229  0.7861
 1280SOL    HW215477   0.949   0.272   3.224  0.4720  2.1928  1.1683
 1281SOL     OW15478   3.399   0.686   2.134  0.0499 -0.0855 -0.2143
 1281SOL    HW115479   3.330   0.750   2.154 -1.7177 -1.9138 -0.4587
 1281SOL    HW215480   3.379   0.617   2.198  1.4278 -0.2562  0.0349
 1282SOL     OW15481   1.007   2.915   8.698  0.0393  0.2086 -0.0851
 1282SOL    HW115482   0.920   2.886   8.669  0.3047 -0.5241 -0.1623
 1282SOL    HW215483   1.014   2.856   8.773  0.5874  0.0571 -0.2549
 1283SOL     OW15484   3.824   2.989   0.570  0.3492  0.1409 -0.1864
 1283SOL    HW115485   3.826   2.894   0.566 -1.5284  0.0971  0.0003
 1283SOL    HW215486   3.785   3.010   0.654 -2.0272  1.4734 -1.6130
 1284SOL     OW15487   3.062   1.712   8.408  0.1443  0.3937  0.6922
 1284SOL    HW115488   2.999   1.723   8.336  2.6025  2.8032 -1.0849
 1284SOL    HW215489   3.058   1.802   8.438  1.2541  0.7395 -0.1944
 1285SOL     OW15490   2.891   4.535   3.495  0.0032 -0.1705 -0.0853
 1285SOL    HW115491   2.852   4.583   3.423 -0.1471 -0.9536 -0.5308
 1285SOL    HW215492   2.817   4.517   3.554 -0.5775  2.0204 -0.1802
 1286SOL     OW15493   2.452   0.950   4.661  0.7976  0.2004  0.5653
 1286SOL    HW115494   2.480   1.038   4.637  1.3721  0.0729  0.7635
 1286SOL    HW215495   2.431   0.957   4.754 -0.1160  2.6077  0.1560
 1287SOL     OW15496   4.337   4.106  16.529  0.1327  0.5346  0.5686
 1287SOL    HW115497   4.321   4.062  16.612  0.7510 -0.8267 -0.0282
 1287SOL    HW215498   4.253   4.149  16.515 -0.0309  0.7533  2.2723
 1288SOL     OW15499   3.071   4.174   8.469 -0.2709 -0.0331 -0.1454
 1288SOL    HW115500   3.008   4.186   8.399 -0.2135  2.4061  0.2083
 1288SOL    HW215501   3.141   4.231   8.438 -0.6025 -0.4328 -1.6349
 1289SOL     OW15502   4.637   2.431  14.611 -0.2359  0.4481  0.4302
 1289SOL    HW115503   4.604   2.444  14.700 -1.0425  0.4683  0.1260
 1289SOL    HW215504   4.728   2.429  14.640 -0.4573  1.5257  1.1910
 1290SOL     OW15505   0.563   0.156   9.413  0.6745  0.3573 -0.1015
 1290SOL    HW115506   0.652   0.158   9.448  1.0104 -2.5836 -0.7586
 1290SOL    HW215507   0.546   0.250   9.415  0.3847  0.2460  3.6765
 1291SOL     OW15508   4.240   2.440  11.366  0.5488 -0.3160 -0.3195
 1291SOL    HW115509   4.249   2.367  11.305  0.6230 -0.2448 -0.3938
 1291SOL    HW215510   4.307   2.499  11.333  0.8693  0.4263  1.6250
 1292SOL     OW15511   0.180   1.082   4.889  0.0125 -0.1184  0.4697
 1292SOL    HW115512   0.221   1.091   4.975 -0.2629 -1.5326  0.7469
 1292SOL    HW215513   0.209   1.159   4.840 -0.5466 -0.5402 -0.5359
 1293SOL     OW15514   3.270   1.247  16.979  0.5391  0.0576 -0.2558
 1293SOL    HW115515   3.285   1.253  16.885 -0.6481  0.4678 -0.4227
 1293SOL    HW215516   3.232   1.159  16.982 -0.1141  0.3819  1.2153
 1294SOL     OW15517   0.471   2.398   5.099  0.3607 -0.9357  0.0041
 1294SOL    HW115518   0.555   2.441   5.113 -0.3951  0.8325 -0.9691
 1294SOL    HW215519   0.448   2.430   5.012 -0.3820 -2.2781 -0.3052
 1295SOL     OW15520   1.017   4.268   5.826 -0.1810 -0.0144 -0.1736
 1295SOL    HW115521   0.995   4.187   5.779  3.4215 -0.8146 -0.4822
 1295SOL    HW215522   1.082   4.297   5.762  0.4306  0.5434  0.7209
 1296SOL     OW15523   1.372   3.430  15.353  0.0339 -0.4870 -0.5314
 1296SOL    HW115524   1.421   3.506  15.385  0.3887 -0.6753 -0.6273
 1296SOL    HW215525   1.366   3.444  15.259  2.1193 -0.3330 -0.6455
 1297SOL     OW15526   1.946   4.702   7.205  1.2047  0.4653  0.4278
 1297SOL    HW115527   1.948   4.629   7.142 -0.4135  0.2718  0.5997
 1297SOL    HW215528   2.018   4.684   7.266 -0.3267 -0.0455  2.1041
 1298SOL     OW15529   0.618   1.804   4.472 -0.4789  0.3700  0.1176
 1298SOL    HW115530   0.598   1.892   4.441  0.9704  0.4149 -0.6903
 1298SOL    HW215531   0.552   1.749   4.429 -0.7462  1.1339 -0.4495
 1299SOL     OW15532   4.207   0.399   4.304  0.2545 -0.3043  0.0291
 1299SOL    HW115533   4.274   0.353   4.353  1.8385  0.5384 -1.3312
 1299SOL    HW215534   4.160   0.444   4.374 -0.8573 -2.2871  0.5448
 1300SOL     OW15535   0.814   0.753   8.714 -0.0448 -0.7824  0.5332
 1300SOL    HW115536   0.804   0.840   8.752  0.1005  0.3597 -2.0341
 1300SOL    HW215537   0.902   0.761   8.679 -0.0812  0.7503  0.8102
 1301SOL     OW15538   2.939   0.651  16.502 -0.3884  0.0325 -0.0999
 1301SOL    HW115539   2.888   0.637  16.582  0.5818  0.5584  0.6100
 1301SOL    HW215540   3.020   0.686  16.539  0.3521  0.3196 -1.9982
 1302SOL     OW15541   2.051   1.815   9.457 -0.4516  0.0411 -0.7972
 1302SOL    HW115542   2.084   1.814   9.547 -0.7303 -1.6004 -0.7249
 1302SOL    HW215543   2.132   1.845   9.417  1.3209 -2.0602  1.2484
 1303SOL     OW15544   2.830   0.246   7.269  0.4857  0.5708 -0.3825
 1303SOL    HW115545   2.821   0.182   7.339 -1.5038  2.5812  1.1752
 1303SOL    HW215546   2.782   0.197   7.203 -2.1321  3.5347 -0.6599
 1304SOL     OW15547   0.222   2.624  14.909 -0.5891  0.3605 -0.3009
 1304SOL    HW115548   0.264   2.576  14.981  0.6444  3.9417  1.3560
 1304SOL    HW215549   0.177   2.686  14.966  0.1492  0.8847 -0.2828
 1305SOL     OW15550   2.233   4.556  12.361 -0.2371  0.1887  0.2170
 1305SOL    HW115551   2.171   4.603  12.417 -1.4178 -1.0878 -0.0247
 1305SOL    HW215552   2.227   4.608  12.281  0.3941  1.7553  1.1861
 1306SOL     OW15553   2.123   2.709  17.328  0.3993 -0.2623  0.0548
 1306SOL    HW115554   2.083   2.743  17.248 -1.6554  0.8678  1.5568
 1306SOL    HW215555   2.053   2.721  17.392 -0.1665 -0.0817 -0.6007
 1307SOL     OW15556   4.446   4.043   2.793 -0.6458 -0.2012  0.0339
 1307SOL    HW115557   4.446   3.948   2.799 -2.5764 -0.1018  1.5942
 1307SOL    HW215558   4.352   4.055   2.802 -0.3163  0.8469  2.4577
 1308SOL     OW15559   3.212   3.545  15.643 -0.3584  0.2131 -0.1508
 1308SOL    HW115560   3.235   3.492  15.719  0.8358  0.7310 -0.1551
 1308SOL    HW215561   3.157   3.480  15.598  0.7721 -1.2131  0.5152
 1309SOL     OW15562   2.872   4.407   6.396  0.2673 -0.7421  0.0026
 1309SOL    HW115563   2.856   4.396   6.302  0.7987  0.2913 -0.2147
 1309SOL    HW215564   2.968   4.402   6.392  0.3154 -0.8869  1.4844
 1310SOL     OW15565   0.162   0.759   6.313  0.2203  0.5274 -0.4411
 1310SOL    HW115566   0.105   0.685   6.293  0.7830 -0.9878  3.6334
 1310SOL    HW215567   0.094   0.827   6.316  0.8276  1.1589 -0.9186
 1311SOL     OW15568   0.134   4.105  13.175  0.2737  0.4499  0.1157
 1311SOL    HW115569   0.168   4.041  13.112 -1.0240  0.5305 -0.6826
 1311SOL    HW215570   0.052   4.131  13.133 -1.1852 -0.1057  2.6200
 1312SOL     OW15571   0.944   0.794   9.900  0.7448 -0.5106 -0.9407
 1312SOL    HW115572   0.950   0.727   9.968  2.3759  1.1748  0.5611
 1312SOL    HW215573   0.850   0.814   9.910  1.2625  0.5872  1.7048
 1313SOL     OW15574   1.793   2.592   5.220  0.0597 -0.3069 -0.0669
 1313SOL    HW115575   1.874   2.640   5.238 -0.3528  1.4236 -2.9080
 1313SOL    HW215576   1.797   2.534   5.296 -0.9128 -0.9692 -0.5182
 1314SOL     OW15577   3.041   2.149   4.059 -0.4725  0.2433 -0.0137
 1314SOL    HW115578   3.085   2.225   4.021  0.4408 -0.2521  0.0441
 1314SOL    HW215579   3.060   2.095   3.982  0.2825 -1.4445  1.3417
 1315SOL     OW15580   3.380   1.609   4.593 -0.0816 -0.7305  0.5018
 1315SOL    HW115581   3.426   1.645   4.517  0.9756 -1.9927  0.5473
 1315SOL    HW215582   3.323   1.546   4.549 -2.7796  1.5372  0.7911
 1316SOL     OW15583   3.001   4.093   7.507 -0.6812  0.0778  0.2702
 1316SOL    HW115584   2.940   4.104   7.434  0.1171 -1.2730 -0.6198
 1316SOL    HW215585   3.069   4.046   7.458  0.1259  1.9310 -0.4142
 1317SOL     OW15586   2.082   2.210   3.789  0.7776 -0.3200 -0.1995
 1317SOL    HW115587   1.986   2.213   3.793  0.9666  3.3428  1.5901
 1317SOL    HW215588   2.097   2.221   3.695 -0.5286  0.3118 -0.3389
 1318SOL     OW15589   1.381   0.735  10.120  0.2484 -0.2067  0.4007
 1318SOL    HW115590   1.454   0.769  10.172 -0.3392  0.1973  0.9634
 1318SOL    HW215591   1.391   0.786  10.040  0.8198  0.0101  0.6101
 1319SOL     OW15592   4.536   0.123  10.058 -0.4466  0.1244  0.5845
 1319SOL    HW115593   4.629   0.104  10.042 -0.9267 -0.7828 -1.1491
 1319SOL    HW215594   4.520   0.086  10.146 -0.8301 -0.5002  0.2540
 1320SOL     OW15595   0.791   2.805   8.621  0.1953  0.2580  0.2643
 1320SOL    HW115596   0.752   2.835   8.539  1.3191  1.2964  0.1058
 1320SOL    HW215597   0.716   2.757   8.656  1.4145 -1.3079  0.7132
 1321SOL     OW15598   2.755   4.331  11.003 -0.0555 -0.4066 -0.6437
 1321SOL    HW115599   2.760   4.302  11.094  2.8399 -0.9680 -0.9590
 1321SOL    HW215600   2.848   4.310  10.994  0.1332 -0.5351  1.7244
 1322SOL     OW15601   3.302   3.044   6.046  0.3386  0.1831 -0.9367
 1322SOL    HW115602   3.329   2.957   6.074  0.2771  0.4162 -0.1425
 1322SOL    HW215603   3.387   3.076   6.015  1.6037 -0.7602  1.6137
 1323SOL     OW15604   2.595   3.740   0.809  0.0783  0.3276 -0.1669
 1323SOL    HW115605   2.686   3.713   0.822  0.3084  0.7197 -0.9587
 1323SOL    HW215606   2.581   3.808   0.876  1.8292  0.5964 -0.0584
 1324SOL     OW15607   4.653   3.982   3.308 -0.1044 -0.4118  0.1932
 1324SOL    HW115608   4.706   3.985   3.228  0.7397  0.8135  0.7937
 1324SOL    HW215609   4.585   3.918   3.289 -1.0442  0.2354  1.3224
 1325SOL     OW15610   1.914   2.559   2.366 -0.8732  0.1777 -0.1474
 1325SOL    HW115611   1.898   2.646   2.331 -0.5416 -0.2861 -1.4600
 1325SOL    HW215612   1.943   2.595   2.450 -0.6290 -2.3209  0.8355
 1326SOL     OW15613   1.351   0.705   9.338 -0.0872  0.6766  0.1986
 1326SOL    HW115614   1.273   0.739   9.381 -0.3888  1.0961 -0.6966
 1326SOL    HW215615   1.350   0.758   9.258 -1.9743 -1.6827 -1.3162
 1327SOL     OW15616   1.767   3.172   2.089 -0.4650  0.4697  0.6735
 1327SOL    HW115617   1.815   3.247   2.055 -0.0597 -0.1269 -0.0695
 1327SOL    HW215618   1.704   3.219   2.143  0.2815  1.9579  0.2610
 1328SOL     OW15619   1.435   2.963   8.904  0.3335  0.2766 -0.0680
 1328SOL    HW115620   1.376   2.986   8.976 -3.5936  2.0968 -3.9698
 1328SOL    HW215621   1.435   3.039   8.846 -0.5147 -0.1242 -0.5847
 1329SOL     OW15622   2.798   3.887   5.971 -0.1168 -0.4370 -0.4798
 1329SOL    HW115623   2.832   3.960   5.919 -0.4938  0.4427  0.4785
 1329SOL    HW215624   2.828   3.818   5.913 -0.9773  0.0767 -1.5417
 1330SOL     OW15625   2.784   0.235   2.307  0.4877  0.3809  0.3711
 1330SOL    HW115626   2.743   0.257   2.391 -0.1971  0.2800  0.0673
 1330SOL    HW215627   2.795   0.324   2.273 -1.0898  0.4606  0.0481
 1331SOL     OW15628   1.720   4.305   6.860  0.3282 -0.7028 -0.2846
 1331SOL    HW115629   1.801   4.296   6.810 -0.8678  4.2396 -3.1318
 1331SOL    HW215630   1.657   4.333   6.793  0.2829 -2.5752 -1.0161
 1332SOL     OW15631   0.076   3.583  16.815 -0.6442  0.2273 -0.1257
 1332SOL    HW115632   4.724   3.554  16.824  0.3385 -2.5535  0.8351
 1332SOL    HW215633   0.092   3.635  16.737 -1.1742  1.5127  0.6304
 1333SOL     OW15634   2.945   4.391  16.780 -0.6049 -0.1825  0.1647
 1333SOL    HW115635   2.953   4.475  16.824 -0.2255  1.0324 -2.2301
 1333SOL    HW215636   2.850   4.382  16.776 -0.5425  0.2206 -2.0198
 1334SOL     OW15637   4.170   1.670   2.523 -0.1898 -0.4990 -0.3916
 1334SOL    HW115638   4.108   1.604   2.553  1.7685 -1.2156  2.0655
 1334SOL    HW215639   4.115   1.749   2.515  0.4404  0.0487  0.6684
 1335SOL     OW15640   0.390   3.633   2.393  0.2278 -0.3671 -0.6902
 1335SOL    HW115641   0.409   3.578   2.469 -1.7428 -0.6111 -0.3753
 1335SOL    HW215642   0.308   3.595   2.361  1.4379 -2.3382 -1.4305
 1336SOL     OW15643   1.909   2.722   6.591  0.6062 -0.2657  0.0413
 1336SOL    HW115644   1.845   2.699   6.658  0.3630 -0.1732 -0.1577
 1336SOL    HW215645   1.920   2.638   6.547 -0.5720 -0.1770 -0.4340
 1337SOL     OW15646   0.984   4.543   4.860 -0.3052  0.6087  0.0056
 1337SOL    HW115647   1.035   4.483   4.805 -1.4198 -0.6333  0.3335
 1337SOL    HW215648   0.955   4.482   4.927  1.1732  1.6022  1.5716
 1338SOL     OW15649   3.256   0.692   0.244  0.4929 -0.0384  0.1521
 1338SOL    HW115650   3.216   0.744   0.314 -0.2815  0.4165 -0.6404
 1338SOL    HW215651   3.325   0.751   0.214 -1.0674  1.7202 -0.0301
 1339SOL     OW15652   0.535   1.734   2.851 -0.2166  0.1319  0.1274
 1339SOL    HW115653   0.522   1.663   2.788 -2.0166 -1.4112  2.2523
 1339SOL    HW215654   0.467   1.789   2.811 -1.0647 -0.6893  0.4431
 1340SOL     OW15655   1.055   3.262  12.059  0.2123 -0.0333  0.3247
 1340SOL    HW115656   1.135   3.313  12.069 -0.1257  0.6741 -0.6169
 1340SOL    HW215657   1.070   3.195  11.992  0.3789 -0.0489  0.3784
 1341SOL     OW15658   2.615   2.278  13.092  0.0725 -0.2676 -0.0758
 1341SOL    HW115659   2.597   2.369  13.069  1.8014 -0.2509 -1.3761
 1341SOL    HW215660   2.538   2.228  13.063 -0.6018  0.0591  1.1891
 1342SOL     OW15661   3.770   4.170  16.057 -0.2913 -0.1607  0.7061
 1342SOL    HW115662   3.701   4.195  16.118  0.1617 -1.9168  1.9388
 1342SOL    HW215663   3.718   4.124  15.991 -1.2717  2.2268 -0.1671
 1343SOL     OW15664   3.434   1.146   0.665 -0.1610 -0.5083  0.0960
 1343SOL    HW115665   3.375   1.181   0.598  2.1006 -0.3234 -1.8180
 1343SOL    HW215666   3.378   1.106   0.731 -0.2307  1.2840  1.1246
 1344SOL     OW15667   3.404   1.836   8.112 -0.1749 -0.6161  0.0389
 1344SOL    HW115668   3.421   1.744   8.095 -1.1969 -0.8747  0.3718
 1344SOL    HW215669   3.319   1.854   8.071  0.9321 -0.2015 -2.0685
 1345SOL     OW15670   2.095   2.102   3.504 -0.1035  0.7111 -0.5668
 1345SOL    HW115671   2.106   2.057   3.420  1.2102  0.1388 -0.0871
 1345SOL    HW215672   2.115   2.192   3.477 -0.6270  0.9258 -0.2455
 1346SOL     OW15673   0.568   2.336   5.457 -0.5410  0.1384  0.0445
 1346SOL    HW115674   0.481   2.328   5.497 -0.8572  2.8098 -0.0852
 1346SOL    HW215675   0.566   2.259   5.401 -0.1069 -0.3634  0.7305
 1347SOL     OW15676   1.670   2.911   2.119 -0.3773  0.1585 -0.1328
 1347SOL    HW115677   1.586   2.945   2.148  0.0378  0.7835  0.3423
 1347SOL    HW215678   1.718   2.992   2.101  0.5934 -0.5412 -0.7483
 1348SOL     OW15679   3.119   4.719   6.100  0.3425  0.1610  0.8553
 1348SOL    HW115680   3.085   4.715   6.189  0.2016  0.3002  0.8074
 1348SOL    HW215681   3.188   4.653   6.102  1.2630  1.0359 -2.0219
 1349SOL     OW15682   4.535   1.512   5.435  0.0649  0.0800 -0.6162
 1349SOL    HW115683   4.449   1.469   5.437  0.1558 -0.0851 -0.1484
 1349SOL    HW215684   4.581   1.429   5.446 -0.4953 -0.2853 -1.0157
 1350SOL     OW15685   2.711   3.337  10.585 -0.4637 -0.3987  0.6444
 1350SOL    HW115686   2.643   3.299  10.641 -1.5824  1.0713  0.2726
 1350SOL    HW215687   2.735   3.264  10.528 -0.0122 -0.0891  0.4432
 1351SOL     OW15688   0.407   0.996   8.941 -0.0629 -0.4861 -0.1350
 1351SOL    HW115689   0.399   0.912   8.985  2.3884 -0.1267  0.9838
 1351SOL    HW215690   0.340   1.052   8.979  1.4268  1.0202  0.2844
 1352SOL     OW15691   1.106   1.551   3.995  0.1904 -0.1934 -0.2607
 1352SOL    HW115692   1.025   1.565   4.044 -0.6946  0.3296 -1.8785
 1352SOL    HW215693   1.078   1.512   3.912 -1.9572  0.0464  0.3708
 1353SOL     OW15694   0.248   2.815   5.112  0.0540 -0.1368  0.7002
 1353SOL    HW115695   0.320   2.755   5.089 -0.0517 -0.3897  1.0272
 1353SOL    HW215696   0.228   2.848   5.024  1.5055 -3.0250 -0.7520
 1354SOL     OW15697   3.197   0.930   3.460  0.1407  0.3735 -0.2814
 1354SOL    HW115698   3.272   0.956   3.514  0.0579  0.5506 -0.2507
 1354SOL    HW215699   3.123   0.974   3.501 -0.1993 -2.0820  1.6804
 1355SOL     OW15700   3.470   0.472   4.911 -0.2594 -0.0127  0.1552
 1355SOL    HW115701   3.552   0.519   4.924  0.2087 -0.7694 -0.0360
 1355SOL    HW215702   3.415   0.539   4.870  0.4356 -0.2443 -1.1356
 1356SOL     OW15703   0.023   2.805   0.938 -0.0114 -0.0113 -0.1364
 1356SOL    HW115704   0.095   2.756   0.977 -1.1877 -0.7946  1.0698
 1356SOL    HW215705   0.073   2.869   0.888 -3.2532  2.3074 -0.3991
 1357SOL     OW15706   3.390   2.916  12.628 -0.1329  0.5199  0.3836
 1357SOL    HW115707   3.422   2.876  12.547  0.3057  1.5569  0.0543
 1357SOL    HW215708   3.449   2.883  12.696 -1.2285 -2.2079  0.0325
 1358SOL     OW15709   0.769   4.694   6.468  0.1161 -0.0604  0.1170
 1358SOL    HW115710   0.701   4.692   6.536 -0.1938 -0.4393 -0.1990
 1358SOL    HW215711   0.840   4.668   6.526 -0.5679 -0.9221  0.5758
 1359SOL     OW15712   3.511   4.423   1.417  0.6435  0.2030  0.0563
 1359SOL    HW115713   3.482   4.333   1.406 -1.6714  1.1327 -1.5001
 1359SOL    HW215714   3.598   4.412   1.380  1.5255 -1.6069  2.7093
 1360SOL     OW15715   1.087   4.654   9.731  0.3246 -0.3408  0.5777
 1360SOL    HW115716   1.105   4.568   9.771 -0.2270 -0.4698  0.5399
 1360SOL    HW215717   0.998   4.660   9.764 -0.6466 -3.7540 -1.4065
 1361SOL     OW15718   2.962   0.902   5.852 -0.4094  0.2571  0.0722
 1361SOL    HW115719   2.904   0.953   5.908 -0.2020 -0.1226  0.6377
 1361SOL    HW215720   3.035   0.898   5.914 -1.2189 -1.6979  0.8956
 1362SOL     OW15721   3.284   0.248   2.646 -0.2972  0.5443  0.0445
 1362SOL    HW115722   3.268   0.231   2.553 -0.5994  2.5075 -0.2498
 1362SOL    HW215723   3.358   0.308   2.647  2.0220 -2.3129  1.4176
 1363SOL     OW15724   1.808   3.403   7.759  0.3705  0.1002 -0.0781
 1363SOL    HW115725   1.889   3.421   7.711 -1.0114 -1.6270 -3.0611
 1363SOL    HW215726   1.783   3.494   7.773  1.2123  0.3471 -0.1746
 1364SOL     OW15727   4.686   1.988   4.161  0.1298  0.8703  0.2791
 1364SOL    HW115728   4.679   2.027   4.248  1.3277  0.3266  0.6285
 1364SOL    HW215729   4.603   1.978   4.115  0.4769 -0.2010 -0.0991
 1365SOL     OW15730   2.473   2.732  16.865 -0.1009  0.4556 -0.4653
 1365SOL    HW115731   2.449   2.647  16.829  1.3694  0.5796 -1.7315
 1365SOL    HW215732   2.390   2.744  16.911 -0.3954 -1.1406 -0.6054
 1366SOL     OW15733   1.775   0.280   6.625  0.2584  0.5378 -0.7837
 1366SOL    HW115734   1.864   0.248   6.605  0.1378  0.1709 -0.7403
 1366SOL    HW215735   1.747   0.325   6.546  0.0668 -1.0642 -1.6342
 1367SOL     OW15736   0.778   0.005   4.474  0.1440  0.3758 -0.2827
 1367SOL    HW115737   0.812   0.006   4.563 -1.9594  1.8707  0.5164
 1367SOL    HW215738   0.685   0.025   4.490 -0.6483 -2.3427 -1.5416
 1368SOL     OW15739   3.594   3.084   5.968  0.0563  0.2887 -0.0787
 1368SOL    HW115740   3.565   2.996   5.942  0.2608  0.5073 -1.0327
 1368SOL    HW215741   3.685   3.064   5.986  0.0458  0.4463  0.1549
 1369SOL     OW15742   2.647   1.858   3.740  0.2260 -0.2153 -0.1939
 1369SOL    HW115743   2.671   1.778   3.694  0.3259  0.6880 -1.7054
 1369SOL    HW215744   2.613   1.826   3.824  0.3426 -0.9431 -0.4248
 1370SOL     OW15745   4.360   0.003   3.267 -0.7293 -0.2020  0.0116
 1370SOL    HW115746   4.436   4.718   3.319 -1.0364 -0.8900  0.1479
 1370SOL    HW215747   4.312   0.015   3.349 -4.3619 -1.0595 -1.9901
 1371SOL     OW15748   2.890   4.726   7.732 -0.3232 -0.2590  0.3946
 1371SOL    HW115749   2.936   0.068   7.705 -2.1700  0.4515 -0.5932
 1371SOL    HW215750   2.960   4.661   7.723  2.2373  2.6394 -0.8963
 1372SOL     OW15751   1.961   0.726   6.533 -0.5522 -0.2511  0.2025
 1372SOL    HW115752   1.897   0.662   6.563  1.1042 -1.6350  0.8274
 1372SOL    HW215753   1.971   0.788   6.606  0.8898  1.4586 -1.4549
 1373SOL     OW15754   1.699   2.587  17.622  0.3585  0.0876  0.1071
 1373SOL    HW115755   1.686   2.492  17.617  0.5233  0.0700 -0.0114
 1373SOL    HW215756   1.614   2.618  17.591  0.4951 -1.3419 -1.7022
 1374SOL     OW15757   1.430   4.340  12.316  0.2182  0.2863 -0.4658
 1374SOL    HW115758   1.503   4.301  12.268 -0.2818  1.1368 -1.9195
 1374SOL    HW215759   1.411   4.278  12.387 -1.7760 -0.9478 -2.0587
 1375SOL     OW15760   1.430   2.673  17.104  0.7936  0.0918 -0.1006
 1375SOL    HW115761   1.350   2.691  17.153 -0.1272  2.0648 -2.3410
 1375SOL    HW215762   1.411   2.713  17.019 -1.1654 -0.9458 -0.1572
 1376SOL     OW15763   0.728   4.371   6.088  0.7424 -0.1605  0.0146
 1376SOL    HW115764   0.758   4.319   6.013 -0.7708 -2.6959  1.1767
 1376SOL    HW215765   0.706   4.297   6.144  1.4639 -1.7406 -1.7735
 1377SOL     OW15766   2.731   2.143   2.372 -0.2397 -0.3564  0.8139
 1377SOL    HW115767   2.679   2.174   2.298  0.3710 -1.9054 -0.2761
 1377SOL    HW215768   2.824   2.155   2.356 -0.3016  0.4417  1.0849
 1378SOL     OW15769   4.634   0.886  16.017 -0.2793  0.2702  0.5951
 1378SOL    HW115770   4.616   0.971  16.056 -3.2830 -0.1881  0.1751
 1378SOL    HW215771   4.643   0.896  15.923  2.1757  0.1056  0.8063
 1379SOL     OW15772   0.093   4.267   5.031  0.8166 -0.1558 -0.8960
 1379SOL    HW115773   0.107   4.239   4.940 -4.1582  3.3256 -2.7295
 1379SOL    HW215774   0.132   4.354   5.030  1.8052 -0.6056 -1.0583
 1380SOL     OW15775   1.187   1.187   3.745 -0.4431  0.2203  0.1469
 1380SOL    HW115776   1.112   1.245   3.729 -1.3098 -0.9028  0.1786
 1380SOL    HW215777   1.134   1.108   3.747 -1.9379  1.2035 -0.3832
 1381SOL     OW15778   0.811   3.087   6.199 -0.5070 -0.0758  0.1083
 1381SOL    HW115779   0.804   3.166   6.145  2.3841 -0.4309 -0.7647
 1381SOL    HW215780   0.820   3.131   6.283 -0.1833  0.5786 -0.2701
 1382SOL     OW15781   2.866   0.682   0.906  0.2046 -0.2358 -0.2897
 1382SOL    HW115782   2.935   0.712   0.847  1.3661  2.2501  2.2998
 1382SOL    HW215783   2.918   0.666   0.985 -1.9370 -0.0200  1.1533
 1383SOL     OW15784   2.200   0.748  10.213 -0.1287  0.3182 -0.0855
 1383SOL    HW115785   2.225   0.737  10.122 -0.9220 -2.2509  0.0165
 1383SOL    HW215786   2.283   0.750  10.261 -0.3931 -0.5473  0.3971
 1384SOL     OW15787   0.002   2.573  15.248 -0.1969  0.4551 -0.5889
 1384SOL    HW115788   4.718   2.527  15.329  0.8103  2.3065  0.7493
 1384SOL    HW215789   4.650   2.596  15.223 -0.6754 -0.6992  0.0558
 1385SOL     OW15790   1.941   1.607  13.338  0.3682  0.0688 -0.4177
 1385SOL    HW115791   1.935   1.613  13.242  0.4427  0.7409 -0.3822
 1385SOL    HW215792   1.939   1.700  13.361  1.2859  0.1176 -0.5348
 1386SOL     OW15793   2.685   3.976   6.851  0.3727  0.0951  0.4529
 1386SOL    HW115794   2.751   3.970   6.782 -0.0847  0.9618 -0.0664
 1386SOL    HW215795   2.740   3.934   6.917  2.0563 -2.9122 -2.9118
 1387SOL     OW15796   1.818   1.834   7.757  0.2331 -0.2022  0.4935
 1387SOL    HW115797   1.888   1.895   7.735 -1.0611  0.2242 -2.5731
 1387SOL    HW215798   1.763   1.889   7.812  0.0119  0.5035 -0.4218
 1388SOL     OW15799   0.934   0.165  13.354  0.1764  0.0213 -0.2300
 1388SOL    HW115800   0.968   0.113  13.426 -0.2111 -1.0630 -0.8282
 1388SOL    HW215801   1.006   0.152  13.292  2.0188  0.6028  1.7957
 1389SOL     OW15802   3.742   3.621  13.269 -0.4298 -0.3500  0.2767
 1389SOL    HW115803   3.665   3.569  13.248 -1.3583  0.3862  1.8764
 1389SOL    HW215804   3.709   3.681  13.336  3.2327  0.3468  1.4943
 1390SOL     OW15805   2.293   2.963   9.743 -0.1931  0.0236  0.4647
 1390SOL    HW115806   2.359   2.915   9.793  1.2344  1.4342 -0.0877
 1390SOL    HW215807   2.300   2.915   9.661 -2.2691  2.8304 -1.3646
 1391SOL     OW15808   3.221   1.063  10.869 -0.3861 -0.2333  0.0247
 1391SOL    HW115809   3.271   1.069  10.950 -1.6985 -1.6163  0.9366
 1391SOL    HW215810   3.128   1.065  10.892 -0.3972 -1.9145  0.1481
 1392SOL     OW15811   2.850   1.809   6.529  0.1867  0.5672 -0.1597
 1392SOL    HW115812   2.778   1.770   6.480  1.7794 -0.2652 -1.8533
 1392SOL    HW215813   2.863   1.745   6.599  1.3720 -0.0368 -0.9255
 1393SOL     OW15814   0.373   1.326  15.289 -0.5957 -0.2381  0.0314
 1393SOL    HW115815   0.372   1.364  15.202 -1.7413 -1.3864 -0.4537
 1393SOL    HW215816   0.318   1.385  15.341 -0.2078  0.2118 -0.0684
 1394SOL     OW15817   1.757   2.729   9.711  0.2876  0.4371  0.2600
 1394SOL    HW115818   1.756   2.720   9.616 -3.6351  0.8849  0.2505
 1394SOL    HW215819   1.733   2.641   9.741  0.1391  0.4625  0.2161
 1395SOL     OW15820   2.364   1.036  12.907 -0.0037  0.0278 -0.9867
 1395SOL    HW115821   2.423   1.032  12.983  1.7422  0.1681 -2.3332
 1395SOL    HW215822   2.399   0.959  12.861 -0.4497  0.6890 -2.4173
 1396SOL     OW15823   2.870   4.210   6.602 -0.7904  0.3754 -0.3653
 1396SOL    HW115824   2.859   4.266   6.525  1.6330  0.2644 -0.7986
 1396SOL    HW215825   2.793   4.155   6.592 -0.9671  0.4706  0.4301
 1397SOL     OW15826   3.585   3.117   7.161 -0.2106 -0.2932  0.1592
 1397SOL    HW115827   3.634   3.036   7.148  1.5919  1.0414 -1.3345
 1397SOL    HW215828   3.568   3.134   7.253  2.6403  0.4505  0.5391
 1398SOL     OW15829   3.989   4.111   9.176  0.5044  0.0714  0.1303
 1398SOL    HW115830   4.072   4.104   9.223  0.8440 -1.0480 -0.6400
 1398SOL    HW215831   3.953   4.025   9.195  1.0882 -0.8782 -3.0834
 1399SOL     OW15832   1.511   3.319   2.661 -0.4582  0.0874  0.5281
 1399SOL    HW115833   1.431   3.295   2.614  0.3055 -0.1378 -0.6593
 1399SOL    HW215834   1.480   3.317   2.751 -2.9818  0.6310 -0.3364
 1400SOL     OW15835   3.048   2.333   7.882  0.2031  0.5650 -0.0413
 1400SOL    HW115836   3.071   2.426   7.888 -0.5129  0.7548 -0.2881
 1400SOL    HW215837   3.125   2.290   7.919  0.1281  1.7184  1.4689
 1401SOL     OW15838   0.447   2.917   6.666 -0.5043 -0.2049  0.0738
 1401SOL    HW115839   0.472   2.954   6.582 -0.7274 -1.9912 -0.7826
 1401SOL    HW215840   0.459   2.985   6.732  1.7373 -1.1185  0.6174
 1402SOL     OW15841   1.690   1.514   2.408 -0.0590 -0.5999 -0.0502
 1402SOL    HW115842   1.760   1.480   2.352 -0.2355  0.0274 -0.6489
 1402SOL    HW215843   1.696   1.457   2.485 -1.7531  0.2290  0.7074
 1403SOL     OW15844   2.437   0.008   5.680 -1.1385 -0.2067  0.4551
 1403SOL    HW115845   2.508   0.014   5.743 -1.6609  1.8866  0.8558
 1403SOL    HW215846   2.408   0.099   5.671  1.4497  0.5478 -0.1495
 1404SOL     OW15847   4.073   4.225   7.874  0.0611  0.1828 -0.0371
 1404SOL    HW115848   4.087   4.268   7.958  0.3860  1.3246 -0.6732
 1404SOL    HW215849   4.154   4.248   7.828 -0.4035  1.7357 -0.1004
 1405SOL     OW15850   4.424   0.569   4.580 -0.3423 -0.2204 -0.6725
 1405SOL    HW115851   4.426   0.481   4.619 -0.9872  0.5607  1.1243
 1405SOL    HW215852   4.505   0.611   4.609 -1.7143  1.6747  0.3609
 1406SOL     OW15853   1.299   1.490   7.261 -0.4289  0.0974  0.0417
 1406SOL    HW115854   1.372   1.438   7.228 -0.1821  1.9912 -2.4237
 1406SOL    HW215855   1.322   1.578   7.232  3.1043 -1.8277 -3.0383
 1407SOL     OW15856   3.433   2.226  14.292  0.7318 -0.6617 -0.3884
 1407SOL    HW115857   3.460   2.277  14.369  0.6153  0.4557 -1.0872
 1407SOL    HW215858   3.413   2.137  14.323  0.3898  0.3522  2.3579
 1408SOL     OW15859   2.455   1.507   6.352  0.0040 -0.3204  0.0460
 1408SOL    HW115860   2.467   1.517   6.258  1.3297 -1.4791  0.0888
 1408SOL    HW215861   2.450   1.411   6.351  1.2252 -0.3953  1.0216
 1409SOL     OW15862   3.044   0.623   0.115 -0.1998  0.1448 -0.0080
 1409SOL    HW115863   3.125   0.648   0.160 -1.4207  3.0466  0.5817
 1409SOL    HW215864   2.986   0.612   0.191  0.2968  1.8872  0.6223
 1410SOL     OW15865   1.949   4.370   5.652 -0.0519 -0.5577  0.1862
 1410SOL    HW115866   1.856   4.388   5.640 -0.6487 -2.8351  1.5305
 1410SOL    HW215867   1.954   4.276   5.664 -0.7331 -0.4281  1.4248
 1411SOL     OW15868   1.697   2.211   0.665  0.2057 -0.1239  0.2212
 1411SOL    HW115869   1.774   2.244   0.619 -0.4820  0.6098 -0.4053
 1411SOL    HW215870   1.629   2.246   0.608 -0.9420  0.1425  1.7443
 1412SOL     OW15871   2.834   4.487   8.360 -0.4406  0.3284 -0.9423
 1412SOL    HW115872   2.901   4.428   8.327 -0.4665 -0.1615 -0.1057
 1412SOL    HW215873   2.850   4.576   8.327  0.8304  0.0991 -0.9324
 1413SOL     OW15874   1.441   0.951   3.728 -0.2183  0.1719  0.1097
 1413SOL    HW115875   1.351   0.919   3.727 -0.0984 -0.1481 -0.3580
 1413SOL    HW215876   1.430   1.036   3.771 -0.8031 -0.1298  0.5515
 1414SOL     OW15877   2.789   1.657   6.757 -0.0069  0.1979  0.2488
 1414SOL    HW115878   2.724   1.634   6.691  1.4002  0.4378 -1.2193
 1414SOL    HW215879   2.785   1.583   6.817 -0.7478  0.7535  0.8818
 1415SOL     OW15880   4.665   2.054   2.709 -0.2617  0.0229 -0.4302
 1415SOL    HW115881   4.617   1.973   2.729 -0.2243  0.3042  0.8581
 1415SOL    HW215882   4.708   2.022   2.630 -2.2079  1.8638 -2.2128
 1416SOL     OW15883   0.942   2.590   8.473  0.0967  0.0177 -0.0308
 1416SOL    HW115884   0.901   2.666   8.516  0.7912  0.7995 -0.7561
 1416SOL    HW215885   0.958   2.539   8.553  1.4133  0.8833  0.2612
 1417SOL     OW15886   0.980   4.720   5.577  0.2970  0.1115 -0.0470
 1417SOL    HW115887   0.938   4.713   5.663 -0.1891 -1.8612 -0.4435
 1417SOL    HW215888   1.071   4.717   5.605  0.0265 -0.1489  0.8118
 1418SOL     OW15889   2.465   3.950  15.843 -0.1645  0.1558 -0.4255
 1418SOL    HW115890   2.386   3.966  15.791 -1.0565  1.3259  1.2819
 1418SOL    HW215891   2.502   4.037  15.826  2.5249 -1.0591 -0.7725
 1419SOL     OW15892   1.574   0.829   5.980 -0.1309 -0.0709 -0.5595
 1419SOL    HW115893   1.665   0.804   5.997 -0.1396  0.0917 -0.2631
 1419SOL    HW215894   1.543   0.745   6.015  0.5904 -0.1643 -0.1537
 1420SOL     OW15895   3.616   1.680   0.009 -0.2585 -0.5529  0.4107
 1420SOL    HW115896   3.614   1.715  17.671  0.6401 -1.6941 -0.0515
 1420SOL    HW215897   3.688   1.618   0.002  1.9345  1.8796  1.6668
 1421SOL     OW15898   2.229   2.783  16.629 -0.3944  0.1648  0.0138
 1421SOL    HW115899   2.264   2.821  16.549  2.0215 -0.4994  0.7509
 1421SOL    HW215900   2.228   2.853  16.694 -0.2032  1.6291 -1.5725
 1422SOL     OW15901   1.091   2.763   9.587 -0.0104 -0.1853 -0.2602
 1422SOL    HW115902   1.117   2.855   9.593 -1.6110  0.3517 -1.7042
 1422SOL    HW215903   1.004   2.762   9.548 -0.2600 -0.9573  0.3182
 1423SOL     OW15904   1.481   3.132  14.070 -0.0486  0.0242 -0.6235
 1423SOL    HW115905   1.487   3.037  14.069 -0.1452  0.0180 -0.5581
 1423SOL    HW215906   1.549   3.153  14.006  3.4551 -2.0411  2.4413
 1424SOL     OW15907   1.714   1.070   6.972 -0.2399 -0.6243 -0.0979
 1424SOL    HW115908   1.694   1.163   6.981 -0.7157 -0.7907  0.5677
 1424SOL    HW215909   1.657   1.054   6.897  0.3094 -1.8263 -0.2701
 1425SOL     OW15910   0.686   3.692   4.904 -0.1147 -0.2084  0.1979
 1425SOL    HW115911   0.638   3.752   4.961 -0.3733  0.2289 -0.4951
 1425SOL    HW215912   0.697   3.751   4.830  2.6058 -0.5631  0.3013
 1426SOL     OW15913   3.152   2.585  16.807  0.0917 -1.1606 -0.0538
 1426SOL    HW115914   3.175   2.497  16.775 -0.0766 -1.1848 -0.1094
 1426SOL    HW215915   3.134   2.572  16.900  2.0182 -1.0070  0.3388
 1427SOL     OW15916   4.222   2.475   3.911 -0.3399 -0.2250  0.2838
 1427SOL    HW115917   4.276   2.453   3.987 -1.0730  1.4842  1.3156
 1427SOL    HW215918   4.277   2.452   3.837  0.7391  0.4811  0.8686
 1428SOL     OW15919   3.338   0.681  11.483 -0.1161 -0.4120 -0.0960
 1428SOL    HW115920   3.269   0.736  11.520  0.7793 -0.2031  1.2260
 1428SOL    HW215921   3.414   0.726  11.518 -0.2176 -0.1975 -0.1540
 1429SOL     OW15922   0.587   2.353   3.631  0.0182  0.4271  0.3342
 1429SOL    HW115923   0.570   2.444   3.656 -0.3879  0.4454 -0.0198
 1429SOL    HW215924   0.570   2.352   3.537  0.7813 -1.4399  0.2196
 1430SOL     OW15925   1.399   1.267  17.251 -0.3156 -1.2194  0.3620
 1430SOL    HW115926   1.354   1.334  17.302 -0.2755  0.8266 -2.2553
 1430SOL    HW215927   1.481   1.311  17.226  0.2538 -2.1406  0.6123
 1431SOL     OW15928   3.063   1.691   8.883  0.0531 -0.1283 -0.1676
 1431SOL    HW115929   3.139   1.728   8.837 -0.2654 -1.7640 -2.0322
 1431SOL    HW215930   2.998   1.696   8.812  0.3178 -5.1444 -0.7292
 1432SOL     OW15931   3.368   0.683   5.465 -0.1827  0.2763  0.1237
 1432SOL    HW115932   3.352   0.762   5.516 -2.4743 -1.3813  1.9639
 1432SOL    HW215933   3.452   0.699   5.422 -0.5188  0.4165 -0.4877
 1433SOL     OW15934   2.305   0.348   5.962  0.1559  0.1874 -0.3134
 1433SOL    HW115935   2.283   0.434   5.998  1.3280  0.5447 -0.4540
 1433SOL    HW215936   2.366   0.364   5.890  0.1927 -2.1907 -0.8213
 1434SOL     OW15937   4.292   2.612   7.139  0.6835 -0.4013 -0.5548
 1434SOL    HW115938   4.263   2.521   7.136  0.3150 -0.3141  0.2815
 1434SOL    HW215939   4.291   2.612   7.235 -1.3129 -0.8868 -0.5646
 1435SOL     OW15940   3.303   0.468  15.826 -0.5860  0.5277 -0.2440
 1435SOL    HW115941   3.227   0.477  15.884 -0.8683  0.3551 -0.5821
 1435SOL    HW215942   3.353   0.410  15.883 -0.7991  0.4787 -0.1061
 1436SOL     OW15943   1.848   4.290   5.128 -0.3920  0.0543 -0.3494
 1436SOL    HW115944   1.831   4.327   5.042  1.7082  1.5970 -0.1005
 1436SOL    HW215945   1.934   4.327   5.149 -0.8702  2.1912 -2.1840
 1437SOL     OW15946   0.269   1.458   2.579 -0.0525 -0.6900 -0.0081
 1437SOL    HW115947   0.343   1.464   2.638 -0.1907  0.5387  0.0349
 1437SOL    HW215948   0.307   1.384   2.532  2.8616  1.2612 -0.7045
 1438SOL     OW15949   3.668   0.356  14.620  0.0135 -0.0026  0.5887
 1438SOL    HW115950   3.679   0.425  14.685 -1.1731  0.9453 -0.2213
 1438SOL    HW215951   3.683   0.410  14.542 -0.4012  0.5635  0.9036
 1439SOL     OW15952   4.436   4.726   2.957  0.4275  0.1339 -0.1848
 1439SOL    HW115953   4.504   4.696   3.017 -1.9540 -2.2208  1.3320
 1439SOL    HW215954   4.451   0.082   2.963  1.2676 -0.1077  1.6155
 1440SOL     OW15955   2.303   2.745   4.996  0.0616 -0.3495 -0.1817
 1440SOL    HW115956   2.375   2.683   5.010  2.9484  2.4054 -2.6695
 1440SOL    HW215957   2.354   2.823   5.018  2.0180 -1.4308 -0.8987
 1441SOL     OW15958   1.862   1.592   3.844 -0.5510  0.4252 -0.0111
 1441SOL    HW115959   1.933   1.595   3.909  0.2114  2.3264 -0.9207
 1441SOL    HW215960   1.783   1.604   3.895  0.3098  0.0107  1.4319
 1442SOL     OW15961   3.631   2.079   0.867 -0.0380  0.5690 -0.1710
 1442SOL    HW115962   3.718   2.060   0.902  0.0219  0.5965 -0.3034
 1442SOL    HW215963   3.652   2.056   0.776  2.2469  0.9536  0.2597
 1443SOL     OW15964   2.408   2.215   9.407 -0.7119  0.0894  0.0716
 1443SOL    HW115965   2.352   2.211   9.329 -0.3723 -1.2135 -0.1084
 1443SOL    HW215966   2.470   2.277   9.370  0.4601 -2.0481 -1.5532
 1444SOL     OW15967   2.789   3.441   6.266 -0.4528  0.1949  0.2306
 1444SOL    HW115968   2.860   3.423   6.204 -0.5864  1.1117 -0.1819
 1444SOL    HW215969   2.756   3.526   6.237  1.7678  0.9652 -0.0342
 1445SOL     OW15970   0.243   3.125   3.317 -0.8181 -0.1164 -0.3162
 1445SOL    HW115971   0.175   3.110   3.383 -1.5860  0.6164 -0.9229
 1445SOL    HW215972   0.323   3.120   3.369 -1.4913 -0.1372  0.7163
 1446SOL     OW15973   1.591   2.209   3.536  0.0908 -0.0657  0.0864
 1446SOL    HW115974   1.678   2.213   3.497 -0.2518 -4.7844 -1.1308
 1446SOL    HW215975   1.550   2.270   3.475 -1.4861 -1.4350 -0.2146
 1447SOL     OW15976   2.327   1.152  14.704 -0.0718  0.0311 -0.0480
 1447SOL    HW115977   2.331   1.144  14.799  1.7262 -1.4565 -0.2719
 1447SOL    HW215978   2.303   1.243  14.688 -0.3611 -0.1597 -0.6904
 1448SOL     OW15979   3.790   1.390   6.954  0.1996 -0.3702  0.6060
 1448SOL    HW115980   3.744   1.387   7.038  0.0679  4.8978  0.7125
 1448SOL    HW215981   3.794   1.485   6.949  0.9546 -0.5214 -1.9666
 1449SOL     OW15982   4.058   3.029  13.648 -0.5098  0.1054 -0.6269
 1449SOL    HW115983   4.043   2.939  13.622  0.2961 -0.4866  0.9255
 1449SOL    HW215984   3.994   3.038  13.719 -1.7208 -2.6891 -1.3915
 1450SOL     OW15985   3.254   3.202  15.542 -0.0660 -0.0724  0.3191
 1450SOL    HW115986   3.189   3.255  15.497 -0.2950 -1.7748 -1.3356
 1450SOL    HW215987   3.195   3.136  15.578  0.3435  0.3433  1.7768
 1451SOL     OW15988   3.531   3.218  14.989 -0.1221  0.9382 -0.1601
 1451SOL    HW115989   3.478   3.200  14.912  0.0615 -0.5162  0.0469
 1451SOL    HW215990   3.603   3.155  14.986 -1.0098 -0.1396  0.9345
 1452SOL     OW15991   0.889   1.630   9.769 -0.2756  0.1421  0.4755
 1452SOL    HW115992   0.813   1.622   9.827 -0.1619 -1.9093  0.3393
 1452SOL    HW215993   0.884   1.715   9.726  1.3480 -0.5396 -1.0358
 1453SOL     OW15994   3.482   3.643   7.559  0.2100 -0.2699  0.5745
 1453SOL    HW115995   3.504   3.690   7.479  1.6556  0.0839  1.1767
 1453SOL    HW215996   3.565   3.636   7.607  0.4723 -1.9714 -0.1208
 1454SOL     OW15997   1.088   0.227  12.244  0.3727  0.0053 -0.7252
 1454SOL    HW115998   1.129   0.294  12.300  1.3951  0.0972 -1.5777
 1454SOL    HW215999   1.026   0.190  12.307  0.3852  0.3875 -0.4852
 1455SOL     OW16000   3.759   2.260  12.172 -0.0799 -0.0940 -0.4284
 1455SOL    HW116001   3.742   2.198  12.243  1.8383 -1.3512 -1.0773
 1455SOL    HW216002   3.781   2.342  12.217 -0.4040  0.0562 -0.5464
 1456SOL     OW16003   4.578   2.965   6.471  0.6940 -0.0633  0.1391
 1456SOL    HW116004   4.668   2.991   6.489  1.3823 -2.9763  0.8935
 1456SOL    HW216005   4.527   3.039   6.438  2.1166  0.4460 -0.8902
 1457SOL     OW16006   3.543   2.400   1.710 -0.1237 -0.9027  0.6048
 1457SOL    HW116007   3.620   2.452   1.732  0.7216 -1.1464 -1.7818
 1457SOL    HW216008   3.537   2.337   1.782  0.6983 -1.9552 -0.2472
 1458SOL     OW16009   2.073   4.043   1.648 -0.3574 -0.2673 -0.5510
 1458SOL    HW116010   2.095   4.123   1.696 -1.7216  0.0087 -0.4115
 1458SOL    HW216011   2.062   3.970   1.708 -1.6090  0.9081  0.6351
 1459SOL     OW16012   4.282   1.509   1.956  0.4637  0.5467 -0.1994
 1459SOL    HW116013   4.224   1.435   1.935  0.4840  0.6778 -0.7226
 1459SOL    HW216014   4.369   1.489   1.921 -0.2592  0.3478 -1.9143
 1460SOL     OW16015   2.400   0.272   5.627  0.6840 -0.1008  0.4090
 1460SOL    HW116016   2.388   0.337   5.557 -1.0782  0.4614  1.2362
 1460SOL    HW216017   2.421   0.329   5.701  1.7408 -0.8654  0.7029
 1461SOL     OW16018   3.144   3.790  14.575  0.0004  0.1034 -0.2198
 1461SOL    HW116019   3.135   3.879  14.541  0.1580  0.0410 -0.4280
 1461SOL    HW216020   3.229   3.767  14.537 -0.1262 -0.6603 -0.0511
 1462SOL     OW16021   4.297   2.603   9.756 -0.2539 -0.1089  0.1842
 1462SOL    HW116022   4.338   2.521   9.728 -0.0910  0.4538 -1.2164
 1462SOL    HW216023   4.338   2.632   9.838  1.6576  0.7179 -1.0572
 1463SOL     OW16024   2.391   2.095   4.204 -0.8470 -0.3430 -0.0418
 1463SOL    HW116025   2.342   2.145   4.139  0.6618  0.5518 -0.5033
 1463SOL    HW216026   2.351   2.137   4.280 -1.4024 -0.4566 -0.2703
 1464SOL     OW16027   0.315   4.459  15.893  0.2534 -0.1137  0.3281
 1464SOL    HW116028   0.347   4.544  15.862 -0.5302 -0.7061 -2.0715
 1464SOL    HW216029   0.303   4.412  15.810 -1.2935 -0.2262  0.6213
 1465SOL     OW16030   1.240   4.511   7.346  0.3332  0.2650 -0.0724
 1465SOL    HW116031   1.176   4.499   7.416  0.0941  1.0067 -0.1599
 1465SOL    HW216032   1.321   4.512   7.396  0.5711 -1.1132 -0.4224
 1466SOL     OW16033   4.540   3.018  14.432 -0.7405 -0.2833 -0.2177
 1466SOL    HW116034   4.466   2.990  14.485 -2.2239  1.4686 -1.3284
 1466SOL    HW216035   4.613   2.993  14.487 -1.5332 -0.4999  0.7383
 1467SOL     OW16036   0.550   4.548   4.689  0.1812  0.1910  0.5543
 1467SOL    HW116037   0.628   4.602   4.697  2.4192 -3.0007 -0.0287
 1467SOL    HW216038   0.513   4.577   4.773  0.6450  1.3655  0.3567
 1468SOL     OW16039   3.268   2.688   3.376 -0.0892  0.2596 -0.3170
 1468SOL    HW116040   3.348   2.639   3.394 -2.2950 -3.9358 -1.9361
 1468SOL    HW216041   3.199   2.628   3.404 -1.0736  2.1373  1.3183
 1469SOL     OW16042   2.633   2.564   2.270 -0.7219 -0.1399 -0.4430
 1469SOL    HW116043   2.687   2.629   2.226  0.3145 -0.2449  0.6909
 1469SOL    HW216044   2.661   2.486   2.221  0.9396 -0.3164  0.8168
 1470SOL     OW16045   2.930   2.622   8.205  0.0772  0.2333 -0.4735
 1470SOL    HW116046   2.907   2.572   8.284  0.4227 -1.7118 -1.6135
 1470SOL    HW216047   3.019   2.651   8.229 -0.0741  1.1976 -1.0654
 1471SOL     OW16048   0.070   1.874   8.524 -1.0959  0.1025 -0.1519
 1471SOL    HW116049   0.117   1.822   8.459 -2.3520 -1.6449  0.3311
 1471SOL    HW216050   4.723   1.875   8.481 -0.7037  1.1106 -0.8881
 1472SOL     OW16051   2.464   4.653   1.051 -0.0029 -0.6560 -0.1964
 1472SOL    HW116052   2.427   0.002   1.038 -0.7984 -1.1275 -1.1337
 1472SOL    HW216053   2.408   4.632   1.126  0.9103 -1.2637  0.3073
 1473SOL     OW16054   2.181   2.314   1.600  0.2721 -0.0035  0.5089
 1473SOL    HW116055   2.178   2.223   1.632  0.5704 -0.5585 -1.0358
 1473SOL    HW216056   2.101   2.346   1.640 -0.3404 -0.2974 -0.4884
 1474SOL     OW16057   0.342   3.373  14.560  0.1411  0.3241 -0.0121
 1474SOL    HW116058   0.380   3.288  14.536 -1.2911  0.2069 -1.8810
 1474SOL    HW216059   0.407   3.423  14.609 -0.4033  1.1545 -0.1492
 1475SOL     OW16060   3.154   2.429   6.858  0.5983  0.7151  0.0038
 1475SOL    HW116061   3.077   2.460   6.809 -1.3427  0.7855  3.0748
 1475SOL    HW216062   3.173   2.504   6.915 -1.4235  1.0464  0.2458
 1476SOL     OW16063   0.711   0.247  13.272 -0.2085  0.3844  0.5465
 1476SOL    HW116064   0.791   0.209  13.310 -2.3389 -1.9489  2.7190
 1476SOL    HW216065   0.650   0.174  13.284  0.9018 -0.4107  1.3643
 1477SOL     OW16066   2.620   4.668   5.499  0.1926 -0.2429  0.3432
 1477SOL    HW116067   2.546   4.680   5.438  1.1289  0.2827 -0.6927
 1477SOL    HW216068   2.576   4.692   5.580 -0.7668 -0.8746  0.0198
 1478SOL     OW16069   4.289   4.139   2.408 -0.2690  0.1066 -0.2578
 1478SOL    HW116070   4.338   4.169   2.484  1.5943 -2.0419 -0.6173
 1478SOL    HW216071   4.344   4.063   2.389 -1.0638  0.0222 -2.2708
 1479SOL     OW16072   1.082   2.468   6.213  0.3918 -0.4810  0.4881
 1479SOL    HW116073   1.002   2.477   6.265 -0.4643 -1.3953 -0.6719
 1479SOL    HW216074   1.129   2.392   6.249  0.3694 -0.6327  0.1968
 1480SOL     OW16075   3.757   4.322  11.222  0.0553 -0.1738  0.0699
 1480SOL    HW116076   3.693   4.391  11.239  1.3468  1.1907 -0.5745
 1480SOL    HW216077   3.843   4.364  11.227  0.2345 -0.4444 -0.7306
 1481SOL     OW16078   1.631   0.932   4.936  0.5683 -0.2962 -0.7937
 1481SOL    HW116079   1.716   0.894   4.959  2.4015  3.0036 -2.1208
 1481SOL    HW216080   1.609   0.991   5.008 -1.2193 -2.5607  0.4972
 1482SOL     OW16081   3.022   0.377   8.047 -0.4504  0.4791  0.0949
 1482SOL    HW116082   3.060   0.428   8.119 -3.2147  1.0056  1.2118
 1482SOL    HW216083   2.934   0.356   8.079 -1.8593  2.2894 -2.5720
 1483SOL     OW16084   2.236   1.416  16.107 -0.3079 -0.6097  0.0027
 1483SOL    HW116085   2.240   1.325  16.135  0.1857  0.1503  2.3388
 1483SOL    HW216086   2.227   1.410  16.012  0.3709  1.8527 -0.2364
 1484SOL     OW16087   1.568   4.585   4.478  0.4044  0.0026  0.1674
 1484SOL    HW116088   1.563   4.648   4.406 -0.5075 -1.4287 -1.0020
 1484SOL    HW216089   1.586   4.502   4.435 -2.8033 -1.3648  1.4778
 1485SOL     OW16090   4.093   0.096  15.015  0.1207  0.0764  0.3964
 1485SOL    HW116091   4.039   0.018  15.025  1.6098 -0.8452  1.0942
 1485SOL    HW216092   4.164   0.081  15.077 -0.7008 -1.0061  1.0809
 1486SOL     OW16093   2.729   2.174  11.763  0.0571  0.0296  0.0570
 1486SOL    HW116094   2.659   2.238  11.754 -0.6877 -0.6267  1.2000
 1486SOL    HW216095   2.808   2.226  11.747  0.3740 -0.3963  0.2308
 1487SOL     OW16096   4.538   1.710   2.853 -0.3148  0.7183  0.7225
 1487SOL    HW116097   4.468   1.714   2.918 -0.6290  0.1155  0.4253
 1487SOL    HW216098   4.597   1.776   2.890  0.7161 -0.3236  0.9440
 1488SOL     OW16099   2.338   4.055  17.567 -0.6057 -0.3633  0.6151
 1488SOL    HW116100   2.318   4.107  17.489  3.5510  0.5467  0.1429
 1488SOL    HW216101   2.397   4.115  17.613  0.5305 -1.4734  0.6291
 1489SOL     OW16102   2.042   1.804   4.996 -0.4471 -0.5806  0.0598
 1489SOL    HW116103   2.029   1.798   4.902  1.0726 -1.9954 -0.0695
 1489SOL    HW216104   2.133   1.831   5.006 -0.7943  1.1409 -1.4618
 1490SOL     OW16105   2.129   4.399  13.723 -0.3574  0.4164  0.5684
 1490SOL    HW116106   2.145   4.361  13.809 -3.0303 -1.2923  0.3401
 1490SOL    HW216107   2.193   4.469  13.717  1.1620 -1.0713 -0.5383
 1491SOL     OW16108   4.122   4.393  10.515 -0.0983 -0.1291  0.1429
 1491SOL    HW116109   4.199   4.383  10.460 -1.1541 -2.3853 -0.9383
 1491SOL    HW216110   4.128   4.326  10.583 -0.9476 -0.3545  0.0040
 1492SOL     OW16111   3.412   1.371   6.403  0.0970 -0.0655  0.2089
 1492SOL    HW116112   3.491   1.423   6.421 -2.2146  3.4471  0.2505
 1492SOL    HW216113   3.439   1.344   6.315  1.0878 -0.4696  0.6364
 1493SOL     OW16114   4.724   1.057   8.534  0.4912  0.2477 -0.2731
 1493SOL    HW116115   0.007   1.091   8.620  0.5489 -0.4160 -0.0254
 1493SOL    HW216116   0.070   1.063   8.490  0.2037 -1.1000 -0.9997
 1494SOL     OW16117   2.375   3.046  15.398 -0.3946 -0.1105 -0.0086
 1494SOL    HW116118   2.308   2.985  15.370 -0.2304 -1.4129  2.3766
 1494SOL    HW216119   2.382   3.098  15.318  3.4181  0.5612  0.7338
 1495SOL     OW16120   4.432   3.362   2.587 -0.5102  0.4680  0.6146
 1495SOL    HW116121   4.406   3.302   2.657 -0.4695  0.1208  0.3308
 1495SOL    HW216122   4.495   3.411   2.640  0.6098 -1.6421  1.1993
 1496SOL     OW16123   1.310   0.874   9.149 -0.4976  0.2405  0.4311
 1496SOL    HW116124   1.349   0.958   9.172  1.3030 -0.5885  0.4400
 1496SOL    HW216125   1.324   0.864   9.055 -1.0007 -0.3914  0.4231
 1497SOL     OW16126   1.802   0.860  12.215  0.1509  0.1444 -0.2721
 1497SOL    HW116127   1.731   0.914  12.250  1.9577  1.3404  1.5532
 1497SOL    HW216128   1.816   0.900  12.129  1.5392 -2.2634 -1.1702
 1498SOL     OW16129   0.648   2.586   8.172  0.4257 -0.2276 -0.1819
 1498SOL    HW116130   0.722   2.529   8.193  0.5171  0.1096  0.4298
 1498SOL    HW216131   0.581   2.529   8.136 -1.3875  2.0167 -0.3675
 1499SOL     OW16132   3.146   1.150   6.055  0.2845  0.0857  0.3610
 1499SOL    HW116133   3.226   1.190   6.021  1.3828 -1.1745  1.4238
 1499SOL    HW216134   3.094   1.227   6.077  0.5833  0.1277  0.9467
 1500SOL     OW16135   0.134   1.127  11.192 -0.3766 -0.0054  0.0300
 1500SOL    HW116136   0.094   1.066  11.253 -0.8252  1.4251  1.1856
 1500SOL    HW216137   0.054   1.167  11.159 -0.5008  0.1916  0.5607
 1501SOL     OW16138   2.731   3.013   0.585 -0.0416 -0.3602 -0.2845
 1501SOL    HW116139   2.703   2.942   0.527  6.3138 -0.8743 -2.6812
 1501SOL    HW216140   2.750   2.977   0.672 -0.0661 -1.6586 -0.8274
 1502SOL     OW16141   2.631   1.595   2.345 -0.5554  0.5891  0.2214
 1502SOL    HW116142   2.627   1.688   2.324 -0.9105  0.6263  0.4583
 1502SOL    HW216143   2.660   1.606   2.435 -1.8174 -0.4509  0.7488
 1503SOL     OW16144   3.247   0.916   8.378 -0.1877  0.6153 -0.5284
 1503SOL    HW116145   3.249   0.912   8.282 -0.5658  1.2439 -0.5650
 1503SOL    HW216146   3.317   0.979   8.394  1.2251 -0.6716 -1.7020
 1504SOL     OW16147   3.105   0.832  11.140  0.4425  0.0952  0.4992
 1504SOL    HW116148   3.054   0.896  11.188  1.9964  1.2980  0.5518
 1504SOL    HW216149   3.060   0.751  11.165 -2.4029  2.2542  2.1989
 1505SOL     OW16150   3.219   1.707  10.293 -0.2461  0.8722 -0.4186
 1505SOL    HW116151   3.219   1.659  10.376  0.5664  0.0947 -0.8589
 1505SOL    HW216152   3.181   1.790  10.320  1.1277  1.5259 -0.5004
 1506SOL     OW16153   1.444   3.310   7.858 -0.1278 -0.2051  0.9787
 1506SOL    HW116154   1.451   3.265   7.942  0.7372 -0.0303  0.9963
 1506SOL    HW216155   1.424   3.397   7.892  0.5615 -0.0818  1.0698
 1507SOL     OW16156   2.346   0.363   6.333  0.2800  0.2360 -0.0860
 1507SOL    HW116157   2.316   0.453   6.337  2.6894  1.0074  0.4449
 1507SOL    HW216158   2.438   0.388   6.322  1.1311 -2.4356  0.9816
 1508SOL     OW16159   3.680   4.026   5.125  0.7028 -0.4148  0.2248
 1508SOL    HW116160   3.705   4.091   5.191 -0.0485  0.2071 -0.1078
 1508SOL    HW216161   3.704   3.944   5.170  0.0146 -0.0667  1.2281
 1509SOL     OW16162   3.854   1.161  12.017 -0.0367  0.1448 -0.0968
 1509SOL    HW116163   3.858   1.257  12.014 -2.1574  0.2057 -0.6090
 1509SOL    HW216164   3.894   1.134  11.934  0.3719  3.4175 -0.9537
 1510SOL     OW16165   0.869   1.573   7.464  0.0552 -0.7788  0.5787
 1510SOL    HW116166   0.831   1.639   7.406  0.3665 -1.8371 -0.8144
 1510SOL    HW216167   0.918   1.517   7.404  1.5441  0.4368  0.6375
 1511SOL     OW16168   0.988   0.481   9.643 -0.5504  0.2535  0.1654
 1511SOL    HW116169   1.032   0.476   9.728  2.8377  2.9927 -1.4036
 1511SOL    HW216170   0.896   0.481   9.667 -0.7946  1.3950 -0.7708
 1512SOL     OW16171   2.345   1.287  12.831 -0.0655  0.5724  0.1510
 1512SOL    HW116172   2.405   1.342  12.881 -1.4324 -0.2315  2.6444
 1512SOL    HW216173   2.344   1.206  12.882 -0.7155  0.1178 -0.5659
 1513SOL     OW16174   3.367   2.132   7.410  0.0215  0.2538  0.1151
 1513SOL    HW116175   3.276   2.153   7.432 -0.2204  0.7761 -1.3735
 1513SOL    HW216176   3.356   2.155   7.317  1.7464 -0.3821 -0.2419
 1514SOL     OW16177   0.287   2.465  15.444  1.1409  0.5460 -0.0950
 1514SOL    HW116178   0.372   2.474  15.487  0.5182  1.6120  0.9301
 1514SOL    HW216179   0.232   2.435  15.516  0.8565 -0.1601 -0.6125
 1515SOL     OW16180   2.165   1.406   6.747 -0.0703  0.0339 -0.3557
 1515SOL    HW116181   2.133   1.453   6.824  2.2038  1.4846 -0.3146
 1515SOL    HW216182   2.245   1.456   6.732  0.2444 -0.1095  0.8260
 1516SOL     OW16183   1.645   4.237  12.179 -0.2692 -0.2295 -0.3461
 1516SOL    HW116184   1.658   4.304  12.111  2.7499 -0.9232 -0.4598
 1516SOL    HW216185   1.644   4.159  12.123 -0.0123 -0.4844  0.0026
 1517SOL     OW16186   2.060   2.542   7.270  0.5965 -0.2133  0.4372
 1517SOL    HW116187   2.047   2.605   7.199  0.3118 -1.3695 -0.5430
 1517SOL    HW216188   2.149   2.510   7.258  0.8844  0.2878  1.2115
 1518SOL     OW16189   2.447   0.711   6.955 -0.0881 -0.1977  0.1957
 1518SOL    HW116190   2.367   0.672   6.989  0.9991 -1.7219  1.0287
 1518SOL    HW216191   2.463   0.678   6.867  0.2036  0.1787  0.1069
 1519SOL     OW16192   0.147   4.116   9.867 -0.2283  0.2885  0.0359
 1519SOL    HW116193   0.170   4.096   9.958  1.3406 -0.4470 -0.5254
 1519SOL    HW216194   0.096   4.037   9.852  1.5906 -0.5793 -1.4753
 1520SOL     OW16195   3.631   0.467  15.355 -0.5113  0.4319 -0.4656
 1520SOL    HW116196   3.569   0.450  15.426 -0.1714 -0.6076 -0.4135
 1520SOL    HW216197   3.711   0.458  15.407  0.1157  3.1535 -0.9859
 1521SOL     OW16198   0.251   0.979   2.536 -0.2669 -0.5125 -0.0469
 1521SOL    HW116199   0.188   1.006   2.469 -0.2166 -2.3291 -0.8123
 1521SOL    HW216200   0.291   0.901   2.497 -0.9430  0.1203 -1.9830
 1522SOL     OW16201   2.671   0.296  12.851 -0.8923  0.3319 -0.1288
 1522SOL    HW116202   2.675   0.387  12.879 -1.0898  0.0532  0.7747
 1522SOL    HW216203   2.649   0.244  12.928  1.5252 -0.2461  0.1656
 1523SOL     OW16204   2.333   0.412   1.972 -0.6121 -0.1224 -0.2760
 1523SOL    HW116205   2.386   0.480   2.014  2.7832  0.3020 -5.2779
 1523SOL    HW216206   2.286   0.463   1.907  2.8960  1.2314 -1.7557
 1524SOL     OW16207   2.133   2.824   7.324  0.4378 -0.0810  0.7315
 1524SOL    HW116208   2.192   2.855   7.256 -0.6064 -1.3042 -0.7456
 1524SOL    HW216209   2.189   2.750   7.349  0.6476 -0.5517 -1.0928
 1525SOL     OW16210   3.574   4.593   1.826  0.0419  0.0272  1.0309
 1525SOL    HW116211   3.599   4.510   1.865  2.9121  1.0976  1.4409
 1525SOL    HW216212   3.481   4.591   1.851  0.2411 -2.6357  1.5030
 1526SOL     OW16213   3.383   1.022   2.779  0.5551 -0.0043  0.0202
 1526SOL    HW116214   3.309   1.059   2.829  0.6951 -1.9229  1.6424
 1526SOL    HW216215   3.388   1.096   2.719 -2.1659 -0.5978 -0.9622
 1527SOL     OW16216   4.193   0.182   5.554 -0.4085 -0.2890  0.2355
 1527SOL    HW116217   4.259   0.117   5.578 -0.9732 -2.0692 -2.9663
 1527SOL    HW216218   4.235   0.267   5.570 -0.6110 -0.4101  1.4239
 1528SOL     OW16219   3.956   4.240  15.807 -0.4125  0.2276 -0.1013
 1528SOL    HW116220   3.991   4.195  15.884 -1.1696 -0.4997 -0.1850
 1528SOL    HW216221   3.884   4.178  15.793 -0.0919 -0.2984  0.5787
 1529SOL     OW16222   2.553   3.382   1.541 -0.3076  0.2054 -0.2942
 1529SOL    HW116223   2.578   3.372   1.449  0.5996 -0.6790  0.0528
 1529SOL    HW216224   2.529   3.474   1.548  0.3721  0.3316  0.3793
 1530SOL     OW16225   0.725   1.992   5.008  0.0101 -0.1661  0.1174
 1530SOL    HW116226   0.766   2.075   4.984 -1.2300  0.4682  0.2350
 1530SOL    HW216227   0.659   2.030   5.066  0.3799  2.0161 -0.8965
 1531SOL     OW16228   4.077   4.254   1.264  0.3943  0.9680  0.3636
 1531SOL    HW116229   4.038   4.319   1.205  0.2692 -0.7733 -1.4754
 1531SOL    HW216230   4.080   4.298   1.348 -0.0927 -1.1572  1.5050
 1532SOL     OW16231   0.682   2.999  13.848 -0.0248 -0.0854  0.2195
 1532SOL    HW116232   0.654   2.909  13.861 -1.4198  0.6528  2.2084
 1532SOL    HW216233   0.716   2.984  13.760  0.2021 -0.4471  0.3712
 1533SOL     OW16234   1.617   3.634   2.136 -0.1173  0.6260  0.5076
 1533SOL    HW116235   1.575   3.553   2.108  0.0983  0.8607 -0.4885
 1533SOL    HW216236   1.613   3.625   2.231 -1.8077 -1.3263  0.2506
 1534SOL     OW16237   2.077   0.501   8.043  0.6486 -0.0287  0.2932
 1534SOL    HW116238   2.058   0.508   8.136  0.7656  0.0738  0.3093
 1534SOL    HW216239   2.136   0.427   8.056  0.7197 -0.0175  0.0394
 1535SOL     OW16240   1.970   0.480   3.049  0.1461 -0.1198 -0.5994
 1535SOL    HW116241   1.883   0.511   3.022  1.0621  0.0751 -3.3562
 1535SOL    HW216242   2.004   0.543   3.112  1.3397 -1.0077 -0.3627
 1536SOL     OW16243   4.001   3.667   6.448 -0.3444  0.2467  0.1208
 1536SOL    HW116244   4.062   3.614   6.499 -0.3828  0.7778  0.7199
 1536SOL    HW216245   3.913   3.651   6.483  0.2873 -0.4427  1.3904
 1537SOL     OW16246   2.802   1.025   7.299 -0.4199 -0.4711  0.5844
 1537SOL    HW116247   2.724   0.971   7.288 -2.0475  2.1279 -0.7760
 1537SOL    HW216248   2.843   1.001   7.216 -1.1275  0.0638  0.0783
 1538SOL     OW16249   2.972   1.641   7.134  0.3921  0.7989 -0.1273
 1538SOL    HW116250   3.027   1.564   7.117 -0.9214  0.0938 -1.1722
 1538SOL    HW216251   3.048   1.697   7.146 -0.2627  2.0438 -1.8399
 1539SOL     OW16252   0.674   1.476   2.243 -0.7148 -0.9388 -0.7321
 1539SOL    HW116253   0.695   1.393   2.285 -2.9801 -0.4501  1.3680
 1539SOL    HW216254   0.679   1.452   2.151  2.8328  0.4410 -0.9142
 1540SOL     OW16255   1.803   4.179  11.888 -0.4679  0.2501 -0.5309
 1540SOL    HW116256   1.766   4.260  11.921  1.7298  0.3728  1.5888
 1540SOL    HW216257   1.760   4.111  11.940  1.0563 -1.3172 -1.3156
 1541SOL     OW16258   3.919   0.148  11.991  0.4124  0.6605 -0.0574
 1541SOL    HW116259   3.922   0.154  12.086 -2.4398 -1.3802  0.1519
 1541SOL    HW216260   3.990   0.086  11.971 -1.2143 -1.1278 -0.2937
 1542SOL     OW16261   1.569   1.640  15.912  0.3145 -0.3422  0.0751
 1542SOL    HW116262   1.504   1.585  15.868  0.7085 -3.3599  3.2357
 1542SOL    HW216263   1.525   1.725  15.912 -0.5594 -0.7898 -0.9034
 1543SOL     OW16264   1.566   3.626  10.096 -0.0993 -0.0154  0.6255
 1543SOL    HW116265   1.628   3.554  10.104 -0.9779 -0.7131  1.0340
 1543SOL    HW216266   1.599   3.681  10.024 -0.7368 -1.4402 -0.7687
 1544SOL     OW16267   4.024   1.463   4.166  0.0183  0.0638 -0.0124
 1544SOL    HW116268   3.975   1.541   4.194 -2.4810 -0.8772 -1.7485
 1544SOL    HW216269   4.021   1.463   4.070  1.1574  0.7743 -0.0436
 1545SOL     OW16270   1.200   2.592   7.124  0.6985 -0.3385  0.4156
 1545SOL    HW116271   1.141   2.526   7.087 -0.3151  0.8628 -0.1162
 1545SOL    HW216272   1.261   2.528   7.160 -0.4203 -1.3615  0.5087
 1546SOL     OW16273   0.581   2.049   1.046 -0.4605  0.2101 -0.1236
 1546SOL    HW116274   0.602   2.023   0.956 -1.2038 -2.0505  0.3497
 1546SOL    HW216275   0.582   1.973   1.104 -1.5723  0.8207  0.6901
 1547SOL     OW16276   2.519   1.275   5.277  0.4545  0.3131  0.1914
 1547SOL    HW116277   2.436   1.265   5.229  0.9175 -1.4073 -0.2196
 1547SOL    HW216278   2.568   1.195   5.261 -1.0347 -0.6842  0.6313
 1548SOL     OW16279   2.862   0.028   8.248  0.2023 -0.3724  0.4604
 1548SOL    HW116280   2.817   0.089   8.189  3.2531  2.2037  0.7576
 1548SOL    HW216281   2.925   4.732   8.185 -1.4276 -1.0579 -0.8038
 1549SOL     OW16282   1.888   2.532  15.219  0.0039 -0.1192  0.0268
 1549SOL    HW116283   1.822   2.550  15.152  0.5262  0.4130 -0.3390
 1549SOL    HW216284   1.826   2.497  15.283 -0.0007  0.6631  0.4542
 1550SOL     OW16285   1.356   1.687   4.682 -0.0783 -0.1328 -0.0162
 1550SOL    HW116286   1.306   1.628   4.738 -0.8234  0.5227  0.0121
 1550SOL    HW216287   1.365   1.630   4.605  1.4065 -0.5147  0.4408
 1551SOL     OW16288   2.448   2.438   3.844  0.4469 -0.2813 -0.1233
 1551SOL    HW116289   2.421   2.439   3.935  0.8833  1.0276 -0.0008
 1551SOL    HW216290   2.370   2.479   3.805 -0.1450 -2.2675 -1.0291
 1552SOL     OW16291   2.092   0.275   2.935  0.2692 -0.1687 -0.3267
 1552SOL    HW116292   2.046   0.340   2.988  1.1081 -0.4649  0.7562
 1552SOL    HW216293   2.132   0.335   2.872  0.4736 -0.8964 -0.8827
 1553SOL     OW16294   1.576   3.619   3.667 -0.6563  0.5308 -0.2316
 1553SOL    HW116295   1.631   3.627   3.590  0.3103 -0.3137  0.3713
 1553SOL    HW216296   1.637   3.608   3.740 -2.2957 -0.7632  0.9904
 1554SOL     OW16297   0.264   2.927   8.027 -0.0208 -0.4207 -0.1803
 1554SOL    HW116298   0.341   2.979   8.005  0.6022 -0.1925  2.5705
 1554SOL    HW216299   0.261   2.858   7.960 -0.0557  2.0994 -2.7749
 1555SOL     OW16300   4.475   0.650   2.553  1.1184 -0.4032  0.5692
 1555SOL    HW116301   4.470   0.720   2.488  2.7653 -0.8621 -0.0528
 1555SOL    HW216302   4.503   0.574   2.502 -0.9135 -0.7170 -0.0722
 1556SOL     OW16303   3.893   0.030   6.876  0.1428 -0.2941  0.2869
 1556SOL    HW116304   3.880   0.122   6.897 -0.2711 -0.2870 -0.0031
 1556SOL    HW216305   3.989   0.036   6.875  0.2097 -1.7220 -2.2757
 1557SOL     OW16306   3.358   0.443  15.225 -0.2809 -0.5250 -0.2344
 1557SOL    HW116307   3.447   0.449  15.258 -0.3844  0.2125 -0.1109
 1557SOL    HW216308   3.330   0.352  15.241  1.4010 -0.6086  2.0980
 1558SOL     OW16309   3.318   0.330   5.147 -0.7779  0.3447 -0.4005
 1558SOL    HW116310   3.359   0.347   5.062 -0.0275  1.1455  0.1231
 1558SOL    HW216311   3.391   0.300   5.201  0.1880 -1.7721 -2.8645
 1559SOL     OW16312   1.544   2.309  15.274  0.0807  0.6944  0.2059
 1559SOL    HW116313   1.536   2.246  15.345  0.5033 -0.7161 -0.9848
 1559SOL    HW216314   1.585   2.250  15.210 -0.9733 -0.5117  0.6394
 1560SOL     OW16315   4.644   1.610  11.150  0.0326  0.5202  0.0968
 1560SOL    HW116316   4.631   1.700  11.180 -2.1656  1.3869 -3.4650
 1560SOL    HW216317   4.645   1.560  11.232  1.5831  0.9176  0.3153
 1561SOL     OW16318   2.381   3.751  14.281 -0.1877  0.5561 -0.4553
 1561SOL    HW116319   2.333   3.684  14.329  1.3738 -0.4429 -0.3073
 1561SOL    HW216320   2.324   3.828  14.289 -0.1431  0.7322 -1.9282
 1562SOL     OW16321   2.134   0.867   4.623 -0.2400  0.1577 -0.5056
 1562SOL    HW116322   2.224   0.898   4.608  0.5553 -2.1992 -0.5686
 1562SOL    HW216323   2.121   0.890   4.715 -0.2020  3.2174 -1.2426
 1563SOL     OW16324   1.330   0.867  15.139 -0.5632 -0.1175 -0.0130
 1563SOL    HW116325   1.272   0.898  15.069 -0.3530  1.3379  0.4556
 1563SOL    HW216326   1.274   0.893  15.211 -0.7978  1.0865 -0.6264
 1564SOL     OW16327   0.794   3.862  13.790  0.2859  0.1486 -0.0898
 1564SOL    HW116328   0.854   3.887  13.720  0.9452  0.2453  0.5065
 1564SOL    HW216329   0.713   3.867  13.741 -0.4048 -1.8786  0.8360
 1565SOL     OW16330   1.169   1.872  15.844  0.4014  0.3015 -0.4280
 1565SOL    HW116331   1.152   1.867  15.938  0.3705 -1.0554 -0.5065
 1565SOL    HW216332   1.085   1.886  15.799 -2.3367 -1.4433  4.1147
 1566SOL     OW16333   1.521   3.350   2.387  0.2574 -0.1866  0.2133
 1566SOL    HW116334   1.513   3.329   2.294 -1.0406 -2.8509  0.9395
 1566SOL    HW216335   1.436   3.358   2.429  1.2230 -1.6398  2.4465
 1567SOL     OW16336   3.401   4.453  15.971 -0.1543 -0.4581  0.2193
 1567SOL    HW116337   3.313   4.446  16.010 -1.0448 -2.8507 -2.2238
 1567SOL    HW216338   3.443   4.389  16.029  2.0503 -1.7396 -2.7802
 1568SOL     OW16339   2.334   1.059   7.126 -0.4546  0.1262  0.3717
 1568SOL    HW116340   2.282   1.086   7.051  0.0172  0.1500  0.0518
 1568SOL    HW216341   2.279   1.098   7.194  0.0725 -3.2494  2.7126
 1569SOL     OW16342   0.184   0.149   0.009  0.0101  0.3731 -0.2769
 1569SOL    HW116343   0.232   0.121   0.087  2.4002  3.0952 -0.7778
 1569SOL    HW216344   0.237   0.227  17.746 -0.6502  0.7844 -0.4983
 1570SOL     OW16345   3.300   2.044  10.360  0.1632  0.7643  0.1336
 1570SOL    HW116346   3.393   2.047  10.383  0.5122 -1.7648 -0.9183
 1570SOL    HW216347   3.310   2.039  10.265 -0.0776 -2.2881  0.2725
 1571SOL     OW16348   0.095   4.507  14.590 -0.1144  0.3356  0.2654
 1571SOL    HW116349   0.093   4.486  14.497  1.0588 -1.7523  0.7243
 1571SOL    HW216350   0.003   4.496  14.615 -0.2052 -1.0104 -0.6470
 1572SOL     OW16351   1.065   2.771   7.538 -0.2087  0.4793  0.0374
 1572SOL    HW116352   1.137   2.827   7.509 -0.3472  0.1978 -0.8492
 1572SOL    HW216353   0.994   2.811   7.489  0.0628 -1.6134 -2.0850
 1573SOL     OW16354   2.007   2.244  11.558  0.2642 -0.0001  0.5691
 1573SOL    HW116355   2.046   2.163  11.526  0.1531  0.4163 -0.5982
 1573SOL    HW216356   2.078   2.302  11.532 -0.8892  0.4612 -1.5038
 1574SOL     OW16357   0.427   3.548   1.779  0.2082  0.1146  0.3712
 1574SOL    HW116358   0.362   3.599   1.729  0.1099  1.2699  1.6713
 1574SOL    HW216359   0.456   3.624   1.830  0.6444  0.6472 -0.6719
 1575SOL     OW16360   4.346   2.768   3.540  0.0129 -0.3265 -0.5845
 1575SOL    HW116361   4.329   2.796   3.450 -1.5156 -1.7549 -0.7282
 1575SOL    HW216362   4.439   2.753   3.524 -0.3737 -1.8786 -1.4008
 1576SOL     OW16363   4.646   1.446   7.241 -0.3932 -0.2629  0.5853
 1576SOL    HW116364   4.603   1.509   7.183 -0.1994  1.0491  1.8753
 1576SOL    HW216365   4.721   1.413   7.191  0.4538  0.6778  1.2303
 1577SOL     OW16366   0.480   0.471  10.398  0.2740 -0.5961  0.5965
 1577SOL    HW116367   0.449   0.561  10.397  1.3384 -0.2376 -0.7576
 1577SOL    HW216368   0.555   0.477  10.338 -0.3680  0.0560 -0.1421
 1578SOL     OW16369   0.465   1.820  13.174 -0.2512  0.2373  0.0470
 1578SOL    HW116370   0.502   1.870  13.101  2.5399 -0.2432  1.1454
 1578SOL    HW216371   0.464   1.736  13.128  1.2462  0.5991 -0.6483
 1579SOL     OW16372   2.237   3.334  16.551  0.1417 -0.0248 -0.4691
 1579SOL    HW116373   2.199   3.393  16.486 -1.3480 -0.1738  0.2759
 1579SOL    HW216374   2.307   3.296  16.498  0.3607 -0.2607 -0.0128
 1580SOL     OW16375   1.512   1.531   1.512 -0.0956 -0.0498 -0.4356
 1580SOL    HW116376   1.551   1.552   1.427  0.4307  1.0884  0.0875
 1580SOL    HW216377   1.430   1.491   1.483  0.2734  0.6441 -2.4613
 1581SOL     OW16378   1.620   1.636   3.958 -0.2260 -0.0979  0.1864
 1581SOL    HW116379   1.526   1.651   3.960 -0.8287 -4.2660  1.8521
 1581SOL    HW216380   1.616   1.541   3.965  1.8713 -0.2507 -0.4170
 1582SOL     OW16381   2.522   4.238   7.420 -0.4412  1.0851 -0.3862
 1582SOL    HW116382   2.523   4.212   7.328  0.7013  2.5543 -0.7992
 1582SOL    HW216383   2.469   4.170   7.461  1.5402  0.1081  0.5406
 1583SOL     OW16384   3.109   0.805   1.569 -0.4202 -0.4933 -0.1319
 1583SOL    HW116385   3.167   0.869   1.611 -0.3619 -0.5239 -0.1670
 1583SOL    HW216386   3.176   0.737   1.568  1.1527  0.9957  2.1739
 1584SOL     OW16387   3.211   0.505   3.955  0.7696 -0.3660  0.2579
 1584SOL    HW116388   3.212   0.450   4.034  0.4373 -0.6216  0.0825
 1584SOL    HW216389   3.185   0.435   3.895  0.5421 -0.4960  0.5068
 1585SOL     OW16390   4.549   0.331   1.626 -0.0248 -0.4263 -0.9372
 1585SOL    HW116391   4.523   0.393   1.695  1.1928 -0.0355 -0.8394
 1585SOL    HW216392   4.644   0.335   1.629  0.0408 -2.0252 -0.6451
 1586SOL     OW16393   3.997   4.114   1.626 -0.1629  0.4818  0.3093
 1586SOL    HW116394   3.935   4.070   1.568  2.0733 -2.9379  0.4414
 1586SOL    HW216395   3.946   4.105   1.706 -1.4042 -1.5874 -0.7216
 1587SOL     OW16396   4.558   1.823  10.031 -0.3742 -0.5616  0.0405
 1587SOL    HW116397   4.477   1.843   9.983  0.9030 -1.2028 -2.4172
 1587SOL    HW216398   4.615   1.825   9.953 -0.5568 -0.4677 -0.0905
 1588SOL     OW16399   2.299   2.895   7.138 -0.1322 -0.2564 -0.1558
 1588SOL    HW116400   2.272   2.876   7.048  1.6889  2.6895 -1.3557
 1588SOL    HW216401   2.307   2.989   7.120  2.9465 -0.1936  1.5875
 1589SOL     OW16402   2.376   4.460   9.205  0.2978  0.0480 -0.1673
 1589SOL    HW116403   2.350   4.512   9.281 -1.3520 -0.1551 -0.5929
 1589SOL    HW216404   2.351   4.374   9.238  0.3816  0.5537  1.2372
 1590SOL     OW16405   4.597   2.994   2.627 -0.4220  0.3814 -0.5502
 1590SOL    HW116406   4.652   3.020   2.701  0.0327 -2.0788 -0.0274
 1590SOL    HW216407   4.625   2.903   2.617 -2.0880 -0.1022 -0.9295
 1591SOL     OW16408   4.488   0.086  17.485  0.4702 -0.8446  0.2411
 1591SOL    HW116409   4.453   0.143  17.417 -0.7181 -1.7816  0.0724
 1591SOL    HW216410   4.559   0.141  17.519  0.0050 -1.1709  1.7187
 1592SOL     OW16411   3.554   3.765   1.010  0.1973 -0.3308  0.1665
 1592SOL    HW116412   3.574   3.842   1.063  1.2669 -0.2420 -0.3575
 1592SOL    HW216413   3.517   3.787   0.924 -0.1482  1.6386  0.8251
 1593SOL     OW16414   1.186   0.519   7.633 -0.2812 -0.3860 -0.0136
 1593SOL    HW116415   1.244   0.591   7.608  1.0444 -0.9274  1.4948
 1593SOL    HW216416   1.164   0.545   7.722  0.6702 -1.4635  0.5403
 1594SOL     OW16417   1.752   2.439   9.730  0.5658 -0.2023  0.5131
 1594SOL    HW116418   1.750   2.398   9.644  2.1024 -0.5496  0.6357
 1594SOL    HW216419   1.846   2.457   9.731  0.3295  1.1045  0.3637
 1595SOL     OW16420   2.136   1.623   3.630  0.1303 -0.3226  0.2107
 1595SOL    HW116421   2.209   1.648   3.573 -1.6160  2.4260 -0.7850
 1595SOL    HW216422   2.138   1.709   3.673 -0.1207 -0.2369  0.0484
 1596SOL     OW16423   2.034   1.996   7.721 -0.8056  0.2737  0.0737
 1596SOL    HW116424   2.022   2.090   7.731  0.2580  0.5157 -0.9220
 1596SOL    HW216425   2.092   1.986   7.797 -0.2443  0.2792 -0.3555
 1597SOL     OW16426   2.160   1.352   7.107 -0.3906  0.1577  0.2140
 1597SOL    HW116427   2.145   1.268   7.150 -2.4139  1.1505  1.4340
 1597SOL    HW216428   2.234   1.373   7.164 -0.3105 -1.1376  0.5811
 1598SOL     OW16429   3.042   2.397   2.802  0.0786 -0.1078 -0.1466
 1598SOL    HW116430   3.046   2.481   2.756  1.3057 -0.2609 -0.3380
 1598SOL    HW216431   2.952   2.374   2.781 -0.5807 -0.3780  2.9364
 1599SOL     OW16432   3.222   4.426   5.845  0.0688  1.1137  0.1095
 1599SOL    HW116433   3.238   4.448   5.937  3.0463 -3.7047  0.7414
 1599SOL    HW216434   3.216   4.512   5.804 -0.9563  1.1002  0.2274
 1600SOL     OW16435   0.291   3.182   5.858  0.0332 -0.1161 -0.0001
 1600SOL    HW116436   0.346   3.218   5.787 -0.8648  0.7134 -0.2649
 1600SOL    HW216437   0.249   3.258   5.897  1.8445  0.2226  1.2964
 1601SOL     OW16438   3.082   3.744   9.851 -0.9992  0.0549 -0.1397
 1601SOL    HW116439   3.112   3.835   9.856 -1.8601  0.3195  0.0766
 1601SOL    HW216440   3.075   3.725   9.945  0.1520 -1.3366 -0.3268
 1602SOL     OW16441   1.733   3.082  10.081  0.1927 -0.4185 -0.0475
 1602SOL    HW116442   1.733   2.993  10.046 -0.3092 -0.8523  1.0684
 1602SOL    HW216443   1.711   3.129  10.000 -2.0131  0.5166  1.1028
 1603SOL     OW16444   0.063   1.341  14.497  0.1673 -0.1704  0.5955
 1603SOL    HW116445   0.107   1.264  14.461 -0.4742  0.0443 -0.6305
 1603SOL    HW216446   4.715   1.340  14.455  0.3360 -1.4140  0.2764
 1604SOL     OW16447   0.686   2.860   3.636  0.1219 -0.0029 -0.6988
 1604SOL    HW116448   0.660   2.907   3.557 -0.0626 -1.3402 -1.4204
 1604SOL    HW216449   0.776   2.840   3.610 -0.2201 -1.7276 -0.5794
 1605SOL     OW16450   2.379   2.207   7.445 -0.4368 -0.2172 -0.1787
 1605SOL    HW116451   2.428   2.268   7.500  0.0255  0.6152 -1.4976
 1605SOL    HW216452   2.296   2.256   7.443  0.3779  1.1925  0.2280
 1606SOL     OW16453   3.872   2.776   3.306 -0.2413 -0.0379  0.1253
 1606SOL    HW116454   3.850   2.868   3.323  1.3201  0.5968 -1.2386
 1606SOL    HW216455   3.950   2.760   3.359 -0.7578 -2.0399  0.2572
 1607SOL     OW16456   1.758   2.803   8.563 -0.0442  0.4809  0.0759
 1607SOL    HW116457   1.816   2.778   8.491 -0.7671 -1.7817  0.2688
 1607SOL    HW216458   1.788   2.887   8.597 -0.8558  1.1193 -0.8094
 1608SOL     OW16459   1.650   1.474  16.395  0.2863 -0.1859  0.2710
 1608SOL    HW116460   1.622   1.383  16.402 -1.9147  0.6856  2.6885
 1608SOL    HW216461   1.674   1.490  16.487  0.2730 -0.5278  0.3352
 1609SOL     OW16462   0.684   4.636   7.813  0.3612  0.0824 -0.2718
 1609SOL    HW116463   0.740   4.580   7.758 -0.7744 -0.0429 -1.2918
 1609SOL    HW216464   0.599   4.625   7.772  0.7080 -1.7831 -0.5101
 1610SOL     OW16465   2.681   3.782  16.148  0.7668 -0.2629 -0.5699
 1610SOL    HW116466   2.712   3.753  16.233  0.6102 -1.6194 -0.9815
 1610SOL    HW216467   2.683   3.878  16.147 -0.4196 -0.2196  0.8535
 1611SOL     OW16468   2.796   3.869   1.763 -0.0982 -0.0438 -0.1649
 1611SOL    HW116469   2.802   3.868   1.667 -2.5833 -1.5597 -0.3091
 1611SOL    HW216470   2.757   3.784   1.784 -0.1771  0.0684  0.1395
 1612SOL     OW16471   2.026   3.532   3.889 -0.1992  0.0910  0.2766
 1612SOL    HW116472   1.945   3.584   3.888  0.8948  1.7494 -2.0599
 1612SOL    HW216473   2.078   3.603   3.926 -0.5932  0.3896  0.2573
 1613SOL     OW16474   3.424   3.265   2.718 -0.4485  0.6890  0.0704
 1613SOL    HW116475   3.455   3.176   2.702  0.4245  0.9483  0.3381
 1613SOL    HW216476   3.335   3.267   2.682 -0.1468  1.2195 -0.6458
 1614SOL     OW16477   4.574   0.526   4.093  0.0446  0.1187 -0.1474
 1614SOL    HW116478   4.660   0.567   4.085  1.0600 -1.3266  3.2513
 1614SOL    HW216479   4.529   0.601   4.130  0.4205  0.8661 -1.1975
 1615SOL     OW16480   0.545   4.550  11.085  0.1569  0.2984 -0.3620
 1615SOL    HW116481   0.504   4.498  11.154  2.2523  2.6254  2.6160
 1615SOL    HW216482   0.469   4.605  11.065 -0.3395 -0.5279 -0.7589
 1616SOL     OW16483   0.927   1.305   4.140 -0.2639  0.7047  0.2775
 1616SOL    HW116484   0.836   1.335   4.135 -0.9231 -1.4982 -0.5408
 1616SOL    HW216485   0.921   1.211   4.123 -4.0670 -0.0900  6.0600
 1617SOL     OW16486   2.880   2.374   6.328  0.0053 -0.2568  0.1759
 1617SOL    HW116487   2.813   2.387   6.260  0.9758  1.3993 -0.4758
 1617SOL    HW216488   2.859   2.449   6.383 -2.1589 -0.6206 -0.1504
 1618SOL     OW16489   1.301   2.470   5.388 -0.0923  0.2099 -0.3563
 1618SOL    HW116490   1.323   2.428   5.470  0.7133  0.3640 -0.4990
 1618SOL    HW216491   1.328   2.399   5.329  0.8253  0.9889 -0.8704
 1619SOL     OW16492   2.654   2.613   0.570 -0.7368 -0.3501  0.0372
 1619SOL    HW116493   2.566   2.612   0.530 -0.0468 -0.4810 -1.4713
 1619SOL    HW216494   2.708   2.578   0.499 -0.8966 -2.3989  0.9376
 1620SOL     OW16495   1.622   1.276   5.433  0.0341  0.5495 -0.3538
 1620SOL    HW116496   1.591   1.294   5.522 -1.7246  0.4720 -0.9411
 1620SOL    HW216497   1.597   1.359   5.392 -1.9587 -0.5683 -1.4284
 1621SOL     OW16498   0.766   4.396  16.118 -0.2623  0.3165  0.0609
 1621SOL    HW116499   0.744   4.304  16.098 -1.3427  0.9633 -1.7474
 1621SOL    HW216500   0.747   4.398  16.212 -0.2508 -0.7914  0.0878
 1622SOL     OW16501   3.570   0.238  14.212 -0.4962 -0.2689 -0.4265
 1622SOL    HW116502   3.655   0.199  14.231 -1.5342 -1.9103  0.8199
 1622SOL    HW216503   3.568   0.314  14.271 -0.7133 -1.3696  0.9717
 1623SOL     OW16504   4.001   0.825  14.519 -0.0080  0.4459  0.2626
 1623SOL    HW116505   3.930   0.770  14.553  1.2862 -0.1217  2.0537
 1623SOL    HW216506   4.034   0.853  14.604 -0.6257 -1.2034  1.0519
 1624SOL     OW16507   2.599   2.649   6.727 -0.1624  0.0581 -0.2845
 1624SOL    HW116508   2.660   2.667   6.798  2.3879 -2.7387 -1.7864
 1624SOL    HW216509   2.609   2.733   6.682  2.2521  0.3916  0.8617
 1625SOL     OW16510   4.090   0.686  10.072 -0.1978 -0.0600  0.4491
 1625SOL    HW116511   4.036   0.723  10.143 -1.0298  1.4828 -0.9919
 1625SOL    HW216512   4.094   0.596  10.105  1.2529 -0.3752 -0.6126
 1626SOL     OW16513   3.092   1.516  11.464 -0.7370  0.5426 -1.2014
 1626SOL    HW116514   3.132   1.598  11.493 -0.1676 -0.1283 -0.0999
 1626SOL    HW216515   3.119   1.455  11.532 -0.8482  0.1017 -1.5467
 1627SOL     OW16516   2.218   2.498   6.190  0.2787  0.2727  0.2577
 1627SOL    HW116517   2.185   2.542   6.112  0.2690  0.3148  0.2858
 1627SOL    HW216518   2.310   2.487   6.167 -0.3359 -1.1946 -1.5581
 1628SOL     OW16519   3.227   2.993   1.934 -0.1054 -0.3879  0.0788
 1628SOL    HW116520   3.140   2.958   1.954 -0.5933  1.1274  0.6123
 1628SOL    HW216521   3.195   3.082   1.949 -1.7403 -0.6650 -1.7537
 1629SOL     OW16522   4.671   3.964   3.579 -0.5614  0.0626  0.9095
 1629SOL    HW116523   4.668   3.983   3.486 -1.6576  1.1129  1.1687
 1629SOL    HW216524   4.616   3.886   3.581 -0.8421  0.2418 -0.5444
 1630SOL     OW16525   2.647   1.363   7.656  0.5193  0.1951  0.0556
 1630SOL    HW116526   2.667   1.438   7.600  0.1344  0.2360 -0.0232
 1630SOL    HW216527   2.570   1.398   7.701 -0.9317 -2.5215 -0.3272
 1631SOL     OW16528   0.633   1.754   0.508  0.0066 -0.2730 -0.0149
 1631SOL    HW116529   0.727   1.770   0.506 -0.1065  0.4704  0.6658
 1631SOL    HW216530   0.610   1.810   0.434  0.7276  0.1768  0.1083
 1632SOL     OW16531   0.903   3.508   6.559 -0.2712  0.4886  0.5287
 1632SOL    HW116532   0.934   3.579   6.615 -3.8070  1.5226  1.1623
 1632SOL    HW216533   0.811   3.534   6.559 -0.7329 -1.1463 -3.1570
 1633SOL     OW16534   1.238   2.154   5.098 -0.4187  0.4305  0.1979
 1633SOL    HW116535   1.250   2.127   5.189 -1.9778  0.7907  0.5131
 1633SOL    HW216536   1.284   2.084   5.051  0.4450 -0.8195  2.9193
 1634SOL     OW16537   3.846   4.675   4.738 -0.4704 -0.4932  0.0270
 1634SOL    HW116538   3.837   4.581   4.723  0.3526 -0.5354 -0.2382
 1634SOL    HW216539   3.754   4.689   4.717 -0.3113 -2.4576 -2.0413
 1635SOL     OW16540   2.651   4.619   8.711 -0.1566  1.0242  0.3279
 1635SOL    HW116541   2.679   4.629   8.619  0.2090  2.3182  0.5798
 1635SOL    HW216542   2.692   4.536   8.736 -0.0055  0.7333 -0.8842
 1636SOL     OW16543   1.403   0.993   3.110  0.1489  0.1608 -0.1799
 1636SOL    HW116544   1.366   0.955   3.030  0.2374  0.2327 -0.2538
 1636SOL    HW216545   1.465   0.924   3.134 -0.0588  0.0836  0.1547
 1637SOL     OW16546   3.592   4.660   7.811  0.1934  0.1925 -0.1655
 1637SOL    HW116547   3.684   4.639   7.793  0.6602 -0.6638  3.2208
 1637SOL    HW216548   3.560   4.643   7.722  2.3620 -1.2511 -0.6768
 1638SOL     OW16549   0.221   2.495   8.021 -0.2008 -0.4478 -0.2881
 1638SOL    HW116550   0.261   2.476   7.936 -1.5364  1.9738 -1.4402
 1638SOL    HW216551   0.155   2.425   8.023 -1.6825  1.0194  0.9993
 1639SOL     OW16552   2.982   2.807   6.007 -0.1450  0.4308 -0.4666
 1639SOL    HW116553   3.026   2.854   6.078 -0.5487  1.9948 -1.2622
 1639SOL    HW216554   3.046   2.804   5.936 -0.1162  0.4151 -0.4401
 1640SOL     OW16555   1.423   1.082  10.619 -0.0138  0.0979 -0.1809
 1640SOL    HW116556   1.511   1.044  10.615 -0.2303 -0.3877 -0.3751
 1640SOL    HW216557   1.405   1.124  10.535  1.0139 -0.4108 -0.6603
 1641SOL     OW16558   3.727   3.605   5.024  0.0604  0.5433 -0.4550
 1641SOL    HW116559   3.664   3.638   5.088  0.1679  1.0353 -0.6004
 1641SOL    HW216560   3.673   3.544   4.975  0.2040 -0.2174  0.3226
 1642SOL     OW16561   2.769   4.599  11.826  0.0982  0.2939  0.2000
 1642SOL    HW116562   2.855   4.641  11.830 -0.0553  0.5923  0.3645
 1642SOL    HW216563   2.732   4.656  11.759  1.1390  1.1241  0.3228
 1643SOL     OW16564   1.132   3.488   2.928  0.0258 -0.2263  0.1632
 1643SOL    HW116565   1.101   3.578   2.932 -1.7690 -0.8407  0.0656
 1643SOL    HW216566   1.085   3.454   3.005  0.4022 -0.5810  0.2382
 1644SOL     OW16567   3.634   0.034   3.051  0.1798 -0.1585  0.0414
 1644SOL    HW116568   3.642   4.679   3.068  0.8190 -0.2124 -0.5523
 1644SOL    HW216569   3.544   0.052   3.076  0.3761  1.5233 -0.4763
 1645SOL     OW16570   0.686   3.701   1.602 -0.5421 -0.0905  0.3164
 1645SOL    HW116571   0.708   3.770   1.540  1.8417 -1.8714 -0.8347
 1645SOL    HW216572   0.673   3.750   1.683  0.7068 -0.3183  0.6515
 1646SOL     OW16573   1.484   4.090   5.054 -0.2543 -0.5351 -0.2191
 1646SOL    HW116574   1.471   4.146   5.131  2.0828 -0.7213  0.3132
 1646SOL    HW216575   1.526   4.148   4.990 -0.9850  0.9269  0.6166
 1647SOL     OW16576   4.016   2.419  16.291 -0.5156  0.9921 -0.9852
 1647SOL    HW116577   3.947   2.408  16.225  0.4577 -0.6406 -1.7396
 1647SOL    HW216578   4.052   2.331  16.300 -0.6219  0.8824 -1.6673
 1648SOL     OW16579   0.401   3.108   9.078  0.2470 -0.1181  0.1418
 1648SOL    HW116580   0.377   3.057   9.000  0.5269 -1.6562  1.0607
 1648SOL    HW216581   0.330   3.172   9.079  0.8867  0.5993 -0.1944
 1649SOL     OW16582   3.813   1.743   2.746 -0.2245  0.2468 -0.2181
 1649SOL    HW116583   3.826   1.798   2.668 -0.0619  0.9664  0.3117
 1649SOL    HW216584   3.863   1.665   2.726 -0.1514  0.8551 -2.4132
 1650SOL     OW16585   1.962   3.539   1.006  0.0486 -0.1454  0.0323
 1650SOL    HW116586   1.949   3.470   0.941 -0.9905  0.5528 -0.5154
 1650SOL    HW216587   1.880   3.533   1.055 -0.1225 -0.6455 -0.3195
 1651SOL     OW16588   1.663   0.980   7.260 -0.1305  0.7080  0.0120
 1651SOL    HW116589   1.715   1.009   7.184 -0.0439  0.9443  0.1627
 1651SOL    HW216590   1.647   1.057   7.314  1.3305 -0.1277  1.6482
 1652SOL     OW16591   4.126   2.788   7.029  0.2939 -0.3722  0.5639
 1652SOL    HW116592   4.186   2.721   7.065  0.9541  0.0480  0.2465
 1652SOL    HW216593   4.130   2.844   7.106 -0.7358  0.2352  0.1677
 1653SOL     OW16594   3.223   3.106   6.511 -0.9124  0.2667 -0.2316
 1653SOL    HW116595   3.241   3.077   6.600 -0.2153  0.9701 -0.1375
 1653SOL    HW216596   3.130   3.122   6.526 -1.0296 -1.9147  1.3695
 1654SOL     OW16597   4.155   0.963   6.180  0.1445 -0.1490  0.1443
 1654SOL    HW116598   4.142   0.870   6.165  0.8826 -0.2338  0.0255
 1654SOL    HW216599   4.064   0.994   6.182 -0.4083 -1.8776  1.5384
 1655SOL     OW16600   4.210   2.342   7.116 -0.1114 -0.1812  0.0230
 1655SOL    HW116601   4.154   2.289   7.173 -0.6365 -1.0294 -1.2738
 1655SOL    HW216602   4.291   2.296   7.094  1.9743  2.8958  1.2106
 1656SOL     OW16603   1.590   1.744   6.470  0.3349 -0.3644 -0.2103
 1656SOL    HW116604   1.541   1.824   6.485 -2.5427 -2.1553  0.0827
 1656SOL    HW216605   1.683   1.763   6.477  0.1405  1.2686 -2.0791
 1657SOL     OW16606   2.227   4.226  13.944  0.4488  0.0819 -0.2891
 1657SOL    HW116607   2.165   4.246  14.014 -0.2426 -0.5801 -0.7132
 1657SOL    HW216608   2.291   4.181  14.000  0.1581 -1.0302 -0.8428
 1658SOL     OW16609   3.670   1.913   4.686 -0.4070 -0.5978  0.0407
 1658SOL    HW116610   3.665   1.974   4.759  1.3518  0.7308 -0.9615
 1658SOL    HW216611   3.587   1.935   4.643 -0.7887 -0.0640  1.0570
 1659SOL     OW16612   0.957   0.384   7.592  0.0792  0.2357  0.5780
 1659SOL    HW116613   0.976   0.342   7.676 -1.7909 -0.0065  0.8701
 1659SOL    HW216614   1.033   0.443   7.596  0.6352 -0.4501  0.0525
 1660SOL     OW16615   2.798   1.020  11.216  0.1913 -0.0217 -0.8372
 1660SOL    HW116616   2.705   1.014  11.240  0.6499 -0.9523  0.6868
 1660SOL    HW216617   2.782   1.090  11.153  0.4304 -0.4390 -1.3562
 1661SOL     OW16618   4.635   4.441   3.597 -0.8321  0.4640 -0.2563
 1661SOL    HW116619   4.642   4.349   3.620 -1.3392  0.2069 -1.1390
 1661SOL    HW216620   4.541   4.450   3.584 -0.8268  0.7327 -0.1213
 1662SOL     OW16621   2.287   4.360   3.272  0.6746  0.5507  0.0240
 1662SOL    HW116622   2.318   4.273   3.297  0.8697  0.6632  0.1731
 1662SOL    HW216623   2.284   4.356   3.176 -1.1234  0.4593  0.0817
 1663SOL     OW16624   3.371   2.068   2.341  0.4554 -0.0273  0.2793
 1663SOL    HW116625   3.400   2.106   2.423  2.4422 -0.2224 -0.3443
 1663SOL    HW216626   3.293   2.016   2.362 -0.1856  0.3781 -1.0777
 1664SOL     OW16627   4.325   1.505   6.974  0.2799  0.2863 -0.1709
 1664SOL    HW116628   4.367   1.548   6.900  0.7257 -0.4397 -0.3365
 1664SOL    HW216629   4.232   1.508   6.950  0.1044  2.9945  0.8730
 1665SOL     OW16630   2.453   4.634   2.363  0.2383  0.2968 -0.0393
 1665SOL    HW116631   2.461   4.730   2.363  1.4038  0.2179 -1.1698
 1665SOL    HW216632   2.522   4.611   2.300 -0.0010  3.1337 -1.3628
 1666SOL     OW16633   0.250   1.786   5.731 -0.3382 -0.1621  0.3030
 1666SOL    HW116634   0.164   1.745   5.740  0.3573 -1.5470  0.5954
 1666SOL    HW216635   0.259   1.844   5.808 -0.6052  1.1450 -0.6455
 1667SOL     OW16636   3.120   0.972  17.248  0.0521  0.0962 -0.7726
 1667SOL    HW116637   3.147   0.982  17.340  0.8613 -0.1014 -0.9956
 1667SOL    HW216638   3.085   0.883  17.249  0.0974  0.0930  0.5396
 1668SOL     OW16639   3.089   2.971   6.183 -0.0625 -0.0862 -0.5986
 1668SOL    HW116640   3.126   2.909   6.245 -3.0042  1.5083  2.6888
 1668SOL    HW216641   3.164   3.010   6.139  0.5105  2.4218  2.6854
 1669SOL     OW16642   4.033   3.602   0.596 -0.2827  0.0522  0.5272
 1669SOL    HW116643   3.956   3.586   0.541 -0.6749 -0.3224  1.1858
 1669SOL    HW216644   4.032   3.697   0.590  0.3138  0.1637  2.2105
 1670SOL     OW16645   3.477   2.149   3.286  0.3439 -0.3118  0.0796
 1670SOL    HW116646   3.484   2.062   3.325  1.0661 -0.7758 -1.1100
 1670SOL    HW216647   3.561   2.191   3.306 -0.1524  0.1534  1.1895
 1671SOL     OW16648   0.528   2.583   2.140  0.1513  0.1058 -0.8021
 1671SOL    HW116649   0.515   2.497   2.180  0.9876 -0.2974 -1.4231
 1671SOL    HW216650   0.438   2.614   2.153 -0.5461 -1.7766 -1.0749
 1672SOL     OW16651   3.633   0.711   9.164  0.0721  0.0702 -0.6419
 1672SOL    HW116652   3.643   0.619   9.190  0.3930  0.2512 -0.1360
 1672SOL    HW216653   3.538   0.725   9.167  0.2560  1.1195  0.1568
 1673SOL     OW16654   4.681   4.293  16.589  0.7198  0.1031  0.4442
 1673SOL    HW116655   4.716   4.240  16.517 -0.9369 -0.8649  0.3631
 1673SOL    HW216656   0.004   4.365  16.605  0.5188  0.3339  0.1806
 1674SOL     OW16657   1.263   1.770   6.097  0.3907  0.3687 -0.0351
 1674SOL    HW116658   1.320   1.707   6.052 -0.3625 -0.8617  0.7287
 1674SOL    HW216659   1.175   1.735   6.084 -0.0911  1.8540 -0.7043
 1675SOL     OW16660   3.663   1.011   7.186  0.0116  0.2274 -0.0512
 1675SOL    HW116661   3.656   1.048   7.274 -1.2337 -0.4100  0.1259
 1675SOL    HW216662   3.635   1.086   7.132 -0.3184 -0.6244 -1.0601
 1676SOL     OW16663   0.305   1.392   4.066 -0.1778 -0.1798  0.2821
 1676SOL    HW116664   0.224   1.390   4.118 -0.9005 -1.7702 -0.9079
 1676SOL    HW216665   0.348   1.464   4.113 -0.0628  0.4612 -0.8207
 1677SOL     OW16666   0.074   0.629   4.056 -0.1736 -0.0249  0.1075
 1677SOL    HW116667   0.131   0.629   4.132 -0.0438 -1.2500  0.0112
 1677SOL    HW216668   0.126   0.582   3.990 -0.0284 -0.4729  0.5419
 1678SOL     OW16669   0.616   3.044   7.116 -0.0860 -0.5289  0.1029
 1678SOL    HW116670   0.627   3.118   7.056 -1.2608 -1.8420 -1.7351
 1678SOL    HW216671   0.536   3.073   7.161  0.0842  1.4405 -0.8354
 1679SOL     OW16672   1.782   4.053   2.531  0.3039  0.6432 -0.2351
 1679SOL    HW116673   1.738   4.101   2.461  2.6749  1.4452 -1.1545
 1679SOL    HW216674   1.865   4.039   2.485  0.6138 -4.1462  1.7672
 1680SOL     OW16675   0.773   4.567   6.848  0.3194  0.8962  0.1395
 1680SOL    HW116676   0.704   4.573   6.782  0.2731  0.0083  0.1048
 1680SOL    HW216677   0.843   4.546   6.786  1.7179 -0.5864  2.2193
 1681SOL     OW16678   1.353   0.306   7.951  0.5516  0.1578 -0.0122
 1681SOL    HW116679   1.284   0.313   8.017 -0.1803  2.0213 -0.9925
 1681SOL    HW216680   1.410   0.379   7.978  0.4168  0.4574 -0.5488
 1682SOL     OW16681   3.267   1.457   1.721 -0.4270  0.2495  0.5583
 1682SOL    HW116682   3.177   1.454   1.688 -0.2509 -1.0368  0.1585
 1682SOL    HW216683   3.309   1.391   1.665  0.5749  2.2667 -1.0816
 1683SOL     OW16684   0.208   3.744  12.315  0.4880 -0.0987 -0.0143
 1683SOL    HW116685   0.150   3.818  12.297  0.1099 -0.8557 -1.8599
 1683SOL    HW216686   0.274   3.744  12.246  0.4278 -1.7102 -0.0762
 1684SOL     OW16687   3.506   0.201   7.713  0.0191 -0.0695  0.6677
 1684SOL    HW116688   3.520   0.134   7.647 -1.7624 -0.9369  1.1753
 1684SOL    HW216689   3.482   0.147   7.788 -0.2104 -0.0887  0.5812
 1685SOL     OW16690   1.666   2.613   7.207  0.1820 -0.1784  0.1614
 1685SOL    HW116691   1.729   2.685   7.213 -1.3455  1.1365  0.3861
 1685SOL    HW216692   1.614   2.642   7.132  1.5530 -0.1484 -0.7821
 1686SOL     OW16693   4.128   3.055   4.976  0.2587 -0.5582  0.5177
 1686SOL    HW116694   4.120   3.014   4.890 -0.7317  0.4267  0.1451
 1686SOL    HW216695   4.036   3.061   5.002  0.4167  3.0505  0.3504
 1687SOL     OW16696   1.378   4.689   9.024 -0.1327  0.3476  0.2055
 1687SOL    HW116697   1.400   4.659   8.936 -2.8544  2.0391 -1.0568
 1687SOL    HW216698   1.446   4.661   9.086 -2.0004 -0.0309  2.0961
 1688SOL     OW16699   3.981   0.626   8.964 -0.0565  0.4259  0.3890
 1688SOL    HW116700   4.018   0.696   8.910  1.6165 -0.6737  0.0944
 1688SOL    HW216701   3.952   0.681   9.036 -0.7598  1.3686 -0.6014
 1689SOL     OW16702   3.800   4.141   5.646 -0.3377  0.0809  1.1001
 1689SOL    HW116703   3.743   4.196   5.700 -2.6650 -2.1453  0.9123
 1689SOL    HW216704   3.859   4.210   5.618 -0.9537 -0.2346 -0.9472
 1690SOL     OW16705   4.416   2.039   2.573  0.1818 -0.3732 -0.2460
 1690SOL    HW116706   4.354   2.010   2.639  0.6046 -0.2475  0.2064
 1690SOL    HW216707   4.488   2.076   2.623 -0.8477 -0.3007  1.1768
 1691SOL     OW16708   3.397   3.602  12.466 -0.4849 -0.8112  0.1201
 1691SOL    HW116709   3.368   3.562  12.384 -3.0161 -1.4574  1.3207
 1691SOL    HW216710   3.487   3.626  12.445 -0.1354 -0.6761  1.7184
 1692SOL     OW16711   0.702   2.830   5.275  0.0499 -0.1209 -0.0283
 1692SOL    HW116712   0.755   2.794   5.204  1.1663 -0.1820  0.8417
 1692SOL    HW216713   0.658   2.753   5.311  1.1949  0.0446  1.7097
 1693SOL     OW16714   4.615   2.255   7.272 -0.3419 -0.0127 -0.7471
 1693SOL    HW116715   4.593   2.310   7.197 -0.1830  0.2981 -0.5652
 1693SOL    HW216716   4.650   2.178   7.227  1.3656  0.9431 -1.0748
 1694SOL     OW16717   2.890   4.068   9.722 -0.0162  0.2243  0.1355
 1694SOL    HW116718   2.885   3.993   9.781  2.1251 -0.7071 -0.8230
 1694SOL    HW216719   2.906   4.141   9.782 -0.6584  0.6831 -0.2450
 1695SOL     OW16720   3.685   2.641   8.282  0.2065  0.1565 -0.1049
 1695SOL    HW116721   3.644   2.573   8.228 -1.1893  0.0148  1.1172
 1695SOL    HW216722   3.661   2.606   8.368  1.8784 -2.4945 -0.7217
 1696SOL     OW16723   2.292   1.699   3.308  0.1452  0.0681 -0.4299
 1696SOL    HW116724   2.297   1.788   3.343  0.5939  0.1913 -0.8122
 1696SOL    HW216725   2.378   1.673   3.340  0.0525  0.8085  0.4282
 1697SOL     OW16726   1.333   0.564   7.259 -0.2095 -0.1443 -0.0134
 1697SOL    HW116727   1.386   0.544   7.336  1.6829  0.6639 -1.1226
 1697SOL    HW216728   1.364   0.493   7.202  0.7617 -0.2656  0.6621
 1698SOL     OW16729   4.024   2.180  12.178 -0.0477  0.1939  0.1475
 1698SOL    HW116730   4.061   2.141  12.099  1.7860  0.6943  0.7643
 1698SOL    HW216731   3.938   2.188  12.136 -0.1740  0.9771  0.5512
 1699SOL     OW16732   3.131   4.144  11.752 -0.7105  0.0589  0.4944
 1699SOL    HW116733   3.214   4.141  11.800 -0.0416  0.4911 -0.6201
 1699SOL    HW216734   3.085   4.212  11.801 -2.0166 -0.7177  0.3260
 1700SOL     OW16735   2.478   1.817  15.001 -0.1979  0.2178  0.2264
 1700SOL    HW116736   2.423   1.893  15.019 -1.2888 -0.2887 -0.9829
 1700SOL    HW216737   2.505   1.834  14.911  0.7165 -1.2129  0.2288
 1701SOL     OW16738   2.243   3.117   5.356  0.1195 -0.8288 -0.0953
 1701SOL    HW116739   2.335   3.091   5.354  0.3723  0.1113 -0.9320
 1701SOL    HW216740   2.248   3.161   5.441 -0.4058  0.2604 -0.6187
 1702SOL     OW16741   0.925   2.161  12.531 -0.4012  0.4593  0.2899
 1702SOL    HW116742   1.017   2.134  12.539 -0.2318  1.3172  1.2388
 1702SOL    HW216743   0.938   2.253  12.556 -0.0578  0.2688  0.7997
 1703SOL     OW16744   0.354   3.190   6.761 -0.2062 -0.1779 -0.7862
 1703SOL    HW116745   0.423   3.232   6.710  1.5849 -2.3281 -0.1284
 1703SOL    HW216746   0.316   3.269   6.799  1.2116  1.0515 -1.9197
 1704SOL     OW16747   0.319   0.502   9.091  0.0368 -0.1608  0.1819
 1704SOL    HW116748   0.284   0.591   9.089 -0.2616 -0.2562  1.1972
 1704SOL    HW216749   0.239   0.451   9.087 -0.1921 -0.0178  2.8874
 1705SOL     OW16750   3.374   3.855   0.788 -0.0230  0.2020  0.0974
 1705SOL    HW116751   3.406   3.879   0.701 -2.6006 -1.5156 -1.3206
 1705SOL    HW216752   3.354   3.763   0.771 -0.1427  0.0697  0.9325
 1706SOL     OW16753   3.768   3.010   1.630 -0.2465  0.2495  0.4379
 1706SOL    HW116754   3.844   2.960   1.659  0.3121 -0.1613 -1.7576
 1706SOL    HW216755   3.786   3.089   1.680 -1.5936 -0.1020  1.4931
 1707SOL     OW16756   4.162   1.894  12.849 -0.1653  0.2030  0.5166
 1707SOL    HW116757   4.135   1.928  12.763 -0.6846  0.9075  0.9617
 1707SOL    HW216758   4.229   1.832  12.819  0.2191  1.3261 -0.9428
 1708SOL     OW16759   3.617   1.677   7.116  0.2126  0.4617 -0.0945
 1708SOL    HW116760   3.597   1.747   7.178 -1.7171  1.2333 -1.6152
 1708SOL    HW216761   3.537   1.669   7.063 -0.4614 -3.6273  1.5370
 1709SOL     OW16762   2.274   4.102   8.736 -0.4654 -0.5288 -0.2363
 1709SOL    HW116763   2.352   4.071   8.783 -0.3554  1.8751  1.1364
 1709SOL    HW216764   2.264   4.025   8.679 -1.5222  0.9505 -2.0290
 1710SOL     OW16765   3.592   2.799  13.517  0.0625 -0.1749 -0.5677
 1710SOL    HW116766   3.499   2.777  13.525  0.8223 -2.8770  0.6491
 1710SOL    HW216767   3.600   2.881  13.567 -0.0194 -1.6650  1.8646
 1711SOL     OW16768   3.077   3.635   5.194  0.3660 -0.4632 -0.2839
 1711SOL    HW116769   3.165   3.616   5.162  1.0017 -1.4501  2.0031
 1711SOL    HW216770   3.027   3.563   5.156 -0.3530  0.2080 -0.6191
 1712SOL     OW16771   0.104   2.579   6.872  0.3488 -0.0487 -0.1731
 1712SOL    HW116772   0.177   2.517   6.873  2.2505  2.2334  2.0420
 1712SOL    HW216773   0.151   2.649   6.825 -0.8069  0.9441  0.1700
 1713SOL     OW16774   1.290   0.595   2.078 -0.0973 -0.5165  0.2868
 1713SOL    HW116775   1.349   0.572   2.007  1.5044  0.5325  1.2638
 1713SOL    HW216776   1.209   0.612   2.029  0.4734  0.7743 -0.2131
 1714SOL     OW16777   0.738   4.454   3.470 -0.4433 -1.0030  0.5438
 1714SOL    HW116778   0.668   4.520   3.470  0.3095 -0.2009 -1.5412
 1714SOL    HW216779   0.702   4.393   3.406 -0.6907 -1.8896  1.5290
 1715SOL     OW16780   2.657   2.774   8.450  0.5344  0.9184 -0.4118
 1715SOL    HW116781   2.749   2.788   8.474  0.6934 -1.2326  0.2949
 1715SOL    HW216782   2.656   2.784   8.355  0.1897  1.6734 -0.3245
 1716SOL     OW16783   4.492   2.706  14.497 -0.0468 -0.0942 -0.4721
 1716SOL    HW116784   4.414   2.743  14.455 -1.0002 -1.1037  0.4155
 1716SOL    HW216785   4.502   2.774  14.564  0.2977 -0.8601  0.2488
 1717SOL     OW16786   2.860   1.082   6.771 -0.2234 -0.2837  0.2670
 1717SOL    HW116787   2.923   1.082   6.699  1.9110  0.6439  2.1005
 1717SOL    HW216788   2.779   1.084   6.721 -0.0827  0.0817  0.0488
 1718SOL     OW16789   1.016   1.012  13.366  0.3629 -0.0428  0.0135
 1718SOL    HW116790   1.054   0.956  13.434  1.6385 -0.7671 -1.2829
 1718SOL    HW216791   0.981   1.079  13.425  0.5432 -0.7961  0.9705
 1719SOL     OW16792   1.968   3.143   1.761  0.1436 -0.2131 -0.1223
 1719SOL    HW116793   2.048   3.131   1.710 -0.4851  0.3725 -1.2327
 1719SOL    HW216794   2.004   3.117   1.847  0.6662 -0.3696 -0.3850
 1720SOL     OW16795   2.263   1.383   4.122 -0.3119  0.3753  0.1486
 1720SOL    HW116796   2.225   1.438   4.053  0.4487 -2.0360 -2.2189
 1720SOL    HW216797   2.311   1.447   4.175 -0.1316  0.4688 -0.1234
 1721SOL     OW16798   1.536   3.791   2.828  0.7924  0.5768  0.4690
 1721SOL    HW116799   1.539   3.832   2.742 -0.3741  0.3279  0.3115
 1721SOL    HW216800   1.475   3.717   2.821  1.0634  0.5941 -2.0832
 1722SOL     OW16801   4.331   1.765   3.012  0.4166  0.1095 -0.5034
 1722SOL    HW116802   4.249   1.727   2.979  1.4164 -1.6827 -0.9598
 1722SOL    HW216803   4.314   1.741   3.103 -0.5824  0.5217 -0.5868
 1723SOL     OW16804   2.896   3.289   3.506  0.1030 -0.3001 -0.1756
 1723SOL    HW116805   2.822   3.348   3.522 -1.6070 -2.7383  1.0302
 1723SOL    HW216806   2.960   3.332   3.449  0.6298  0.4932  1.0187
 1724SOL     OW16807   3.365   0.605   8.832 -0.2396  0.3371  0.0862
 1724SOL    HW116808   3.302   0.670   8.863 -0.4470 -0.3115  1.0047
 1724SOL    HW216809   3.407   0.659   8.765  0.6763  0.5702  0.8617
 1725SOL     OW16810   3.798   2.851   8.586  0.3287  0.2236 -0.7405
 1725SOL    HW116811   3.841   2.911   8.525  1.3046 -1.1122 -1.3866
 1725SOL    HW216812   3.869   2.827   8.646  0.1909  0.0777 -0.6341
 1726SOL     OW16813   0.796   1.403  13.949 -0.9494  0.4067 -0.4573
 1726SOL    HW116814   0.792   1.498  13.938 -3.0772  0.4166  0.3793
 1726SOL    HW216815   0.873   1.390  14.004 -0.0738 -0.5347 -1.8927
 1727SOL     OW16816   1.097   2.431  14.113 -0.0870 -0.2007 -0.4875
 1727SOL    HW116817   1.005   2.453  14.097 -0.5469 -1.5983  0.1646
 1727SOL    HW216818   1.127   2.431  14.022 -0.9272 -3.2032 -0.7653
 1728SOL     OW16819   2.395   4.516   9.466  0.5618  1.0963 -0.1407
 1728SOL    HW116820   2.314   4.487   9.508  2.6244 -3.8916  0.4298
 1728SOL    HW216821   2.458   4.454   9.504  0.3065  0.7016 -0.3651
 1729SOL     OW16822   1.848   0.721   8.434  0.1512 -0.2900 -0.3431
 1729SOL    HW116823   1.762   0.695   8.400 -2.0265  1.4342  3.8021
 1729SOL    HW216824   1.845   0.817   8.439  0.5131 -0.4077  1.7973
 1730SOL     OW16825   3.290   0.426   4.474  0.3454 -0.0459  0.4233
 1730SOL    HW116826   3.273   0.455   4.564  0.8343  1.3584  0.0699
 1730SOL    HW216827   3.382   0.450   4.463 -0.4149  2.6263 -0.3268
 1731SOL     OW16828   2.084   4.389   5.216  0.1240  0.3498  0.4666
 1731SOL    HW116829   2.102   4.397   5.310 -0.3546 -0.0474  0.5908
 1731SOL    HW216830   2.150   4.452   5.188 -0.3725  1.1300  1.0140
 1732SOL     OW16831   3.527   4.164   1.891  0.4034 -0.2514 -0.5065
 1732SOL    HW116832   3.434   4.144   1.891  0.3714 -0.0874  0.5812
 1732SOL    HW216833   3.553   4.184   1.801 -0.7541 -1.3251 -1.0809
 1733SOL     OW16834   2.294   1.480  14.326  0.1179  0.3707  0.3783
 1733SOL    HW116835   2.317   1.569  14.353  4.1837 -0.7114  0.4415
 1733SOL    HW216836   2.339   1.475  14.241  0.5965 -2.1244  0.7751
 1734SOL     OW16837   1.643   1.956   0.719 -0.2280  0.3541 -0.0286
 1734SOL    HW116838   1.671   2.038   0.677 -0.8829  0.4647 -0.2569
 1734SOL    HW216839   1.555   1.954   0.680 -0.0944  1.4207 -0.3772
 1735SOL     OW16840   1.472   1.252  16.449 -0.6541 -0.2441 -0.1509
 1735SOL    HW116841   1.398   1.219  16.398 -0.8631 -1.1147  0.6954
 1735SOL    HW216842   1.467   1.185  16.517 -1.0640  1.0723  1.1101
 1736SOL     OW16843   4.576   3.566   2.736  0.2769 -0.0163  0.4976
 1736SOL    HW116844   4.604   3.650   2.771 -2.2145  0.1015  2.1937
 1736SOL    HW216845   4.539   3.531   2.817 -1.7886 -0.7983 -0.7978
 1737SOL     OW16846   3.021   0.746   5.034 -0.2187 -0.0287 -0.3235
 1737SOL    HW116847   2.998   0.755   4.941 -0.1828  1.7577 -0.1556
 1737SOL    HW216848   3.081   0.676   5.008 -1.5209 -1.4331  0.4310
 1738SOL     OW16849   1.823   4.364  16.399 -0.5258  0.3890  0.0968
 1738SOL    HW116850   1.810   4.457  16.382 -0.2855  0.6213  1.1807
 1738SOL    HW216851   1.872   4.377  16.481 -1.3456 -0.5993  0.7397
 1739SOL     OW16852   3.402   3.379   1.657 -0.2023 -0.0647 -0.2971
 1739SOL    HW116853   3.392   3.431   1.577 -0.8930 -0.9207 -0.7648
 1739SOL    HW216854   3.390   3.292   1.618  0.6045 -0.1343 -0.4077
 1740SOL     OW16855   4.514   0.283  11.407  0.0109  0.0980  0.3401
 1740SOL    HW116856   4.558   0.247  11.484 -1.9186  1.5580  2.1000
 1740SOL    HW216857   4.597   0.301  11.362 -0.2937  0.1809 -0.1851
 1741SOL     OW16858   4.605   3.265   5.135  0.0598 -0.3591 -0.1353
 1741SOL    HW116859   4.535   3.312   5.182 -0.6154 -0.0928 -1.4090
 1741SOL    HW216860   4.622   3.186   5.186 -0.2992  0.3589  1.1013
 1742SOL     OW16861   4.270   0.771   7.915 -0.2933 -0.6252  0.3369
 1742SOL    HW116862   4.182   0.796   7.944 -1.3880 -2.2689 -1.5729
 1742SOL    HW216863   4.283   0.843   7.852  0.1512 -0.3779  0.7109
 1743SOL     OW16864   0.156   1.921   3.956  0.5020  0.5062  0.0225
 1743SOL    HW116865   0.225   1.954   4.012 -0.0767  0.9022  0.5055
 1743SOL    HW216866   0.102   1.888   4.028 -1.4121  1.1367 -1.1026
 1744SOL     OW16867   0.801   0.991   2.003  0.2527  0.0394 -0.0784
 1744SOL    HW116868   0.791   0.990   1.907 -0.8892  1.3467  0.0171
 1744SOL    HW216869   0.869   0.927   2.024  0.2980 -0.7046 -2.4942
 1745SOL     OW16870   4.529   2.304   4.928  0.2917  0.0925 -0.1594
 1745SOL    HW116871   4.503   2.225   4.881 -0.2860  0.2632 -0.1334
 1745SOL    HW216872   4.622   2.305   4.909  0.7753  1.4996  2.3362
 1746SOL     OW16873   3.942   3.825   9.005  0.3165  0.4560 -0.2414
 1746SOL    HW116874   3.983   3.879   8.938  0.5797  0.3422 -0.1733
 1746SOL    HW216875   3.856   3.867   9.006  0.0687 -0.0954  2.8935
 1747SOL     OW16876   1.607   0.006  17.205  0.0640 -0.4892 -0.1151
 1747SOL    HW116877   1.624   0.050  17.122 -3.5783 -1.3233 -1.3083
 1747SOL    HW216878   1.538   4.687  17.171  0.8537 -1.7664  0.3922
 1748SOL     OW16879   3.610   3.501   4.364  0.3660 -0.0623 -0.4981
 1748SOL    HW116880   3.527   3.537   4.332  0.7318  0.3255 -1.0004
 1748SOL    HW216881   3.666   3.575   4.384  0.5211 -0.1658 -0.5507
 1749SOL     OW16882   0.161   1.469  15.423 -0.1943 -0.3966 -0.2174
 1749SOL    HW116883   0.138   1.542  15.480  2.3102  1.2869 -1.3794
 1749SOL    HW216884   0.135   1.396  15.479 -1.1253  2.8345  3.5312
 1750SOL     OW16885   0.127   0.907  15.232  0.0181 -0.4859 -0.3178
 1750SOL    HW116886   0.082   0.961  15.167  1.8995 -0.7929 -1.8718
 1750SOL    HW216887   0.206   0.959  15.246 -1.7949  2.3713 -0.6367
 1751SOL     OW16888   0.753   2.155   3.796 -0.1229  0.2522  0.7460
 1751SOL    HW116889   0.705   2.129   3.875  2.1711 -1.3202  1.6184
 1751SOL    HW216890   0.699   2.227   3.763  1.1581 -0.0338 -1.9704
 1752SOL     OW16891   3.294   4.684   8.487 -0.2158 -0.1183  0.3333
 1752SOL    HW116892   3.304   0.028   8.534  2.8789 -0.0907 -0.4060
 1752SOL    HW216893   3.201   4.679   8.464 -0.2634  0.1637  0.4700
 1753SOL     OW16894   0.696   1.477   4.077  0.4674  0.4299  0.1050
 1753SOL    HW116895   0.731   1.564   4.060  0.0628  0.4400 -0.6297
 1753SOL    HW216896   0.676   1.484   4.171 -0.2895 -1.4645  0.0941
 1754SOL     OW16897   3.763   3.921   6.916 -0.1251 -0.2717 -0.3202
 1754SOL    HW116898   3.704   3.846   6.926  0.1831 -0.3302  1.0707
 1754SOL    HW216899   3.732   3.970   6.840 -0.6592 -0.2773 -0.1045
 1755SOL     OW16900   1.891   0.758   0.950  0.6745  0.2983  0.0586
 1755SOL    HW116901   1.966   0.806   0.985  1.7919 -2.6628  1.7586
 1755SOL    HW216902   1.938   0.686   0.908 -0.0792  0.1070 -0.4532
 1756SOL     OW16903   1.729   3.601   3.435  0.1076 -0.3215 -0.3801
 1756SOL    HW116904   1.740   3.506   3.442 -0.6624 -0.4184 -0.5073
 1756SOL    HW216905   1.757   3.622   3.346 -0.5760  1.3716 -0.2096
 1757SOL     OW16906   3.916   0.284   8.644 -0.0846  0.7082 -0.0265
 1757SOL    HW116907   3.917   0.224   8.718 -0.3004 -0.6068 -1.0834
 1757SOL    HW216908   3.836   0.335   8.658  0.7823  2.4807 -1.3942
 1758SOL     OW16909   4.541   4.263  14.732  0.2847 -0.2390 -0.1241
 1758SOL    HW116910   4.618   4.212  14.756  0.9830  0.9132  0.0641
 1758SOL    HW216911   4.569   4.297  14.647  2.3841  0.3883  0.8060
 1759SOL     OW16912   0.241   0.604  17.638 -0.5370 -0.4142 -0.2470
 1759SOL    HW116913   0.186   0.682  17.627 -0.9631 -0.9122 -1.5327
 1759SOL    HW216914   0.331   0.639  17.634 -0.2776 -1.0619 -0.0721
 1760SOL     OW16915   1.684   0.597  10.041  0.1514 -0.7928  0.5162
 1760SOL    HW116916   1.740   0.668  10.071  1.8378 -1.5883 -0.7165
 1760SOL    HW216917   1.672   0.534  10.112 -0.6616  2.3192  3.1521
 1761SOL     OW16918   0.351   2.228   0.081 -0.1141  0.2785 -0.4187
 1761SOL    HW116919   0.350   2.219   0.177 -2.8485  1.2771 -0.3626
 1761SOL    HW216920   0.291   2.302   0.074  0.5311  0.9558  1.1243
 1762SOL     OW16921   1.244   3.313   2.500 -0.2722  0.0140  0.0278
 1762SOL    HW116922   1.185   3.389   2.500 -0.9398 -0.4970  1.5773
 1762SOL    HW216923   1.228   3.298   2.593 -0.9972 -2.1930 -0.4618
 1763SOL     OW16924   0.140   3.208   3.671 -0.3325 -0.2035 -0.4105
 1763SOL    HW116925   0.067   3.259   3.705 -0.4641 -0.3441 -0.4838
 1763SOL    HW216926   0.215   3.266   3.684 -0.6201  0.0519  0.1173
 1764SOL     OW16927   3.792   3.522   6.862  0.3943  0.3812  0.0704
 1764SOL    HW116928   3.754   3.455   6.919 -1.1267  1.3166  0.1647
 1764SOL    HW216929   3.733   3.597   6.860 -0.0608  0.0702  1.8229
 1765SOL     OW16930   2.337   3.881  11.242  0.8953  0.4877 -0.2118
 1765SOL    HW116931   2.332   3.786  11.238  1.7131  0.4300  0.0615
 1765SOL    HW216932   2.419   3.885  11.291  1.0310 -5.1554  0.0138
 1766SOL     OW16933   1.559   1.305  17.517  0.0479 -0.0397 -0.4458
 1766SOL    HW116934   1.606   1.328  17.437 -0.7316  1.0976 -0.5936
 1766SOL    HW216935   1.618   1.236  17.544  0.4177  1.6481  3.0570
 1767SOL     OW16936   3.095   4.552  13.667 -0.0367 -0.1204 -0.1430
 1767SOL    HW116937   3.170   4.512  13.623  0.5260 -1.2511  1.8322
 1767SOL    HW216938   3.092   4.642  13.633  0.8354  0.1454  0.4658
 1768SOL     OW16939   2.137   2.487  12.665  0.4492 -0.9247 -0.2449
 1768SOL    HW116940   2.062   2.537  12.632  0.4399 -1.3337 -0.8450
 1768SOL    HW216941   2.202   2.554  12.686 -1.7571  1.1452 -0.0393
 1769SOL     OW16942   0.247   0.636  10.073 -0.1432  0.2276  0.1942
 1769SOL    HW116943   0.221   0.568  10.010 -0.8316 -0.2071  0.9559
 1769SOL    HW216944   0.183   0.621  10.142  0.0394 -0.4739  0.2098
 1770SOL     OW16945   4.729   4.477   7.972 -0.1742 -0.0417 -0.7091
 1770SOL    HW116946   4.706   4.391   7.937 -2.6206  0.4805 -0.3702
 1770SOL    HW216947   0.066   4.455   8.028 -0.8299  3.6802  1.6516
 1771SOL     OW16948   4.440   4.122   4.599 -0.0053  0.2123  0.1062
 1771SOL    HW116949   4.385   4.059   4.646 -1.5388 -0.1510 -2.1743
 1771SOL    HW216950   4.508   4.144   4.662  0.4254  0.7339 -0.5356
 1772SOL     OW16951   2.578   2.306   7.817  0.4194  0.6586 -0.0767
 1772SOL    HW116952   2.558   2.313   7.723  1.1538  1.5758 -0.1731
 1772SOL    HW216953   2.592   2.400   7.832  1.5200  0.5741 -0.5862
 1773SOL     OW16954   4.194   3.934   6.258 -0.4237 -0.4185  0.0161
 1773SOL    HW116955   4.228   3.898   6.176  1.8577 -0.8426  1.1212
 1773SOL    HW216956   4.117   3.878   6.261 -0.0719 -1.0331 -2.7415
 1774SOL     OW16957   4.162   2.446   8.488 -0.5811  0.2239 -0.0657
 1774SOL    HW116958   4.158   2.532   8.530 -1.3942  1.4785 -2.7612
 1774SOL    HW216959   4.233   2.460   8.425  0.4677 -2.6038  0.4816
 1775SOL     OW16960   3.698   1.428   7.244  0.2576 -0.0970 -0.4120
 1775SOL    HW116961   3.673   1.518   7.265 -2.1448 -0.2340 -2.5990
 1775SOL    HW216962   3.771   1.413   7.304  0.2256  0.4627 -0.2312
 1776SOL     OW16963   4.557   1.943   5.947 -0.3966 -0.0806 -0.0449
 1776SOL    HW116964   4.518   2.023   5.911 -1.2508  0.1648  1.4159
 1776SOL    HW216965   4.639   1.979   5.982 -0.8060  1.2353 -0.4503
 1777SOL     OW16966   4.021   2.172   7.590 -0.3351 -0.3080  0.2440
 1777SOL    HW116967   3.940   2.125   7.612 -0.2854 -0.6901 -0.3783
 1777SOL    HW216968   3.996   2.246   7.646  0.4690 -0.1897  0.4384
 1778SOL     OW16969   2.018   1.183   1.656  0.1247  0.0445  0.3901
 1778SOL    HW116970   2.006   1.092   1.628 -0.8178  0.6757 -1.2629
 1778SOL    HW216971   2.099   1.195   1.607 -0.6278  2.0496 -0.3782
 1779SOL     OW16972   3.989   4.550   7.236  0.5254  0.0666  0.1769
 1779SOL    HW116973   4.069   4.505   7.263  0.9814  0.1806 -0.9876
 1779SOL    HW216974   3.918   4.519   7.293  0.1562  1.8544  0.6715
 1780SOL     OW16975   3.300   1.710   4.074 -0.3036  0.1234 -0.1316
 1780SOL    HW116976   3.266   1.771   4.139 -0.2601  0.2153 -0.1959
 1780SOL    HW216977   3.373   1.757   4.034 -0.1093  1.2334  1.5324
 1781SOL     OW16978   0.264   0.874   9.903 -0.1304 -0.4508  0.0858
 1781SOL    HW116979   0.255   0.922   9.986  2.1656 -0.3441  0.2765
 1781SOL    HW216980   0.288   0.789   9.941  3.9618  1.7428  2.3985
 1782SOL     OW16981   1.780   3.647  12.961 -0.0903  0.1907  0.1517
 1782SOL    HW116982   1.863   3.608  12.933  0.4829  0.3085  1.6832
 1782SOL    HW216983   1.744   3.574  13.012  0.5660  0.1560  0.5608
 1783SOL     OW16984   1.801   3.662   3.855  0.1890 -0.0620 -0.1518
 1783SOL    HW116985   1.824   3.721   3.783  1.9058 -1.4758 -0.7848
 1783SOL    HW216986   1.798   3.732   3.920  0.3923  0.0178 -0.2257
 1784SOL     OW16987   1.591   3.589   4.467  0.6410 -0.4804  0.1166
 1784SOL    HW116988   1.514   3.558   4.420  0.9916  0.4447 -1.0698
 1784SOL    HW216989   1.581   3.542   4.550 -0.4034  2.1183  1.4821
 1785SOL     OW16990   4.572   4.542   4.108  0.1039  0.1323  0.3802
 1785SOL    HW116991   4.610   4.490   4.179 -2.2239 -1.1071  0.7193
 1785SOL    HW216992   4.585   4.631   4.141  0.9113 -0.0567  0.5591
 1786SOL     OW16993   0.282   2.818   3.108 -0.3170 -1.0190  0.0551
 1786SOL    HW116994   0.303   2.884   3.043 -1.0162 -0.3143  0.5452
 1786SOL    HW216995   0.228   2.765   3.049 -1.5671  0.3397 -0.0241
 1787SOL     OW16996   3.311   3.315  15.815 -0.4815 -0.6771 -0.4769
 1787SOL    HW116997   3.314   3.284  15.724 -2.7795  0.4471 -0.9391
 1787SOL    HW216998   3.252   3.256  15.863 -1.9295  1.0424 -0.1473
 1788SOL     OW16999   3.223   0.381  12.711 -0.3451 -0.2253 -0.0887
 1788SOL    HW117000   3.202   0.473  12.699 -2.4777 -0.5919  0.7345
 1788SOL    HW217001   3.282   0.370  12.637  1.9691 -1.0518  1.8577
 1789SOL     OW17002   3.549   4.509   3.844  0.5914 -0.0279  0.0472
 1789SOL    HW117003   3.632   4.489   3.802  1.1670  2.3870  0.0005
 1789SOL    HW217004   3.518   4.428   3.883 -0.2264  0.9221  1.3784
 1790SOL     OW17005   1.144   3.620   0.860 -0.8056 -0.1140  0.1350
 1790SOL    HW117006   1.166   3.593   0.771 -1.5833  2.9518 -1.0005
 1790SOL    HW217007   1.049   3.626   0.849 -0.6509  1.4566 -0.3568
 1791SOL     OW17008   1.429   1.152  15.146 -0.2337 -0.3534 -0.0797
 1791SOL    HW117009   1.403   1.061  15.135  0.7601 -0.8519  1.8073
 1791SOL    HW217010   1.423   1.187  15.057 -0.7881  1.7873  0.8098
 1792SOL     OW17011   0.373   4.286   4.652  0.1568 -0.0768 -0.1940
 1792SOL    HW117012   0.457   4.318   4.685  0.3420 -0.6440 -0.1190
 1792SOL    HW217013   0.334   4.360   4.605  1.8849  2.3562  2.1891
 1793SOL     OW17014   1.966   4.173   3.538 -0.0422 -0.1435  0.0971
 1793SOL    HW117015   2.048   4.122   3.538  0.4507  0.6485 -0.2149
 1793SOL    HW217016   1.949   4.196   3.447  0.0058 -0.2898  0.0514
 1794SOL     OW17017   3.356   3.245   3.772 -0.6595  0.5587 -0.1514
 1794SOL    HW117018   3.383   3.221   3.683  0.6424 -0.0162  0.3964
 1794SOL    HW217019   3.425   3.195   3.817  0.2560 -1.2596 -3.5812
 1795SOL     OW17020   0.283   0.775  13.034  0.1163 -0.0290 -0.7586
 1795SOL    HW117021   0.360   0.773  13.091  0.4314  2.5439 -1.0993
 1795SOL    HW217022   0.297   0.863  13.000  0.9905  0.3488  0.5981
 1796SOL     OW17023   2.339   0.502   3.064  0.2549 -0.1699 -0.0267
 1796SOL    HW117024   2.260   0.455   3.092 -1.1977  0.3317 -3.1936
 1796SOL    HW217025   2.304   0.591   3.055  0.7362 -0.3072 -3.5950
 1797SOL     OW17026   0.901   3.540   3.838 -0.3509 -0.1562  0.4437
 1797SOL    HW117027   0.890   3.610   3.902 -0.1503  0.3359 -0.0597
 1797SOL    HW217028   0.982   3.573   3.799 -0.5341  0.5645  0.6629
 1798SOL     OW17029   0.027   1.612   6.643 -0.1358 -0.2196 -0.4858
 1798SOL    HW117030   0.053   1.527   6.680 -0.8720  0.5863  1.8713
 1798SOL    HW217031   4.688   1.588   6.593 -0.2792  1.1210 -0.8889
 1799SOL     OW17032   2.315   0.188   8.378  0.3047 -0.0862 -0.7438
 1799SOL    HW117033   2.256   0.241   8.325  0.5438  1.3069  0.4035
 1799SOL    HW217034   2.259   0.128   8.428 -1.7459  2.0148 -0.5576
 1800SOL     OW17035   4.547   3.506   4.775  0.0576 -0.3997  0.4330
 1800SOL    HW117036   4.541   3.436   4.710 -1.8209 -2.1682  2.5124
 1800SOL    HW217037   4.469   3.484   4.825  0.8735 -1.4017  1.2701
 1801SOL     OW17038   1.517   4.053   0.828  0.4429 -0.5806  0.4306
 1801SOL    HW117039   1.545   4.015   0.911  0.1851  0.3991  0.9653
 1801SOL    HW217040   1.513   3.974   0.774  0.2862  0.1668 -0.6592
 1802SOL     OW17041   3.514   2.051   8.944  0.0561 -0.0587 -0.0838
 1802SOL    HW117042   3.524   2.016   8.856  0.9375 -2.5424  0.9947
 1802SOL    HW217043   3.604   2.071   8.969 -0.7295 -0.0592  2.8513
 1803SOL     OW17044   0.155   3.009   6.821 -0.0521  0.1231  0.5289
 1803SOL    HW117045   0.227   3.071   6.813  1.0471 -1.4172 -1.5456
 1803SOL    HW217046   0.193   2.922   6.806 -1.6510 -0.2192 -1.5662
 1804SOL     OW17047   4.023   1.372   1.879  0.1203  0.3052 -0.2087
 1804SOL    HW117048   4.005   1.457   1.919 -0.8077 -0.0767  0.2023
 1804SOL    HW217049   3.939   1.355   1.836  0.6249 -0.5821 -0.8393
 1805SOL     OW17050   4.258   2.799  14.809 -0.4476  0.4214  0.5460
 1805SOL    HW117051   4.196   2.847  14.863 -0.1635 -2.0124  3.0564
 1805SOL    HW217052   4.289   2.743  14.880 -1.7324 -1.6694 -0.5521
 1806SOL     OW17053   2.493   0.025   2.755 -0.1150  0.4514 -0.3947
 1806SOL    HW117054   2.427   0.001   2.821  1.1378  0.2139  0.7815
 1806SOL    HW217055   2.481   4.685   2.702  3.1972  0.2357 -0.8028
 1807SOL     OW17056   1.722   1.259   1.989 -0.1399  0.0445 -0.2814
 1807SOL    HW117057   1.790   1.319   2.021 -0.1842  1.3857 -2.7252
 1807SOL    HW217058   1.715   1.280   1.896  0.2326  0.1842 -0.2773
 1808SOL     OW17059   4.320   1.979  11.485 -0.5506 -0.6060 -0.6567
 1808SOL    HW117060   4.241   1.948  11.440  0.9286 -1.6441 -2.5124
 1808SOL    HW217061   4.352   1.906  11.537  0.9278 -0.2506 -1.0857
 1809SOL     OW17062   3.388   1.861   6.202 -0.4173 -0.3938  0.0907
 1809SOL    HW117063   3.367   1.912   6.124  3.1018  3.1378  1.4655
 1809SOL    HW217064   3.482   1.872   6.212 -0.2450  1.6304 -3.7442
 1810SOL     OW17065   0.294   4.681   3.788 -0.2623  0.0370 -0.1326
 1810SOL    HW117066   0.360   4.641   3.844  0.0806  0.7004 -0.0667
 1810SOL    HW217067   0.303   0.026   3.834 -1.2800  0.4695 -0.7180
 1811SOL     OW17068   3.032   0.223  12.818  0.1710  0.3462 -0.3749
 1811SOL    HW117069   3.111   0.266  12.786  0.9739 -0.2859  0.7891
 1811SOL    HW217070   3.011   0.282  12.891  1.2426  0.9552 -0.5634
 1812SOL     OW17071   3.476   3.259  15.430  0.1275  0.1348 -0.0355
 1812SOL    HW117072   3.406   3.223  15.485  0.2819 -1.9191 -1.1659
 1812SOL    HW217073   3.423   3.258  15.351 -0.2270  1.5522  0.1923
 1813SOL     OW17074   0.086   2.220  12.752 -0.2885 -0.4804  0.2359
 1813SOL    HW117075   0.084   2.210  12.657  1.2065  1.2215  0.0125
 1813SOL    HW217076   0.136   2.301  12.766  1.4041 -1.3702 -0.6890
 1814SOL     OW17077   4.401   0.870   4.748  0.6086  0.4505  0.2055
 1814SOL    HW117078   4.431   0.941   4.692  1.1866 -0.1369 -0.2196
 1814SOL    HW217079   4.438   0.795   4.701  0.8627  0.0126  1.1026
 1815SOL     OW17080   3.380   0.473   5.953 -0.2237 -0.8604  0.2933
 1815SOL    HW117081   3.291   0.495   5.924  0.9768 -0.3874 -2.9568
 1815SOL    HW217082   3.355   0.408   6.018 -2.6672  1.0679  1.2872
 1816SOL     OW17083   3.661   0.667   5.990 -0.6205 -0.4918 -0.4409
 1816SOL    HW117084   3.600   0.594   6.004  1.5060 -1.8876  1.4264
 1816SOL    HW217085   3.620   0.711   5.915  0.2983  1.8073  0.4266
 1817SOL     OW17086   1.536   1.019   9.256 -0.1082 -0.1013  0.4434
 1817SOL    HW117087   1.589   1.050   9.183 -2.3014  0.4371 -0.9184
 1817SOL    HW217088   1.574   0.932   9.267 -0.9340 -0.2631  2.1280
 1818SOL     OW17089   3.647   4.729  16.888 -0.9251 -0.2766 -0.0091
 1818SOL    HW117090   3.604   4.647  16.913 -2.1472  0.5970  0.7205
 1818SOL    HW217091   3.655   0.032  16.974  0.4584 -2.0552  0.7164
 1819SOL     OW17092   2.038   0.992   7.038 -0.2121 -0.1859  0.6267
 1819SOL    HW117093   2.100   1.047   6.990 -1.8953  1.5322  0.4480
 1819SOL    HW217094   1.979   0.951   6.975  1.6669 -0.7599 -0.7537
 1820SOL     OW17095   4.444   1.414   6.232 -0.1391  0.3553 -0.1502
 1820SOL    HW117096   4.436   1.415   6.136 -0.0702 -1.6842 -0.1901
 1820SOL    HW217097   4.374   1.351   6.247  0.3951 -0.6641 -1.8329
 1821SOL     OW17098   4.233   2.360   2.002  0.0390 -0.2245  0.3384
 1821SOL    HW117099   4.206   2.435   2.055 -2.4035 -0.5935 -0.4191
 1821SOL    HW217100   4.317   2.398   1.974 -0.5604 -0.0481 -1.2304
 1822SOL     OW17101   3.560   3.648   3.084 -0.0590 -0.1840  0.3000
 1822SOL    HW117102   3.556   3.600   3.167  2.5688  0.7926  0.9985
 1822SOL    HW217103   3.577   3.739   3.109 -2.8359  0.6596 -0.8691
 1823SOL     OW17104   3.980   3.408  11.570 -0.2301 -0.2807  0.3331
 1823SOL    HW117105   4.020   3.358  11.641  2.4238 -0.8012 -1.4894
 1823SOL    HW217106   3.896   3.406  11.615 -1.2812 -0.5258 -1.6296
 1824SOL     OW17107   2.373   3.137   6.393 -0.0421 -0.1681  0.2751
 1824SOL    HW117108   2.432   3.212   6.393 -0.0494 -0.1565  1.2204
 1824SOL    HW217109   2.286   3.171   6.411  0.8011  1.1099  2.0145
 1825SOL     OW17110   3.448   2.431   3.459  0.4601 -0.1074  0.4378
 1825SOL    HW117111   3.502   2.426   3.538 -1.5079  1.6948  1.9052
 1825SOL    HW217112   3.401   2.348   3.469  3.1361 -1.7646 -0.9595
 1826SOL     OW17113   1.142   1.638   1.213  0.2143 -0.2623  0.4897
 1826SOL    HW117114   1.193   1.695   1.271  0.5641  0.0515 -0.1260
 1826SOL    HW217115   1.061   1.620   1.262 -1.2652  1.3325 -1.3523
 1827SOL     OW17116   1.100   4.598   4.453  0.4090  0.3540  0.1648
 1827SOL    HW117117   1.145   4.558   4.528  0.3930 -1.2311 -0.6813
 1827SOL    HW217118   1.015   4.612   4.495  1.5062  0.8199  2.2189
 1828SOL     OW17119   3.220   3.479   4.854 -0.4650  0.1515 -0.2879
 1828SOL    HW117120   3.159   3.456   4.785  0.6706 -0.6065 -1.0416
 1828SOL    HW217121   3.294   3.530   4.821  0.1397 -0.1801  0.5399
 1829SOL     OW17122   3.237   3.506  10.783  0.5376 -0.2419  0.1592
 1829SOL    HW117123   3.279   3.432  10.827  0.9065  1.3531  2.4439
 1829SOL    HW217124   3.271   3.574  10.841  0.6892 -0.2286  0.0557
 1830SOL     OW17125   3.017   2.359  12.298  0.0083 -0.2929  0.1794
 1830SOL    HW117126   3.031   2.391  12.210  2.2650  0.0132  0.6546
 1830SOL    HW217127   2.957   2.288  12.276  1.6075 -1.7990  0.6609
 1831SOL     OW17128   2.987   0.544   7.851  0.0967  0.4023 -0.0530
 1831SOL    HW117129   3.000   0.475   7.916 -1.2458  1.3217  1.2104
 1831SOL    HW217130   3.073   0.582   7.834  0.2997  0.0336  0.1678
 1832SOL     OW17131   2.215   1.813  15.888 -0.5064 -0.5528  0.2225
 1832SOL    HW117132   2.184   1.754  15.820 -0.8039 -0.3128  0.1474
 1832SOL    HW217133   2.137   1.805  15.942  0.0204  0.5958  1.1512
 1833SOL     OW17134   0.921   2.675   5.923  0.3593 -0.6198 -0.6481
 1833SOL    HW117135   0.909   2.642   6.012  1.3452  1.3813  0.2269
 1833SOL    HW217136   0.931   2.767   5.945  1.7366 -0.7094 -0.8893
 1834SOL     OW17137   2.014   2.033   5.380  0.1438  0.5810  0.0000
 1834SOL    HW117138   1.929   1.990   5.388 -0.8105  2.2180 -1.1188
 1834SOL    HW217139   2.014   2.085   5.299  3.4061 -0.8721 -0.9411
 1835SOL     OW17140   1.701   2.968   5.550  0.1669 -0.6157  0.3699
 1835SOL    HW117141   1.769   3.035   5.558 -1.0643  0.8794 -1.4177
 1835SOL    HW217142   1.641   3.018   5.493 -0.8184 -0.6480  1.3906
 1836SOL     OW17143   1.187   2.753   4.870  0.0022  0.2094  0.0072
 1836SOL    HW117144   1.108   2.737   4.819 -1.1676  1.7997  1.3005
 1836SOL    HW217145   1.254   2.704   4.822 -2.2115 -2.1776 -0.6155
 1837SOL     OW17146   0.276   0.548   6.719  0.0316  0.2687  0.2771
 1837SOL    HW117147   0.368   0.558   6.697  0.3625 -0.3571  1.3743
 1837SOL    HW217148   0.238   0.517   6.636  1.1209  2.2043 -0.9382
 1838SOL     OW17149   3.563   0.772   4.560  0.3640 -0.5565  0.4078
 1838SOL    HW117150   3.631   0.809   4.616 -0.2146 -1.1147  1.4848
 1838SOL    HW217151   3.539   0.850   4.510 -0.1288 -1.1731 -0.3068
 1839SOL     OW17152   4.042   2.207   3.871 -0.0565 -0.0353 -0.6871
 1839SOL    HW117153   4.015   2.221   3.962  0.7116 -0.0080 -0.4644
 1839SOL    HW217154   3.993   2.277   3.827 -1.1081 -0.9360 -0.9573
 1840SOL     OW17155   2.489   1.565  15.726  0.3416 -0.1204 -0.3198
 1840SOL    HW117156   2.494   1.477  15.689 -2.5511 -0.8771  1.0796
 1840SOL    HW217157   2.531   1.612  15.654 -0.3795  1.1493  0.0915
 1841SOL     OW17158   0.701   4.319   8.432 -0.3595  0.4525  0.9266
 1841SOL    HW117159   0.639   4.392   8.436 -1.3684 -0.3173 -0.5868
 1841SOL    HW217160   0.642   4.244   8.431  1.0682 -0.6777  2.1738
 1842SOL     OW17161   0.079   0.195   4.054  0.2516  0.2850 -0.0278
 1842SOL    HW117162   0.075   0.197   4.150  2.6636 -0.5109  0.0990
 1842SOL    HW217163   4.738   0.237   4.021 -1.4587 -2.2473  0.8476
 1843SOL     OW17164   3.694   1.960   8.542  0.6130 -0.0775 -0.3633
 1843SOL    HW117165   3.777   2.007   8.528  0.4185  0.5828  0.6858
 1843SOL    HW217166   3.671   1.961   8.449  1.0627  2.6226 -0.4487
 1844SOL     OW17167   2.299   0.696   3.348 -0.0013 -0.0260 -0.1528
 1844SOL    HW117168   2.387   0.731   3.333 -0.7862  1.9644 -0.0434
 1844SOL    HW217169   2.314   0.601   3.355  0.2055  0.0957  1.0857
 1845SOL     OW17170   3.934   3.879   3.846 -0.0963  0.6185 -0.0906
 1845SOL    HW117171   3.967   3.791   3.867  0.2523  0.3200 -1.9109
 1845SOL    HW217172   3.902   3.864   3.757  0.1577  0.5746 -0.1753
 1846SOL     OW17173   1.776   4.505   2.467  0.3000  0.1207 -0.4192
 1846SOL    HW117174   1.805   4.456   2.390 -0.0497  1.4992 -1.4219
 1846SOL    HW217175   1.775   4.438   2.536  0.3325  0.1947 -0.3472
 1847SOL     OW17176   1.933   1.728   7.132  0.4273 -0.5262  0.2253
 1847SOL    HW117177   2.010   1.706   7.184 -0.2441  0.2889  1.5538
 1847SOL    HW217178   1.936   1.823   7.125 -0.8084 -0.4785  0.3257
 1848SOL     OW17179   2.099   2.060  13.526 -0.1588 -0.0351 -0.2904
 1848SOL    HW117180   2.105   2.131  13.462  1.1647  0.7503  0.7068
 1848SOL    HW217181   2.187   2.023  13.531 -0.1058  0.2308  0.8239
 1849SOL     OW17182   1.398   3.784   9.498  0.0330  0.6323  0.3953
 1849SOL    HW117183   1.390   3.851   9.431  1.0248  0.9166  0.5604
 1849SOL    HW217184   1.466   3.815   9.558  1.5213 -0.5699 -0.6772
 1850SOL     OW17185   4.672   3.619   7.304 -0.0652  0.4667 -0.3985
 1850SOL    HW117186   4.660   3.673   7.382 -1.6948 -0.0444 -0.2907
 1850SOL    HW217187   4.640   3.535   7.339 -0.9378  1.7940  1.9847
 1851SOL     OW17188   4.385   2.556   8.382 -0.3651 -0.1914  0.1336
 1851SOL    HW117189   4.480   2.546   8.376 -0.2666 -0.0695  1.6228
 1851SOL    HW217190   4.362   2.587   8.294  1.2143  1.5170  0.3082
 1852SOL     OW17191   3.719   1.991   1.745 -0.3645 -0.2713 -0.5956
 1852SOL    HW117192   3.711   1.906   1.702 -0.8162 -0.3647 -0.3269
 1852SOL    HW217193   3.634   1.999   1.789  0.7864  0.5967  1.4859
 1853SOL     OW17194   1.721   3.913   3.127 -0.2237  0.1477 -0.5895
 1853SOL    HW117195   1.748   3.893   3.037 -1.5234 -2.4001 -0.4364
 1853SOL    HW217196   1.629   3.885   3.124 -0.5564  1.3206 -1.4702
 1854SOL     OW17197   1.245   1.758  12.612 -0.1856  0.1118  0.0089
 1854SOL    HW117198   1.177   1.719  12.557  0.3749  0.1515 -0.7126
 1854SOL    HW217199   1.203   1.795  12.689 -3.2348 -0.0264 -1.5943
 1855SOL     OW17200   0.503   4.095   4.533 -0.4093 -0.4484 -0.4660
 1855SOL    HW117201   0.448   4.153   4.586  2.1804  0.9193  0.7560
 1855SOL    HW217202   0.565   4.153   4.488 -0.5107  0.6732  0.8123
 1856SOL     OW17203   3.873   0.195   8.901  0.0520  0.0492  0.2321
 1856SOL    HW117204   3.951   0.245   8.922  0.0720  0.2739 -0.3978
 1856SOL    HW217205   3.815   0.245   8.959 -0.5455 -0.9029  0.4684
 1857SOL     OW17206   3.208   3.526   1.152  0.2443  0.0916 -0.2317
 1857SOL    HW117207   3.280   3.585   1.176  0.7382 -0.5383 -0.1735
 1857SOL    HW217208   3.139   3.591   1.164  0.9093  0.7512  0.0190
 1858SOL     OW17209   3.269   0.888   0.457  0.0692  0.0733 -0.5300
 1858SOL    HW117210   3.363   0.882   0.442 -0.3890 -1.0126 -2.8939
 1858SOL    HW217211   3.243   0.963   0.404  1.0041  1.8753  1.5546
 1859SOL     OW17212   1.913   3.256   9.780  0.6566  0.3247  0.4932
 1859SOL    HW117213   1.822   3.272   9.752  0.6488  0.4188  0.5731
 1859SOL    HW217214   1.936   3.180   9.726 -0.4295 -1.1586  2.1361
 1860SOL     OW17215   2.606   3.505  11.522  0.0513 -0.4781  0.8235
 1860SOL    HW117216   2.639   3.416  11.528  0.6446 -0.2770  0.5449
 1860SOL    HW217217   2.567   3.503  11.609  1.4754 -3.5558  1.3548
 1861SOL     OW17218   2.891   2.923   5.272 -0.0309 -0.2503 -0.3184
 1861SOL    HW117219   2.980   2.935   5.306  0.3961 -1.9124 -0.8357
 1861SOL    HW217220   2.846   2.999   5.308 -1.2963 -0.5271 -1.3081
 1862SOL     OW17221   1.854   4.334   3.720  0.5587  0.0264 -0.1439
 1862SOL    HW117222   1.887   4.274   3.653  0.7364 -0.2323  0.1724
 1862SOL    HW217223   1.768   4.351   3.683 -0.0889 -2.1890  0.3448
 1863SOL     OW17224   2.448   0.178   2.350  0.0535  0.4347  0.6811
 1863SOL    HW117225   2.415   0.203   2.436  1.7982  1.3727  1.0902
 1863SOL    HW217226   2.498   0.253   2.315  0.1623 -0.9144 -2.0319
 1864SOL     OW17227   2.957   3.965   4.966 -0.7369 -0.0260 -0.2800
 1864SOL    HW117228   3.046   3.998   4.953  0.1362 -1.7702  1.4020
 1864SOL    HW217229   2.945   3.932   4.877  0.3236 -0.8280 -0.1191
 1865SOL     OW17230   4.138   0.175   9.810 -0.6858 -0.2754 -0.1886
 1865SOL    HW117231   4.062   0.230   9.787 -2.6333 -2.4034  1.1091
 1865SOL    HW217232   4.157   0.213   9.896  2.0442  0.6664 -1.2258
 1866SOL     OW17233   1.626   2.112   3.062  0.2933  0.6615 -0.4243
 1866SOL    HW117234   1.595   2.096   3.151 -3.1629 -1.4503 -2.0232
 1866SOL    HW217235   1.597   2.204   3.061  0.6757  0.8054  2.4181
 1867SOL     OW17236   2.201   3.618   1.645 -0.0974  0.1123 -0.4689
 1867SOL    HW117237   2.156   3.685   1.696  0.1887 -0.0413 -0.0098
 1867SOL    HW217238   2.282   3.658   1.614 -0.8507  1.6042 -0.5023
 1868SOL     OW17239   3.435   0.931   4.031  0.3086  0.7026 -0.0168
 1868SOL    HW117240   3.481   0.900   3.953 -1.6648  1.9114 -1.6380
 1868SOL    HW217241   3.500   0.990   4.070  1.0603 -1.3331  1.8186
 1869SOL     OW17242   1.611   1.076   0.779 -0.2470  0.9425 -0.3435
 1869SOL    HW117243   1.664   1.156   0.779  1.0491  0.0803 -0.5279
 1869SOL    HW217244   1.672   1.026   0.726 -0.0873  0.0812  0.6552
 1870SOL     OW17245   1.811   0.621   4.438 -0.2005 -0.2061  0.1158
 1870SOL    HW117246   1.872   0.694   4.428 -1.1171  0.6992  1.0724
 1870SOL    HW217247   1.869   0.546   4.426 -0.0385 -0.0202 -0.2504
 1871SOL     OW17248   2.123   4.478   7.159 -0.1910 -0.1128  0.5398
 1871SOL    HW117249   2.216   4.500   7.151  0.0112 -1.2972 -0.3207
 1871SOL    HW217250   2.097   4.493   7.069 -1.2667 -1.1971  0.6810
 1872SOL     OW17251   4.421   3.517   6.153  0.2504  0.3486 -0.4239
 1872SOL    HW117252   4.407   3.611   6.139 -0.4707  0.1795 -0.8817
 1872SOL    HW217253   4.342   3.492   6.106  0.8602 -2.4475  0.0488
 1873SOL     OW17254   3.238   3.658   7.200  0.3716  0.2567  0.2780
 1873SOL    HW117255   3.309   3.718   7.221  0.6396  0.7158 -1.9092
 1873SOL    HW217256   3.213   3.623   7.285 -0.8954  0.1920 -0.1220
 1874SOL     OW17257   0.740   1.454   9.581 -0.0472 -0.5955 -0.7834
 1874SOL    HW117258   0.813   1.472   9.640 -1.5042 -0.1060  0.8639
 1874SOL    HW217259   0.714   1.363   9.598 -1.1009 -0.3162 -0.8600
 1875SOL     OW17260   4.060   0.534   8.334  0.6988  0.0285  0.0097
 1875SOL    HW117261   4.025   0.481   8.263  2.8722 -0.4553 -0.6957
 1875SOL    HW217262   4.015   0.505   8.413 -1.9111  1.0840 -1.0813
 1876SOL     OW17263   2.781   4.238   7.880  0.3168 -0.2401 -0.6236
 1876SOL    HW117264   2.822   4.295   7.814  0.0016  0.9065  0.1655
 1876SOL    HW217265   2.793   4.152   7.839 -0.4781 -0.8416  0.4253
 1877SOL     OW17266   2.459   1.537  17.399 -0.0848  0.0699  0.2529
 1877SOL    HW117267   2.410   1.616  17.375  0.9171  0.7344  0.4196
 1877SOL    HW217268   2.395   1.468  17.383  0.9984 -0.9620  0.3251
 1878SOL     OW17269   2.168   0.532   6.840 -0.4322  0.3248  0.1722
 1878SOL    HW117270   2.244   0.548   6.785  1.1523 -1.7184  1.7414
 1878SOL    HW217271   2.219   0.497   6.913  2.2426 -0.6674 -2.1535
 1879SOL     OW17272   2.568   0.563   1.787 -0.0770 -0.5868  0.4740
 1879SOL    HW117273   2.577   0.567   1.882  1.5705  0.2559  0.2754
 1879SOL    HW217274   2.662   0.553   1.772 -0.1349 -0.4533  0.0212
 1880SOL     OW17275   4.482   1.547  12.892 -0.2592 -0.5739 -0.0508
 1880SOL    HW117276   4.527   1.547  12.977 -0.5956 -2.6524  0.1304
 1880SOL    HW217277   4.473   1.452  12.883 -1.5309 -0.4878  0.2072
 1881SOL     OW17278   4.662   3.832  17.421  0.0913 -0.9762 -0.3441
 1881SOL    HW117279   4.661   3.745  17.460  0.1756 -0.9286 -0.2336
 1881SOL    HW217280   4.569   3.849  17.411 -0.0163 -0.8522  0.8767
 1882SOL     OW17281   2.707   1.706   7.056  0.2725  0.2579  0.0958
 1882SOL    HW117282   2.676   1.681   6.969 -0.9094 -0.4926  0.7239
 1882SOL    HW217283   2.790   1.661   7.067 -0.1051  0.1141  2.3781
 1883SOL     OW17284   2.076   3.835   1.835  0.2766  0.1556 -0.5508
 1883SOL    HW117285   2.135   3.825   1.910 -1.0627 -0.2979  0.4575
 1883SOL    HW217286   1.992   3.803   1.870  0.2073 -2.5104 -3.1692
 1884SOL     OW17287   4.183   1.765  13.881  0.4327  0.7590 -0.7023
 1884SOL    HW117288   4.128   1.831  13.923 -1.2000 -2.1900  1.8283
 1884SOL    HW217289   4.125   1.723  13.818  3.4945 -0.3348 -2.8116
 1885SOL     OW17290   0.478   1.480   9.324  0.2445  0.3699 -0.5780
 1885SOL    HW117291   0.516   1.566   9.340  2.0676 -0.8642  1.7866
 1885SOL    HW217292   0.414   1.513   9.261 -3.1695 -1.7271  1.7649
 1886SOL     OW17293   1.816   2.193   3.370 -0.6196 -0.6148  0.1376
 1886SOL    HW117294   1.793   2.256   3.301  0.3879 -1.6033 -1.0858
 1886SOL    HW217295   1.869   2.130   3.323  1.0031  0.1382  0.9662
 1887SOL     OW17296   0.728   1.183   7.975 -0.2686  0.1060  0.1247
 1887SOL    HW117297   0.688   1.126   7.910  0.9067 -1.3573  0.6818
 1887SOL    HW217298   0.661   1.172   8.042 -0.6326  3.0834  0.2197
 1888SOL     OW17299   3.996   0.667   1.843 -0.2598 -0.8211 -0.2540
 1888SOL    HW117300   3.940   0.632   1.912 -1.4289 -0.0817 -0.8295
 1888SOL    HW217301   3.990   0.596   1.779 -0.5566  0.0151 -1.1528
 1889SOL     OW17302   2.501   0.872  12.723  0.2824 -0.1604  0.0296
 1889SOL    HW117303   2.492   0.838  12.634  1.3402 -0.8080  0.1700
 1889SOL    HW217304   2.513   0.791  12.772 -1.8553 -0.6412 -0.2504
 1890SOL     OW17305   1.869   1.361   2.823 -0.0726 -0.2893  0.1989
 1890SOL    HW117306   1.823   1.416   2.759  0.5693  0.8600  0.7388
 1890SOL    HW217307   1.832   1.386   2.908 -0.6559 -2.9479  0.7426
 1891SOL     OW17308   4.548   4.435   1.722  0.3242  0.1826  0.0092
 1891SOL    HW117309   4.525   4.521   1.688 -3.3951 -0.6112  0.5011
 1891SOL    HW217310   4.541   4.380   1.643  2.4434  0.4665 -0.3919
 1892SOL     OW17311   3.724   0.666   0.188  0.2671  0.1836  0.4037
 1892SOL    HW117312   3.782   0.675   0.111 -2.2035 -2.0365 -1.7216
 1892SOL    HW217313   3.726   0.571   0.200  2.8881  0.3672  1.3736
 1893SOL     OW17314   2.693   3.051   3.750  0.0114  0.1076  0.1491
 1893SOL    HW117315   2.737   2.965   3.747  1.5796  0.9195  0.0262
 1893SOL    HW217316   2.748   3.102   3.810 -0.8462  0.6615  0.4676
 1894SOL     OW17317   3.057   4.194   6.789 -0.4934  0.0219  0.1004
 1894SOL    HW117318   3.134   4.237   6.754 -0.4805 -1.8494 -2.1418
 1894SOL    HW217319   2.996   4.218   6.719 -0.1939 -1.7111 -0.7628
 1895SOL     OW17320   4.349   3.360  12.630  0.6835 -0.6082  0.0031
 1895SOL    HW117321   4.375   3.377  12.540 -3.7626  0.9181 -0.9390
 1895SOL    HW217322   4.369   3.267  12.645  0.0769 -0.7794 -0.2763
 1896SOL     OW17323   4.217   0.538  14.479 -0.6939  0.1799  0.0480
 1896SOL    HW117324   4.254   0.621  14.450  2.3214 -1.4025 -0.6476
 1896SOL    HW217325   4.201   0.535  14.573  0.2048  0.3048  0.2111
 1897SOL     OW17326   4.144   2.372   5.020  0.2776 -0.0978  0.3754
 1897SOL    HW117327   4.078   2.402   5.082 -1.0837 -0.0190 -1.1193
 1897SOL    HW217328   4.227   2.394   5.062 -0.3949  0.7909  1.2284
 1898SOL     OW17329   1.357   0.196  14.547 -0.7224 -0.4480 -0.0699
 1898SOL    HW117330   1.375   0.240  14.464 -0.2073  2.9056  1.8364
 1898SOL    HW217331   1.271   0.235  14.565 -0.9603 -0.8125 -0.4152
 1899SOL     OW17332   3.790   1.195   4.489  0.1519 -0.0266 -0.5366
 1899SOL    HW117333   3.821   1.131   4.426 -0.7299 -0.5936 -0.3940
 1899SOL    HW217334   3.766   1.264   4.428 -1.8826  0.6882  1.0516
 1900SOL     OW17335   1.214   4.293   9.240  0.1497  0.2315 -0.1775
 1900SOL    HW117336   1.210   4.382   9.203  1.2053 -0.4572 -1.9563
 1900SOL    HW217337   1.180   4.238   9.169 -0.3342 -1.1872  1.1677
 1901SOL     OW17338   2.973   4.515   5.259  0.3154 -0.2142 -0.1064
 1901SOL    HW117339   2.948   4.471   5.178 -0.6883 -2.0742  1.2126
 1901SOL    HW217340   3.066   4.495   5.271  0.6418  2.9224  2.7122
 1902SOL     OW17341   2.273   0.815   5.537 -0.2727  0.5025 -0.2361
 1902SOL    HW117342   2.311   0.753   5.599 -1.9402 -1.0905 -0.8362
 1902SOL    HW217343   2.188   0.827   5.580  1.0937  0.9606  2.3544
 1903SOL     OW17344   1.994   1.914   4.644 -0.2973 -0.0477  0.5377
 1903SOL    HW117345   2.042   1.845   4.690 -0.6009  0.3026  1.3924
 1903SOL    HW217346   1.919   1.867   4.609 -0.1939  0.6933 -0.6745
 1904SOL     OW17347   1.193   1.273   3.387 -0.1346  0.1831  0.5075
 1904SOL    HW117348   1.268   1.230   3.428  2.1499  1.5472 -2.2419
 1904SOL    HW217349   1.125   1.278   3.455 -0.6114  1.2823 -0.0475
 1905SOL     OW17350   1.899   2.565   8.157  0.6998 -0.1866  0.0533
 1905SOL    HW117351   1.966   2.569   8.089  1.4191  0.4320  0.7954
 1905SOL    HW217352   1.951   2.534   8.231  2.2022  0.8215 -0.5878
 1906SOL     OW17353   2.694   1.033   9.305 -0.1862 -0.0520 -0.1110
 1906SOL    HW117354   2.755   1.104   9.325 -1.2840  0.7767  0.2920
 1906SOL    HW217355   2.624   1.058   9.366  0.5171 -1.3603  1.2443
 1907SOL     OW17356   0.865   2.325   5.367  0.1838  0.8744 -0.2343
 1907SOL    HW117357   0.854   2.240   5.326 -1.3622 -0.4547  2.9913
 1907SOL    HW217358   0.889   2.296   5.455 -1.5573 -0.2797 -0.1395
 1908SOL     OW17359   2.219   1.965   7.261 -0.6504  0.5882 -0.3453
 1908SOL    HW117360   2.198   1.942   7.351  0.2050  0.6356 -0.1287
 1908SOL    HW217361   2.283   2.035   7.273 -0.5404  0.4154  0.0703
 1909SOL     OW17362   1.763   2.266  17.594 -1.0013  0.3014  0.2060
 1909SOL    HW117363   1.674   2.297  17.580 -1.1030  0.1772  0.5885
 1909SOL    HW217364   1.742   2.173  17.606 -1.6720  0.4175 -0.0351
 1910SOL     OW17365   4.006   3.125   1.040  0.5280 -0.2504  0.5633
 1910SOL    HW117366   4.027   3.116   0.947  0.3044 -4.1079  0.8940
 1910SOL    HW217367   4.081   3.083   1.081  0.2654  0.0597  1.3555
 1911SOL     OW17368   1.509   0.766  13.626  0.1141  1.2309  0.3082
 1911SOL    HW117369   1.571   0.708  13.670 -0.2385 -0.3303 -1.2289
 1911SOL    HW217370   1.493   0.718  13.544  0.6539  0.8051  0.4509
 1912SOL     OW17371   2.797   0.715  15.355  0.3517  0.0055  0.1594
 1912SOL    HW117372   2.862   0.689  15.419  2.9074  1.0323 -2.0429
 1912SOL    HW217373   2.779   0.807  15.374  0.5548  0.3506 -1.2989
 1913SOL     OW17374   4.214   3.572  12.766  0.0474 -0.0592  0.1849
 1913SOL    HW117375   4.275   3.509  12.728 -0.0141  0.8456 -1.4241
 1913SOL    HW217376   4.163   3.519  12.828 -1.2537 -2.1998 -2.6779
 1914SOL     OW17377   1.618   3.700   9.256 -0.4286 -0.1251  0.0651
 1914SOL    HW117378   1.662   3.763   9.313  1.5427 -1.0966 -0.3751
 1914SOL    HW217379   1.666   3.620   9.276 -0.1078 -0.2750 -1.3428
 1915SOL     OW17380   3.803   2.164   6.950  0.5771 -0.2133  0.4150
 1915SOL    HW117381   3.883   2.204   6.917 -0.7715  1.2910 -1.0494
 1915SOL    HW217382   3.745   2.236   6.923 -0.4615 -1.7518 -1.4580
 1916SOL     OW17383   0.069   3.420   6.597  0.4673  0.1067 -0.0579
 1916SOL    HW117384   0.027   3.441   6.513  0.8526 -1.3355 -0.6205
 1916SOL    HW217385   0.134   3.490   6.606  2.0004 -1.4050  0.4924
 1917SOL     OW17386   3.515   3.847   2.738  0.3429  0.0663  0.8719
 1917SOL    HW117387   3.424   3.866   2.761  0.0931  0.8177 -0.7590
 1917SOL    HW217388   3.519   3.757   2.770 -1.1559 -0.8452 -1.5575
 1918SOL     OW17389   4.678   1.294   6.292  0.1600 -0.0977 -0.1308
 1918SOL    HW117390   4.594   1.337   6.299 -0.4163 -1.5708  1.9309
 1918SOL    HW217391   4.690   1.294   6.197 -1.5991  1.1166 -0.3442
 1919SOL     OW17392   3.965   2.255   6.067  0.0992  0.7501  0.3086
 1919SOL    HW117393   3.931   2.286   5.984 -0.6147 -0.8157  0.0107
 1919SOL    HW217394   4.022   2.331   6.082 -0.4702  0.6822  2.8250
 1920SOL     OW17395   1.287   3.502   5.741  0.5812  0.2095  0.0905
 1920SOL    HW117396   1.237   3.527   5.664 -1.8531 -2.7088  0.7123
 1920SOL    HW217397   1.251   3.417   5.766 -0.0879  1.1187  2.2549
 1921SOL     OW17398   1.602   2.786   1.570 -0.2330  0.7463 -0.5491
 1921SOL    HW117399   1.522   2.838   1.578 -0.5980  0.3430 -1.6672
 1921SOL    HW217400   1.667   2.843   1.610 -1.5982  2.9721 -1.5296
 1922SOL     OW17401   1.134   3.678  15.601  0.1096  0.0264  0.1456
 1922SOL    HW117402   1.071   3.627  15.651 -0.9576  1.7620  0.5924
 1922SOL    HW217403   1.113   3.664  15.509  0.5084 -1.1851  0.2395
 1923SOL     OW17404   3.985   4.496   1.385  0.1915 -0.1709 -0.1068
 1923SOL    HW117405   4.069   4.491   1.431 -0.1309 -0.2506  0.4796
 1923SOL    HW217406   3.924   4.543   1.441  0.0771 -1.5130  0.9230
 1924SOL     OW17407   1.308   1.239   0.915 -0.0859  0.2803  0.3619
 1924SOL    HW117408   1.309   1.163   0.857  0.7928  0.1336  0.5731
 1924SOL    HW217409   1.321   1.311   0.854 -0.2796 -2.2100 -2.5839
 1925SOL     OW17410   0.046   3.672   5.798  0.4995 -0.3234  0.2134
 1925SOL    HW117411   0.072   3.598   5.744  0.3256 -0.7006  0.6423
 1925SOL    HW217412   4.731   3.723   5.736 -1.1392 -0.3817  1.5741
 1926SOL     OW17413   4.109   0.375   5.868  0.2627  0.2388  0.3198
 1926SOL    HW117414   4.168   0.391   5.795 -0.7089  1.0124 -0.2952
 1926SOL    HW217415   4.040   0.438   5.848  1.1097  0.4893 -1.7707
 1927SOL     OW17416   2.107   3.247   4.895  0.0172  1.2964 -0.6960
 1927SOL    HW117417   2.102   3.301   4.975 -1.0643  0.3128 -0.1020
 1927SOL    HW217418   2.054   3.173   4.926 -3.3508  4.1916  0.4759
 1928SOL     OW17419   2.381   3.781   9.023  0.3027  0.0043  0.5582
 1928SOL    HW117420   2.287   3.759   9.018  0.2231  0.3687  0.4758
 1928SOL    HW217421   2.398   3.761   8.931 -0.5766 -0.4503  0.4888
 1929SOL     OW17422   4.284   2.216   1.689  0.0520  0.5429  0.4592
 1929SOL    HW117423   4.248   2.296   1.653 -2.0402 -0.5523  0.1337
 1929SOL    HW217424   4.378   2.237   1.683  0.5168 -1.5145  0.3568
 1930SOL     OW17425   4.038   0.772  14.140  0.3930  0.3847 -0.0162
 1930SOL    HW117426   4.067   0.744  14.053  0.5169  1.3105 -0.2787
 1930SOL    HW217427   3.992   0.853  14.118  0.0021  0.6852  1.8980
 1931SOL     OW17428   1.678   3.811   5.348  0.4365  0.6699 -0.1819
 1931SOL    HW117429   1.675   3.860   5.266 -0.1094  4.1264  1.8811
 1931SOL    HW217430   1.587   3.820   5.376 -0.0080 -0.7021 -1.1806
 1932SOL     OW17431   3.842   2.380   4.967  0.7069  0.0430 -0.0209
 1932SOL    HW117432   3.782   2.383   4.892  2.2690  0.9370 -1.2431
 1932SOL    HW217433   3.902   2.449   4.938  2.3637 -0.3415  2.4429
 1933SOL     OW17434   3.658   4.503   3.078 -0.4580 -0.2517  0.7296
 1933SOL    HW117435   3.703   4.470   3.000 -0.5773  0.8242  0.2097
 1933SOL    HW217436   3.576   4.454   3.067 -1.5668  1.7025  0.3971
 1934SOL     OW17437   3.942   0.046   2.361 -0.1599  0.4342 -0.5303
 1934SOL    HW117438   3.963   4.694   2.383 -1.6931  0.4170  0.8036
 1934SOL    HW217439   3.987   0.095   2.430  0.3573 -0.2201 -0.4073
 1935SOL     OW17440   0.733   2.695   9.701 -0.0934  0.0249 -0.2460
 1935SOL    HW117441   0.719   2.786   9.726 -0.6985 -0.2811  0.5202
 1935SOL    HW217442   0.721   2.702   9.606 -0.9588  0.0229 -0.1290
 1936SOL     OW17443   3.726   4.575   2.102  0.0686 -0.2690 -0.4495
 1936SOL    HW117444   3.662   4.503   2.099 -1.1860  0.7807  1.0711
 1936SOL    HW217445   3.671   4.652   2.088  1.0853  0.8645  1.9130
 1937SOL     OW17446   2.568   1.661   1.916 -0.6703 -0.0923 -0.4287
 1937SOL    HW117447   2.514   1.612   1.853 -1.1692  1.0455 -0.9038
 1937SOL    HW217448   2.650   1.682   1.871 -0.3070 -1.9426 -0.5949
 1938SOL     OW17449   0.750   1.435  12.646  0.0896 -0.6406 -0.2892
 1938SOL    HW117450   0.828   1.484  12.672 -1.1265  2.1610 -1.9137
 1938SOL    HW217451   0.710   1.436  12.733  0.7564  0.4120  0.0048
 1939SOL     OW17452   0.766   3.829   9.138  0.0422  0.1784  0.5380
 1939SOL    HW117453   0.783   3.735   9.147  0.9450  0.1395 -1.5840
 1939SOL    HW217454   0.837   3.866   9.191  0.5395 -0.9247  0.6396
 1940SOL     OW17455   1.113   3.231   6.139 -0.2466 -0.1113 -0.2143
 1940SOL    HW117456   1.189   3.190   6.096 -1.0872  0.7537 -2.4856
 1940SOL    HW217457   1.096   3.305   6.081 -2.8750  0.8490  1.8165
 1941SOL     OW17458   1.250   4.126   2.727  1.1825 -0.1993 -0.3195
 1941SOL    HW117459   1.317   4.103   2.791  0.8235 -1.1848 -0.2989
 1941SOL    HW217460   1.243   4.221   2.735 -2.0478 -0.1402 -3.7199
 1942SOL     OW17461   3.216   3.276   6.141  0.1837  0.6299 -0.5773
 1942SOL    HW117462   3.258   3.198   6.105  1.7228 -0.0949  2.7769
 1942SOL    HW217463   3.259   3.287   6.225  1.6648 -0.4459 -1.1945
 1943SOL     OW17464   0.307   2.272   5.527  0.4145 -0.0580  0.5011
 1943SOL    HW117465   0.244   2.291   5.457 -1.5077 -1.9078  1.7310
 1943SOL    HW217466   0.256   2.205   5.571 -1.8328  0.5299 -1.2010
 1944SOL     OW17467   1.040   1.848   2.095 -0.2434 -0.0814  0.0464
 1944SOL    HW117468   1.128   1.820   2.117 -0.5519  1.6102  3.5317
 1944SOL    HW217469   0.991   1.769   2.118 -3.5360  2.1535  0.8099
 1945SOL     OW17470   1.501   4.591   8.772 -0.5028  0.0296 -0.4843
 1945SOL    HW117471   1.563   4.519   8.767 -0.9810 -0.5132  1.2875
 1945SOL    HW217472   1.536   4.636   8.696  2.1742  0.6383  1.1408
 1946SOL     OW17473   3.685   3.480  15.344  0.6968 -0.3961  0.3997
 1946SOL    HW117474   3.643   3.470  15.259  0.9206  2.1277 -0.0126
 1946SOL    HW217475   3.730   3.564  15.340 -1.1699  0.4425 -2.5960
 1947SOL     OW17476   1.440   0.927   4.523 -0.4801 -0.2494  0.4382
 1947SOL    HW117477   1.383   0.971   4.587 -1.0044  0.9009 -0.8292
 1947SOL    HW217478   1.412   0.836   4.514  0.2130 -0.4817  0.5869
 1948SOL     OW17479   2.014   1.597  13.066 -0.0521 -0.1858 -0.1678
 1948SOL    HW117480   1.952   1.638  13.006 -0.7124 -0.6209  0.2124
 1948SOL    HW217481   2.046   1.528  13.009  0.6505  0.7393 -0.8961
 1949SOL     OW17482   2.847   0.334   8.859  0.0562  0.0591 -0.5735
 1949SOL    HW117483   2.758   0.307   8.836  1.0712 -1.0733 -3.0626
 1949SOL    HW217484   2.839   0.374   8.946 -0.2230 -2.4392  0.5639
 1950SOL     OW17485   0.069   2.525   8.243 -0.2809  0.0813 -0.5065
 1950SOL    HW117486   0.118   2.524   8.161  0.3258  2.0545 -0.1653
 1950SOL    HW217487   0.093   2.444   8.288 -0.2679  2.7470  4.2975
 1951SOL     OW17488   1.750   4.115   4.278 -0.4467 -0.3407  1.0701
 1951SOL    HW117489   1.789   4.123   4.191 -1.5136 -0.7480  0.5546
 1951SOL    HW217490   1.723   4.024   4.285  0.7253 -0.7812 -0.2855
 1952SOL     OW17491   3.426   3.348  11.894 -0.1249 -0.3450 -0.1864
 1952SOL    HW117492   3.518   3.328  11.911 -0.3856 -1.4170 -0.0387
 1952SOL    HW217493   3.440   3.435  11.857  1.6154 -1.0254 -1.0890
 1953SOL     OW17494   4.209   3.360  10.143  0.3239 -0.0641 -0.2960
 1953SOL    HW117495   4.267   3.290  10.110 -0.6307 -0.1104 -1.8556
 1953SOL    HW217496   4.148   3.360  10.069 -0.4393  0.4102  0.3411
 1954SOL     OW17497   2.126   3.443   2.681 -0.2241  0.3583 -0.1667
 1954SOL    HW117498   2.127   3.445   2.776  2.3753  0.2311 -0.1992
 1954SOL    HW217499   2.034   3.425   2.660 -0.7166  2.9235 -0.1794
 1955SOL     OW17500   3.676   2.622   1.781  0.0607  0.0214  0.4505
 1955SOL    HW117501   3.601   2.657   1.733 -0.1862  0.6972  1.3223
 1955SOL    HW217502   3.647   2.633   1.872  2.1889 -1.2150  1.2864
 1956SOL     OW17503   0.133   0.440   9.968  0.1021  0.7149 -0.0551
 1956SOL    HW117504   0.073   0.470   9.900  1.3714  0.3458 -1.3384
 1956SOL    HW217505   0.203   0.392   9.925 -1.5455 -2.0780  0.4034
 1957SOL     OW17506   1.182   2.178  14.147  0.3587  0.1204  0.8998
 1957SOL    HW117507   1.199   2.206  14.057 -0.1045  1.6166  1.2860
 1957SOL    HW217508   1.149   2.257  14.190 -0.0254 -0.4583  1.6667
 1958SOL     OW17509   4.003   2.957   7.765  0.5600 -0.0094  0.4055
 1958SOL    HW117510   3.960   3.029   7.720 -1.8066 -1.7362 -0.0722
 1958SOL    HW217511   3.983   2.879   7.713 -2.6574  0.6297  0.7122
 1959SOL     OW17512   3.171   3.942  11.555  0.4874 -0.3991  0.4502
 1959SOL    HW117513   3.099   3.941  11.491  1.7083  1.3366 -0.9304
 1959SOL    HW217514   3.139   4.020  11.600  2.5353  0.7344 -0.0921
 1960SOL     OW17515   4.288   2.094  12.587  0.0059 -0.3541 -0.2289
 1960SOL    HW117516   4.229   2.020  12.585  0.1005 -0.5173  2.8601
 1960SOL    HW217517   4.247   2.165  12.538  1.2513  2.3664  2.6140
 1961SOL     OW17518   1.615   1.126   5.736 -0.1388 -0.4232  0.2759
 1961SOL    HW117519   1.619   1.222   5.732 -3.1974 -0.3002 -0.1531
 1961SOL    HW217520   1.576   1.109   5.650  0.2490 -0.7074  0.1573
 1962SOL     OW17521   4.460   2.101  14.153  0.3416 -0.2329  0.4117
 1962SOL    HW117522   4.395   2.057  14.098  0.1379 -1.9120  1.9796
 1962SOL    HW217523   4.490   2.037  14.217  0.0509  0.3902  1.1798
 1963SOL     OW17524   3.185   0.567  16.809  0.4362  0.2773 -0.1535
 1963SOL    HW117525   3.205   0.615  16.729 -2.7019  0.1477 -1.0018
 1963SOL    HW217526   3.141   0.493  16.766  0.5130  1.9264 -3.0542
 1964SOL     OW17527   3.478   3.745   4.069 -0.3817  0.3061 -0.6276
 1964SOL    HW117528   3.413   3.715   4.133 -0.3229 -1.3808 -1.3581
 1964SOL    HW217529   3.443   3.828   4.034  0.8450  1.4155  0.7761
 1965SOL     OW17530   1.165   3.234   3.112 -0.1195 -0.5832 -0.0973
 1965SOL    HW117531   1.159   3.201   3.201 -1.0163 -2.2848 -0.7989
 1965SOL    HW217532   1.113   3.313   3.128 -0.4573 -1.5765  3.7027
 1966SOL     OW17533   0.337   3.148   3.953 -0.7386 -0.1627  0.5545
 1966SOL    HW117534   0.257   3.119   3.908 -1.3734 -0.6436  2.0017
 1966SOL    HW217535   0.408   3.130   3.891 -0.3177 -0.2538  1.0714
 1967SOL     OW17536   3.145   1.494  17.144  0.1559 -0.4196  0.0953
 1967SOL    HW117537   3.173   1.417  17.094  0.6736 -0.3228  0.2426
 1967SOL    HW217538   3.095   1.532  17.072  0.9347 -0.9949 -0.7525
 1968SOL     OW17539   0.029   1.624   5.700  0.2536  0.5434  0.3244
 1968SOL    HW117540   0.025   1.624   5.796  0.1212  1.4518  0.3149
 1968SOL    HW217541   4.674   1.604   5.696  0.1551  0.9299  0.6348
 1969SOL     OW17542   0.867   2.702   1.968 -0.4070  0.3668 -0.3146
 1969SOL    HW117543   0.952   2.745   1.959 -1.0452  1.7548  0.3498
 1969SOL    HW217544   0.890   2.616   1.931 -0.3957 -0.1909  0.9777
 1970SOL     OW17545   1.316   4.512   0.934 -0.0390 -0.2113  0.1497
 1970SOL    HW117546   1.383   4.457   0.895  0.1166 -0.5382  0.8770
 1970SOL    HW217547   1.254   4.496   0.863  0.6460 -0.0888 -0.4696
 1971SOL     OW17548   0.944   2.148   2.150 -0.2292  0.3387 -0.0622
 1971SOL    HW117549   0.942   2.215   2.219  2.8784 -0.2641  0.6091
 1971SOL    HW217550   1.012   2.085   2.174  0.5669  0.6600 -1.4620
 1972SOL     OW17551   0.320   0.303  11.237  0.2891 -0.4784 -0.0321
 1972SOL    HW117552   0.406   0.261  11.234  1.1127  1.2908 -0.9703
 1972SOL    HW217553   0.319   0.338  11.148 -0.3776 -0.8393 -0.1724
 1973SOL     OW17554   0.476   1.949  17.570 -0.1275  0.0109 -0.1440
 1973SOL    HW117555   0.414   1.940  17.498 -0.0455  0.4373 -0.2687
 1973SOL    HW217556   0.413   1.966  17.640 -1.2061 -0.4132 -1.0016
 1974SOL     OW17557   2.036   0.265   5.840 -0.0972  0.1414 -0.5976
 1974SOL    HW117558   1.999   0.267   5.928  0.9658  2.4875 -0.2064
 1974SOL    HW217559   2.127   0.289   5.856  0.6400 -1.9037 -1.6698
 1975SOL     OW17560   2.905   0.341   4.350  0.2837  0.1523  0.1971
 1975SOL    HW117561   2.829   0.289   4.328  0.3230  0.8490 -1.6042
 1975SOL    HW217562   2.875   0.416   4.403  0.0476  0.5667 -0.5269
 1976SOL     OW17563   1.362   2.071  14.346 -0.8420 -0.1455 -0.3423
 1976SOL    HW117564   1.275   2.050  14.313 -0.3217  0.2861 -1.9926
 1976SOL    HW217565   1.386   2.157  14.312 -0.6632 -0.2584 -0.5067
 1977SOL     OW17566   1.491   2.780   8.505 -0.7519 -0.3757 -0.1227
 1977SOL    HW117567   1.498   2.729   8.424 -1.4655 -0.0859 -0.3689
 1977SOL    HW217568   1.583   2.795   8.527 -0.9061  3.2357 -2.0301
 1978SOL     OW17569   2.871   4.396  15.612 -0.5904  0.7223  0.3613
 1978SOL    HW117570   2.910   4.339  15.678 -0.8085  0.7446  0.5118
 1978SOL    HW217571   2.947   4.439  15.573 -0.7027  1.7442  1.2437
 1979SOL     OW17572   2.132   1.016   5.819 -0.0739  0.0096  0.1026
 1979SOL    HW117573   2.043   1.025   5.786 -0.4192 -1.2258  0.7237
 1979SOL    HW217574   2.129   0.923   5.843 -0.1053 -0.0964 -0.3102
 1980SOL     OW17575   0.472   0.053  15.943  0.4317 -0.1225 -0.5213
 1980SOL    HW117576   0.414   0.059  15.867  0.5557  0.4065 -0.5787
 1980SOL    HW217577   0.508   0.142  15.943  2.6426 -1.0298 -2.0734
 1981SOL     OW17578   3.437   4.318   2.958 -0.1464 -0.0997 -0.3607
 1981SOL    HW117579   3.355   4.363   2.938  0.6974  1.8926  0.6618
 1981SOL    HW217580   3.404   4.228   2.969  0.8503 -0.3607  0.5139
 1982SOL     OW17581   2.494   1.136   9.167 -0.1197 -0.0157  0.1625
 1982SOL    HW117582   2.429   1.090   9.219 -0.6591 -1.0059 -1.3782
 1982SOL    HW217583   2.574   1.092   9.193 -0.9350 -0.5040  1.8520
 1983SOL     OW17584   1.004   3.440   8.643 -0.2577  0.1716 -0.0683
 1983SOL    HW117585   1.036   3.350   8.638 -0.8973 -0.2292  3.0810
 1983SOL    HW217586   0.910   3.426   8.656 -0.5400  1.8536 -0.3350
 1984SOL     OW17587   3.946   2.344   7.777 -0.5529 -0.1845  0.3271
 1984SOL    HW117588   3.888   2.384   7.842 -0.3035  0.1806  0.3275
 1984SOL    HW217589   4.014   2.316   7.838 -0.2247 -1.3902 -0.6077
 1985SOL     OW17590   0.787   3.957   8.475 -0.4740  0.2213 -0.2013
 1985SOL    HW117591   0.719   4.024   8.487 -0.4485  0.0576  0.8800
 1985SOL    HW217592   0.724   3.887   8.461  0.4742 -0.6610 -0.0145
 1986SOL     OW17593   1.302   1.405   4.959  0.1544 -0.2847  0.0365
 1986SOL    HW117594   1.265   1.367   5.038 -0.2922  0.9780  0.4244
 1986SOL    HW217595   1.339   1.327   4.917 -1.6942 -0.0066 -2.0848
 1987SOL     OW17596   3.698   3.084   2.919  0.1997 -0.1750  0.2415
 1987SOL    HW117597   3.682   3.068   3.012  2.5541  0.2403  0.7155
 1987SOL    HW217598   3.607   3.067   2.895 -0.1990  0.7760  1.0949
 1988SOL     OW17599   1.357   3.256   3.468  0.3127 -0.5735 -0.4608
 1988SOL    HW117600   1.345   3.346   3.440 -2.0071 -1.7283 -3.1290
 1988SOL    HW217601   1.399   3.223   3.389  0.0509 -0.0167 -0.8278
 1989SOL     OW17602   0.228   1.822   3.074 -0.7137  0.3212 -0.5564
 1989SOL    HW117603   0.293   1.751   3.074 -1.8966 -0.7663 -0.3926
 1989SOL    HW217604   0.165   1.795   3.141 -0.6128  2.1918  0.2864
 1990SOL     OW17605   0.669   1.969  13.279  0.0228 -0.0661 -0.3516
 1990SOL    HW117606   0.721   1.922  13.345 -0.3417 -0.4441 -0.3355
 1990SOL    HW217607   0.583   1.931  13.290  0.0306  0.4524  1.5929
 1991SOL     OW17608   4.373   3.729  17.641  0.7055  1.0684  0.0419
 1991SOL    HW117609   4.386   3.636  17.656  0.0279  1.2745  1.9943
 1991SOL    HW217610   4.413   3.769  17.719  3.0356  0.7967 -1.0035
 1992SOL     OW17611   1.621   3.133  14.512 -0.2194 -0.0055 -0.4013
 1992SOL    HW117612   1.687   3.082  14.464  0.8916  1.3259 -0.3202
 1992SOL    HW217613   1.545   3.075  14.513  1.9251 -2.8024 -0.3236
 1993SOL     OW17614   0.122   3.269   8.055 -0.4367 -0.2481 -1.0600
 1993SOL    HW117615   0.209   3.264   8.015  0.0650  0.9722 -0.1047
 1993SOL    HW217616   0.087   3.194   8.006 -1.6960  0.0348 -0.5742
 1994SOL     OW17617   2.610   1.499  15.060  0.6644  0.3455  0.2522
 1994SOL    HW117618   2.634   1.431  14.996  0.0744 -1.1168  1.5689
 1994SOL    HW217619   2.688   1.555  15.063  1.7162 -1.0981 -0.0138
 1995SOL     OW17620   0.389   1.668   3.368 -0.4642 -0.1803 -0.2654
 1995SOL    HW117621   0.435   1.698   3.289  0.6943 -2.0978 -0.3240
 1995SOL    HW217622   0.354   1.592   3.321 -0.6580 -0.9104  1.0680
 1996SOL     OW17623   1.374   3.473  10.356 -0.2111 -0.1286 -0.3042
 1996SOL    HW117624   1.465   3.445  10.343  1.0190  3.4034  0.6611
 1996SOL    HW217625   1.331   3.401  10.402  1.2554 -2.0202 -1.8708
 1997SOL     OW17626   0.898   4.184   8.649  0.4410  0.4047  0.1649
 1997SOL    HW117627   0.833   4.188   8.719 -0.3286 -0.7559 -0.4888
 1997SOL    HW217628   0.862   4.119   8.589 -0.3161 -1.2461  2.4145
 1998SOL     OW17629   3.052   0.866   5.518 -0.0651  0.2457  0.4141
 1998SOL    HW117630   3.039   0.774   5.495 -2.8136  0.9865 -1.0922
 1998SOL    HW217631   3.131   0.858   5.570  1.2696 -0.3281 -1.7190
 1999SOL     OW17632   0.504   4.427  12.034  0.1091 -0.7561  0.2446
 1999SOL    HW117633   0.511   4.511  12.078 -3.1899 -2.1882  3.4692
 1999SOL    HW217634   0.569   4.374  12.079  0.1276 -1.3896 -0.5257
 2000SOL     OW17635   3.437   1.152   8.471 -0.5667  0.3452 -0.4760
 2000SOL    HW117636   3.425   1.239   8.433  0.8718  0.0683 -1.5666
 2000SOL    HW217637   3.457   1.178   8.561 -0.8613 -2.0945  0.3060
 2001SOL     OW17638   2.062   3.504   7.244  0.0800  0.4956  0.3603
 2001SOL    HW117639   2.140   3.490   7.192  0.3477 -0.6170  1.0553
 2001SOL    HW217640   2.023   3.575   7.193 -0.9658 -0.6897 -0.4912
 2002SOL     OW17641   2.834   1.020   2.519 -0.2843 -0.4333 -0.0185
 2002SOL    HW117642   2.754   1.020   2.466  0.2122 -1.4699 -0.7627
 2002SOL    HW217643   2.834   0.930   2.550 -1.0656 -0.4191  0.0194
 2003SOL     OW17644   1.489   3.051   8.481 -0.0973 -0.2209  0.7006
 2003SOL    HW117645   1.448   2.966   8.500  0.9842 -0.4792  1.8456
 2003SOL    HW217646   1.547   3.022   8.411 -0.1372  1.8626 -0.1737
 2004SOL     OW17647   0.777   4.111   5.943  0.4341 -0.2021  0.7796
 2004SOL    HW117648   0.810   4.057   5.871  2.8245 -0.5186  2.1125
 2004SOL    HW217649   0.688   4.076   5.948  0.1332  0.3791 -0.5100
 2005SOL     OW17650   1.670   1.939  16.744  0.0496  0.5460 -0.0547
 2005SOL    HW117651   1.584   1.936  16.786  0.3609 -0.9128  0.4894
 2005SOL    HW217652   1.710   1.872  16.800 -0.3908 -1.0435 -1.6568
 2006SOL     OW17653   3.733   4.419  16.342  0.2765  0.6660 -0.2350
 2006SOL    HW117654   3.717   4.330  16.375 -0.5853 -0.0245 -2.5122
 2006SOL    HW217655   3.824   4.436  16.364  0.3206  0.0700  0.0592
 2007SOL     OW17656   1.746   4.459   9.630 -0.0984 -0.2027 -1.1213
 2007SOL    HW117657   1.706   4.481   9.546 -0.5963  1.2284 -0.5225
 2007SOL    HW217658   1.772   4.547   9.660  2.1176 -0.1207 -3.2506
 2008SOL     OW17659   1.715   4.109   2.866  0.5111  0.3256  0.1119
 2008SOL    HW117660   1.796   4.070   2.833 -0.0616 -0.3653 -0.4645
 2008SOL    HW217661   1.754   4.191   2.899  0.2102  0.9264 -1.0449
 2009SOL     OW17662   1.203   4.347   5.639  0.1530  0.1166 -0.4253
 2009SOL    HW117663   1.293   4.373   5.656 -0.3292  2.7016 -1.7116
 2009SOL    HW217664   1.179   4.421   5.583  0.5241  1.2087  0.8676
 2010SOL     OW17665   1.686   4.425  11.975  0.4911  0.1763 -0.4668
 2010SOL    HW117666   1.614   4.487  11.979 -0.2136 -0.7284  1.2440
 2010SOL    HW217667   1.745   4.473  11.918 -0.0189  1.3686  0.0236
 2011SOL     OW17668   0.999   4.612  13.423  0.3837  0.2506 -0.1616
 2011SOL    HW117669   0.992   4.519  13.441  1.9261 -0.0533 -1.0828
 2011SOL    HW217670   0.921   4.632  13.371  0.7251 -1.6043 -1.3635
 2012SOL     OW17671   4.110   0.016  15.741 -0.1466  0.1445 -0.0450
 2012SOL    HW117672   4.203   0.024  15.759 -0.6180  3.5512  0.8845
 2012SOL    HW217673   4.090   4.660  15.740 -1.5325  0.4455 -2.3179
 2013SOL     OW17674   4.558   4.029  16.356 -0.5271  0.3462  0.4340
 2013SOL    HW117675   4.479   4.041  16.408 -0.2844  2.9009  0.2175
 2013SOL    HW217676   4.578   4.120  16.332 -0.2326  0.1368 -0.1062
 2014SOL     OW17677   1.910   3.525  17.441 -0.2656 -0.1924  0.0430
 2014SOL    HW117678   1.931   3.617  17.425  1.3696 -0.4709  0.5904
 2014SOL    HW217679   1.857   3.515  17.362  0.1506 -0.6434 -0.1826
 2015SOL     OW17680   2.650   1.575   8.623 -0.5222  0.0627 -0.8528
 2015SOL    HW117681   2.658   1.529   8.707  0.8555  1.3905 -0.2447
 2015SOL    HW217682   2.641   1.497   8.569  1.6304  1.0465 -2.6062
 2016SOL     OW17683   4.358   1.743  12.752 -0.2939  0.2658 -0.1772
 2016SOL    HW117684   4.406   1.690  12.815  0.3969 -0.3096 -1.1674
 2016SOL    HW217685   4.426   1.797  12.710 -1.4856  1.5014 -0.5097
 2017SOL     OW17686   4.722   1.154   8.794 -0.5934 -0.4228  0.4404
 2017SOL    HW117687   0.049   1.225   8.794 -1.2430  0.1820  2.1329
 2017SOL    HW217688   0.026   1.108   8.867  1.4774 -0.8454 -1.0195
 2018SOL     OW17689   1.316   2.552   4.265 -0.4380  0.3052 -0.1495
 2018SOL    HW117690   1.283   2.639   4.288 -0.7713 -0.1162  0.9629
 2018SOL    HW217691   1.345   2.560   4.174 -0.1247 -0.5098 -0.1150
 2019SOL     OW17692   2.714   1.446   1.667  0.2483 -0.5528 -0.3679
 2019SOL    HW117693   2.731   1.532   1.706  2.1891 -0.6341 -1.0665
 2019SOL    HW217694   2.795   1.401   1.690  0.5449 -0.5340 -1.3702
 2020SOL     OW17695   3.928   1.721   0.564 -0.3532 -0.0061 -0.2416
 2020SOL    HW117696   3.910   1.785   0.495  0.1436  0.4873  0.0783
 2020SOL    HW217697   3.896   1.645   0.516  0.6716 -0.2437 -0.5570
 2021SOL     OW17698   0.008   4.324   9.634  0.4287  0.5668  0.4217
 2021SOL    HW117699   4.708   4.404   9.597 -0.4843  0.8316  1.9631
 2021SOL    HW217700   4.692   4.314   9.712 -0.2857  1.8855  0.1084
 2022SOL     OW17701   4.177   0.664   9.332  0.2165  0.1992 -0.0450
 2022SOL    HW117702   4.167   0.571   9.353  2.7367 -0.1224 -0.2942
 2022SOL    HW217703   4.121   0.674   9.255  1.2341 -0.6934 -0.9131
 2023SOL     OW17704   2.335   3.997   4.467  0.1828 -0.0246  0.4107
 2023SOL    HW117705   2.419   4.028   4.435 -1.1641  2.0191 -1.1091
 2023SOL    HW217706   2.287   4.080   4.465 -0.0990 -0.1266  2.1232
 2024SOL     OW17707   1.707   1.970   9.221  0.2584 -0.0733  0.2336
 2024SOL    HW117708   1.748   2.057   9.224 -0.3452  0.2552 -0.7804
 2024SOL    HW217709   1.619   2.003   9.240 -0.1618 -1.7537  1.1846
 2025SOL     OW17710   1.613   2.541   4.424  1.0018 -0.6890 -0.2127
 2025SOL    HW117711   1.517   2.548   4.423  0.9215 -1.9015 -2.2958
 2025SOL    HW217712   1.648   2.607   4.364  0.6272  1.2781  1.7457
 2026SOL     OW17713   0.715   0.476  16.128  0.1600  0.1977  0.0442
 2026SOL    HW117714   0.692   0.563  16.159  1.0676  0.1637  0.8098
 2026SOL    HW217715   0.809   0.490  16.116 -0.1586  0.5503 -2.0889
 2027SOL     OW17716   3.494   1.646   2.770 -0.2592  0.0855  0.2576
 2027SOL    HW117717   3.555   1.573   2.780  0.0117  0.4161  1.0285
 2027SOL    HW217718   3.522   1.677   2.684  1.9154 -1.9585  0.2222
 2028SOL     OW17719   3.123   0.458   8.602 -0.0599 -0.3842  0.0298
 2028SOL    HW117720   3.111   0.547   8.569  0.5502 -0.3861 -0.2018
 2028SOL    HW217721   3.193   0.419   8.550  0.9121  0.8795  0.3868
 2029SOL     OW17722   2.926   3.518  10.603  0.1510 -0.2434  0.1519
 2029SOL    HW117723   2.878   3.435  10.600  0.2649 -0.3571  1.2219
 2029SOL    HW217724   3.009   3.485  10.638  0.3291  1.0342  0.9216
 2030SOL     OW17725   2.909   2.347  12.642 -0.2362  0.4347 -0.3614
 2030SOL    HW117726   2.886   2.374  12.731 -1.4033 -1.6454 -0.0275
 2030SOL    HW217727   2.929   2.254  12.656  1.5576  0.6929 -1.3524
 2031SOL     OW17728   0.917   4.075   9.213 -0.1958  0.6880 -0.2076
 2031SOL    HW117729   0.975   4.049   9.284 -2.6364 -0.9763  1.1904
 2031SOL    HW217730   0.981   4.118   9.155  0.2514  0.7085  0.3060
 2032SOL     OW17731   0.949   1.214   5.537  0.1041  0.0313 -0.1889
 2032SOL    HW117732   0.955   1.210   5.632  3.0996 -1.2555 -0.4199
 2032SOL    HW217733   1.013   1.283   5.520 -1.3270  1.0968 -1.1848
 2033SOL     OW17734   1.931   1.001   4.270  0.0433 -0.1142 -0.7086
 2033SOL    HW117735   1.967   0.933   4.327  0.6708  2.1427  1.5803
 2033SOL    HW217736   1.892   1.062   4.332  1.6331 -1.6554  1.8282
 2034SOL     OW17737   0.700   4.175  10.221  0.1330 -0.1951 -0.4781
 2034SOL    HW117738   0.729   4.259  10.186  0.3515  0.2503  0.7858
 2034SOL    HW217739   0.785   4.133  10.236  0.6434  0.4726 -1.5165
 2035SOL     OW17740   2.215   3.567   8.573 -0.3086  0.3954 -0.7111
 2035SOL    HW117741   2.221   3.523   8.488 -3.1735 -0.2516 -0.6032
 2035SOL    HW217742   2.121   3.548   8.581 -0.6357  1.8013 -1.2628
 2036SOL     OW17743   2.844   2.332   2.129  0.2991  0.0714 -0.2167
 2036SOL    HW117744   2.882   2.245   2.120  4.0046  1.7287 -0.6636
 2036SOL    HW217745   2.822   2.360   2.040  0.0819  0.5541 -0.0122
 2037SOL     OW17746   3.269   3.678   3.247 -0.0492  0.2525  0.1252
 2037SOL    HW117747   3.364   3.694   3.246 -0.0212  0.0451 -1.0674
 2037SOL    HW217748   3.249   3.606   3.188 -1.4177  1.5046 -0.9344
 2038SOL     OW17749   0.659   3.664   6.601 -0.2881 -0.3139  0.3978
 2038SOL    HW117750   0.627   3.741   6.555  1.0936 -1.0365 -1.7482
 2038SOL    HW217751   0.710   3.704   6.671  0.1989  1.0360 -0.7409
 2039SOL     OW17752   2.158   0.432   4.132 -0.5809 -0.1069  0.2480
 2039SOL    HW117753   2.089   0.498   4.129  1.3081  1.9584  2.1914
 2039SOL    HW217754   2.136   0.395   4.046 -2.6433  1.2980  0.1842
 2040SOL     OW17755   2.341   3.870   9.293 -0.5424 -0.0547  0.0088
 2040SOL    HW117756   2.351   3.798   9.354 -2.3726 -1.9753 -1.9222
 2040SOL    HW217757   2.380   3.833   9.214 -0.3125 -1.0736  0.6045
 2041SOL     OW17758   4.401   3.214  16.177 -0.4672  0.5230  0.9684
 2041SOL    HW117759   4.463   3.160  16.226 -0.5609 -0.5100 -0.0555
 2041SOL    HW217760   4.321   3.218  16.229 -1.8413  2.3868 -1.2726
 2042SOL     OW17761   1.668   2.413  14.120 -0.1723  0.0235  0.1576
 2042SOL    HW117762   1.574   2.412  14.104  0.1168 -2.5413 -1.3526
 2042SOL    HW217763   1.702   2.429  14.032  2.4422 -0.3456  1.0793
 2043SOL     OW17764   0.273   2.493  12.256  0.2644  0.0140  0.1212
 2043SOL    HW117765   0.331   2.490  12.180  1.9019  1.1470  1.3432
 2043SOL    HW217766   0.257   2.400  12.271 -0.5975  0.2986  0.9773
 2044SOL     OW17767   1.384   0.381   7.065 -0.2666 -0.0251 -0.5181
 2044SOL    HW117768   1.345   0.370   6.978 -0.7344  0.9554 -0.4377
 2044SOL    HW217769   1.474   0.370   7.037 -0.2201 -0.0501 -0.3588
 2045SOL     OW17770   3.847   1.533   3.155 -0.0226 -0.1878  0.0945
 2045SOL    HW117771   3.919   1.531   3.091 -0.4869 -1.8959 -0.3601
 2045SOL    HW217772   3.850   1.626   3.178  2.8444 -0.7936  2.2257
 2046SOL     OW17773   2.413   3.415   4.331  0.0578 -0.0431  0.0524
 2046SOL    HW117774   2.455   3.478   4.272  1.0528  1.1188  2.0115
 2046SOL    HW217775   2.363   3.475   4.386  1.7770  2.1374 -0.7483
 2047SOL     OW17776   4.392   3.081   0.915 -0.1447 -0.0286 -0.1897
 2047SOL    HW117777   4.478   3.064   0.953  0.2161  2.0545 -0.0582
 2047SOL    HW217778   4.341   3.067   0.994  1.2041  3.3857  1.2719
 2048SOL     OW17779   1.195   0.528   4.766  0.2518  0.0877  0.3101
 2048SOL    HW117780   1.268   0.475   4.800  0.1349 -0.5204 -0.3754
 2048SOL    HW217781   1.124   0.464   4.780  0.4702 -0.7244 -2.1277
 2049SOL     OW17782   2.806   0.080  16.743  0.1568  0.2273 -0.1722
 2049SOL    HW117783   2.757   0.162  16.732  0.2627  0.3486  0.2526
 2049SOL    HW217784   2.732   0.022  16.759 -0.8696  1.5447 -0.1659
 2050SOL     OW17785   0.178   0.548  11.503 -0.4652  0.1770  0.0228
 2050SOL    HW117786   0.137   0.631  11.529 -1.9833 -0.2796 -0.9105
 2050SOL    HW217787   0.201   0.504  11.585 -0.0418 -0.8358 -0.6480
 2051SOL     OW17788   4.439   2.171   0.392 -0.6418 -0.3173  0.0418
 2051SOL    HW117789   4.398   2.216   0.466  0.5257  0.2563  0.3374
 2051SOL    HW217790   4.362   2.132   0.351 -0.7509 -1.1626  1.0299
 2052SOL     OW17791   1.274   3.992   2.486 -0.1277 -0.4569 -0.2665
 2052SOL    HW117792   1.357   3.965   2.525 -0.7540 -1.9355  0.0720
 2052SOL    HW217793   1.231   4.028   2.563  0.5877  0.5797 -0.3653
 2053SOL     OW17794   1.802   3.966   9.681 -0.5257  0.4517 -0.1243
 2053SOL    HW117795   1.814   4.038   9.618 -2.8159 -0.6783 -1.8243
 2053SOL    HW217796   1.886   3.973   9.727 -0.5488 -0.4448  0.0541
 2054SOL     OW17797   2.492   0.265   1.725 -0.1968  0.1218  0.0084
 2054SOL    HW117798   2.499   0.325   1.798  1.7245 -0.7482  0.5267
 2054SOL    HW217799   2.574   0.276   1.676 -0.6042  0.1675 -0.6686
 2055SOL     OW17800   2.606   0.624   2.043 -0.5148  0.2248  0.5482
 2055SOL    HW117801   2.638   0.707   2.007 -1.0467 -0.0515 -0.5732
 2055SOL    HW217802   2.550   0.654   2.114 -0.3484 -0.6735  1.0535
 2056SOL     OW17803   4.046   1.044  15.806  0.0581 -0.4261 -0.2489
 2056SOL    HW117804   4.117   0.986  15.779 -0.1298 -1.0570  0.6424
 2056SOL    HW217805   4.037   1.106  15.733  0.9822 -1.1977 -1.0095
 2057SOL     OW17806   0.772   3.867   5.766  0.1795  0.9691  0.3942
 2057SOL    HW117807   0.785   3.886   5.673  2.1415  1.0529  0.6896
 2057SOL    HW217808   0.677   3.871   5.780  0.0073  1.5738 -0.9831
 2058SOL     OW17809   3.611   2.347   0.544  0.2782 -0.3243 -0.2836
 2058SOL    HW117810   3.564   2.371   0.624  1.1704  0.3566  0.0377
 2058SOL    HW217811   3.535   2.333   0.488  0.6590 -0.0058 -0.8768
 2059SOL     OW17812   3.677   2.822   9.730 -0.5203  0.2077 -0.0999
 2059SOL    HW117813   3.607   2.757   9.718 -1.0200  0.2817  2.5468
 2059SOL    HW217814   3.724   2.788   9.806 -2.1028 -2.3852 -0.2672
 2060SOL     OW17815   1.776   3.731   4.764 -0.2422  0.1587 -0.4298
 2060SOL    HW117816   1.802   3.641   4.744 -1.7558 -0.3346 -0.1272
 2060SOL    HW217817   1.692   3.697   4.793  0.1074  0.2464  0.6870
 2061SOL     OW17818   1.130   2.832   1.467  0.0384 -0.5445 -0.1129
 2061SOL    HW117819   1.144   2.739   1.446  0.7637 -1.2094  3.2800
 2061SOL    HW217820   1.047   2.822   1.513 -0.2789 -0.8477 -0.7500
 2062SOL     OW17821   1.021   3.128   8.858 -0.1574 -0.4746  0.0947
 2062SOL    HW117822   1.003   3.043   8.817  2.5486 -1.0077  0.0358
 2062SOL    HW217823   1.068   3.177   8.791  2.7217  0.5704  2.8970
 2063SOL     OW17824   2.036   0.023   3.117  0.1293  0.0622  0.4872
 2063SOL    HW117825   2.077   0.067   3.042 -0.9481 -0.6286 -0.5142
 2063SOL    HW217826   2.073   0.066   3.194  0.0789  0.7298  0.1320
 2064SOL     OW17827   4.071   3.800  15.529 -0.4172  0.1944 -0.3031
 2064SOL    HW117828   4.104   3.822  15.442 -1.0259 -0.1535 -0.6279
 2064SOL    HW217829   4.146   3.764  15.576 -0.9056 -0.3804  0.0507
 2065SOL     OW17830   1.766   3.445   6.839  0.5612 -0.5157  0.3596
 2065SOL    HW117831   1.856   3.473   6.824 -0.6947  2.2872 -1.9832
 2065SOL    HW217832   1.743   3.492   6.919  2.3020  1.3039 -0.2196
 2066SOL     OW17833   3.513   1.686  12.330  0.1734  0.3682  0.0124
 2066SOL    HW117834   3.431   1.700  12.283 -0.4616 -1.5076  0.5985
 2066SOL    HW217835   3.566   1.653  12.258  0.3837  0.7625 -0.0141
 2067SOL     OW17836   0.948   0.361  12.014  0.3551  0.3427  0.0563
 2067SOL    HW117837   0.931   0.284  12.068 -1.7949 -0.0547 -1.1832
 2067SOL    HW217838   0.864   0.357  11.968  0.1139  1.8099  0.3795
 2068SOL     OW17839   1.825   4.629   8.364 -0.0862  0.5733 -0.0398
 2068SOL    HW117840   1.803   4.701   8.305  0.1500  0.8028  0.1524
 2068SOL    HW217841   1.755   4.566   8.346 -0.2817  0.1099  2.4210
 2069SOL     OW17842   1.036   1.422   4.853  0.1533  0.4797  0.0644
 2069SOL    HW117843   1.116   1.452   4.897 -0.3587 -0.8993  1.9440
 2069SOL    HW217844   0.976   1.467   4.913  1.1326  1.6772  0.1365
 2070SOL     OW17845   4.459   2.231   7.016 -0.1180 -0.4523 -0.6504
 2070SOL    HW117846   4.538   2.283   7.005  0.2328 -0.8785 -0.1250
 2070SOL    HW217847   4.435   2.224   6.924  0.6247  0.8750 -0.9491
 2071SOL     OW17848   3.599   1.781   6.725  0.0248  0.3979  0.2838
 2071SOL    HW117849   3.682   1.827   6.728  0.8756 -1.0832 -0.7107
 2071SOL    HW217850   3.619   1.688   6.733 -0.1604  0.3531  0.2371
 2072SOL     OW17851   3.668   4.347   8.644  0.1617 -0.3658 -0.0130
 2072SOL    HW117852   3.646   4.412   8.711 -1.8999 -0.6395 -0.4242
 2072SOL    HW217853   3.633   4.394   8.568  2.2915 -2.3752 -2.2493
 2073SOL     OW17854   2.291   1.199   5.083  0.3391 -0.1794  0.4945
 2073SOL    HW117855   2.265   1.272   5.027 -1.5330  0.1552  1.7864
 2073SOL    HW217856   2.232   1.219   5.155 -1.1010 -2.2930 -0.1196
 2074SOL     OW17857   1.441   0.568   7.996  0.4943 -0.0578 -0.1700
 2074SOL    HW117858   1.374   0.634   8.017  0.8365 -0.3663  1.8398
 2074SOL    HW217859   1.498   0.623   7.943  1.5771 -0.7428  0.2940
 2075SOL     OW17860   2.944   2.155  10.781 -0.6214 -0.0436  0.1586
 2075SOL    HW117861   2.885   2.115  10.717 -0.0912  1.7994 -1.5004
 2075SOL    HW217862   3.026   2.112  10.759  0.6219  2.3252  0.0927
 2076SOL     OW17863   3.207   1.477  10.165 -0.9758 -0.5223 -0.0932
 2076SOL    HW117864   3.208   1.565  10.202 -1.1624 -0.3957 -0.3934
 2076SOL    HW217865   3.237   1.497  10.076  1.2349 -1.8952  0.3525
 2077SOL     OW17866   2.377   3.913   3.352 -0.6949 -0.1174  0.2693
 2077SOL    HW117867   2.415   3.827   3.369  0.0020  0.1967  0.2889
 2077SOL    HW217868   2.303   3.886   3.297 -1.6501  3.9134 -0.4109
 2078SOL     OW17869   4.248   0.326   4.747 -0.1539  0.5137  0.5359
 2078SOL    HW117870   4.157   0.307   4.723  0.3155  0.1493 -0.9284
 2078SOL    HW217871   4.241   0.386   4.822 -0.2797  2.6367 -1.1783
 2079SOL     OW17872   4.065   0.419  10.868  0.0549  0.6154  0.3197
 2079SOL    HW117873   4.081   0.469  10.949  1.1478  2.0720 -0.8039
 2079SOL    HW217874   3.969   0.422  10.867  0.0417 -0.1502 -1.0284
 2080SOL     OW17875   2.015   1.036   9.254 -0.0971  0.2953  0.2355
 2080SOL    HW117876   1.924   1.007   9.245  0.4639 -1.2382 -0.4377
 2080SOL    HW217877   2.036   0.987   9.333 -0.6488  1.0003  0.8245
 2081SOL     OW17878   3.826   0.543  16.266 -0.6547 -0.1830 -0.0222
 2081SOL    HW117879   3.730   0.548  16.267 -0.7718 -2.7969 -0.1756
 2081SOL    HW217880   3.848   0.459  16.226  0.0702 -0.2037  0.4227
 2082SOL     OW17881   0.982   4.083  13.355 -0.4803  0.0890 -0.3553
 2082SOL    HW117882   1.058   4.070  13.299 -0.8074  1.1366 -1.0515
 2082SOL    HW217883   0.977   4.176  13.376 -0.0270 -0.4353  2.0946
 2083SOL     OW17884   3.821   1.236   9.608 -0.1994 -0.4607 -0.4628
 2083SOL    HW117885   3.843   1.198   9.523  2.9901  0.3584 -0.0202
 2083SOL    HW217886   3.874   1.185   9.669  2.3082  0.7013 -1.6300
 2084SOL     OW17887   1.708   0.416   4.912  0.3999 -0.2964 -0.0253
 2084SOL    HW117888   1.780   0.378   4.961 -0.3219 -1.1428  0.3763
 2084SOL    HW217889   1.736   0.380   4.828  1.1376 -0.0792  0.1250
 2085SOL     OW17890   4.168   3.823   4.481  0.5863 -0.2959  0.0337
 2085SOL    HW117891   4.116   3.872   4.418  0.0234  0.8077  1.3423
 2085SOL    HW217892   4.109   3.749   4.493  1.1504 -0.7675 -0.1446
 2086SOL     OW17893   0.037   3.757   2.755  0.4689  0.0880  0.8040
 2086SOL    HW117894   0.101   3.756   2.684  0.1428  0.6829  0.5030
 2086SOL    HW217895   0.059   3.846   2.782 -1.3562  0.6829  0.3434
 2087SOL     OW17896   0.301   0.625   8.253 -0.0024 -0.2155 -0.4776
 2087SOL    HW117897   0.394   0.604   8.258  0.0878  0.6667  1.5209
 2087SOL    HW217898   0.302   0.650   8.161 -0.0285 -2.3104 -1.0424
 2088SOL     OW17899   3.239   0.996   0.209  0.3809  0.5954  0.0163
 2088SOL    HW117900   3.160   1.031   0.168 -0.1548 -2.7594 -1.7856
 2088SOL    HW217901   3.283   0.970   0.128  1.2131 -0.4912  0.8191
 2089SOL     OW17902   3.472   4.680   9.307  0.0841 -0.3495  0.3189
 2089SOL    HW117903   3.463   4.641   9.394  0.8179  1.4496  1.1894
 2089SOL    HW217904   3.541   4.618   9.284  2.3417  1.2019  2.8545
 2090SOL     OW17905   3.645   0.424  17.700 -0.0889  0.1374 -0.2884
 2090SOL    HW117906   3.722   0.433   0.006  0.2541  0.7712 -0.8406
 2090SOL    HW217907   3.657   0.340  17.657 -3.1720  0.0912 -1.0355
 2091SOL     OW17908   1.014   2.923   8.412 -0.0279  0.1166  0.0742
 2091SOL    HW117909   1.051   2.904   8.498  1.2578  0.6147 -0.3787
 2091SOL    HW217910   1.090   2.915   8.354 -2.1952 -2.7413 -2.3807
 2092SOL     OW17911   3.667   1.277  17.680 -0.0141  0.0033 -0.1417
 2092SOL    HW117912   3.573   1.296  17.678 -0.2477 -1.1874 -0.0492
 2092SOL    HW217913   3.712   1.360  17.661  0.0600  0.1955  0.8856
 2093SOL     OW17914   3.283   0.191   6.762 -0.0593 -0.1483  0.1041
 2093SOL    HW117915   3.259   0.126   6.695 -1.7477 -0.1287  0.7029
 2093SOL    HW217916   3.307   0.128   6.829 -0.5897 -0.8518 -0.3707
 2094SOL     OW17917   0.150   3.773  10.386 -0.3487 -0.0588 -0.1599
 2094SOL    HW117918   0.209   3.840  10.419  0.5738 -1.5138  1.1014
 2094SOL    HW217919   0.098   3.830  10.328  0.3151  1.7520  1.0421
 2095SOL     OW17920   4.737   3.203   4.907  0.3463  0.6984  0.0533
 2095SOL    HW117921   4.683   3.211   4.985 -0.8792  0.6451 -0.7870
 2095SOL    HW217922   4.675   3.232   4.840  1.5827  2.2501 -0.4186
 2096SOL     OW17923   4.695   1.291  12.924 -0.2396  0.7556  0.1871
 2096SOL    HW117924   0.047   1.270  12.901  0.3591  2.6699  0.8158
 2096SOL    HW217925   4.637   1.252  12.859  1.0052  0.9485 -1.0219
 2097SOL     OW17926   4.613   3.153  17.717 -0.0018 -0.1562 -0.7557
 2097SOL    HW117927   4.657   3.098   0.030  0.7146 -2.0907 -2.8846
 2097SOL    HW217928   4.526   3.157   0.004 -0.3850 -1.4643 -1.4729
 2098SOL     OW17929   2.653   1.447   8.871  0.5531  0.3904  0.6841
 2098SOL    HW117930   2.561   1.429   8.892  0.6350 -0.4848  0.2610
 2098SOL    HW217931   2.688   1.359   8.887 -0.4356 -0.3612 -1.3128
 2099SOL     OW17932   1.981   4.053  12.232  0.5967  0.3267  0.2416
 2099SOL    HW117933   2.057   4.105  12.256  0.7719  0.8127 -1.3943
 2099SOL    HW217934   2.008   4.022  12.146  0.0874  0.0930  0.1608
 2100SOL     OW17935   0.899   1.731   5.622  0.1892  0.5570  0.1658
 2100SOL    HW117936   0.854   1.779   5.692 -0.9984  1.9377 -1.5541
 2100SOL    HW217937   0.821   1.680   5.600  0.8250 -0.7109  0.8344
 2101SOL     OW17938   1.117   0.654  11.517 -0.1458 -0.1694 -0.1098
 2101SOL    HW117939   1.122   0.571  11.564 -0.9747  0.0801  0.4008
 2101SOL    HW217940   1.136   0.627  11.427  2.7085 -3.6663  1.5469
 2102SOL     OW17941   4.536   4.233   8.499  0.0258  0.6520 -0.4829
 2102SOL    HW117942   4.610   4.291   8.477  0.7494  0.5645  1.7196
 2102SOL    HW217943   4.537   4.229   8.595  2.5089 -0.0605 -0.5316
 2103SOL     OW17944   2.616   4.217   4.096  0.0867  0.3401  0.6001
 2103SOL    HW117945   2.535   4.244   4.051  1.5788 -0.6327 -2.6991
 2103SOL    HW217946   2.588   4.131   4.128 -2.3905  1.3330  1.0889
 2104SOL     OW17947   2.345   3.785   3.719  0.4559 -0.1112  0.1091
 2104SOL    HW117948   2.328   3.733   3.641 -1.6520  0.5203  0.1698
 2104SOL    HW217949   2.303   3.721   3.776 -0.9682 -1.3636 -2.3714
 2105SOL     OW17950   2.669   0.724   7.220  0.6331  0.1593  0.7200
 2105SOL    HW117951   2.700   0.769   7.141 -1.4613 -0.2976 -0.3812
 2105SOL    HW217952   2.606   0.792   7.243  0.7989  1.0655 -1.4938
 2106SOL     OW17953   4.332   0.337   9.697 -0.3929  0.0075 -0.4985
 2106SOL    HW117954   4.387   0.349   9.775 -2.2958  0.3690  0.7967
 2106SOL    HW217955   4.288   0.254   9.717  1.0653 -0.8670 -0.8887
 2107SOL     OW17956   2.126   4.686   7.713  0.7654  0.1330 -0.4418
 2107SOL    HW117957   2.147   4.657   7.802  0.1319 -0.2305 -0.4108
 2107SOL    HW217958   2.162   0.036   7.715  2.0598 -0.4168  0.8392
 2108SOL     OW17959   3.980   3.693   3.456 -0.5255 -0.2786  0.7145
 2108SOL    HW117960   4.007   3.705   3.365 -2.9799  1.0323  0.1545
 2108SOL    HW217961   3.975   3.599   3.474 -0.5947 -0.8180 -2.0506
 2109SOL     OW17962   4.009   2.413   0.593 -0.2636 -0.4348 -0.0646
 2109SOL    HW117963   3.945   2.434   0.525  1.4501  0.6123 -1.3360
 2109SOL    HW217964   3.947   2.418   0.666  0.9652  0.0135  0.9282
 2110SOL     OW17965   2.215   4.635   6.681  0.4865  1.3561  0.0847
 2110SOL    HW117966   2.149   4.682   6.731 -3.1630  1.4448 -4.7754
 2110SOL    HW217967   2.243   4.704   6.621 -1.3367  0.2809 -2.0295
 2111SOL     OW17968   1.203   4.058   6.298  0.2110  0.5496  0.1974
 2111SOL    HW117969   1.140   4.086   6.231 -0.1819  2.1694  1.2367
 2111SOL    HW217970   1.213   3.971   6.258  1.6180  0.4827  0.7184
 2112SOL     OW17971   4.711   1.038  10.283 -0.1619 -0.7499  0.6374
 2112SOL    HW117972   4.619   1.014  10.274 -0.0050 -0.9649 -0.4338
 2112SOL    HW217973   4.701   1.090  10.362  0.0185  0.9856 -0.4724
 2113SOL     OW17974   3.933   1.767  15.218 -0.0307 -0.6264  0.4854
 2113SOL    HW117975   3.861   1.705  15.231 -2.1944  2.1142  1.2875
 2113SOL    HW217976   3.906   1.814  15.297 -0.9845  1.1176 -0.9003
 2114SOL     OW17977   3.102   4.173   9.187  0.1144  0.2054 -0.6604
 2114SOL    HW117978   3.043   4.099   9.176  1.9482 -1.1711 -1.2501
 2114SOL    HW217979   3.034   4.241   9.188  1.0183  1.0949 -0.0997
 2115SOL     OW17980   3.177   3.172   7.778 -0.1495 -0.3590 -0.3937
 2115SOL    HW117981   3.267   3.141   7.784 -0.1736 -0.6653 -1.7607
 2115SOL    HW217982   3.197   3.254   7.732 -1.4625  0.1003 -0.1691
 2116SOL     OW17983   0.065   1.510   1.985  0.2244 -0.2715 -0.3437
 2116SOL    HW117984   0.047   1.585   1.928  0.7703 -1.2658 -1.8170
 2116SOL    HW217985   0.159   1.525   1.992  0.0569  1.2688 -1.4623
 2117SOL     OW17986   4.149   1.058   7.496  0.2926  0.0499  0.2223
 2117SOL    HW117987   4.172   0.971   7.463  0.8174 -0.4984  2.0212
 2117SOL    HW217988   4.060   1.070   7.462  0.3645  1.5050  0.5573
 2118SOL     OW17989   1.592   2.049   2.790  0.3373 -0.1456 -0.4356
 2118SOL    HW117990   1.610   2.088   2.876 -1.7703 -0.8847  0.3451
 2118SOL    HW217991   1.528   1.982   2.814  0.0668 -0.0069 -0.7716
 2119SOL     OW17992   3.845   3.500  13.552 -0.2315  0.1731 -0.8052
 2119SOL    HW117993   3.811   3.420  13.593  1.7323  0.4243  1.2988
 2119SOL    HW217994   3.766   3.547  13.525  0.2279  1.2035 -0.3508
 2120SOL     OW17995   1.873   1.926  10.063 -0.1005  0.0112 -0.1402
 2120SOL    HW117996   1.915   1.978   9.994  1.3483 -0.0876  0.6709
 2120SOL    HW217997   1.793   1.895  10.021  1.2253 -1.0764 -1.8460
 2121SOL     OW17998   3.148   3.433   5.881  0.5372 -0.5458 -0.0258
 2121SOL    HW117999   3.087   3.366   5.911 -0.5628  0.5412  0.1669
 2121SOL    HW218000   3.221   3.411   5.938  1.3050  0.3196 -0.6622
 2122SOL     OW18001   4.586   4.258   9.843 -0.6092 -0.4023 -0.1173
 2122SOL    HW118002   4.643   4.234   9.916  2.0378  2.6798 -1.1917
 2122SOL    HW218003   4.506   4.287   9.886 -1.5420  0.8850 -2.7507
 2123SOL     OW18004   4.077   1.371   1.551 -0.4005 -0.7001  0.2044
 2123SOL    HW118005   4.156   1.423   1.545 -0.7217 -0.3416 -0.9541
 2123SOL    HW218006   4.110   1.286   1.579 -0.0335  0.4023  3.1303
 2124SOL     OW18007   0.690   0.705  16.619 -0.7832  0.5332  0.1749
 2124SOL    HW118008   0.739   0.633  16.659  0.1760  0.9100 -0.3278
 2124SOL    HW218009   0.602   0.677  16.645 -1.3838 -0.1291 -2.5534
 2125SOL     OW18010   2.444   1.380   5.548  0.1480  0.2658 -0.0401
 2125SOL    HW118011   2.394   1.317   5.599 -1.2917 -0.7220 -2.6881
 2125SOL    HW218012   2.456   1.321   5.473 -0.7410  0.1022 -0.0450
 2126SOL     OW18013   0.085   1.127   4.388  0.2942 -0.7476 -0.3253
 2126SOL    HW118014   0.103   1.045   4.433  0.7583  0.1501  1.1565
 2126SOL    HW218015   0.059   1.089   4.305 -0.7217 -0.6630 -0.0491
 2127SOL     OW18016   0.810   2.465   5.776  0.2079 -0.3963 -0.6838
 2127SOL    HW118017   0.729   2.508   5.751  0.0081 -1.2199 -1.4557
 2127SOL    HW218018   0.851   2.544   5.811 -0.4654 -1.3249  2.2092
 2128SOL     OW18019   1.482   3.053   4.153 -0.3555  0.4971  0.2259
 2128SOL    HW118020   1.471   3.006   4.236  0.5871 -0.0578  0.0441
 2128SOL    HW218021   1.409   3.023   4.098  0.4888  0.9566 -1.1302
 2129SOL     OW18022   3.150   3.624   8.581 -0.2521 -0.7370  0.2675
 2129SOL    HW118023   3.094   3.582   8.516  0.7809 -2.0522  0.2272
 2129SOL    HW218024   3.219   3.557   8.581  1.4750  1.0462  0.1874
 2130SOL     OW18025   3.956   0.142   2.091 -0.2969  0.2066  0.1859
 2130SOL    HW118026   4.041   0.181   2.109 -0.7617  0.7266  1.2088
 2130SOL    HW218027   3.934   0.101   2.174 -0.2018  1.7140  0.9487
 2131SOL     OW18028   2.957   3.389   1.865 -0.5818 -0.1316 -0.0076
 2131SOL    HW118029   2.992   3.442   1.793  2.1058 -2.0521 -0.1358
 2131SOL    HW218030   2.879   3.347   1.829  0.5272 -0.7308 -1.7427
 2132SOL     OW18031   3.357   3.020   9.936 -0.3557  0.5516 -0.3894
 2132SOL    HW118032   3.345   2.982  10.023 -0.1111  1.5721  0.0940
 2132SOL    HW218033   3.437   3.066   9.960  0.7817 -0.6169 -1.9000
 2133SOL     OW18034   1.741   4.621   7.568  0.0871 -0.0165 -0.0232
 2133SOL    HW118035   1.718   4.531   7.594 -2.0810  0.0654 -1.7266
 2133SOL    HW218036   1.826   4.599   7.532  0.9873 -0.2475  2.2016
 2134SOL     OW18037   4.451   3.599   7.126 -0.1856  0.0785  0.0013
 2134SOL    HW118038   4.411   3.678   7.091 -2.3127 -1.2084 -0.4965
 2134SOL    HW218039   4.526   3.634   7.174 -0.3935  2.1126 -1.2010
 2135SOL     OW18040   4.094   3.527   0.877 -0.2506 -0.1012  0.5057
 2135SOL    HW118041   4.115   3.568   0.793 -3.5696  0.6983  0.0858
 2135SOL    HW218042   4.167   3.465   0.877 -0.9896 -0.9610 -0.2366
 2136SOL     OW18043   1.823   3.958   4.529  0.0188  0.4064 -0.6539
 2136SOL    HW118044   1.784   3.886   4.579 -1.2075  1.8708  0.5300
 2136SOL    HW218045   1.750   3.994   4.478 -0.2189  1.3913  0.3585
 2137SOL     OW18046   3.301   3.888   6.371 -0.2790  0.0210  0.1959
 2137SOL    HW118047   3.355   3.810   6.380  0.8155  0.4982 -2.3375
 2137SOL    HW218048   3.229   3.840   6.329  0.5401  0.2228 -1.4040
 2138SOL     OW18049   3.956   2.277   4.124  0.0380 -0.7245  0.5501
 2138SOL    HW118050   4.008   2.267   4.204 -0.2420 -1.0249  0.6982
 2138SOL    HW218051   3.869   2.276   4.164  0.0582  0.1725  0.6061
 2139SOL     OW18052   3.704   1.604  16.364 -0.7917 -0.0653 -0.6050
 2139SOL    HW118053   3.626   1.601  16.309 -0.4873  1.9980 -1.1507
 2139SOL    HW218054   3.767   1.659  16.318  0.0788  0.8750  1.6744
 2140SOL     OW18055   1.535   1.801  16.959  0.5311 -0.0871 -0.7203
 2140SOL    HW118056   1.462   1.831  17.012  0.0680 -2.4901  0.0061
 2140SOL    HW218057   1.548   1.710  16.984 -0.1666 -0.9820 -3.6477
 2141SOL     OW18058   3.769   2.246   6.519 -0.1663  0.1852 -0.4319
 2141SOL    HW118059   3.760   2.172   6.459  1.4886 -1.3874  1.2613
 2141SOL    HW218060   3.703   2.302   6.479 -1.7084 -0.2089  1.5580
 2142SOL     OW18061   4.591   4.421   4.837  0.6070  0.3155  0.3594
 2142SOL    HW118062   4.572   4.351   4.899 -1.3674  2.1483  1.8066
 2142SOL    HW218063   4.516   4.478   4.852  0.0090 -0.3888  0.0251
 2143SOL     OW18064   2.224   0.277   8.078  0.1747 -0.0147  0.4023
 2143SOL    HW118065   2.292   0.289   8.012 -1.2429 -1.0132 -1.2308
 2143SOL    HW218066   2.213   0.184   8.063 -0.7109  0.0931  0.3950
 2144SOL     OW18067   3.371   1.215  14.429  0.2483  0.1645 -0.2558
 2144SOL    HW118068   3.290   1.165  14.436 -0.1149  0.5591 -1.7674
 2144SOL    HW218069   3.445   1.156  14.446  0.1998  0.0576 -0.4263
 2145SOL     OW18070   3.376   0.393   2.264 -0.4140 -0.1376  0.2675
 2145SOL    HW118071   3.459   0.347   2.251 -1.2113 -1.9477  1.7345
 2145SOL    HW218072   3.329   0.321   2.306  0.1346  0.9332  2.7166
 2146SOL     OW18073   0.597   3.469   5.419  0.4848 -0.2917  0.3267
 2146SOL    HW118074   0.511   3.444   5.385  1.0961  1.0792 -2.2331
 2146SOL    HW218075   0.588   3.449   5.513 -2.6674  0.9919  0.3239
 2147SOL     OW18076   2.792   3.468   3.243  0.4601  0.2711 -0.4837
 2147SOL    HW118077   2.794   3.554   3.287 -1.7423 -0.4916  1.1199
 2147SOL    HW218078   2.715   3.463   3.186  0.7429  1.0635 -0.9289
 2148SOL     OW18079   1.056   0.946   3.642  0.4044  0.0448 -0.5292
 2148SOL    HW118080   0.962   0.947   3.627  0.5020  1.9343 -0.9500
 2148SOL    HW218081   1.095   0.911   3.562 -0.6407 -1.7506 -0.2673
 2149SOL     OW18082   0.043   0.561  12.545 -0.7049  0.1418  0.5865
 2149SOL    HW118083   4.689   0.548  12.569  0.1320 -1.7117  2.7699
 2149SOL    HW218084   0.095   0.535  12.621  0.6201 -0.4643 -0.5479
 2150SOL     OW18085   1.016   0.849  14.748  0.0785 -0.3303  0.1925
 2150SOL    HW118086   0.977   0.807  14.672  0.5417 -1.3379  0.5130
 2150SOL    HW218087   0.953   0.847  14.820  1.2714 -0.5118  1.2219
 2151SOL     OW18088   4.530   2.103   0.035 -0.0455 -0.5158 -0.9436
 2151SOL    HW118089   4.461   2.065   0.091 -0.8948  0.3877 -1.3925
 2151SOL    HW218090   4.593   2.034   0.055  1.2682  1.2558  1.0024
 2152SOL     OW18091   3.211   3.939   7.396 -0.0215  0.1503 -0.1113
 2152SOL    HW118092   3.176   3.866   7.344 -0.6872 -1.2557  2.3086
 2152SOL    HW218093   3.289   3.965   7.347  1.6066 -0.4696  2.1761
 2153SOL     OW18094   0.567   2.442  14.984  0.5839 -0.6976 -0.1556
 2153SOL    HW118095   0.634   2.480  14.926 -1.0286  2.0686 -0.2134
 2153SOL    HW218096   0.624   2.385  15.036  0.0178 -0.6702  0.4895
 2154SOL     OW18097   0.287   1.495   5.582 -0.3514  0.0754 -0.3972
 2154SOL    HW118098   0.208   1.544   5.609  0.1205  1.0860 -0.8489
 2154SOL    HW218099   0.356   1.559   5.599  0.9004 -1.2443 -0.6375
 2155SOL     OW18100   4.566   4.231   7.211  0.3953  0.8199  0.5408
 2155SOL    HW118101   4.509   4.225   7.288 -1.5944  0.1111 -1.0047
 2155SOL    HW218102   4.655   4.229   7.249 -0.4492  0.4623  2.5220
 2156SOL     OW18103   2.570   0.441   3.175  0.0289 -0.4010  0.2769
 2156SOL    HW118104   2.631   0.496   3.125 -0.8560  0.9504  0.6897
 2156SOL    HW218105   2.487   0.469   3.137  0.6624 -1.5317 -1.9585
 2157SOL     OW18106   0.606   0.500   4.895  0.1487 -0.1543 -0.3171
 2157SOL    HW118107   0.524   0.468   4.933  2.4286 -0.4444  4.4387
 2157SOL    HW218108   0.633   0.563   4.963  0.5262  0.0804 -0.6870
 2158SOL     OW18109   2.180   2.395   5.023  0.3686  0.1662 -0.3871
 2158SOL    HW118110   2.108   2.382   5.084  0.4949  2.1513  0.1874
 2158SOL    HW218111   2.167   2.486   4.998  1.3615  0.7053  1.0172
 2159SOL     OW18112   0.795   0.669   8.146 -0.5733  0.0063 -0.1868
 2159SOL    HW118113   0.891   0.664   8.142 -0.5517 -0.0244  0.3285
 2159SOL    HW218114   0.768   0.641   8.058 -1.7226  0.3923  0.0476
 2160SOL     OW18115   3.619   1.770   5.645 -0.2466 -0.4940 -0.2613
 2160SOL    HW118116   3.605   1.843   5.584 -1.4418  0.2167  0.8876
 2160SOL    HW218117   3.552   1.711   5.611  0.3621 -2.1238  1.3850
 2161SOL     OW18118   2.047   4.557   2.579  0.2405 -0.4211  0.8549
 2161SOL    HW118119   1.960   4.584   2.550  0.7492 -0.2558 -0.5135
 2161SOL    HW218120   2.063   4.634   2.633  0.7678 -0.8685  1.3286
 2162SOL     OW18121   2.848   2.783   6.276 -0.4416  0.2953 -0.0051
 2162SOL    HW118122   2.836   2.779   6.181 -0.7892 -0.3927  0.0695
 2162SOL    HW218123   2.935   2.822   6.282 -1.1598  1.9282 -0.0964
 2163SOL     OW18124   0.503   1.278   8.705 -0.0580  0.2204 -0.0724
 2163SOL    HW118125   0.534   1.247   8.619 -3.4131 -1.7403 -0.5421
 2163SOL    HW218126   0.560   1.220   8.755  0.3881  2.2449  1.7491
 2164SOL     OW18127   2.742   0.862   2.013  0.0334 -0.2893 -0.7256
 2164SOL    HW118128   2.669   0.923   2.026  0.9686  0.7713 -0.3961
 2164SOL    HW218129   2.791   0.905   2.084 -1.0829 -2.4076  1.2956
 2165SOL     OW18130   2.339   0.816   4.028  0.1138  0.3488  0.0937
 2165SOL    HW118131   2.247   0.830   4.009  0.1723 -1.1635 -1.3458
 2165SOL    HW218132   2.366   0.774   3.946 -2.8176  0.9609 -1.1753
 2166SOL     OW18133   4.234   2.980   9.844 -0.5352 -0.1975  0.1879
 2166SOL    HW118134   4.270   2.952   9.760  0.2152  1.9692 -0.2371
 2166SOL    HW218135   4.215   2.905   9.900 -2.1678  0.5861  0.6956
 2167SOL     OW18136   1.617   4.213   2.340  0.8329 -0.6781  0.4623
 2167SOL    HW118137   1.594   4.129   2.299 -1.3526  0.3466 -0.4123
 2167SOL    HW218138   1.528   4.246   2.353  1.4533  1.4450 -0.7295
 2168SOL     OW18139   3.890   0.846   9.106  0.3215  0.0348  0.3806
 2168SOL    HW118140   3.803   0.809   9.120  0.1823  0.4346  0.5712
 2168SOL    HW218141   3.871   0.923   9.052  0.4771 -0.0640  0.1877
 2169SOL     OW18142   3.797   2.540   0.121 -0.0315  0.0953  0.0977
 2169SOL    HW118143   3.780   2.630   0.147  0.8916  0.7966 -1.7422
 2169SOL    HW218144   3.720   2.533   0.065 -0.7529  0.5612  1.0334
 2170SOL     OW18145   1.105   0.447   6.556 -0.2017  0.1221 -0.0468
 2170SOL    HW118146   1.103   0.454   6.460 -0.1180 -0.4889 -0.0911
 2170SOL    HW218147   1.017   0.473   6.582 -0.0128  1.3272 -0.6101
 2171SOL     OW18148   0.778   4.056   2.292 -0.4933 -0.5600 -0.3151
 2171SOL    HW118149   0.808   4.147   2.292  1.2850 -1.1543  1.8523
 2171SOL    HW218150   0.849   4.014   2.341  0.4128  0.5981 -0.6316
 2172SOL     OW18151   0.794   0.083   2.601 -0.2034 -0.1104  0.1921
 2172SOL    HW118152   0.886   0.087   2.578 -0.4725  2.7883 -0.4278
 2172SOL    HW218153   0.750   0.125   2.527 -0.8313 -0.1414  0.5384
 2173SOL     OW18154   2.151   4.134   5.064  0.3622 -0.3692 -0.3723
 2173SOL    HW118155   2.171   4.220   5.102  0.8055 -0.8662  0.5297
 2173SOL    HW218156   2.238   4.098   5.048  0.6133 -0.7939  1.9693
 2174SOL     OW18157   1.444   1.433   7.739 -0.0125  0.1535  0.5942
 2174SOL    HW118158   1.481   1.520   7.730 -0.1318  0.1727  0.2774
 2174SOL    HW218159   1.507   1.386   7.793  2.4783  2.8450 -0.0285
 2175SOL     OW18160   3.188   1.378   2.128  0.1349  0.0941  0.3014
 2175SOL    HW118161   3.205   1.349   2.217 -0.2422 -0.5894  0.1419
 2175SOL    HW218162   3.133   1.456   2.141  2.6173  1.8385  0.4556
 2176SOL     OW18163   1.148   2.956   5.018 -0.2669 -0.2240 -0.5180
 2176SOL    HW118164   1.156   2.904   5.098 -1.1192  1.4618  0.6712
 2176SOL    HW218165   1.142   2.885   4.954  0.9066 -0.7196 -0.0855
 2177SOL     OW18166   1.073   4.306   8.339 -0.2572 -0.2105  0.4935
 2177SOL    HW118167   1.096   4.346   8.423  1.0095 -1.3944  0.7216
 2177SOL    HW218168   1.085   4.213   8.359 -2.8636 -0.0781  2.5902
 2178SOL     OW18169   2.999   3.794  10.132 -0.0513  0.3452 -0.0662
 2178SOL    HW118170   3.022   3.742  10.209  0.5095 -1.1109 -1.2114
 2178SOL    HW218171   3.025   3.878  10.171  2.3020 -0.1822 -0.5118
 2179SOL     OW18172   2.960   0.991   6.370 -0.1051  0.4001  0.3739
 2179SOL    HW118173   3.003   1.007   6.286  0.5051 -2.9275  0.0658
 2179SOL    HW218174   2.869   1.022   6.364  0.5623  2.7829  2.6677
 2180SOL     OW18175   3.291   2.736   8.629  0.1947 -0.1327  0.3430
 2180SOL    HW118176   3.277   2.721   8.536 -2.6082  0.1263  0.6988
 2180SOL    HW218177   3.384   2.758   8.626 -0.0027  1.0662  2.4260
 2181SOL     OW18178   3.073   1.248   4.136 -0.3091 -0.5145 -0.1794
 2181SOL    HW118179   3.116   1.332   4.153  1.3736 -1.2885 -0.6085
 2181SOL    HW218180   3.137   1.210   4.076 -0.3411 -0.7476 -0.0668
 2182SOL     OW18181   1.332   2.164   5.380  0.0383  0.4000 -0.2890
 2182SOL    HW118182   1.392   2.196   5.313  0.5548  1.4752  0.6907
 2182SOL    HW218183   1.373   2.198   5.460  4.0229 -0.0368 -2.1356
 2183SOL     OW18184   0.920   2.464   8.232  0.3901  0.1595  0.2309
 2183SOL    HW118185   0.936   2.548   8.189 -2.3460 -0.5066 -2.0357
 2183SOL    HW218186   0.926   2.491   8.324 -0.9210 -0.0294  0.3659
 2184SOL     OW18187   3.765   3.487   7.681 -0.5982 -0.2455 -0.4329
 2184SOL    HW118188   3.673   3.470   7.701 -0.0088 -1.9319  0.8153
 2184SOL    HW218189   3.803   3.527   7.759 -1.3176 -0.1421 -0.1367
 2185SOL     OW18190   3.004   0.621   7.285  0.2336 -0.5048  0.0381
 2185SOL    HW118191   3.034   0.534   7.258 -2.0168 -1.3529  0.2875
 2185SOL    HW218192   2.909   0.616   7.273  0.3594  0.3694 -1.4000
 2186SOL     OW18193   1.346   4.369  17.196  0.1983 -0.6661 -0.5441
 2186SOL    HW118194   1.380   4.458  17.183 -0.1792 -0.3529  0.5702
 2186SOL    HW218195   1.333   4.356  17.290  1.0519  0.8910 -0.2004
 2187SOL     OW18196   0.265   3.093  13.323 -0.6765  0.6438 -0.3827
 2187SOL    HW118197   0.241   3.125  13.236 -0.0852  0.4621 -0.6167
 2187SOL    HW218198   0.326   3.160  13.354 -2.2863  0.8016  2.3719
 2188SOL     OW18199   3.333   1.562   1.119 -0.2608 -0.1903  0.4688
 2188SOL    HW118200   3.354   1.470   1.103 -0.9940 -0.3107  0.2339
 2188SOL    HW218201   3.415   1.610   1.106  0.2224 -1.2705 -0.5313
 2189SOL     OW18202   2.175   0.430  10.364  0.1300 -0.2317  0.4526
 2189SOL    HW118203   2.131   0.486  10.428 -2.8346  0.1362 -1.9321
 2189SOL    HW218204   2.251   0.487  10.351  2.3484 -2.6941  2.3915
 2190SOL     OW18205   1.875   1.130   0.635  0.2913 -0.2587  0.0051
 2190SOL    HW118206   1.900   1.101   0.548 -2.3317 -1.0559 -0.4742
 2190SOL    HW218207   1.925   1.071   0.692 -0.5644 -0.9412  0.0487
 2191SOL     OW18208   3.928   2.032   1.365  0.0389  0.5868  0.1227
 2191SOL    HW118209   3.839   2.001   1.384  0.4641 -0.0367  1.1218
 2191SOL    HW218210   3.979   2.007   1.442 -1.4395 -0.2922  0.8134
 2192SOL     OW18211   2.026   2.803   5.063 -0.0859 -0.5925 -0.3458
 2192SOL    HW118212   2.047   2.760   5.146  1.5504  0.8710 -0.0185
 2192SOL    HW218213   2.107   2.798   5.012  0.6933 -1.4327  0.9644
 2193SOL     OW18214   4.604   0.562   6.817 -0.2151  0.0309  0.0608
 2193SOL    HW118215   4.610   0.581   6.911  0.9876  0.4572 -0.0992
 2193SOL    HW218216   4.601   0.467   6.825 -0.2589  0.0813  0.6395
 2194SOL     OW18217   1.920   2.422  16.183 -0.4478 -0.1656  0.3014
 2194SOL    HW118218   1.903   2.346  16.128 -0.2041 -0.6521  0.8936
 2194SOL    HW218219   1.999   2.450  16.138  0.6455  1.4587  3.2196
 2195SOL     OW18220   3.300   3.577   0.746  0.4432  0.7313  0.0247
 2195SOL    HW118221   3.366   3.524   0.789 -1.4392 -1.2127  0.5277
 2195SOL    HW218222   3.297   3.532   0.662  2.4717  3.9672 -1.7696
 2196SOL     OW18223   2.164   0.353   8.849 -0.4159 -0.2952 -0.5101
 2196SOL    HW118224   2.100   0.388   8.910  1.5887 -0.5187  1.7194
 2196SOL    HW218225   2.120   0.271   8.826 -0.4203  0.1733 -2.1963
 2197SOL     OW18226   3.985   2.732   9.850 -0.0057  0.2753  0.6037
 2197SOL    HW118227   4.061   2.685   9.886 -1.6301 -1.6798  1.4824
 2197SOL    HW218228   3.910   2.687   9.888  0.6837 -1.0484  0.3954
 2198SOL     OW18229   4.342   2.963  14.606  0.3423  0.5401  0.0516
 2198SOL    HW118230   4.293   2.905  14.664 -0.3887  0.2438 -0.8598
 2198SOL    HW218231   4.274   2.995  14.547 -0.5813  0.3933  1.0341
 2199SOL     OW18232   1.702   0.089   6.901  0.2205 -0.1143 -0.0423
 2199SOL    HW118233   1.760   0.146   6.851  0.0463 -0.6747 -0.9039
 2199SOL    HW218234   1.734   0.005   6.868  2.5893  0.1485  1.6616
 2200SOL     OW18235   2.130   2.204   8.875 -0.1668  0.0590 -0.7920
 2200SOL    HW118236   2.062   2.261   8.839 -0.6012 -0.5828 -0.9994
 2200SOL    HW218237   2.194   2.216   8.805  0.8126  1.6629  0.3797
 2201SOL     OW18238   2.268   0.256   0.807 -0.1439  0.0840  0.4347
 2201SOL    HW118239   2.236   0.333   0.853 -1.7068 -0.9658  1.0849
 2201SOL    HW218240   2.255   0.184   0.869 -1.3437 -0.5941 -0.6118
 2202SOL     OW18241   2.449   0.888  16.782 -0.0859  0.1518  0.5991
 2202SOL    HW118242   2.500   0.817  16.822  2.1661  1.5267  0.1080
 2202SOL    HW218243   2.455   0.866  16.689 -2.2253  1.1505  0.2260
 2203SOL     OW18244   4.285   2.946   4.527 -0.6266  0.6010 -0.5360
 2203SOL    HW118245   4.200   2.905   4.508  0.3816 -0.8165 -2.0279
 2203SOL    HW218246   4.308   2.970   4.437  2.1027  0.8487  0.2362
 2204SOL     OW18247   0.722   2.546  14.789 -0.8138 -0.0693  0.1231
 2204SOL    HW118248   0.659   2.532  14.718  2.1913  3.5535 -3.2654
 2204SOL    HW218249   0.797   2.493  14.763 -0.1561  0.4838  0.8889
 2205SOL     OW18250   3.383   4.734  11.330  0.3741  0.2677 -0.0263
 2205SOL    HW118251   3.372   4.665  11.264 -0.6112 -0.2406  0.6679
 2205SOL    HW218252   3.372   0.074  11.275 -0.5456  0.3583  0.2900
 2206SOL     OW18253   2.488   2.730   0.756 -0.1738 -0.3463  0.2632
 2206SOL    HW118254   2.414   2.706   0.701  1.1359 -1.3253 -1.0622
 2206SOL    HW218255   2.559   2.709   0.695  0.2437  0.0315  0.6174
 2207SOL     OW18256   2.300   3.123   6.942  0.5120  0.2789  0.5574
 2207SOL    HW118257   2.349   3.095   6.865 -1.2896 -0.2367 -0.4118
 2207SOL    HW218258   2.221   3.152   6.897  0.6350  1.8913  1.3512
 2208SOL     OW18259   0.858   3.540   9.734 -0.3659 -0.0613  0.0423
 2208SOL    HW118260   0.843   3.586   9.651 -0.6716  0.1598  0.2187
 2208SOL    HW218261   0.917   3.474   9.698 -0.1638  0.2550 -0.2044
 2209SOL     OW18262   1.356   3.725  15.765  0.9167  0.0754  0.5746
 2209SOL    HW118263   1.368   3.797  15.703 -0.2368  0.0801  0.3581
 2209SOL    HW218264   1.265   3.695  15.757  1.1447 -0.3460 -0.5016
 2210SOL     OW18265   2.706   0.193   4.282 -0.7577 -0.3090  0.2915
 2210SOL    HW118266   2.610   0.198   4.288 -0.7111  0.2027  0.6423
 2210SOL    HW218267   2.716   0.109   4.237 -1.1574  0.0100 -0.4021
 2211SOL     OW18268   3.764   3.087   3.379 -0.3111  0.2101  0.4463
 2211SOL    HW118269   3.840   3.062   3.432 -0.6396  0.2703  0.9487
 2211SOL    HW218270   3.694   3.058   3.437 -1.1705  0.4445 -0.4868
 2212SOL     OW18271   2.033   4.563   6.935 -0.1300  0.4305 -0.2636
 2212SOL    HW118272   2.045   4.527   6.847 -1.7192 -1.9134  0.4565
 2212SOL    HW218273   2.003   4.652   6.915  0.6394  0.6853 -0.2614
 2213SOL     OW18274   1.944   1.179   4.621  0.5038  0.2569 -0.3342
 2213SOL    HW118275   1.882   1.129   4.673 -0.9338 -0.6392 -2.8713
 2213SOL    HW218276   1.896   1.199   4.540 -0.9214 -1.4248  0.0989
 2214SOL     OW18277   2.248   0.536   7.390  0.2593  0.0293 -0.6351
 2214SOL    HW118278   2.342   0.548   7.402 -0.2758  1.7072  1.8920
 2214SOL    HW218279   2.245   0.441   7.404  2.4030 -0.0813 -0.9979
 2215SOL     OW18280   2.549   3.247   6.830  0.0881 -0.0257 -0.1669
 2215SOL    HW118281   2.501   3.180   6.780  3.4401 -1.6241 -1.2839
 2215SOL    HW218282   2.488   3.318   6.813  2.1661  1.7433 -0.3014
 2216SOL     OW18283   3.400   2.807   6.838  0.8124 -0.3805  0.2888
 2216SOL    HW118284   3.412   2.748   6.764  1.4922  0.0489  0.0625
 2216SOL    HW218285   3.474   2.772   6.887  0.8300 -1.8721 -0.8186
 2217SOL     OW18286   2.712   3.245   7.043 -0.0861  0.5572 -0.3238
 2217SOL    HW118287   2.674   3.263   6.957  0.2739 -0.3102 -0.6577
 2217SOL    HW218288   2.636   3.207   7.089 -0.7835  1.4454 -0.7293
 2218SOL     OW18289   4.043   2.305   2.603 -0.2897  0.2477  0.2017
 2218SOL    HW118290   4.106   2.308   2.531  0.1030  0.7902  0.5662
 2218SOL    HW218291   3.980   2.346   2.543  0.5463  0.6477 -0.4113
 2219SOL     OW18292   0.221   0.451  12.112  0.4620  0.2760  0.3809
 2219SOL    HW118293   0.312   0.483  12.110  1.3013 -1.9799  3.2506
 2219SOL    HW218294   0.170   0.521  12.153 -1.3346  0.4794 -2.2066
 2220SOL     OW18295   4.128   1.951   3.259  0.4417 -0.1869 -0.3651
 2220SOL    HW118296   4.174   1.999   3.328 -0.9340  1.1022 -0.3362
 2220SOL    HW218297   4.152   2.005   3.185 -1.7532 -1.9947 -2.3960
 2221SOL     OW18298   1.066   4.648   8.491  0.0298 -0.1922  0.6819
 2221SOL    HW118299   1.036   4.564   8.527 -1.1043  0.3840  1.1019
 2221SOL    HW218300   1.019   4.701   8.556 -2.6329  0.1873 -1.5315
 2222SOL     OW18301   0.530   1.477  14.215  0.0512  0.2014  0.2194
 2222SOL    HW118302   0.620   1.485  14.248  1.3021 -0.5728 -3.0139
 2222SOL    HW218303   0.536   1.542  14.145 -0.6045 -0.9869 -0.9609
 2223SOL     OW18304   4.047   3.565   6.217 -0.0262 -0.2166  0.2647
 2223SOL    HW118305   3.980   3.502   6.241  2.3726 -2.8108  0.0741
 2223SOL    HW218306   4.035   3.621   6.294 -2.0099  2.4477 -1.9704
 2224SOL     OW18307   0.047   3.084   3.967 -0.5832  0.2577  0.2765
 2224SOL    HW118308   0.058   3.173   3.933  1.1160  0.1435  0.5288
 2224SOL    HW218309   4.706   3.056   3.922 -0.7941 -0.6857  1.2468
 2225SOL     OW18310   1.232   0.048   5.606  0.0991  0.3130  0.5333
 2225SOL    HW118311   1.283   0.028   5.527 -0.3720 -0.2558  0.3745
 2225SOL    HW218312   1.295   0.060   5.677 -0.8511 -1.5130  1.6913
 2226SOL     OW18313   2.078   1.838   7.512 -0.4325 -0.1598 -0.1078
 2226SOL    HW118314   1.992   1.863   7.479 -1.4289  0.2655  2.8548
 2226SOL    HW218315   2.086   1.894   7.588  2.6188  0.7524 -1.0858
 2227SOL     OW18316   4.203   2.766  10.081 -0.0533  0.2042 -0.4148
 2227SOL    HW118317   4.204   2.715  10.162 -2.2562  0.6266 -0.1249
 2227SOL    HW218318   4.296   2.760  10.059 -0.8938 -0.6415 -3.7299
 2228SOL     OW18319   3.405   3.252   5.865  0.3660  0.1501 -0.0839
 2228SOL    HW118320   3.429   3.344   5.865  0.9019  0.0098 -0.2174
 2228SOL    HW218321   3.478   3.222   5.918 -0.0280 -0.2561  0.2348
 2229SOL     OW18322   3.476   1.166   6.099  0.5610  0.1207  0.2983
 2229SOL    HW118323   3.546   1.201   6.154  0.3594  0.1614  0.5281
 2229SOL    HW218324   3.430   1.249   6.084  1.8944  0.5676 -1.3015
 2230SOL     OW18325   3.411   0.109   6.183 -0.4262 -0.0257  0.5321
 2230SOL    HW118326   3.340   0.152   6.135 -0.2326 -0.1330  0.1496
 2230SOL    HW218327   3.361   0.109   6.264  0.7410 -0.1042  1.2543
 2231SOL     OW18328   0.595   2.163   3.280  0.1768  0.3451  0.2240
 2231SOL    HW118329   0.552   2.245   3.257  1.7549  0.6066 -1.8128
 2231SOL    HW218330   0.650   2.192   3.353 -0.5867  2.0402  0.1148
 2232SOL     OW18331   0.728   1.314   4.977 -0.1557 -0.1226  0.3659
 2232SOL    HW118332   0.740   1.366   4.897 -1.3004 -0.2856  0.0973
 2232SOL    HW218333   0.674   1.371   5.031 -0.0442 -2.0668  2.5345
 2233SOL     OW18334   0.023   3.801  13.857 -0.2080 -0.2456 -0.5746
 2233SOL    HW118335   0.047   3.800  13.764  0.5073 -0.3864 -0.3866
 2233SOL    HW218336   4.668   3.822  13.853  0.0277  0.6719 -1.2319
 2234SOL     OW18337   3.291   1.214   4.800  0.0136  0.2035  0.1536
 2234SOL    HW118338   3.299   1.134   4.747 -2.6892 -0.3804  0.5813
 2234SOL    HW218339   3.373   1.203   4.846 -1.1084 -2.0322  1.6189
 2235SOL     OW18340   0.817   0.267  13.011  0.3488 -0.2006 -0.3846
 2235SOL    HW118341   0.807   0.247  13.104  1.7440 -0.1791 -0.2306
 2235SOL    HW218342   0.747   0.214  12.974  0.3425 -1.1688  1.0296
 2236SOL     OW18343   3.624   2.879   4.908 -0.1104 -0.0097 -0.1659
 2236SOL    HW118344   3.703   2.907   4.862  2.1182 -2.5025  2.1188
 2236SOL    HW218345   3.659   2.823   4.978  2.4296  1.3981 -0.3274
 2237SOL     OW18346   3.314   2.496   0.329 -0.4292  0.8018  0.3854
 2237SOL    HW118347   3.349   2.574   0.372 -0.4163  1.1377 -0.2375
 2237SOL    HW218348   3.316   2.534   0.241 -1.4026 -2.5618 -1.1070
 2238SOL     OW18349   3.089   1.651   5.290  0.1862  0.1742 -0.1574
 2238SOL    HW118350   3.113   1.561   5.309 -1.9869 -0.4272 -0.2318
 2238SOL    HW218351   3.098   1.650   5.194 -0.9127 -1.2770 -0.2465
 2239SOL     OW18352   4.145   1.798   5.207 -0.1290  0.6521 -0.0193
 2239SOL    HW118353   4.132   1.705   5.193  0.0671  0.5210  0.7108
 2239SOL    HW218354   4.076   1.815   5.272 -0.7412 -1.6132 -0.0947
 2240SOL     OW18355   1.168   2.791   3.397 -0.6299  0.8987 -0.0253
 2240SOL    HW118356   1.208   2.745   3.323 -2.1187 -0.8435  0.2395
 2240SOL    HW218357   1.237   2.830   3.450  2.3077 -3.2771 -0.7572
 2241SOL     OW18358   2.759   4.534   9.331  0.3224 -0.4769  0.4296
 2241SOL    HW118359   2.821   4.521   9.260 -2.1860  0.3149 -1.8747
 2241SOL    HW218360   2.714   4.450   9.328  0.4370 -0.4176 -2.9188
 2242SOL     OW18361   2.941   0.644   5.298 -0.2029 -0.2381  0.5985
 2242SOL    HW118362   2.975   0.563   5.259  0.4210  0.1808  0.2656
 2242SOL    HW218363   2.970   0.710   5.235  2.8178 -1.5982  0.5306
 2243SOL     OW18364   3.788   3.415   2.508  0.1403  0.7215 -0.4311
 2243SOL    HW118365   3.701   3.447   2.482 -0.5174 -0.5754  0.1693
 2243SOL    HW218366   3.815   3.469   2.582  0.2302  1.3174 -0.9027
 2244SOL     OW18367   0.887   3.214   6.423  0.2847 -0.0060  0.3921
 2244SOL    HW118368   0.925   3.185   6.506  1.5511  1.0940  0.1983
 2244SOL    HW218369   0.925   3.302   6.419  0.4986 -0.0553  1.3553
 2245SOL     OW18370   4.628   0.561   0.310 -0.2286  0.0917 -0.0586
 2245SOL    HW118371   4.710   0.586   0.267  1.4399 -2.0243  1.9357
 2245SOL    HW218372   4.576   0.515   0.243 -1.4552 -0.7877  1.5116
 2246SOL     OW18373   4.653   2.722   5.741  0.1479  0.4405 -0.3301
 2246SOL    HW118374   4.694   2.682   5.665 -0.2352  1.3674 -1.0236
 2246SOL    HW218375   4.703   2.802   5.758 -0.2438  0.8771 -1.1845
 2247SOL     OW18376   3.363   4.127   9.260 -0.2076 -0.2377 -0.4860
 2247SOL    HW118377   3.353   4.168   9.346  1.6137 -1.8354  0.4767
 2247SOL    HW218378   3.279   4.140   9.216 -0.5881 -4.0472 -0.8947
 2248SOL     OW18379   4.549   1.115   5.892  0.0860  0.3696  0.1880
 2248SOL    HW118380   4.588   1.049   5.833  1.4031  1.3592 -0.0461
 2248SOL    HW218381   4.532   1.181   5.825 -2.3785 -2.7449 -2.2320
 2249SOL     OW18382   2.967   1.828   7.622  0.2207 -0.2084 -0.4719
 2249SOL    HW118383   2.984   1.918   7.651  1.7950 -0.6838  0.0750
 2249SOL    HW218384   2.884   1.814   7.666  0.4731 -0.5898 -0.1151
 2250SOL     OW18385   4.027   2.617  11.092 -0.6321  0.7694  0.1537
 2250SOL    HW118386   3.973   2.544  11.123  2.1823 -2.2083 -1.9391
 2250SOL    HW218387   4.102   2.618  11.152 -0.2638  5.5736 -0.4193
 2251SOL     OW18388   3.953   0.804   1.009 -0.0072  1.2042 -0.1583
 2251SOL    HW118389   4.019   0.809   0.940 -1.0639 -1.2058 -1.3250
 2251SOL    HW218390   3.964   0.894   1.040 -0.4881  1.4675 -0.7583
 2252SOL     OW18391   2.154   0.030  11.670  0.1544 -0.0414  0.2287
 2252SOL    HW118392   2.182   4.677  11.658  1.1425  0.2065  0.6781
 2252SOL    HW218393   2.064   0.035  11.637 -0.7260 -0.5785  2.5636
 2253SOL     OW18394   0.806   1.607   0.212  0.1221  0.0417  0.1611
 2253SOL    HW118395   0.837   1.565   0.292 -0.7761  0.1402  0.5634
 2253SOL    HW218396   0.791   1.692   0.255  0.7134  0.1585  0.1373
 2254SOL     OW18397   0.247   4.686  17.591 -0.2698 -0.0950 -0.5764
 2254SOL    HW118398   0.204   4.609  17.628 -1.1250  0.9326  0.5729
 2254SOL    HW218399   0.220   0.013  17.655  0.6789  0.5598 -0.8338
 2255SOL     OW18400   4.281   1.002   7.767  0.0130 -0.5043 -0.0144
 2255SOL    HW118401   4.207   1.043   7.723  1.6276  0.8946 -1.3926
 2255SOL    HW218402   4.340   0.989   7.694 -0.0132  1.3181 -0.3549
 2256SOL     OW18403   3.067   3.996  14.241  0.2626 -0.0826 -0.2686
 2256SOL    HW118404   3.022   4.046  14.172  2.0786 -1.7467 -2.6545
 2256SOL    HW218405   3.035   3.915  14.203  0.2292  0.0415 -0.5075
 2257SOL     OW18406   1.987   4.013   2.837  0.9287  0.0990 -1.3567
 2257SOL    HW118407   2.069   4.001   2.788  1.1983 -0.6504 -0.7206
 2257SOL    HW218408   1.935   3.936   2.816  1.3497 -0.3436 -0.7837
 2258SOL     OW18409   2.177   0.076   4.937 -0.2060 -0.3927  0.1134
 2258SOL    HW118410   2.116   0.109   4.872  0.3149  0.8191  0.2394
 2258SOL    HW218411   2.222   0.156   4.964  0.4782 -0.7318 -0.0199
 2259SOL     OW18412   2.784   0.778   2.594 -0.9638  0.4742 -0.0778
 2259SOL    HW118413   2.728   0.783   2.672  1.5896  1.7835  1.6686
 2259SOL    HW218414   2.783   0.685   2.571  2.6192  0.4059 -0.0218
 2260SOL     OW18415   3.317   0.969   3.740 -0.2919 -0.1053  0.0620
 2260SOL    HW118416   3.382   0.910   3.702  0.0133 -0.9346  1.8658
 2260SOL    HW218417   3.256   0.901   3.769  2.2460 -1.9979  0.9232
 2261SOL     OW18418   4.708   2.443   3.470  0.6085 -0.4745 -0.0987
 2261SOL    HW118419   0.036   2.377   3.449  0.7294 -0.2857 -0.3127
 2261SOL    HW218420   4.692   2.418   3.561  0.5463 -1.5032 -0.3917
 2262SOL     OW18421   3.042   4.293  15.812 -0.1395 -0.4950 -0.8977
 2262SOL    HW118422   3.038   4.222  15.877 -2.6136 -0.5815 -1.1288
 2262SOL    HW218423   3.127   4.333  15.834 -1.9259  2.3887  0.8515
 2263SOL     OW18424   3.442   1.397   4.056  0.2535 -0.9539 -0.4223
 2263SOL    HW118425   3.501   1.461   4.017 -0.4977 -2.4462 -4.0180
 2263SOL    HW218426   3.404   1.345   3.985 -1.6720  1.2601 -1.0033
 2264SOL     OW18427   1.682   2.837   0.703 -0.4640 -0.5079 -0.0786
 2264SOL    HW118428   1.615   2.771   0.686 -1.5496  0.3271  0.9686
 2264SOL    HW218429   1.685   2.840   0.799  0.5643  0.4220 -0.1257
 2265SOL     OW18430   1.385   3.966   5.518 -0.8680  0.0923 -0.2326
 2265SOL    HW118431   1.375   3.906   5.444  1.2493 -0.4545 -0.0809
 2265SOL    HW218432   1.333   3.931   5.590 -0.8897 -2.6101 -1.5701
 2266SOL     OW18433   3.338   1.230   1.529 -0.3575 -0.2812  0.0938
 2266SOL    HW118434   3.391   1.233   1.449  1.0029  0.4070  1.0269
 2266SOL    HW218435   3.382   1.161   1.578 -0.2718 -1.3346 -1.4666
 2267SOL     OW18436   4.095   4.673  11.970  0.5332  0.1446 -0.4158
 2267SOL    HW118437   4.129   4.662  12.060  0.8785  3.0634 -0.1874
 2267SOL    HW218438   4.174   4.635  11.932 -1.3698 -2.7487 -1.4445
 2268SOL     OW18439   4.007   0.378   0.865  0.1984 -0.0705  0.9383
 2268SOL    HW118440   3.974   0.331   0.789 -4.0564  2.7105  1.0554
 2268SOL    HW218441   3.944   0.449   0.875  0.8847  0.5443  0.9080
 2269SOL     OW18442   2.543   1.341   8.461 -0.3215 -0.1177 -1.0277
 2269SOL    HW118443   2.595   1.276   8.508  2.0275  1.3690 -1.5854
 2269SOL    HW218444   2.543   1.304   8.373  1.2715  1.6971 -1.7973
 2270SOL     OW18445   1.627   3.197   9.867  0.4366 -0.3277  0.2002
 2270SOL    HW118446   1.547   3.249   9.880 -1.4461 -3.0711 -0.5068
 2270SOL    HW218447   1.616   3.168   9.777  0.6917 -1.6287  0.5938
 2271SOL     OW18448   0.931   3.996   3.012 -0.3715 -0.4690  0.0784
 2271SOL    HW118449   0.890   4.047   2.942  0.6059  0.4153  0.1401
 2271SOL    HW218450   0.954   4.069   3.069  1.6436 -1.1485  0.1507
 2272SOL     OW18451   0.067   1.718  14.932  0.2733  0.4688 -0.3043
 2272SOL    HW118452   0.009   1.697  15.006 -1.2480 -2.9074 -2.4249
 2272SOL    HW218453   0.125   1.779  14.977 -0.8842 -0.1284  2.0347
 2273SOL     OW18454   0.965   0.707   6.154 -0.0678  0.5806  0.2448
 2273SOL    HW118455   0.902   0.711   6.082  1.3684 -0.3612 -1.0412
 2273SOL    HW218456   0.920   0.645   6.211  0.4516  0.3665  0.4140
 2274SOL     OW18457   1.301   4.670  16.862  0.2105 -0.3580  0.2654
 2274SOL    HW118458   1.253   4.634  16.787 -2.1908  1.2288  1.0536
 2274SOL    HW218459   1.238   4.666  16.934  0.7538  0.6631  0.7836
 2275SOL     OW18460   4.551   2.968   4.617  0.3781 -0.1766  0.4970
 2275SOL    HW118461   4.527   2.934   4.703 -0.7152 -1.7175 -0.4268
 2275SOL    HW218462   4.461   2.972   4.584  0.3797 -0.9712  0.4009
 2276SOL     OW18463   3.790   0.393   0.231  0.6779 -0.0573 -0.0988
 2276SOL    HW118464   3.736   0.376   0.309  2.2310  1.3450  1.2664
 2276SOL    HW218465   3.851   0.319   0.234  0.4948 -0.2395 -1.2125
 2277SOL     OW18466   0.933   2.593   3.367 -0.6932 -0.0804 -0.1506
 2277SOL    HW118467   0.963   2.673   3.411 -0.7853 -0.4361  0.5491
 2277SOL    HW218468   0.906   2.638   3.287  2.5825  2.3750  0.1049
 2278SOL     OW18469   4.199   0.585  10.366  0.0172 -0.3364  0.6021
 2278SOL    HW118470   4.117   0.627  10.393  0.4932  1.4054 -0.7384
 2278SOL    HW218471   4.228   0.560  10.454  1.3905 -1.2101 -0.0963
 2279SOL     OW18472   1.167   0.838   3.882 -0.3335 -0.3959 -0.6582
 2279SOL    HW118473   1.158   0.743   3.874 -0.0312 -0.4680 -0.1222
 2279SOL    HW218474   1.121   0.874   3.806 -2.3803 -0.0659  0.7232
 2280SOL     OW18475   2.014   3.753  10.558  0.4543  0.0571 -0.7903
 2280SOL    HW118476   1.952   3.697  10.511  0.8845 -1.0456 -0.0418
 2280SOL    HW218477   2.084   3.760  10.493  1.6340 -1.9536  0.2815
 2281SOL     OW18478   2.546   1.073   2.054 -0.3893  0.0398  0.3240
 2281SOL    HW118479   2.503   1.137   2.111 -0.4220  1.6468 -1.5098
 2281SOL    HW218480   2.488   1.061   1.979 -0.7025 -1.0895  0.7412
 2282SOL     OW18481   1.654   0.191  10.581 -0.4736  0.6644 -0.2279
 2282SOL    HW118482   1.709   0.114  10.597 -0.6419  0.4804 -0.5227
 2282SOL    HW218483   1.664   0.212  10.488  1.1882  1.0704  0.0518
 2283SOL     OW18484   4.473   1.459   0.526  0.1283  0.2562  0.1996
 2283SOL    HW118485   4.558   1.440   0.566  0.8425  2.0380 -0.4508
 2283SOL    HW218486   4.438   1.371   0.513 -2.3139  1.2752 -0.0440
 2284SOL     OW18487   3.457   0.782   2.655  0.9276  0.4758  0.1763
 2284SOL    HW118488   3.460   0.875   2.675  0.0177  0.4366  0.4843
 2284SOL    HW218489   3.551   0.772   2.636  0.6103  1.7156 -2.0567
 2285SOL     OW18490   3.389   3.646  10.382 -0.5995 -0.0387 -0.2318
 2285SOL    HW118491   3.466   3.677  10.431  0.3227  0.0113 -1.7200
 2285SOL    HW218492   3.325   3.713  10.405  0.0394  0.8969 -1.1897
 2286SOL     OW18493   1.712   3.135  13.868 -0.0383 -0.0200  0.4071
 2286SOL    HW118494   1.695   3.227  13.847 -2.9099 -0.7900 -0.6536
 2286SOL    HW218495   1.807   3.136  13.851  0.0818  0.9861  1.2048
 2287SOL     OW18496   4.431   0.883   6.856 -0.3897  0.1188 -0.3439
 2287SOL    HW118497   4.515   0.876   6.812 -1.1460 -2.7432 -1.3693
 2287SOL    HW218498   4.459   0.938   6.929  1.8191  1.1232 -1.9398
 2288SOL     OW18499   0.832   2.425   9.608 -0.5649  0.4099  0.1716
 2288SOL    HW118500   0.913   2.424   9.659 -1.4982  0.6419  1.6585
 2288SOL    HW218501   0.777   2.497   9.638 -0.5406 -0.4340  2.2606
 2289SOL     OW18502   3.179   0.932  17.510  0.4044  0.4878  0.0315
 2289SOL    HW118503   3.203   0.845  17.479 -0.7315  1.0674 -2.5010
 2289SOL    HW218504   3.126   0.907  17.586  0.7240  0.6055  0.2956
 2290SOL     OW18505   3.393   2.123   9.186  0.0520  0.3216  0.2557
 2290SOL    HW118506   3.300   2.103   9.174  0.9278 -3.7094  0.3194
 2290SOL    HW218507   3.426   2.090   9.103  0.8972  1.3638  0.1902
 2291SOL     OW18508   3.438   2.496   2.898  0.4336  0.0573  0.1321
 2291SOL    HW118509   3.457   2.504   2.992  1.5737  0.1997 -0.1140
 2291SOL    HW218510   3.523   2.527   2.867  0.1764  2.5982  1.9528
 2292SOL     OW18511   4.690   0.295   2.938  0.0106 -0.5970 -0.2489
 2292SOL    HW118512   4.694   0.216   2.885 -2.6233 -2.6271  2.6052
 2292SOL    HW218513   4.696   0.360   2.868 -0.1610 -0.1626  0.1413
 2293SOL     OW18514   3.769   1.085   3.265 -0.1584 -0.1032 -0.2396
 2293SOL    HW118515   3.759   1.179   3.280 -1.0550 -0.2478  0.0797
 2293SOL    HW218516   3.730   1.051   3.346 -1.0481  1.2560 -0.0857
 2294SOL     OW18517   3.880   0.755   0.623  1.0269  0.7787 -0.0263
 2294SOL    HW118518   3.829   0.836   0.617 -1.5980 -0.8212  0.6942
 2294SOL    HW218519   3.902   0.744   0.530 -0.4428  1.5572 -0.4663
 2295SOL     OW18520   3.766   4.139   6.756  0.2898 -0.4990  0.5058
 2295SOL    HW118521   3.861   4.151   6.748  0.6463 -2.3069  1.8964
 2295SOL    HW218522   3.737   4.150   6.666 -4.4482 -0.7852  1.9877
 2296SOL     OW18523   0.365   3.717   4.150 -0.7387 -0.3573  0.2194
 2296SOL    HW118524   0.360   3.700   4.056  0.1102 -2.7786  0.6191
 2296SOL    HW218525   0.452   3.758   4.157 -0.2016 -1.2198 -1.5708
 2297SOL     OW18526   4.717   4.479   3.874 -0.8741  0.3702  0.3855
 2297SOL    HW118527   4.669   4.426   3.810 -0.9383  1.3295 -0.3705
 2297SOL    HW218528   4.648   4.512   3.932  0.5073  0.8803  1.7315
 2298SOL     OW18529   2.134   1.519  17.056  0.5761 -0.3337 -0.5433
 2298SOL    HW118530   2.139   1.553  16.967 -0.3995  0.3404 -0.3400
 2298SOL    HW218531   2.149   1.428  17.033  0.7660  0.3236 -3.0147
 2299SOL     OW18532   1.050   0.995   9.751  0.2243  0.7134  0.0089
 2299SOL    HW118533   1.018   0.935   9.818 -0.7677  1.6686  0.3794
 2299SOL    HW218534   1.112   0.937   9.706 -0.1055  0.8080 -0.5753
 2300SOL     OW18535   2.214   2.217   6.322 -0.0273  0.0682  0.4617
 2300SOL    HW118536   2.158   2.257   6.255 -0.8023 -0.2334  0.9200
 2300SOL    HW218537   2.271   2.164   6.267 -0.6363 -0.6653  0.5380
 2301SOL     OW18538   0.273   2.570  15.173  0.3695  0.5455 -0.3308
 2301SOL    HW118539   0.296   2.528  15.255 -0.5736  3.4115  1.4113
 2301SOL    HW218540   0.177   2.574  15.181  0.3439  1.5973 -1.1017
 2302SOL     OW18541   3.832   2.540   0.747 -0.1069 -0.6177  0.2884
 2302SOL    HW118542   3.737   2.543   0.759 -0.1033 -1.0250  0.4181
 2302SOL    HW218543   3.871   2.530   0.834  2.4062 -3.0478 -1.1300
 2303SOL     OW18544   1.066   3.490   5.089  0.3290 -0.0488  0.1233
 2303SOL    HW118545   0.976   3.474   5.118 -0.7274  2.0982 -1.9188
 2303SOL    HW218546   1.045   3.547   5.015  0.5081 -0.7272 -0.4507
 2304SOL     OW18547   1.812   2.065  13.710  0.3483  1.0757 -0.0774
 2304SOL    HW118548   1.797   1.971  13.708 -2.0433  1.4805 -1.5580
 2304SOL    HW218549   1.793   2.086  13.619 -2.0106  0.6706  0.3151
 2305SOL     OW18550   1.464   2.084   2.286 -0.0353 -0.2902  0.3964
 2305SOL    HW118551   1.554   2.115   2.283 -0.1263 -0.2701 -2.5161
 2305SOL    HW218552   1.416   2.158   2.323 -1.7592 -1.0961 -0.2129
 2306SOL     OW18553   4.257   1.365  15.001  0.3014 -0.0890  0.2765
 2306SOL    HW118554   4.294   1.390  14.917 -2.8189  5.0465  0.4430
 2306SOL    HW218555   4.228   1.447  15.041 -0.8955 -1.1719  1.6578
 2307SOL     OW18556   3.385   2.187   1.239  0.3220 -0.1608  0.0511
 2307SOL    HW118557   3.406   2.094   1.241  0.5027  0.0040  5.9558
 2307SOL    HW218558   3.357   2.198   1.329 -1.9330  0.8826 -0.7826
 2308SOL     OW18559   3.429   1.975   1.467 -0.1903  0.0667 -0.1485
 2308SOL    HW118560   3.477   1.977   1.550  0.1124  1.4895 -0.3581
 2308SOL    HW218561   3.371   2.049   1.480  1.1269  0.8461  1.3545
 2309SOL     OW18562   2.586   4.628   0.575 -0.1502 -0.1419 -0.2618
 2309SOL    HW118563   2.602   4.613   0.668  0.0481 -0.8221 -0.4078
 2309SOL    HW218564   2.581   4.724   0.581  0.9552 -0.1706  0.9702
 2310SOL     OW18565   1.084   2.781  13.654 -0.1294 -0.3485  0.1183
 2310SOL    HW118566   1.136   2.829  13.590  0.4550 -0.0886  0.7950
 2310SOL    HW218567   1.034   2.735  13.587  0.3733  1.7809 -1.6872
 2311SOL     OW18568   1.448   0.389   2.618  0.1208  0.4303 -0.1282
 2311SOL    HW118569   1.524   0.341   2.652 -0.3476 -0.7237 -0.7207
 2311SOL    HW218570   1.454   0.378   2.523  0.5496 -0.9276  0.0612
 2312SOL     OW18571   0.705   1.002  13.616 -0.3841 -0.0533  1.1745
 2312SOL    HW118572   0.758   1.072  13.577 -0.3765 -0.5537  0.3166
 2312SOL    HW218573   0.686   1.059  13.691  0.0302  1.3363  0.2250
 2313SOL     OW18574   0.329   4.307   8.535  0.0416 -0.0025  0.2248
 2313SOL    HW118575   0.382   4.324   8.613 -0.7066 -0.7347  0.8982
 2313SOL    HW218576   0.263   4.376   8.527  0.2152  0.0707 -0.5721
 2314SOL     OW18577   0.085   0.228   5.542  0.3486  0.1265  0.2393
 2314SOL    HW118578   0.082   0.172   5.464 -0.3699 -1.7337  1.6052
 2314SOL    HW218579   0.164   0.190   5.581  0.9039  0.8389 -0.1815
 2315SOL     OW18580   2.893   0.556   1.700  0.6269  0.1211  0.6471
 2315SOL    HW118581   2.965   0.577   1.761 -0.6602  0.5897  2.0089
 2315SOL    HW218582   2.939   0.565   1.617 -1.8857  1.6182 -0.5606
 2316SOL     OW18583   0.928   1.315  15.332  0.0130 -0.3226  0.6399
 2316SOL    HW118584   0.929   1.341  15.424 -0.5900  0.2308  0.4888
 2316SOL    HW218585   0.845   1.267  15.332 -1.5007  2.3177  0.2139
 2317SOL     OW18586   4.684   3.326   3.850  0.0048 -0.6605 -0.1965
 2317SOL    HW118587   4.627   3.316   3.774 -1.1410 -1.6317  0.7940
 2317SOL    HW218588   4.686   3.421   3.856  1.7761 -0.8411  2.4262
 2318SOL     OW18589   1.450   0.555   1.874 -0.1522 -0.1545 -0.0546
 2318SOL    HW118590   1.455   0.576   1.781 -1.7917  2.4056  0.4300
 2318SOL    HW218591   1.487   0.468   1.884  2.0868  0.7565 -0.3933
 2319SOL     OW18592   0.954   3.106   4.072  0.4888 -0.6820  0.5335
 2319SOL    HW118593   0.917   3.060   4.148  1.7207 -1.2620  0.7777
 2319SOL    HW218594   0.920   3.196   4.078 -1.5396 -1.3520 -0.7683
 2320SOL     OW18595   4.435   4.407   5.430 -0.0980 -0.5867  0.2146
 2320SOL    HW118596   4.379   4.381   5.502 -1.4119  1.3111 -0.1423
 2320SOL    HW218597   4.519   4.370   5.458 -0.3092  1.4317  3.4021
 2321SOL     OW18598   4.275   2.559   2.539 -0.1415  0.5885  0.0275
 2321SOL    HW118599   4.183   2.572   2.561 -0.5630 -2.3921  0.1083
 2321SOL    HW218600   4.273   2.472   2.500 -0.5120  0.7913 -0.4018
 2322SOL     OW18601   0.262   0.862   4.321  0.6544 -0.0819 -0.1592
 2322SOL    HW118602   0.275   0.856   4.226 -0.0486  1.3625 -0.3456
 2322SOL    HW218603   0.341   0.908   4.350  1.2496 -2.1957  1.5969
 2323SOL     OW18604   3.792   3.086  13.508 -0.4459 -0.0987 -0.3122
 2323SOL    HW118605   3.864   3.026  13.524 -0.9046 -0.9981 -1.6496
 2323SOL    HW218606   3.740   3.057  13.583 -0.0534  1.7530  0.6792
 2324SOL     OW18607   1.887   2.784   5.544 -0.3284  0.2522  0.4365
 2324SOL    HW118608   1.947   2.839   5.494  0.0972  0.9333  1.7000
 2324SOL    HW218609   1.814   2.845   5.533  0.8998  1.6847  0.2945
 2325SOL     OW18610   1.226   2.428   4.487 -0.3685  0.5754  0.8584
 2325SOL    HW118611   1.138   2.393   4.476 -0.0905 -0.4744  1.9767
 2325SOL    HW218612   1.244   2.466   4.401 -2.0141 -1.2555 -0.2902
 2326SOL     OW18613   1.694   0.403   1.576 -0.1618 -0.2896  0.2092
 2326SOL    HW118614   1.779   0.393   1.618  0.7944 -1.9126 -2.0593
 2326SOL    HW218615   1.680   0.495   1.597 -0.3097 -0.3850  0.5174
 2327SOL     OW18616   2.103   4.520   1.503  0.0930  0.3866 -0.2787
 2327SOL    HW118617   2.047   4.551   1.432  0.4570  1.1670 -0.2247
 2327SOL    HW218618   2.078   4.589   1.565  0.3401  0.4555 -0.2531
 2328SOL     OW18619   3.579   1.246   6.741  0.9543 -0.0634 -0.5874
 2328SOL    HW118620   3.576   1.165   6.792  0.1781  0.0002 -0.5255
 2328SOL    HW218621   3.660   1.241   6.691  0.7167 -0.0804 -0.9790
 2329SOL     OW18622   3.478   0.844   3.369  0.6045 -0.2598 -0.3662
 2329SOL    HW118623   3.480   0.828   3.275  0.7089  1.7779 -0.7179
 2329SOL    HW218624   3.384   0.855   3.385  0.2947 -0.2143 -2.2415
 2330SOL     OW18625   3.964   4.233  12.742  0.2858 -0.3995 -0.5548
 2330SOL    HW118626   3.899   4.254  12.809 -0.0660  0.6273 -1.2196
 2330SOL    HW218627   4.004   4.153  12.776 -0.0838  0.5415  2.0617
 2331SOL     OW18628   0.674   0.556   8.840  0.1800 -0.1411 -0.5383
 2331SOL    HW118629   0.748   0.510   8.879 -0.0007  0.4695  0.5340
 2331SOL    HW218630   0.714   0.634   8.801  1.4192 -1.9629 -2.8936
 2332SOL     OW18631   2.859   3.313  17.594  0.0708 -0.6278  0.1453
 2332SOL    HW118632   2.810   3.372  17.537 -1.4667 -2.3406 -0.3192
 2332SOL    HW218633   2.792   3.265  17.643  1.1203 -2.9867 -0.6935
 2333SOL     OW18634   4.090   2.736   1.094 -0.2729  0.4915  0.6087
 2333SOL    HW118635   4.136   2.818   1.109  0.8309 -0.2995  1.5411
 2333SOL    HW218636   4.148   2.695   1.031 -1.0580 -0.0293  0.2255
 2334SOL     OW18637   3.298   1.087   7.432  0.5453 -0.3004  0.1278
 2334SOL    HW118638   3.240   1.113   7.361  1.8490 -1.9721 -1.5463
 2334SOL    HW218639   3.377   1.128   7.397 -0.7384  0.7692 -1.5041
 2335SOL     OW18640   2.357   2.838   9.210 -0.3204 -0.0423  0.0207
 2335SOL    HW118641   2.367   2.744   9.223  0.1557 -0.3131 -2.2453
 2335SOL    HW218642   2.446   2.858   9.180 -0.5411  1.9152  0.6432
 2336SOL     OW18643   0.997   2.436  12.554 -0.2165 -0.0747  0.2489
 2336SOL    HW118644   1.012   2.496  12.628  2.9807  0.1864 -0.6174
 2336SOL    HW218645   1.081   2.444  12.509 -0.7900 -2.5144 -1.2396
 2337SOL     OW18646   3.374   0.062   3.091 -0.2213  0.0189  0.3349
 2337SOL    HW118647   3.312   0.086   3.023 -1.4720 -0.8105  1.1716
 2337SOL    HW218648   3.364   0.129   3.158 -1.1699 -1.2763  1.5066
 2338SOL     OW18649   1.269   0.976   6.451  0.3021  0.5334  0.3001
 2338SOL    HW118650   1.220   0.910   6.401 -0.7911  0.5713  1.3309
 2338SOL    HW218651   1.314   1.017   6.377 -0.5258 -2.0502 -1.6574
 2339SOL     OW18652   1.226   3.183   6.915  0.5211 -0.1154 -0.0708
 2339SOL    HW118653   1.169   3.112   6.945  0.0404  0.1468 -0.3775
 2339SOL    HW218654   1.298   3.136   6.871  1.0818  2.7241 -2.1297
 2340SOL     OW18655   1.090   3.986   9.398  0.9240  0.1754  0.5524
 2340SOL    HW118656   1.077   3.891   9.397 -0.3341  0.3448  0.8907
 2340SOL    HW218657   1.034   4.018   9.469 -1.6844 -3.3917  0.1380
 2341SOL     OW18658   3.883   2.127  13.647 -0.0042  0.0858 -0.4909
 2341SOL    HW118659   3.793   2.124  13.679  0.8727 -0.6583  1.9408
 2341SOL    HW218660   3.886   2.221  13.631 -0.8200  0.0089 -1.0772
 2342SOL     OW18661   1.683   3.449   9.272 -0.2151  0.0127 -0.3644
 2342SOL    HW118662   1.703   3.377   9.333 -1.8195 -1.1656 -1.2333
 2342SOL    HW218663   1.702   3.407   9.189  0.1167  2.8563 -1.7210
 2343SOL     OW18664   1.351   3.231   9.507 -0.3753  0.1491  0.2670
 2343SOL    HW118665   1.322   3.322   9.509 -0.9227 -0.0240  0.1191
 2343SOL    HW218666   1.341   3.210   9.414 -0.6842  0.2282  0.2833
 2344SOL     OW18667   3.901   2.394  13.633 -0.4983 -0.1838 -0.0922
 2344SOL    HW118668   3.937   2.464  13.689  0.3366 -0.1156 -0.7073
 2344SOL    HW218669   3.881   2.453  13.560  1.3081  3.4462  2.3119
 2345SOL     OW18670   0.037   4.438  12.123 -0.1045  0.0979  0.3508
 2345SOL    HW118671   0.092   4.515  12.107 -2.0881  1.6298  0.9735
 2345SOL    HW218672   0.041   4.449  12.218  0.0432  2.0790  0.1038
 2346SOL     OW18673   3.806   3.358   5.954  0.0004  0.2393 -0.5534
 2346SOL    HW118674   3.717   3.348   5.989  1.4928 -1.1289  2.8418
 2346SOL    HW218675   3.852   3.287   5.999  3.1160  1.4768 -1.7722
 2347SOL     OW18676   3.809   1.824   7.800  0.1480 -0.2194  0.2972
 2347SOL    HW118677   3.720   1.803   7.773  0.9832 -0.0152 -2.6330
 2347SOL    HW218678   3.823   1.751   7.861 -0.8650  0.1070  0.9210
 2348SOL     OW18679   2.168   0.567   2.331  0.3859  0.0100 -0.4848
 2348SOL    HW118680   2.080   0.601   2.315 -0.9048 -2.6562  0.9058
 2348SOL    HW218681   2.143   0.475   2.327 -2.2800  0.7366 -0.3849
 2349SOL     OW18682   4.365   1.774   2.283 -0.3768 -0.3259 -0.2414
 2349SOL    HW118683   4.297   1.741   2.342 -0.5863  0.7421  0.1094
 2349SOL    HW218684   4.439   1.714   2.294 -0.5949 -0.4475  0.5445
 2350SOL     OW18685   1.940   4.320   8.624  0.1016 -0.5649  0.0433
 2350SOL    HW118686   1.920   4.243   8.571 -2.0822 -0.3019  0.5051
 2350SOL    HW218687   1.952   4.287   8.713 -0.6326  1.0471  0.7238
 2351SOL     OW18688   2.898   4.253   8.247  0.1536 -0.4814 -0.5944
 2351SOL    HW118689   2.970   4.254   8.183 -0.7810 -0.5519 -1.6563
 2351SOL    HW218690   2.831   4.229   8.183  0.5239  2.4752 -2.1054
 2352SOL     OW18691   1.033   3.140   2.172 -0.2200  0.3536 -0.8954
 2352SOL    HW118692   1.031   3.235   2.159  2.5918  0.7598  1.5570
 2352SOL    HW218693   0.939   3.130   2.186  0.1465  0.6224  1.8001
 2353SOL     OW18694   0.509   4.384   5.364 -0.1070 -0.2773  0.3081
 2353SOL    HW118695   0.462   4.387   5.448  0.3814  1.4313  0.5173
 2353SOL    HW218696   0.546   4.472   5.356 -0.8206  0.3482  3.8809
 2354SOL     OW18697   1.562   1.408   5.650 -0.2922 -0.0596  0.2401
 2354SOL    HW118698   1.572   1.470   5.722 -0.3627 -0.9837  1.0545
 2354SOL    HW218699   1.492   1.457   5.607 -0.4300  0.9605  1.6072
 2355SOL     OW18700   0.744   1.127   4.673  0.6565 -0.4202 -0.0448
 2355SOL    HW118701   0.667   1.139   4.729  0.6995 -3.6338  0.7153
 2355SOL    HW218702   0.815   1.102   4.733 -0.1745  0.6244  1.3568
 2356SOL     OW18703   3.172   3.384   2.187  0.4359 -0.2357  0.1531
 2356SOL    HW118704   3.206   3.299   2.214  0.1672 -1.2026 -2.5850
 2356SOL    HW218705   3.231   3.412   2.118  1.6374  0.6049  1.5276
 2357SOL     OW18706   3.857   0.266  10.006 -0.9345  0.3626  0.3491
 2357SOL    HW118707   3.890   0.185   9.968 -0.0221  1.5691 -1.4146
 2357SOL    HW218708   3.882   0.328   9.938 -2.2855  1.7898  1.1626
 2358SOL     OW18709   4.422   3.657  16.771  0.1598  0.2355 -0.8361
 2358SOL    HW118710   4.393   3.678  16.682 -4.4168  1.2875  0.9212
 2358SOL    HW218711   4.496   3.718  16.776 -0.7846  1.2228  1.2276
 2359SOL     OW18712   3.393   1.060   2.448 -0.4121 -0.1404  0.0450
 2359SOL    HW118713   3.340   1.085   2.372  0.4623 -0.4676 -0.6611
 2359SOL    HW218714   3.372   1.131   2.508  0.3837  0.2472 -0.1313
 2360SOL     OW18715   1.873   0.426   3.376  0.3432  0.2483  0.6028
 2360SOL    HW118716   1.814   0.394   3.308  0.6778  2.4506 -0.7226
 2360SOL    HW218717   1.918   0.491   3.321 -3.5244  1.8104 -0.7289
 2361SOL     OW18718   0.868   1.349   1.747  0.2450 -0.7392 -1.0714
 2361SOL    HW118719   0.945   1.298   1.771  1.2585  1.8927  1.2458
 2361SOL    HW218720   0.838   1.307   1.667 -2.1529 -1.6534  0.3037
 2362SOL     OW18721   4.162   0.226  12.179  0.2202 -0.2672  0.1703
 2362SOL    HW118722   4.083   0.280  12.176  0.8348  0.6308  0.0117
 2362SOL    HW218723   4.159   0.195  12.269  2.3236  0.4608  0.5021
 2363SOL     OW18724   4.660   1.914   1.923 -0.0854 -0.1015 -0.1122
 2363SOL    HW118725   4.660   1.872   2.009 -0.5255 -0.3315 -0.2246
 2363SOL    HW218726   4.576   1.960   1.924  0.1530  0.3478 -0.8578
 2364SOL     OW18727   0.700   1.182   3.085  0.0114 -0.0729 -0.3006
 2364SOL    HW118728   0.762   1.242   3.042  0.5116  0.6526  1.4342
 2364SOL    HW218729   0.733   1.094   3.069  0.4960  0.1529 -0.5628
 2365SOL     OW18730   2.666   3.392   8.479  0.3390  0.1489  0.2098
 2365SOL    HW118731   2.686   3.444   8.557 -1.1578  0.3723  0.4605
 2365SOL    HW218732   2.585   3.428   8.442  0.3741  0.4104  0.3846
 2366SOL     OW18733   3.926   4.119  10.311  0.2311  0.3499  0.7245
 2366SOL    HW118734   3.994   4.087  10.370  1.4698  1.1338 -0.2596
 2366SOL    HW218735   3.983   4.112  10.234 -0.0936 -0.1112  0.5235
 2367SOL     OW18736   1.667   2.244   8.981 -0.3369 -0.4248 -0.4019
 2367SOL    HW118737   1.721   2.226   9.058 -0.7868  0.1762  0.0546
 2367SOL    HW218738   1.707   2.191   8.912  2.4732  1.2799 -0.0702
 2368SOL     OW18739   2.690   1.883  10.109 -0.3595 -0.1361  0.0925
 2368SOL    HW118740   2.674   1.977  10.120  0.7288  0.3533 -2.5448
 2368SOL    HW218741   2.632   1.874  10.034  0.9646 -0.0459 -0.9346
 2369SOL     OW18742   2.693   3.914  12.731  0.0272  0.7890 -0.3263
 2369SOL    HW118743   2.598   3.913  12.745  0.1138 -3.8689 -0.0120
 2369SOL    HW218744   2.736   3.929  12.814  2.9819  1.3708 -1.9612
 2370SOL     OW18745   0.521   2.767  16.663 -0.2076 -0.1913  0.0216
 2370SOL    HW118746   0.598   2.806  16.703 -1.6198  3.2886 -0.7101
 2370SOL    HW218747   0.555   2.764  16.573 -2.1376  0.3400 -0.7382
 2371SOL     OW18748   3.100   2.482   6.189  0.0715  0.0056  0.3274
 2371SOL    HW118749   3.105   2.421   6.115 -0.9846 -0.4289  0.6118
 2371SOL    HW218750   3.015   2.459   6.225 -1.0413  2.4250 -0.7465
 2372SOL     OW18751   1.568   4.158   5.409 -0.0309  0.0529 -0.8690
 2372SOL    HW118752   1.653   4.168   5.450 -0.0155  0.6683 -1.0530
 2372SOL    HW218753   1.523   4.095   5.465 -2.1344  1.5918 -0.7955
 2373SOL     OW18754   1.165   2.103   4.356 -0.0232 -0.6200  0.0479
 2373SOL    HW118755   1.256   2.112   4.326 -0.1286 -0.6803 -0.2971
 2373SOL    HW218756   1.163   2.009   4.378 -0.7314 -0.7427 -0.5471
 2374SOL     OW18757   4.451   0.095   7.766 -0.4433  0.3676  0.0836
 2374SOL    HW118758   4.508   0.080   7.841  0.5873  1.3906 -0.4948
 2374SOL    HW218759   4.499   0.140   7.696  0.5998 -2.0657 -0.7402
 2375SOL     OW18760   4.296   0.262  15.606 -0.1370 -0.5137  0.1884
 2375SOL    HW118761   4.235   0.210  15.658 -1.1078  0.2303 -0.1976
 2375SOL    HW218762   4.247   0.344  15.600  1.4640  0.4788  0.5110
 2376SOL     OW18763   2.565   4.734   9.362 -0.2944 -0.3395 -0.2774
 2376SOL    HW118764   2.521   4.655   9.392  1.7242 -0.1956  3.1667
 2376SOL    HW218765   2.645   4.701   9.322  0.6975 -0.6039  1.9334
 2377SOL     OW18766   3.370   2.571   0.047  0.3699  0.1708  0.3883
 2377SOL    HW118767   3.439   2.529  17.747 -1.1971 -1.5899 -0.2965
 2377SOL    HW218768   3.426   2.637   0.087  0.6705 -0.4907  1.0754
 2378SOL     OW18769   2.934   2.816   8.476 -0.2813 -0.9290 -0.5309
 2378SOL    HW118770   2.913   2.909   8.465  0.4785 -0.5621  1.1078
 2378SOL    HW218771   2.998   2.792   8.409  1.0675 -2.8595  1.4436
 2379SOL     OW18772   2.926   3.942  11.384  0.1065  0.2344 -0.2224
 2379SOL    HW118773   2.862   4.012  11.369  1.4236  1.1973 -1.3314
 2379SOL    HW218774   2.972   3.929  11.301  0.5663  1.5022 -0.1725
 2380SOL     OW18775   2.450   4.201  12.502 -0.1729  0.6238 -0.3870
 2380SOL    HW118776   2.374   4.258  12.509  0.3663  1.3128 -0.1368
 2380SOL    HW218777   2.492   4.231  12.421 -1.3161 -1.8642 -1.9195
 2381SOL     OW18778   2.520   1.163  15.754 -0.1628  0.0270 -0.5601
 2381SOL    HW118779   2.615   1.155  15.753 -0.1418  0.0020  2.6112
 2381SOL    HW218780   2.512   1.151  15.660 -0.0332 -2.1343 -0.3045
 2382SOL     OW18781   0.781   1.020   6.053 -0.3389  0.2694 -0.4862
 2382SOL    HW118782   0.721   1.030   6.127 -0.1239 -1.9388 -0.0129
 2382SOL    HW218783   0.780   0.925   6.040  0.6450  0.2940 -0.7670
 2383SOL     OW18784   0.963   0.880   2.505  0.0164  0.0136  0.2693
 2383SOL    HW118785   1.032   0.834   2.458  2.0510  1.4370  1.8197
 2383SOL    HW218786   0.963   0.961   2.454  1.2272 -1.3372 -1.8295
 2384SOL     OW18787   1.693   0.213  10.319 -0.4210 -0.2065  0.5575
 2384SOL    HW118788   1.708   0.204  10.225  1.3359  0.0144  0.8202
 2384SOL    HW218789   1.737   0.298  10.329 -1.7867  0.6651 -0.6987
 2385SOL     OW18790   3.245   1.891   4.617  0.1124 -0.0056  0.4107
 2385SOL    HW118791   3.326   1.932   4.588 -0.9808  0.6731 -1.7072
 2385SOL    HW218792   3.269   1.800   4.596  1.7877  0.4008  0.5719
 2386SOL     OW18793   4.042   2.859   8.426 -0.3087  0.0423 -0.2126
 2386SOL    HW118794   4.130   2.876   8.390  0.0669 -2.0060 -0.2339
 2386SOL    HW218795   4.012   2.776   8.389 -1.3045  0.5365 -0.5002
 2387SOL     OW18796   2.611   4.591   6.488 -0.1673 -0.2258  0.2207
 2387SOL    HW118797   2.700   4.560   6.470  0.4926  1.9904 -0.3760
 2387SOL    HW218798   2.623   4.675   6.444  3.1713 -1.0556 -0.4603
 2388SOL     OW18799   0.875   2.534   7.490  0.6588 -0.2312 -0.5085
 2388SOL    HW118800   0.875   2.623   7.456  0.2373  0.1354  0.4469
 2388SOL    HW218801   0.964   2.533   7.526 -0.0257  0.5338  1.1982
 2389SOL     OW18802   4.705   0.214  17.584 -0.2843 -0.0155  0.6387
 2389SOL    HW118803   0.021   0.171  17.649 -0.5932 -0.4809  0.5849
 2389SOL    HW218804   4.689   0.301  17.621 -2.1305 -1.2273  2.6900
 2390SOL     OW18805   1.022   2.801  12.663 -0.2928 -0.6230 -0.1238
 2390SOL    HW118806   1.091   2.736  12.651 -1.8877 -2.1620 -0.9380
 2390SOL    HW218807   1.004   2.805  12.757 -0.4791  0.5854 -0.2106
 2391SOL     OW18808   4.140   1.465  17.508 -0.0798 -0.1674  0.5614
 2391SOL    HW118809   4.135   1.515  17.427  0.5325 -0.4723  0.3309
 2391SOL    HW218810   4.149   1.379  17.467 -0.0177 -0.0786  0.3892
 2392SOL     OW18811   2.162   1.357   8.970  0.0191 -0.5035 -0.0825
 2392SOL    HW118812   2.216   1.385   9.044 -1.8712 -0.0530  1.1136
 2392SOL    HW218813   2.224   1.323   8.904  0.6192 -2.1231  1.3140
 2393SOL     OW18814   1.869   2.640   7.444  0.0232  0.8529 -0.1376
 2393SOL    HW118815   1.888   2.712   7.384  0.4270  1.5549  0.8394
 2393SOL    HW218816   1.925   2.570   7.411  0.2409 -0.1969  2.4223
 2394SOL     OW18817   3.082   3.364   0.866  0.0408  0.1773  0.7481
 2394SOL    HW118818   3.120   3.451   0.854  1.5699 -0.4984  0.6477
 2394SOL    HW218819   3.155   3.313   0.901 -1.3759 -1.2860  1.5857
 2395SOL     OW18820   2.365   4.682   2.988  0.2205  0.1255 -0.1490
 2395SOL    HW118821   2.383   4.655   3.078  0.2991 -0.5048 -0.3533
 2395SOL    HW218822   2.287   4.630   2.972  0.4115 -0.3569  0.4978
 2396SOL     OW18823   4.027   3.589   1.845  0.3646  0.0891 -0.4834
 2396SOL    HW118824   4.087   3.663   1.829  0.1957 -0.3045 -2.8427
 2396SOL    HW218825   3.975   3.610   1.923  3.2913  0.5078  1.3957
 2397SOL     OW18826   4.026   2.546   5.184  0.2526  0.3608  0.4004
 2397SOL    HW118827   4.066   2.604   5.249  0.2533  0.3001  0.4541
 2397SOL    HW218828   3.945   2.526   5.231 -1.4423  0.6494 -2.4182
 2398SOL     OW18829   3.351   2.770   6.046 -0.6176 -0.3988  0.5861
 2398SOL    HW118830   3.319   2.708   5.980 -0.8568 -0.3333  0.6404
 2398SOL    HW218831   3.290   2.739   6.113 -1.1442 -0.6327 -0.0003
 2399SOL     OW18832   2.124   1.078   3.409 -0.2205 -0.2434  0.2553
 2399SOL    HW118833   2.149   1.153   3.463 -1.9662 -0.8769  1.9262
 2399SOL    HW218834   2.128   1.008   3.474  1.0871 -2.1506 -1.8906
 2400SOL     OW18835   4.014   1.811   1.003 -0.1930 -0.2923  0.9577
 2400SOL    HW118836   3.943   1.874   1.003 -2.0344 -2.3839  0.0544
 2400SOL    HW218837   3.968   1.753   1.064 -2.4657 -0.3740 -0.8584
 2401SOL     OW18838   1.884   4.310  13.664 -0.0267 -0.4177 -0.4431
 2401SOL    HW118839   1.911   4.320  13.573  4.1077  0.1123  0.8103
 2401SOL    HW218840   1.962   4.346  13.708 -0.3203 -1.2829  0.7929
 2402SOL     OW18841   2.232   0.620  12.491  0.2354  0.0803 -0.1759
 2402SOL    HW118842   2.324   0.633  12.471  0.6101 -0.0963  1.4823
 2402SOL    HW218843   2.205   0.688  12.553 -1.7509 -1.3514  0.5238
 2403SOL     OW18844   0.061   4.092   5.366  0.1470  0.2059 -0.3374
 2403SOL    HW118845   0.091   4.048   5.446  0.2480 -0.4893 -0.7511
 2403SOL    HW218846   0.064   4.184   5.393 -1.6597  0.6475 -1.6457
 2404SOL     OW18847   0.770   0.097  10.997 -0.0563 -0.1987 -0.3425
 2404SOL    HW118848   0.790   0.007  11.022  1.7115  0.6817  1.3800
 2404SOL    HW218849   0.820   0.153  11.056 -0.2657  0.4000 -0.7305
 2405SOL     OW18850   4.063   1.442   5.523 -0.1290 -0.4546 -0.1765
 2405SOL    HW118851   4.015   1.522   5.505 -0.1942 -0.2851  0.7205
 2405SOL    HW218852   3.997   1.373   5.517  0.2500 -1.0547  2.3073
 2406SOL     OW18853   2.210   4.307   7.905  0.5927 -0.5763 -0.0098
 2406SOL    HW118854   2.118   4.328   7.889  0.9301 -0.3822 -1.6650
 2406SOL    HW218855   2.244   4.396   7.914 -1.0363 -0.0512  0.9290
 2407SOL     OW18856   1.819   2.638  17.185  0.0369 -0.5149 -0.2004
 2407SOL    HW118857   1.736   2.618  17.228  0.3271 -0.4010  0.4018
 2407SOL    HW218858   1.876   2.631  17.261  2.9608  2.3062 -2.1433
 2408SOL     OW18859   1.365   1.776   7.243  0.2099  0.2463  0.0945
 2408SOL    HW118860   1.456   1.756   7.224  0.3750  0.7296  0.3624
 2408SOL    HW218861   1.365   1.846   7.309 -0.9435  1.0321 -0.7353
 2409SOL     OW18862   4.489   1.435  15.711 -0.1557 -0.2148  0.1734
 2409SOL    HW118863   4.578   1.459  15.737 -0.3372 -0.1552  0.7297
 2409SOL    HW218864   4.495   1.351  15.667  1.7507 -0.1030  0.1969
 2410SOL     OW18865   2.871   0.980   2.228 -0.1144  0.4920 -0.0064
 2410SOL    HW118866   2.812   0.941   2.293 -1.7032  0.1708 -1.6307
 2410SOL    HW218867   2.948   0.989   2.285 -1.6145 -0.6144  2.2018
 2411SOL     OW18868   3.528   0.902   5.367  0.1748  0.0068  0.5439
 2411SOL    HW118869   3.469   0.948   5.306 -0.2028 -1.4751 -0.2071
 2411SOL    HW218870   3.562   0.968   5.427  1.7733 -1.2184  0.9879
 2412SOL     OW18871   3.497   0.402   8.682  0.0683  0.3860 -0.0388
 2412SOL    HW118872   3.461   0.459   8.750 -0.2137  1.3420 -0.9749
 2412SOL    HW218873   3.574   0.455   8.659 -1.0460  0.7481 -3.0045
 2413SOL     OW18874   2.095   2.213   9.271  0.5731  0.7040  0.2220
 2413SOL    HW118875   2.164   2.205   9.205 -1.7166  0.0090 -2.0911
 2413SOL    HW218876   2.084   2.308   9.275 -0.1652  0.6251  0.1186
 2414SOL     OW18877   1.153   1.836   6.990  0.1228  0.3404  0.1081
 2414SOL    HW118878   1.248   1.837   6.978 -0.0682  0.8667 -1.3251
 2414SOL    HW218879   1.116   1.785   6.918  0.7710 -2.7682  1.9500
 2415SOL     OW18880   2.895   3.041   1.715 -0.4915  0.1064  0.0232
 2415SOL    HW118881   2.883   3.122   1.665  2.2407  0.0531 -0.7309
 2415SOL    HW218882   2.815   3.024   1.763 -1.0840  1.5007 -0.4734
 2416SOL     OW18883   0.622   1.164   6.390 -0.3820  0.6838  0.1188
 2416SOL    HW118884   0.576   1.248   6.385 -0.2754  0.7140 -0.3136
 2416SOL    HW218885   0.704   1.194   6.429  0.7073 -0.3703 -1.3620
 2417SOL     OW18886   2.883   0.743  10.274  0.0177 -0.5171 -0.3388
 2417SOL    HW118887   2.938   0.745  10.196 -0.2247  0.7292 -0.4826
 2417SOL    HW218888   2.887   0.838  10.285 -1.2175 -0.8061  2.5795
 2418SOL     OW18889   2.097   2.926   6.678 -0.8874  0.3030 -0.0405
 2418SOL    HW118890   2.013   2.883   6.665 -0.1661 -1.2420  0.4084
 2418SOL    HW218891   2.136   2.924   6.590 -2.9436 -0.3434 -0.9368
 2419SOL     OW18892   1.051   3.387   9.646  0.0781  0.3859 -0.2218
 2419SOL    HW118893   1.135   3.418   9.612  0.1418  1.0289  0.5298
 2419SOL    HW218894   1.073   3.309   9.697 -0.8728 -0.1898 -0.7032
 2420SOL     OW18895   0.025   4.323   6.269 -0.2069  0.1605  0.1096
 2420SOL    HW118896   0.035   4.367   6.353 -0.3058 -0.4203  0.4220
 2420SOL    HW218897   4.690   4.263   6.281 -0.3160  0.4928  1.0957
 2421SOL     OW18898   0.619   4.051   3.810 -0.4249  0.2753 -0.0645
 2421SOL    HW118899   0.688   3.985   3.798  0.1062  0.8759 -0.3231
 2421SOL    HW218900   0.672   4.111   3.864  1.1097 -0.1050 -1.1317
 2422SOL     OW18901   1.876   4.694  13.409  0.3039  0.5935 -0.1674
 2422SOL    HW118902   1.864   4.720  13.317 -2.7365 -2.3284 -0.5979
 2422SOL    HW218903   1.786   4.710  13.438  0.5888  0.9427  0.5189
 2423SOL     OW18904   1.602   2.213   6.430  0.3497  0.5230  0.7235
 2423SOL    HW118905   1.608   2.308   6.439  0.5096  0.3931  2.1018
 2423SOL    HW218906   1.652   2.185   6.507  0.4886 -2.6003 -0.4855
 2424SOL     OW18907   3.369   3.084   1.542  0.0065  0.0526  0.6532
 2424SOL    HW118908   3.291   3.029   1.552  0.7427 -1.4552 -1.9654
 2424SOL    HW218909   3.446   3.032   1.565 -0.1330  0.3191  1.7381
 2425SOL     OW18910   1.913   2.402   8.379 -0.0267  0.5647  0.0753
 2425SOL    HW118911   1.921   2.312   8.348 -0.4839  0.3816  0.4792
 2425SOL    HW218912   1.821   2.408   8.406  0.1570  0.1390  0.8000
 2426SOL     OW18913   1.226   0.897  14.022 -0.0142  0.1685 -0.0337
 2426SOL    HW118914   1.135   0.919  14.041 -0.2727 -0.1497 -0.9111
 2426SOL    HW218915   1.277   0.978  14.018 -2.9227  1.8838 -2.7044
 2427SOL     OW18916   3.499   1.687   2.210 -0.5520  0.1194 -0.4130
 2427SOL    HW118917   3.540   1.607   2.176 -2.2256 -0.5063 -0.9438
 2427SOL    HW218918   3.511   1.745   2.135 -2.4101 -0.6159 -1.2807
 2428SOL     OW18919   0.029   3.036   9.393  0.2813 -0.8159 -0.2401
 2428SOL    HW118920   0.022   3.131   9.403 -0.1914 -0.7641 -1.0767
 2428SOL    HW218921   4.703   3.016   9.325  0.7056 -0.7343 -0.6665
 2429SOL     OW18922   4.036   0.475   3.445 -0.3201 -0.2594  0.6451
 2429SOL    HW118923   4.111   0.415   3.444 -0.2875 -0.2034 -0.2615
 2429SOL    HW218924   4.066   0.545   3.386 -1.2727 -0.0348  0.4332
 2430SOL     OW18925   2.062   3.453   4.707 -0.0623  0.2251 -0.3658
 2430SOL    HW118926   2.086   3.374   4.755  1.3368  0.8922  0.0301
 2430SOL    HW218927   1.986   3.485   4.756  0.5302  0.0995  0.6254
 2431SOL     OW18928   1.322   3.113   6.026  0.2629  0.5296 -0.5359
 2431SOL    HW118929   1.299   3.020   6.022  0.2841  0.5261 -0.5833
 2431SOL    HW218930   1.381   3.116   6.100 -0.5662  0.2345  0.1370
 2432SOL     OW18931   4.120   3.800  16.102 -0.0571 -0.2981  0.2187
 2432SOL    HW118932   4.199   3.747  16.091  0.0347  0.0490 -0.7535
 2432SOL    HW218933   4.058   3.733  16.130 -1.0013  1.1439  1.5732
 2433SOL     OW18934   3.207   2.059   2.904  0.3019  0.0471  0.4182
 2433SOL    HW118935   3.242   2.140   2.865 -0.0416  0.2855  0.6008
 2433SOL    HW218936   3.215   2.079   2.997  1.4475 -3.3020  1.0409
 2434SOL     OW18937   2.490   2.342   3.423  0.0292  0.6286  0.6848
 2434SOL    HW118938   2.491   2.286   3.501 -1.0898 -0.6677 -0.2220
 2434SOL    HW218939   2.558   2.404   3.448 -0.6802  1.5448  0.3658
 2435SOL     OW18940   0.087   2.776   2.269  0.0842  1.0044  0.0903
 2435SOL    HW118941   4.731   2.787   2.255 -0.1990 -0.3307  0.9545
 2435SOL    HW218942   0.081   2.715   2.342  0.0793  2.3520  1.2199
 2436SOL     OW18943   0.268   2.266   1.182  0.3494  0.1603  0.7880
 2436SOL    HW118944   0.343   2.262   1.123  0.2135  1.8083  0.5060
 2436SOL    HW218945   0.297   2.328   1.248 -2.4531  1.6761  0.5660
 2437SOL     OW18946   1.417   2.851  13.997 -0.0469  0.0262  0.4711
 2437SOL    HW118947   1.396   2.765  13.960  0.1046  0.9122 -1.6569
 2437SOL    HW218948   1.405   2.909  13.923  0.0541 -1.3436 -0.6094
 2438SOL     OW18949   2.400   4.477   6.326  0.3221  0.3404 -0.6857
 2438SOL    HW118950   2.465   4.518   6.383 -2.4259  2.4726  0.9150
 2438SOL    HW218951   2.451   4.396   6.320 -1.1201 -0.6937  0.9582
 2439SOL     OW18952   3.988   2.082   9.690  0.4347  0.3393 -0.3273
 2439SOL    HW118953   4.055   2.146   9.664  0.8144 -0.1471 -0.5516
 2439SOL    HW218954   3.938   2.125   9.759  2.7586 -0.1602  1.6790
 2440SOL     OW18955   1.697   3.402  13.697 -0.7880 -0.4394 -0.0845
 2440SOL    HW118956   1.689   3.344  13.621 -0.2101 -2.6323  1.5504
 2440SOL    HW218957   1.698   3.492  13.663 -1.5077  0.4788  2.2927
 2441SOL     OW18958   0.539   4.604   3.926 -0.6024 -0.0639  0.3331
 2441SOL    HW118959   0.565   4.512   3.933 -0.1148  0.0748  0.3459
 2441SOL    HW218960   0.562   4.635   4.014  0.4113  0.9411 -0.2957
 2442SOL     OW18961   0.124   0.361   1.594  0.0124 -0.2059 -0.0786
 2442SOL    HW118962   0.115   0.266   1.599  0.8605 -0.3397 -1.1173
 2442SOL    HW218963   0.199   0.379   1.652  0.1512 -0.3257 -0.2204
 2443SOL     OW18964   1.326   1.327  16.739 -0.1504  0.1304 -0.3715
 2443SOL    HW118965   1.362   1.394  16.680  1.2577 -0.3557 -0.0638
 2443SOL    HW218966   1.389   1.256  16.729 -1.1629 -0.7386 -0.4682
 2444SOL     OW18967   2.512   1.879   6.821 -0.2691 -0.1726 -0.0960
 2444SOL    HW118968   2.448   1.808   6.811  0.2444 -0.8746  1.5279
 2444SOL    HW218969   2.447   1.944   6.851  1.1125  0.2587  1.9263
 2445SOL     OW18970   3.157   0.521   6.495 -0.1090  0.1968  0.7890
 2445SOL    HW118971   3.208   0.565   6.563 -1.2421  0.8945  1.1997
 2445SOL    HW218972   3.161   0.585   6.424  0.3798  1.5946  2.0746
 2446SOL     OW18973   0.172   2.886  10.333  0.1283  0.1906  0.0813
 2446SOL    HW118974   0.205   2.800  10.358 -1.1156 -0.8749 -1.9717
 2446SOL    HW218975   0.082   2.868  10.305  0.2111 -0.0632 -0.0181
 2447SOL     OW18976   2.895   1.367   3.587  0.2808  0.5345 -0.0246
 2447SOL    HW118977   2.875   1.452   3.627 -0.1841  0.4250 -0.0152
 2447SOL    HW218978   2.971   1.354   3.643 -0.0801 -0.8534  0.1431
 2448SOL     OW18979   2.873   2.324  12.973 -0.3619 -0.0479 -0.0770
 2448SOL    HW118980   2.862   2.409  12.931  0.7673  0.7083  1.1511
 2448SOL    HW218981   2.802   2.325  13.037  0.0021 -1.0747  0.3394
 2449SOL     OW18982   2.635   2.501  10.853  0.1730  0.6467  0.2454
 2449SOL    HW118983   2.610   2.418  10.894 -0.4691  1.3525  1.2849
 2449SOL    HW218984   2.709   2.476  10.798  0.7711  0.3804  1.1731
 2450SOL     OW18985   0.921   2.792   1.646  0.3229 -0.3344  0.0901
 2450SOL    HW118986   0.899   2.699   1.654 -1.1475 -0.0865 -1.0313
 2450SOL    HW218987   0.913   2.833   1.732 -0.4978  0.1856 -0.2329
 2451SOL     OW18988   4.359   2.534  10.825  0.4059 -0.3719 -0.1388
 2451SOL    HW118989   4.329   2.460  10.877 -1.5835  1.4241  1.2495
 2451SOL    HW218990   4.445   2.546  10.866  1.6384 -2.5437 -2.1194
 2452SOL     OW18991   4.337   2.083   7.252 -0.3046 -0.0316  0.1858
 2452SOL    HW118992   4.315   2.020   7.183  1.3189  0.8101 -1.1124
 2452SOL    HW218993   4.398   2.140   7.205 -2.4102  0.9640 -1.3914
 2453SOL     OW18994   4.610   0.242   3.309  0.1006 -0.1755  0.1452
 2453SOL    HW118995   4.543   0.238   3.377 -0.5653 -0.7907 -0.5298
 2453SOL    HW218996   4.689   0.200   3.342 -0.8685 -1.1244  1.2671
 2454SOL     OW18997   3.795   4.250   7.389 -0.4466  0.1351  0.3745
 2454SOL    HW118998   3.856   4.317   7.421 -2.9514  1.1941  2.8963
 2454SOL    HW218999   3.709   4.287   7.408 -0.2165  0.4486  0.8251
 2455SOL     OW19000   2.086   0.200   7.186 -0.0030  0.1871  0.0321
 2455SOL    HW119001   2.127   0.185   7.101  1.2626  2.4236  0.2656
 2455SOL    HW219002   2.018   0.132   7.189 -1.6496  1.8143 -0.3170
 2456SOL     OW19003   3.662   4.416   7.662  0.4034  0.4559 -0.2199
 2456SOL    HW119004   3.590   4.424   7.724  0.7890  2.6637 -0.0319
 2456SOL    HW219005   3.729   4.366   7.708 -0.4734 -1.8212 -1.4605
 2457SOL     OW19006   1.026   3.615   3.307 -0.4402  0.4463  0.0365
 2457SOL    HW119007   1.076   3.612   3.388 -1.2550 -1.5843  0.4546
 2457SOL    HW219008   1.065   3.690   3.261 -0.7570  2.1148  2.4910
 2458SOL     OW19009   3.216   0.055  15.169  0.2979 -0.0570 -0.0031
 2458SOL    HW119010   3.185   0.118  15.104  0.8551 -2.3304 -2.4634
 2458SOL    HW219011   3.263   0.106  15.235  1.3295 -1.8185  0.6338
 2459SOL     OW19012   1.803   0.441  10.265  0.3840  0.6581  0.1882
 2459SOL    HW119013   1.812   0.488  10.348  1.5168  1.9633 -0.6932
 2459SOL    HW219014   1.851   0.492  10.200  1.2308 -2.6208 -1.7564
 2460SOL     OW19015   0.749   3.322  10.876  0.5413  0.1097 -0.5239
 2460SOL    HW119016   0.681   3.309  10.942  0.6851 -2.0915 -0.8204
 2460SOL    HW219017   0.827   3.356  10.921  0.0845  2.3553 -1.4078
 2461SOL     OW19018   3.579   1.228   7.021  0.4802 -0.4246  0.1799
 2461SOL    HW119019   3.565   1.298   7.085 -0.2188 -1.5733  1.2876
 2461SOL    HW219020   3.622   1.272   6.948 -0.4936 -0.9563 -0.7051
 2462SOL     OW19021   0.341   1.708   1.590 -0.3745 -0.2589 -0.2609
 2462SOL    HW119022   0.435   1.719   1.604 -0.6181  1.0446  0.3651
 2462SOL    HW219023   0.313   1.701   1.682 -0.9766  3.9061 -0.1103
 2463SOL     OW19024   3.252   0.029   7.914 -0.2195  0.2649 -0.7037
 2463SOL    HW119025   3.313   0.002   7.982  0.7761  2.5059 -0.7095
 2463SOL    HW219026   3.263   0.124   7.906  1.9483  0.2643  2.2045
 2464SOL     OW19027   3.224   1.466   4.835 -0.3679 -0.2663 -0.8250
 2464SOL    HW119028   3.243   1.483   4.743  0.3566  1.3612 -0.3794
 2464SOL    HW219029   3.210   1.372   4.830 -1.6572 -0.0850 -0.5209
 2465SOL     OW19030   3.229   4.566   9.516 -0.0347  0.2640  0.2470
 2465SOL    HW119031   3.230   4.588   9.609 -2.6677 -1.5821  0.6977
 2465SOL    HW219032   3.248   4.472   9.520  0.1716  0.2571 -0.8702
 2466SOL     OW19033   1.073   0.495  16.829 -0.3914  0.3268  0.2569
 2466SOL    HW119034   1.022   0.571  16.803 -1.1779 -0.4215 -0.3743
 2466SOL    HW219035   1.004   0.436  16.859 -1.1844  0.6886 -0.8276
 2467SOL     OW19036   1.169   1.319   5.178  0.7323  0.2663 -0.1703
 2467SOL    HW119037   1.234   1.330   5.247 -0.5572  0.7393  0.9658
 2467SOL    HW219038   1.109   1.391   5.196 -0.1307 -0.7003  0.8645
 2468SOL     OW19039   1.443   3.875   8.035 -0.7501 -0.6710  0.3399
 2468SOL    HW119040   1.444   3.937   8.108  0.5519 -1.7629  1.2496
 2468SOL    HW219041   1.535   3.852   8.048 -0.5876  0.4252  1.0777
 2469SOL     OW19042   3.487   1.925   7.546  0.3635 -0.2131  0.3096
 2469SOL    HW119043   3.392   1.930   7.537  0.3738 -0.6627 -0.0492
 2469SOL    HW219044   3.504   2.018   7.534 -1.3527 -0.1381 -1.3503
 2470SOL     OW19045   2.281   3.508   6.508 -0.4703  0.3820  0.4531
 2470SOL    HW119046   2.315   3.486   6.422  0.8177 -1.9217  1.5493
 2470SOL    HW219047   2.338   3.579   6.536 -2.0661  2.0314 -0.4416
 2471SOL     OW19048   3.199   4.179   3.346 -0.7372 -0.1378  0.4802
 2471SOL    HW119049   3.143   4.153   3.272 -0.2894  2.4009 -0.7435
 2471SOL    HW219050   3.191   4.110   3.411 -0.0755  1.7401  2.5402
 2472SOL     OW19051   0.176   4.141   4.793 -0.0636  0.9285  0.2513
 2472SOL    HW119052   0.201   4.217   4.741  5.6670 -1.7336 -0.8306
 2472SOL    HW219053   0.178   4.067   4.732 -0.0883  0.4124  0.8784
 2473SOL     OW19054   2.842   2.981  14.562  0.0621 -0.0602  0.1226
 2473SOL    HW119055   2.877   2.952  14.477 -0.0562  0.3887 -0.0800
 2473SOL    HW219056   2.790   2.906  14.590 -0.8388  0.5864  0.1871
 2474SOL     OW19057   4.407   4.308   9.482  0.2305 -1.2810  0.0803
 2474SOL    HW119058   4.477   4.245   9.467 -2.0127 -2.6557 -4.5634
 2474SOL    HW219059   4.381   4.319   9.390 -1.8569  0.5579  0.8893
 2475SOL     OW19060   3.367   4.092  14.471  0.2205  0.0979 -0.0138
 2475SOL    HW119061   3.276   4.079  14.496  0.4849 -1.2051  0.2755
 2475SOL    HW219062   3.369   4.187  14.458 -3.0122  0.4116  1.7924
 2476SOL     OW19063   4.067   1.704   6.655  0.4737 -0.1123  0.5171
 2476SOL    HW119064   4.007   1.764   6.610  0.8828 -0.5711 -0.6460
 2476SOL    HW219065   4.126   1.766   6.698  1.3148 -0.7427  0.2811
 2477SOL     OW19066   3.808   0.597   2.060  0.2825 -0.0445 -0.5567
 2477SOL    HW119067   3.759   0.640   2.130  0.3987 -0.6308 -0.1092
 2477SOL    HW219068   3.786   0.504   2.070  1.9957 -0.2757  1.0723
 2478SOL     OW19069   3.772   2.804   5.116 -0.3931 -0.0305 -0.5432
 2478SOL    HW119070   3.863   2.832   5.104 -1.3221  1.0856 -5.3262
 2478SOL    HW219071   3.753   2.827   5.207  2.7289  0.4525 -0.0282
 2479SOL     OW19072   1.085   1.586   0.431 -0.1643  0.1294 -0.3610
 2479SOL    HW119073   1.134   1.554   0.508  1.1767  1.9689 -0.4619
 2479SOL    HW219074   1.133   1.552   0.355  0.9977  0.9521  0.0000
 2480SOL     OW19075   4.588   0.343   5.631 -0.1738  0.7718  0.4822
 2480SOL    HW119076   4.613   0.389   5.711 -1.2076 -2.3452  2.6091
 2480SOL    HW219077   4.669   0.297   5.607  0.4880  1.0742  2.1441
 2481SOL     OW19078   3.799   2.063   7.656 -0.7448 -0.2227  0.8037
 2481SOL    HW119079   3.796   1.982   7.707  0.5056 -2.3861 -2.5363
 2481SOL    HW219080   3.722   2.115   7.679 -0.2127  0.6613  0.5903
 2482SOL     OW19081   3.894   1.664   1.226 -0.5142 -0.2530 -0.2779
 2482SOL    HW119082   3.813   1.655   1.275  0.2745 -3.9512  0.3106
 2482SOL    HW219083   3.947   1.731   1.269 -0.1464 -0.5239 -0.3084
 2483SOL     OW19084   3.332   0.928   7.641  0.2122 -0.7997  0.0506
 2483SOL    HW119085   3.409   0.899   7.593 -1.1965 -0.8077 -2.1653
 2483SOL    HW219086   3.302   0.983   7.569 -0.6202 -1.3308 -0.0080
 2484SOL     OW19087   2.784   4.268   5.742 -0.3752 -0.3363 -0.0202
 2484SOL    HW119088   2.722   4.334   5.775  2.0664  1.2426  1.3926
 2484SOL    HW219089   2.792   4.294   5.651 -0.8446  1.0696  0.3227
 2485SOL     OW19090   0.330   1.263   4.756  0.0868  0.3949  0.2903
 2485SOL    HW119091   0.293   1.347   4.783  1.3910  0.2383  2.5666
 2485SOL    HW219092   0.329   1.275   4.661 -0.6837 -2.4219 -0.0368
 2486SOL     OW19093   2.728   3.695   9.655  0.3905  0.7353 -0.3802
 2486SOL    HW119094   2.725   3.605   9.623 -1.0406  0.6723 -0.0566
 2486SOL    HW219095   2.759   3.744   9.579  2.6047 -0.0078  0.0393
 2487SOL     OW19096   1.881   0.316   6.279 -0.6944 -0.6036 -0.3871
 2487SOL    HW119097   1.788   0.310   6.303 -1.2090  4.2318 -1.2980
 2487SOL    HW219098   1.911   0.245   6.337 -0.6202  0.2874  0.6665
 2488SOL     OW19099   3.649   0.741  16.656  0.0965  0.1272 -0.1730
 2488SOL    HW119100   3.718   0.801  16.626  0.6768 -0.5998 -0.2840
 2488SOL    HW219101   3.688   0.661  16.621 -1.7529 -0.8646  0.0522
 2489SOL     OW19102   0.221   0.620  14.932 -0.0760  0.2181  0.2174
 2489SOL    HW119103   0.163   0.546  14.917  0.4509 -0.1561  0.0089
 2489SOL    HW219104   0.299   0.597  14.881  0.6630 -1.2710  2.0184
 2490SOL     OW19105   2.156   2.620   0.800  0.0834 -0.0208 -0.2525
 2490SOL    HW119106   2.178   2.651   0.712  2.3909  0.3546  0.4618
 2490SOL    HW219107   2.084   2.561   0.778 -0.4012  0.7209 -0.6620
 2491SOL     OW19108   2.860   3.846   5.192 -0.2769 -0.1883  0.3732
 2491SOL    HW119109   2.885   3.898   5.115  0.8608 -1.6716 -0.2505
 2491SOL    HW219110   2.911   3.767   5.179 -0.1258 -0.2675  1.4505
 2492SOL     OW19111   0.092   0.520   4.794  0.0821 -0.0406 -0.1596
 2492SOL    HW119112   0.094   0.463   4.871 -0.6803  1.6525  1.1002
 2492SOL    HW219113   0.152   0.468   4.740 -1.3546 -0.7683 -1.0568
 2493SOL     OW19114   2.717   2.676   9.388 -0.2777 -0.5026  0.5201
 2493SOL    HW119115   2.645   2.619   9.414  1.0252 -2.6026 -0.4842
 2493SOL    HW219116   2.741   2.716   9.472 -1.7991  0.1400  0.6679
 2494SOL     OW19117   3.270   2.561   4.200  0.3749  0.1414 -0.1516
 2494SOL    HW119118   3.199   2.599   4.252 -0.8064  0.0052 -1.6701
 2494SOL    HW219119   3.332   2.635   4.201  0.2340  0.2937 -1.7877
 2495SOL     OW19120   3.585   2.691   3.090  1.0864 -0.4090 -0.0546
 2495SOL    HW119121   3.669   2.668   3.050  0.0166 -0.4374 -2.2648
 2495SOL    HW219122   3.596   2.786   3.101 -1.5172 -0.0284 -0.7577
 2496SOL     OW19123   2.585   0.380  15.175 -0.0266  0.2519 -0.4194
 2496SOL    HW119124   2.663   0.339  15.211  0.8971  0.6702 -1.9606
 2496SOL    HW219125   2.589   0.468  15.212 -0.8755 -0.3401  1.0744
 2497SOL     OW19126   3.318   3.546   1.455 -0.5596 -0.2383  0.3440
 2497SOL    HW119127   3.388   3.611   1.463 -1.6881  0.9441  0.6336
 2497SOL    HW219128   3.335   3.530   1.362 -0.2531  1.5268  0.0857
 2498SOL     OW19129   1.291   0.105   8.479 -0.0394  0.6848 -0.7099
 2498SOL    HW119130   1.356   0.076   8.415 -0.8998  0.4381 -1.4650
 2498SOL    HW219131   1.222   0.040   8.488  1.5913 -1.0990 -1.2312
 2499SOL     OW19132   2.600   2.705  13.276 -0.0171  0.1412 -0.5935
 2499SOL    HW119133   2.671   2.719  13.339  2.4990 -3.4805 -2.6448
 2499SOL    HW219134   2.610   2.794  13.241  1.8816  0.1625 -0.0250
 2500SOL     OW19135   3.429   3.211   4.942 -0.3301 -0.0980  0.0236
 2500SOL    HW119136   3.417   3.119   4.964 -3.1205  0.8599  2.5504
 2500SOL    HW219137   3.351   3.222   4.888  0.8538 -0.3501 -1.7356
 2501SOL     OW19138   3.357   3.026   0.972 -0.3705 -0.3628 -0.2501
 2501SOL    HW119139   3.377   3.120   0.975 -2.0418  0.0041 -0.3797
 2501SOL    HW219140   3.386   2.995   1.057 -1.3066 -0.1193  0.1622
 2502SOL     OW19141   1.349   2.530   4.723 -0.2772  0.1675  0.3787
 2502SOL    HW119142   1.301   2.498   4.799 -1.2119  1.4457  0.3328
 2502SOL    HW219143   1.312   2.478   4.652 -0.1375  0.4534  0.0972
 2503SOL     OW19144   0.517   2.514   4.840  0.0892 -0.2521  0.0378
 2503SOL    HW119145   0.463   2.472   4.773  2.3248  0.6117 -2.2893
 2503SOL    HW219146   0.600   2.474   4.815  0.5972 -0.5087  2.0774
 2504SOL     OW19147   0.675   1.399  17.257  0.4782  0.2669  0.1291
 2504SOL    HW119148   0.648   1.307  17.262 -1.0763  0.6933 -0.3636
 2504SOL    HW219149   0.651   1.447  17.337  2.9989 -2.9742  2.8046
 2505SOL     OW19150   0.769   0.902   3.797  0.4034 -0.0108  0.7726
 2505SOL    HW119151   0.801   0.922   3.884 -0.6585 -2.3059  1.6842
 2505SOL    HW219152   0.686   0.950   3.787  2.2313  2.4274 -2.8640
 2506SOL     OW19153   3.114   1.760  10.752  0.3419  0.4407  0.0916
 2506SOL    HW119154   3.056   1.812  10.808 -0.6864  2.6023 -2.9670
 2506SOL    HW219155   3.138   1.827  10.687  0.0179  0.0094 -0.4709
 2507SOL     OW19156   3.088   2.947  14.419  0.0768 -0.3120 -0.3772
 2507SOL    HW119157   3.078   2.906  14.505  3.0050  0.4117  0.3090
 2507SOL    HW219158   3.059   2.887  14.350 -1.9247  1.0030 -0.6919
 2508SOL     OW19159   4.122   2.173   2.169 -0.0215 -0.2669  0.4667
 2508SOL    HW119160   4.155   2.228   2.099 -2.5640 -0.9765 -1.2754
 2508SOL    HW219161   4.203   2.127   2.192  2.2730  2.4656 -2.1424
 2509SOL     OW19162   3.094   1.622   6.322 -0.2725  0.4413  0.7419
 2509SOL    HW119163   3.129   1.650   6.406  0.1311 -1.2673  1.1407
 2509SOL    HW219164   3.179   1.600   6.284 -0.7367 -0.5872  0.2829
 2510SOL     OW19165   1.607   2.029  17.679  0.3325 -0.0792 -0.1517
 2510SOL    HW119166   1.584   1.937  17.694 -0.0590  0.0244 -0.1137
 2510SOL    HW219167   1.537   2.046  17.616  0.8494  3.8092  0.3447
 2511SOL     OW19168   0.427   1.246   9.468 -0.0361 -0.3460  0.0834
 2511SOL    HW119169   0.511   1.235   9.513  1.6907  4.7585 -1.9786
 2511SOL    HW219170   0.431   1.333   9.430 -1.4555 -0.3593 -0.1255
 2512SOL     OW19171   1.432   3.018   2.056 -0.9365  0.3045  0.2089
 2512SOL    HW119172   1.347   2.984   2.087 -0.6776 -0.0291  0.5612
 2512SOL    HW219173   1.416   3.105   2.091 -0.4953  0.1806  0.7292
 2513SOL     OW19174   1.659   0.041  17.724 -0.3616 -0.1073 -0.3068
 2513SOL    HW119175   1.693   0.061  17.637 -0.8736  0.1573 -0.4444
 2513SOL    HW219176   1.637   4.689  17.704 -2.3100  0.1749  0.5753
 2514SOL     OW19177   0.414   4.253   2.797  0.0501  0.6270 -0.2405
 2514SOL    HW119178   0.406   4.345   2.822 -2.9652  0.8429 -2.0409
 2514SOL    HW219179   0.388   4.203   2.874 -0.5770 -0.5765 -1.2448
 2515SOL     OW19180   3.901   0.148   0.230  0.8152 -0.7075 -0.4658
 2515SOL    HW119181   3.936   0.134   0.142 -0.3823  2.4343 -1.4466
 2515SOL    HW219182   3.807   0.136   0.222  0.7824 -0.7671  0.0398
 2516SOL     OW19183   2.978   2.083   2.096  0.1151 -0.2244 -0.0407
 2516SOL    HW119184   3.039   2.120   2.032 -0.7986 -1.3140 -1.5646
 2516SOL    HW219185   2.979   1.988   2.084 -1.1589 -0.3985  1.2331
 2517SOL     OW19186   2.334   4.104   6.584  0.8502 -0.3683 -0.3240
 2517SOL    HW119187   2.342   4.176   6.521 -1.2193  0.3223  0.2148
 2517SOL    HW219188   2.242   4.085   6.567  0.9332 -2.1866  1.3424
 2518SOL     OW19189   4.133   1.141   7.097  0.0321 -0.5900  0.3581
 2518SOL    HW119190   4.211   1.186   7.129 -0.2588 -0.6695  1.1922
 2518SOL    HW219191   4.124   1.170   7.006 -0.4096  0.4356  0.7226
 2519SOL     OW19192   1.895   1.693   5.432  0.6925 -0.0709 -0.5637
 2519SOL    HW119193   1.882   1.736   5.347 -2.0648  0.3608  0.0696
 2519SOL    HW219194   1.985   1.717   5.451  0.5927  1.6065 -2.1778
 2520SOL     OW19195   4.557   2.176   2.119  0.0365 -0.3747  0.1219
 2520SOL    HW119196   4.513   2.109   2.171  2.0500 -1.5749  0.2608
 2520SOL    HW219197   4.518   2.146   2.037  0.3053  1.4533 -0.6792
 2521SOL     OW19198   0.540   3.364  11.033 -0.0417  0.2811 -0.4117
 2521SOL    HW119199   0.450   3.364  11.065  1.0230 -1.9934  2.5520
 2521SOL    HW219200   0.541   3.458  11.012 -3.2709  0.6524  1.1605
 2522SOL     OW19201   4.422   2.717   8.705  0.9424  0.0183  0.8112
 2522SOL    HW119202   4.333   2.710   8.670  0.6962 -0.1154  1.4612
 2522SOL    HW219203   4.411   2.682   8.793  3.0072 -1.3372  0.5247
 2523SOL     OW19204   1.798   4.179   8.096  0.0835  0.0086  0.1356
 2523SOL    HW119205   1.779   4.271   8.080 -0.6058 -0.5457 -2.1215
 2523SOL    HW219206   1.791   4.178   8.192  0.1622  0.2185  0.1445
 2524SOL     OW19207   3.074   3.528   2.423  0.1012  0.2690 -0.2592
 2524SOL    HW119208   3.116   3.490   2.346  0.2148  1.4901 -0.8005
 2524SOL    HW219209   3.008   3.466   2.454  0.4171 -1.2965 -2.7562
 2525SOL     OW19210   3.017   2.086   7.759 -0.0433  0.0360 -0.2188
 2525SOL    HW119211   3.042   2.121   7.674  1.7913 -0.0488  0.2739
 2525SOL    HW219212   3.002   2.169   7.804  2.0577 -0.0640  0.6768
 2526SOL     OW19213   2.422   3.491   2.750  0.4787 -0.0793 -0.1984
 2526SOL    HW119214   2.350   3.469   2.690  0.0425 -3.6687  1.6178
 2526SOL    HW219215   2.489   3.428   2.724 -1.4156 -1.8205 -0.9019
 2527SOL     OW19216   2.212   2.424   4.485 -0.4736  0.1985 -0.3949
 2527SOL    HW119217   2.264   2.503   4.469  0.4719 -0.7695 -1.9730
 2527SOL    HW219218   2.145   2.479   4.527 -0.2763 -0.0712  0.2647
 2528SOL     OW19219   4.071   1.628  13.646  0.0367 -0.5260  0.4599
 2528SOL    HW119220   3.976   1.612  13.648 -0.0161 -0.0563  1.6914
 2528SOL    HW219221   4.080   1.712  13.603  0.0889 -0.0365  1.4216
 2529SOL     OW19222   2.693   2.479   3.506 -0.2958 -0.0951 -0.6373
 2529SOL    HW119223   2.661   2.554   3.556  1.0248  0.0153  0.0451
 2529SOL    HW219224   2.755   2.433   3.562 -1.2992 -0.0243  0.5288
 2530SOL     OW19225   3.151   4.395   3.777 -0.6569 -0.6986  0.1941
 2530SOL    HW119226   3.118   4.349   3.700  1.7564  0.2383 -1.3937
 2530SOL    HW219227   3.080   4.376   3.838 -1.3221 -1.3875 -0.7997
 2531SOL     OW19228   0.189   1.959   4.625  0.2845  0.3165  0.3637
 2531SOL    HW119229   0.154   1.949   4.714  0.3627  0.1667  0.3784
 2531SOL    HW219230   0.109   1.940   4.575 -0.8128  2.1066  1.4221
 2532SOL     OW19231   1.714   3.739   9.915  0.1368 -0.6077  0.7091
 2532SOL    HW119232   1.769   3.663   9.895  0.2270  0.2457 -2.3112
 2532SOL    HW219233   1.777   3.790   9.965 -1.5585  2.8168 -0.6084
 2533SOL     OW19234   3.051   3.997   1.720 -0.9103  0.1818  0.0253
 2533SOL    HW119235   2.969   3.949   1.731 -0.5090  0.0221  2.3146
 2533SOL    HW219236   3.029   4.062   1.787  0.6512  1.8193 -1.0430
 2534SOL     OW19237   1.694   0.324   8.803  0.4260 -0.1211 -0.5133
 2534SOL    HW119238   1.753   0.353   8.873 -0.3427 -0.8001  0.4202
 2534SOL    HW219239   1.757   0.328   8.731 -1.6052 -0.4191 -2.3029
 2535SOL     OW19240   4.547   0.068   5.623  0.0504  0.7743 -0.0460
 2535SOL    HW119241   4.523   0.160   5.633 -1.2887  0.5126 -0.8778
 2535SOL    HW219242   4.560   0.066   5.528 -2.2630  0.7626 -0.3804
 2536SOL     OW19243   4.265   0.097  14.468 -0.0172 -0.1746 -0.1992
 2536SOL    HW119244   4.277   0.190  14.484 -1.1114  0.2491 -2.0040
 2536SOL    HW219245   4.178   0.090  14.430 -0.2297 -0.7851  0.3782
 2537SOL     OW19246   1.510   2.733   6.337 -0.3740  0.0984 -0.4711
 2537SOL    HW119247   1.485   2.824   6.350  1.4518  0.4542  0.4558
 2537SOL    HW219248   1.425   2.693   6.356  0.2931 -1.6345 -1.1128
 2538SOL     OW19249   2.473   4.374   8.480 -0.0801 -0.2548 -0.1887
 2538SOL    HW119250   2.437   4.416   8.559 -3.1271  1.2862 -2.3757
 2538SOL    HW219251   2.508   4.446   8.427  2.2068 -0.8997  0.4744
 2539SOL     OW19252   2.319   1.247  14.100  0.1596  0.4195  0.3599
 2539SOL    HW119253   2.344   1.163  14.060  1.2433  0.9373 -0.0413
 2539SOL    HW219254   2.268   1.211  14.173 -3.0303 -0.6488 -2.3703
 2540SOL     OW19255   3.023   0.356   2.887 -0.5192 -0.1462 -0.1766
 2540SOL    HW119256   2.950   0.332   2.944 -0.2689 -1.2418 -0.3148
 2540SOL    HW219257   2.996   0.441   2.853 -3.4834 -1.2117 -0.4776
 2541SOL     OW19258   1.543   1.584   6.697 -0.3301  0.4813  0.4211
 2541SOL    HW119259   1.545   1.636   6.617  3.6223 -0.8162 -0.3257
 2541SOL    HW219260   1.636   1.569   6.711 -0.1185  1.7919  0.4207
 2542SOL     OW19261   1.118   4.426   5.164  0.0919  0.2541 -0.2174
 2542SOL    HW119262   1.185   4.483   5.127  2.3377 -1.8056  0.7122
 2542SOL    HW219263   1.105   4.455   5.254 -0.4058 -1.0329  0.1130
 2543SOL     OW19264   0.100   1.308   1.141  0.1466 -0.4696  0.2328
 2543SOL    HW119265   0.168   1.270   1.086 -0.2885  1.5281 -1.6691
 2543SOL    HW219266   0.115   1.402   1.155 -0.6801 -0.0873 -1.3377
 2544SOL     OW19267   2.913   2.684   1.478 -0.0156  0.7119  0.2780
 2544SOL    HW119268   2.847   2.727   1.531  2.4318  1.9461  2.3314
 2544SOL    HW219269   2.874   2.672   1.391 -0.0762 -1.2685  0.5706
 2545SOL     OW19270   4.410   1.104   1.050  0.6647 -0.2028  0.0524
 2545SOL    HW119271   4.409   1.105   0.954 -2.2149 -1.6574  0.0643
 2545SOL    HW219272   4.459   1.182   1.073  1.2893 -1.2208  2.1004
 2546SOL     OW19273   4.301   4.545   6.904  0.2655  0.0673 -0.1773
 2546SOL    HW119274   4.245   4.496   6.843 -1.0223  0.0831  0.9768
 2546SOL    HW219275   4.279   4.497   6.985 -2.6621  3.4850  1.0617
 2547SOL     OW19276   4.716   3.632   4.237 -0.6718  0.1420  0.3539
 2547SOL    HW119277   0.036   3.568   4.195 -0.2389  0.6670  0.1514
 2547SOL    HW219278   4.629   3.592   4.233  0.2068 -1.8681  0.9966
 2548SOL     OW19279   4.314   4.399   3.855  0.4281 -0.1996 -0.0815
 2548SOL    HW119280   4.326   4.487   3.891  1.8423 -0.5723  0.3404
 2548SOL    HW219281   4.353   4.397   3.767 -1.3077 -0.1429 -0.8539
 2549SOL     OW19282   3.288   2.278  11.690 -0.2199 -0.2258  1.1660
 2549SOL    HW119283   3.266   2.239  11.774  2.0115 -0.8356  1.4840
 2549SOL    HW219284   3.207   2.326  11.677 -0.3044 -0.6882 -0.0320
 2550SOL     OW19285   0.824   2.142   6.625 -0.6244  0.1397 -0.9204
 2550SOL    HW119286   0.748   2.182   6.584 -0.6095 -0.1661 -1.2412
 2550SOL    HW219287   0.793   2.055   6.647  0.8985 -0.0928  0.3244
 2551SOL     OW19288   1.719   4.591   5.937 -0.1935  0.2934 -0.9400
 2551SOL    HW119289   1.715   4.611   5.843 -1.1373  0.2064 -0.9230
 2551SOL    HW219290   1.666   4.511   5.943  0.4824 -0.1612 -0.9749
 2552SOL     OW19291   0.216   1.503  14.717 -0.3650 -0.5923 -0.6903
 2552SOL    HW119292   0.290   1.522  14.660  1.4889 -0.6289  1.6965
 2552SOL    HW219293   0.179   1.420  14.688 -2.0585 -0.8649  2.2282
 2553SOL     OW19294   2.928   0.965   4.279  0.1044 -0.0078  0.5600
 2553SOL    HW119295   2.890   0.914   4.207  1.2291  1.5315 -1.1133
 2553SOL    HW219296   3.018   0.935   4.289  0.2244 -0.4187 -1.6981
 2554SOL     OW19297   0.195   1.515  10.543  0.2602 -0.1261 -0.1173
 2554SOL    HW119298   0.268   1.454  10.549  0.5168  0.2169  0.2596
 2554SOL    HW219299   0.148   1.476  10.617  1.8289  0.4911  1.1990
 2555SOL     OW19300   2.477   1.782  16.588 -0.2712 -0.0825 -0.4073
 2555SOL    HW119301   2.536   1.855  16.569 -0.2375  0.3772  1.4418
 2555SOL    HW219302   2.443   1.768  16.500  0.3061  1.3255 -0.8614
 2556SOL     OW19303   4.286   0.363   0.963  0.0664  0.5220  0.5665
 2556SOL    HW119304   4.266   0.456   0.962 -1.1983  0.2443 -0.7714
 2556SOL    HW219305   4.216   0.330   0.906  0.3003 -1.7660  1.5971
 2557SOL     OW19306   1.581   1.302  16.902  0.2358 -0.0839  0.2329
 2557SOL    HW119307   1.553   1.224  16.950 -2.8620 -0.0564 -1.5060
 2557SOL    HW219308   1.509   1.362  16.922 -0.4196 -0.7496 -0.1544
 2558SOL     OW19309   2.709   0.889  16.260  0.4829  0.0046 -0.7099
 2558SOL    HW119310   2.746   0.894  16.348  0.8946  1.1729 -0.9450
 2558SOL    HW219311   2.727   0.980  16.235  0.2545  0.6435  1.4481
 2559SOL     OW19312   1.492   1.866  16.485  0.0997 -0.4189  0.2969
 2559SOL    HW119313   1.427   1.834  16.548 -0.7869 -1.2282 -1.0411
 2559SOL    HW219314   1.429   1.908  16.427 -1.4870  0.1795  2.4628
 2560SOL     OW19315   1.467   4.440   5.986  0.1500 -0.4347  0.2288
 2560SOL    HW119316   1.381   4.431   6.027  0.4738  1.0617  1.2109
 2560SOL    HW219317   1.482   4.346   5.971 -0.7990 -0.7546  1.2473
 2561SOL     OW19318   0.180   0.343   7.323  0.3737  0.1413 -0.3007
 2561SOL    HW119319   0.146   0.332   7.234 -1.0687 -0.3560  0.3054
 2561SOL    HW219320   0.109   0.309   7.378  1.4867  0.0623  1.0762
 2562SOL     OW19321   4.494   1.623  17.500  0.4875 -0.0230 -0.3877
 2562SOL    HW119322   4.466   1.551  17.557 -0.7910  2.0336  1.5712
 2562SOL    HW219323   4.465   1.579  17.420 -1.0407 -0.5650  0.4623
 2563SOL     OW19324   0.477   0.872  16.971  0.2738 -0.0211 -0.1947
 2563SOL    HW119325   0.436   0.870  17.058  0.1730 -1.7134 -0.2848
 2563SOL    HW219326   0.551   0.816  16.997  0.0488  0.2388  1.0138
 2564SOL     OW19327   0.348   4.282   2.482 -0.1231 -0.3995 -0.1836
 2564SOL    HW119328   0.270   4.227   2.469 -1.1806  1.0891 -0.0563
 2564SOL    HW219329   0.353   4.274   2.577  0.7953  3.2978  0.0574
 2565SOL     OW19330   3.988   2.798   6.421  0.2513 -0.1280 -0.4358
 2565SOL    HW119331   3.994   2.747   6.502  0.8415  0.0607 -0.3607
 2565SOL    HW219332   4.067   2.783   6.369  1.0670  1.7462  0.2428
 2566SOL     OW19333   3.613   0.693   5.010 -1.1348 -0.1865  0.0010
 2566SOL    HW119334   3.634   0.706   5.102  0.4160  1.3305 -0.5595
 2566SOL    HW219335   3.530   0.740   5.001 -2.0342 -1.7374  0.2365
 2567SOL     OW19336   0.557   2.723   7.634 -0.4101  0.5388  0.2103
 2567SOL    HW119337   0.604   2.640   7.641  0.9471  1.5488  3.0275
 2567SOL    HW219338   0.627   2.779   7.666  0.0750  0.9709 -1.6190
 2568SOL     OW19339   4.353   0.393   6.668  0.0883  1.0334 -0.1453
 2568SOL    HW119340   4.430   0.367   6.719 -1.2254  3.3294  2.9796
 2568SOL    HW219341   4.378   0.473   6.622 -0.8532  0.0480 -2.3603
 2569SOL     OW19342   3.004   1.028  12.539  0.5862 -0.5259  0.3606
 2569SOL    HW119343   3.029   1.052  12.629 -0.6051  2.9595 -0.2104
 2569SOL    HW219344   3.018   1.111  12.493  0.9421 -0.6774  0.2016
 2570SOL     OW19345   2.155   0.311   4.573 -0.0203 -0.2197  0.1439
 2570SOL    HW119346   2.133   0.404   4.576  1.6350  0.1698  0.5375
 2570SOL    HW219347   2.249   0.326   4.561 -0.6226  2.2393 -1.2595
 2571SOL     OW19348   0.704   1.034   7.224 -0.1155  0.8081 -0.0562
 2571SOL    HW119349   0.742   1.121   7.213  1.6028  0.1543  0.6378
 2571SOL    HW219350   0.769   0.992   7.280 -0.2732  0.7078  0.0523
 2572SOL     OW19351   1.193   1.757  16.161  0.1176  0.4691 -0.3531
 2572SOL    HW119352   1.196   1.674  16.114  2.2428 -0.3372  1.1965
 2572SOL    HW219353   1.108   1.742  16.202  0.3751  0.6648  0.2519
 2573SOL     OW19354   2.877   3.303   4.850 -0.7701  0.7958 -0.4485
 2573SOL    HW119355   2.895   3.380   4.796  0.7137  0.9042  0.2013
 2573SOL    HW219356   2.782   3.299   4.839 -0.8388  0.9011  0.0830
 2574SOL     OW19357   1.285   3.697   7.240 -0.0811 -0.6326 -0.0686
 2574SOL    HW119358   1.339   3.760   7.286  0.7506 -1.5002  0.1395
 2574SOL    HW219359   1.349   3.643   7.195  0.6970  0.9845 -0.9079
 2575SOL     OW19360   2.261   1.238   8.560 -0.5120  0.1516 -0.2018
 2575SOL    HW119361   2.210   1.302   8.511  0.1843  0.1622 -0.9111
 2575SOL    HW219362   2.294   1.195   8.481  0.0793  0.5425 -0.1664
 2576SOL     OW19363   0.763   3.159   3.704 -0.1761 -0.1232 -0.1795
 2576SOL    HW119364   0.694   3.100   3.735  0.8186 -0.5383  1.2405
 2576SOL    HW219365   0.742   3.248   3.730  0.0431  0.5908 -2.4943
 2577SOL     OW19366   3.519   3.653   8.973 -0.5122  0.0338  0.1229
 2577SOL    HW119367   3.576   3.633   8.899 -0.1357  2.2263 -0.1640
 2577SOL    HW219368   3.508   3.748   8.968  2.4995  0.3372 -0.3376
 2578SOL     OW19369   2.647   2.200   2.967 -0.7079 -0.1844  0.1042
 2578SOL    HW119370   2.740   2.196   2.991 -0.8845  1.0437  0.9536
 2578SOL    HW219371   2.625   2.293   2.964  0.0977 -0.0060 -0.2807
 2579SOL     OW19372   0.000   1.098   5.275  0.5229  0.0173  0.2800
 2579SOL    HW119373   4.698   1.132   5.195 -2.9076 -0.8070  1.6526
 2579SOL    HW219374   0.039   1.015   5.248  0.5403  0.6049 -1.4978
 2580SOL     OW19375   1.689   2.263  14.985  0.1963  0.0987  0.4514
 2580SOL    HW119376   1.659   2.182  15.027  2.2408 -0.8785 -0.0117
 2580SOL    HW219377   1.784   2.260  14.995  0.1831  1.7471  1.0685
 2581SOL     OW19378   1.806   1.512   6.731  0.3168 -0.1774 -0.3774
 2581SOL    HW119379   1.848   1.543   6.651  1.9139  2.3265  1.4221
 2581SOL    HW219380   1.881   1.471   6.774 -0.2279  0.3949  1.1237
 2582SOL     OW19381   2.231   0.127   6.505 -0.2422  0.8573  0.1991
 2582SOL    HW119382   2.262   0.165   6.423  2.1331  0.9223  1.1045
 2582SOL    HW219383   2.301   0.168   6.556 -0.3068  0.0614  0.9319
 2583SOL     OW19384   1.286   2.278   0.615  0.0755 -0.0611  0.4767
 2583SOL    HW119385   1.210   2.331   0.639  1.0807  0.8799  1.5673
 2583SOL    HW219386   1.262   2.185   0.625  0.3510 -0.0400  1.3308
 2584SOL     OW19387   1.592   2.786  14.231  0.1277  0.3074  0.0709
 2584SOL    HW119388   1.519   2.807  14.290 -0.4017  2.5342 -1.3813
 2584SOL    HW219389   1.553   2.792  14.144  0.7575  1.2385 -0.1469
 2585SOL     OW19390   3.694   2.177  10.117 -0.8970  0.2145  0.1863
 2585SOL    HW119391   3.620   2.119  10.134 -0.6970  0.1574  0.8690
 2585SOL    HW219392   3.742   2.172  10.200  1.0088  0.1116 -0.9212
 2586SOL     OW19393   0.933   0.230  16.912 -0.0917 -0.4149  0.2704
 2586SOL    HW119394   0.960   0.274  16.993 -1.6334 -1.5301  1.3703
 2586SOL    HW219395   0.861   0.180  16.949 -2.0397  0.2803 -2.5978
 2587SOL     OW19396   2.269   1.461   2.074 -0.1387  0.0879  0.8962
 2587SOL    HW119397   2.364   1.450   2.081 -0.0094  1.3005  1.0814
 2587SOL    HW219398   2.245   1.514   2.150  1.2113 -0.6266  1.8191
 2588SOL     OW19399   2.366   0.238  15.205 -0.3288  0.3791 -0.2621
 2588SOL    HW119400   2.445   0.291  15.199  0.6734 -0.6256  3.6850
 2588SOL    HW219401   2.301   0.303  15.232  1.2044  0.9901  1.9219
 2589SOL     OW19402   0.547   2.112   6.535  0.5003 -0.4150 -0.4932
 2589SOL    HW119403   0.486   2.148   6.600 -0.0073 -0.5513 -0.8973
 2589SOL    HW219404   0.557   2.186   6.475 -0.8576  0.0483 -0.1531
 2590SOL     OW19405   1.567   3.481   5.030 -0.4266 -0.2751  0.3412
 2590SOL    HW119406   1.605   3.536   5.098 -1.4097  1.7547 -0.7557
 2590SOL    HW219407   1.638   3.417   5.030  1.2756  1.6342  1.5827
 2591SOL     OW19408   3.803   1.632   8.013  0.2101 -0.0675  0.2540
 2591SOL    HW119409   3.774   1.671   8.095 -1.3820  0.1579 -0.4191
 2591SOL    HW219410   3.748   1.556   7.993 -0.0065  0.3921 -0.8888
 2592SOL     OW19411   3.005   1.862   1.657  0.5173 -0.3208 -0.3117
 2592SOL    HW119412   3.065   1.936   1.665 -0.9113  0.6727  1.1071
 2592SOL    HW219413   2.959   1.880   1.575  0.4116  0.5963 -0.0442
 2593SOL     OW19414   1.297   1.800   3.829  0.5296 -0.1696  0.5933
 2593SOL    HW119415   1.324   1.762   3.913  4.1100 -3.0204 -1.8572
 2593SOL    HW219416   1.279   1.724   3.774  1.4272  0.9571 -1.2562
 2594SOL     OW19417   1.449   1.968   6.557  0.7261 -0.2034 -0.1358
 2594SOL    HW119418   1.416   2.051   6.593 -1.6392 -0.2479 -2.2211
 2594SOL    HW219419   1.370   1.921   6.529 -1.0971  2.1769  0.9745
 2595SOL     OW19420   2.006   0.319   1.417 -0.7149 -0.0175 -0.0607
 2595SOL    HW119421   2.090   0.344   1.456 -0.5604 -0.6341 -0.0028
 2595SOL    HW219422   1.959   0.272   1.486  2.1180 -2.0073  0.5173
 2596SOL     OW19423   2.316   3.183   4.217  0.3823 -0.4552 -1.0270
 2596SOL    HW119424   2.363   3.254   4.261 -1.0026 -0.1112 -0.0795
 2596SOL    HW219425   2.253   3.228   4.160  1.4415  1.2491 -0.8685
 2597SOL     OW19426   3.556   1.128  12.193  0.3552  0.7148 -0.4108
 2597SOL    HW119427   3.461   1.117  12.195  0.5181 -0.1829  1.9737
 2597SOL    HW219428   3.583   1.038  12.175 -0.5609  0.3981 -0.2013
 2598SOL     OW19429   3.970   2.459   1.365  0.0435 -0.1269  0.0356
 2598SOL    HW119430   3.942   2.437   1.454 -1.1948  0.4057 -0.2101
 2598SOL    HW219431   4.019   2.539   1.388 -0.0938  0.2271 -0.9202
 2599SOL     OW19432   2.338   4.141   9.303  0.0101 -0.0986  0.2920
 2599SOL    HW119433   2.332   4.143   9.399 -0.8370  0.6758  0.2207
 2599SOL    HW219434   2.326   4.047   9.287  0.8469 -0.1695  0.1073
 2600SOL     OW19435   3.068   0.596   1.902  0.1511  0.1778 -0.7858
 2600SOL    HW119436   3.058   0.572   1.994 -0.0537 -0.1288 -0.8888
 2600SOL    HW219437   3.158   0.566   1.896  0.8122  1.9649  0.0877
 2601SOL     OW19438   3.069   1.371  17.396 -0.3526 -0.6101 -0.3955
 2601SOL    HW119439   3.092   1.447  17.449 -1.2115 -0.1773 -0.6566
 2601SOL    HW219440   3.064   1.405  17.307  0.9149 -1.7127 -0.8843
 2602SOL     OW19441   0.655   2.562  11.717  0.1495  0.3520 -1.1356
 2602SOL    HW119442   0.712   2.581  11.792 -0.4119 -1.3740 -0.2743
 2602SOL    HW219443   0.716   2.526  11.653  1.2186  2.0270 -1.0728
 2603SOL     OW19444   1.376   4.272   9.759 -0.2812 -1.0312 -0.1833
 2603SOL    HW119445   1.319   4.323   9.817 -0.0923  1.1148 -1.8828
 2603SOL    HW219446   1.343   4.302   9.674 -0.9262  1.9594  1.1210
 2604SOL     OW19447   0.734   3.459   7.183 -0.5305 -0.4851  0.1151
 2604SOL    HW119448   0.735   3.554   7.196 -2.1600 -0.7960  2.7336
 2604SOL    HW219449   0.640   3.440   7.189 -0.5693  0.1590  1.5862
 2605SOL     OW19450   1.529   1.929   8.186  0.1417 -0.0659  0.4664
 2605SOL    HW119451   1.583   1.895   8.257  1.4555  0.8453 -0.1162
 2605SOL    HW219452   1.446   1.884   8.204 -0.4656  0.4033 -1.1487
 2606SOL     OW19453   0.557   3.354   6.091 -0.1471 -0.5074 -0.0873
 2606SOL    HW119454   0.647   3.326   6.074 -0.3758 -2.4015  1.8962
 2606SOL    HW219455   0.554   3.410   6.013  0.6795 -1.7286 -0.9895
 2607SOL     OW19456   4.091   1.753   1.423  0.2424 -0.2836 -0.4305
 2607SOL    HW119457   4.073   1.676   1.477 -1.4005  0.5352  0.1607
 2607SOL    HW219458   4.055   1.813   1.487  0.7502  0.0132 -0.4212
 2608SOL     OW19459   1.075   3.874   5.436  0.1879  0.1758  0.1836
 2608SOL    HW119460   0.993   3.924   5.437  1.1147  1.7629 -2.4488
 2608SOL    HW219461   1.126   3.913   5.365  0.1213  0.9351  0.5571
 2609SOL     OW19462   3.268   3.632   8.288  0.3569  0.2851 -0.7452
 2609SOL    HW119463   3.237   3.716   8.255 -2.8605 -1.1201 -1.3225
 2609SOL    HW219464   3.353   3.656   8.325  0.7032 -0.6400 -0.9457
 2610SOL     OW19465   4.660   4.208   3.742 -0.0950 -0.4385 -0.0515
 2610SOL    HW119466   4.684   4.118   3.721 -2.5318 -0.8376 -1.0683
 2610SOL    HW219467   4.693   4.220   3.831 -0.4178  2.8424 -0.3574
 2611SOL     OW19468   1.225   3.598   8.591  0.3413 -0.1788  0.1001
 2611SOL    HW119469   1.149   3.544   8.613  1.4865 -2.0761 -0.6489
 2611SOL    HW219470   1.203   3.675   8.644  0.0990 -2.3699  3.1788
 2612SOL     OW19471   2.243   2.278  15.627 -0.4255  0.1717 -0.1435
 2612SOL    HW119472   2.210   2.354  15.674  0.2100  0.8114 -0.7298
 2612SOL    HW219473   2.279   2.223  15.696  0.5823  1.1822  0.1375
 2613SOL     OW19474   4.179   2.098   0.290 -0.2284  0.7925 -0.5167
 2613SOL    HW119475   4.140   2.068   0.208 -1.5666  1.2528 -0.0477
 2613SOL    HW219476   4.174   2.194   0.288  0.7690  0.8971  2.0518
 2614SOL     OW19477   1.728   1.776  13.648 -0.1977  0.3105 -0.0413
 2614SOL    HW119478   1.724   1.687  13.683 -1.1866  0.5707  0.5032
 2614SOL    HW219479   1.800   1.785  13.585  0.7505  0.3202  1.0403
 2615SOL     OW19480   1.089   2.757  15.992 -0.0904 -0.2629  0.1642
 2615SOL    HW119481   1.137   2.798  15.920 -0.0820 -0.1299  0.2451
 2615SOL    HW219482   1.089   2.826  16.059 -1.0789 -0.7368  0.6518
 2616SOL     OW19483   2.003   3.502   6.353  0.3454 -0.4084 -0.1659
 2616SOL    HW119484   1.994   3.597   6.347 -0.5932 -0.5608 -1.1139
 2616SOL    HW219485   2.090   3.484   6.316  0.3205 -1.1197  0.1212
 2617SOL     OW19486   1.377   0.083   1.861 -0.4700 -0.2722  0.2434
 2617SOL    HW119487   1.433   0.057   1.934 -0.1789 -0.0090  0.1143
 2617SOL    HW219488   1.420   0.031   1.793 -0.7560 -0.7745  0.4459
 2618SOL     OW19489   1.388   0.972   7.450  0.3676  0.4875 -0.4782
 2618SOL    HW119490   1.474   0.939   7.474  0.2934  0.5600 -0.1223
 2618SOL    HW219491   1.399   1.055   7.496 -3.2969  1.4501 -1.3356
 2619SOL     OW19492   1.531   4.000   6.483  0.4166 -0.6892  0.5864
 2619SOL    HW119493   1.531   4.070   6.548 -0.5095  0.8044 -1.0388
 2619SOL    HW219494   1.506   3.929   6.543  1.8256  0.8369  3.0127
 2620SOL     OW19495   3.456   2.087   4.610 -0.2718  0.0777 -0.1277
 2620SOL    HW119496   3.412   2.126   4.685 -0.7925  0.3454 -0.5719
 2620SOL    HW219497   3.483   2.170   4.570 -0.9110  1.8087  3.0076
 2621SOL     OW19498   4.058   1.534   5.038 -0.1060 -0.5211  0.3119
 2621SOL    HW119499   3.983   1.491   4.997  0.2447  0.2528 -1.1393
 2621SOL    HW219500   4.062   1.478   5.115  2.5218 -0.7219  0.0371
 2622SOL     OW19501   0.628   3.812   2.595 -0.3477  0.4273 -0.1496
 2622SOL    HW119502   0.598   3.889   2.547 -1.0619 -0.1741 -0.6546
 2622SOL    HW219503   0.561   3.822   2.663 -1.7177 -1.0064 -1.2938
 2623SOL     OW19504   0.757   0.547   6.280  0.1673  0.0116 -0.1882
 2623SOL    HW119505   0.781   0.592   6.361 -2.1206 -1.1305  1.1010
 2623SOL    HW219506   0.783   0.456   6.290  0.1801 -0.2335 -2.4159
 2624SOL     OW19507   2.202   2.508   7.694 -0.0647  0.4810 -0.2222
 2624SOL    HW119508   2.178   2.430   7.645  1.9187 -0.5938  0.5263
 2624SOL    HW219509   2.279   2.528   7.641  0.1394 -0.1836 -0.1777
 2625SOL     OW19510   4.146   2.040  16.918 -0.2868 -0.2988  1.0616
 2625SOL    HW119511   4.109   2.107  16.977  1.6254 -0.4551  2.4466
 2625SOL    HW219512   4.231   2.079  16.899 -0.8269 -0.4263 -1.5231
 2626SOL     OW19513   4.615   0.293   9.272 -0.0365 -0.1313 -0.5544
 2626SOL    HW119514   4.605   0.356   9.201 -0.5021 -0.1008 -0.4605
 2626SOL    HW219515   4.575   0.339   9.345  2.6474  0.8928  0.2675
 2627SOL     OW19516   4.293   3.059  16.492 -0.0843 -0.3523 -0.1893
 2627SOL    HW119517   4.310   2.980  16.441 -0.7412 -1.8828  1.9308
 2627SOL    HW219518   4.284   3.008  16.573 -1.5298 -0.1623 -0.2339
 2628SOL     OW19519   2.340   0.138   6.176 -0.2338  0.6586 -0.3419
 2628SOL    HW119520   2.327   0.174   6.089  0.9768  1.4520 -0.1857
 2628SOL    HW219521   2.331   0.215   6.231 -1.0003  0.8759 -0.7691
 2629SOL     OW19522   2.922   1.505   2.479  0.5496 -0.0811 -0.3632
 2629SOL    HW119523   2.858   1.566   2.517  4.2352  3.5359  0.1519
 2629SOL    HW219524   2.870   1.426   2.487 -0.4478  0.5488 -0.5915
 2630SOL     OW19525   1.039   1.822   7.713 -0.0080  0.0468  0.4684
 2630SOL    HW119526   1.096   1.746   7.726 -1.1286 -0.7774  0.5614
 2630SOL    HW219527   1.073   1.892   7.769  0.0498 -0.3071  0.8774
 2631SOL     OW19528   4.669   2.668  10.477  0.7153 -0.1478  0.2118
 2631SOL    HW119529   4.707   2.717  10.550  1.4695 -0.8737  0.3144
 2631SOL    HW219530   4.657   2.732  10.408  0.0282  0.9965  1.3961
 2632SOL     OW19531   3.873   2.392   8.444 -0.3946  0.3309 -0.1878
 2632SOL    HW119532   3.957   2.431   8.471 -0.1504  0.1182 -0.6406
 2632SOL    HW219533   3.809   2.450   8.486 -0.6567 -1.2412  1.5800
 2633SOL     OW19534   1.422   3.178   4.549 -0.6121  0.0895 -0.7612
 2633SOL    HW119535   1.326   3.175   4.559 -0.5346  0.0209 -0.0603
 2633SOL    HW219536   1.458   3.090   4.541  2.5758  1.6384 -3.3516
 2634SOL     OW19537   0.869   4.708  12.870 -0.1734  0.2012  0.3196
 2634SOL    HW119538   0.957   4.674  12.857  0.0541  0.8412  0.1787
 2634SOL    HW219539   0.863   0.045  12.811 -0.0129  0.7586  1.0202
 2635SOL     OW19540   0.490   0.699   2.725  0.3511  0.0453  0.6104
 2635SOL    HW119541   0.551   0.687   2.797 -0.6610 -1.5014  1.1921
 2635SOL    HW219542   0.550   0.715   2.653  1.4035  3.3590  2.2382
 2636SOL     OW19543   4.156   0.359   9.439 -0.3733 -0.0213  0.0708
 2636SOL    HW119544   4.237   0.383   9.484  0.2257 -1.5662 -0.1853
 2636SOL    HW219545   4.172   0.272   9.403 -0.5353  1.1954 -2.8840
 2637SOL     OW19546   4.464   0.930   2.444  0.5514  0.0971 -0.1360
 2637SOL    HW119547   4.558   0.941   2.456  1.0686 -1.8324 -2.5336
 2637SOL    HW219548   4.445   1.019   2.474  2.1247 -0.5339  2.7874
 2638SOL     OW19549   2.177   4.444   5.480  0.3378  0.3965  0.8615
 2638SOL    HW119550   2.169   4.537   5.502  0.1545  0.2206  1.5487
 2638SOL    HW219551   2.135   4.407   5.558 -1.0607  0.5940  0.1997
 2639SOL     OW19552   4.112   2.110   4.980 -0.5955  0.1953 -0.0634
 2639SOL    HW119553   4.121   2.205   4.977  0.5039  0.1210  0.7280
 2639SOL    HW219554   4.082   2.104   5.070 -0.0964  2.9447  0.2584
 2640SOL     OW19555   1.404   0.091   9.318 -0.2860  0.0226  0.0660
 2640SOL    HW119556   1.425   0.181   9.290 -0.6896  0.6259  1.7309
 2640SOL    HW219557   1.356   0.109   9.398  0.5665 -2.8598  1.2205
 2641SOL     OW19558   3.585   2.727   0.630  0.3282 -0.0582  0.2317
 2641SOL    HW119559   3.592   2.631   0.634 -1.1408 -0.2091 -0.8655
 2641SOL    HW219560   3.612   2.751   0.719 -1.3441  0.4669  0.5946
 2642SOL     OW19561   1.311   3.493   3.310 -0.3037  0.0228  0.1296
 2642SOL    HW119562   1.351   3.580   3.314  1.4321 -0.7967  0.7169
 2642SOL    HW219563   1.332   3.475   3.218 -2.9086 -1.2190 -0.2171
 2643SOL     OW19564   1.209   0.979   4.719  0.2338 -0.7963 -0.1877
 2643SOL    HW119565   1.131   1.031   4.739  0.8540  0.1852 -0.3435
 2643SOL    HW219566   1.163   0.905   4.680 -0.6269 -0.4782  0.2098
 2644SOL     OW19567   4.505   3.603  15.768  0.2967  0.3646  0.5101
 2644SOL    HW119568   4.471   3.526  15.813 -0.6411  0.4374 -0.0597
 2644SOL    HW219569   4.565   3.560  15.707  1.5876  0.8340  1.4449
 2645SOL     OW19570   2.508   0.654  11.501  0.0284 -0.3742  0.3188
 2645SOL    HW119571   2.443   0.594  11.539  0.4374  1.1557  3.3904
 2645SOL    HW219572   2.508   0.635  11.407 -0.3235 -1.1481  0.4679
 2646SOL     OW19573   2.764   3.916   1.220  0.2031  0.1784  0.5339
 2646SOL    HW119574   2.693   3.980   1.209  2.2113  2.5293  1.3038
 2646SOL    HW219575   2.774   3.883   1.131 -0.5455  0.1896  0.4456
 2647SOL     OW19576   2.431   3.839   2.722  0.4225  0.0554 -0.2465
 2647SOL    HW119577   2.437   3.771   2.789 -1.7192 -0.3674 -0.4914
 2647SOL    HW219578   2.480   3.797   2.651 -0.4359  0.6360 -1.1849
 2648SOL     OW19579   1.560   2.025  11.953  0.0915 -0.5653  0.2687
 2648SOL    HW119580   1.565   1.931  11.971  0.6990 -0.8538 -1.3480
 2648SOL    HW219581   1.555   2.044  12.047 -2.3359  1.1365 -0.2046
 2649SOL     OW19582   0.809   3.957   7.307 -0.0490  0.0384 -0.1551
 2649SOL    HW119583   0.724   3.988   7.336 -0.5418 -0.0349 -1.5313
 2649SOL    HW219584   0.859   3.931   7.384  0.5826  2.1340  0.1414
 2650SOL     OW19585   2.051   2.575  16.505 -0.3046 -0.3035  0.6523
 2650SOL    HW119586   2.126   2.556  16.450  0.3220  0.8003  1.1125
 2650SOL    HW219587   2.082   2.650  16.556  0.2207  1.3766 -2.1688
 2651SOL     OW19588   3.354   2.953   5.011 -0.0540 -0.4441  0.3639
 2651SOL    HW119589   3.301   2.894   5.064 -0.8069 -1.2973 -1.3466
 2651SOL    HW219590   3.426   2.893   4.994 -0.6370 -1.3104  0.9810
 2652SOL     OW19591   0.558   3.158   6.474 -0.2486  0.7547  0.1813
 2652SOL    HW119592   0.645   3.143   6.438 -0.7286  0.4267 -0.8380
 2652SOL    HW219593   0.553   3.252   6.456 -0.3566  0.7326  0.0971
 2653SOL     OW19594   0.348   0.512   9.465  0.3297  0.1529  0.2377
 2653SOL    HW119595   0.354   0.602   9.498  0.8480 -0.6819  2.4236
 2653SOL    HW219596   0.254   0.499   9.480  0.4387  1.0696  1.7247
 2654SOL     OW19597   3.496   3.525   2.276  0.3097 -0.7420 -0.1182
 2654SOL    HW119598   3.543   3.570   2.205 -1.2625  0.9142 -0.0971
 2654SOL    HW219599   3.428   3.588   2.296 -0.8878 -2.4754  1.2616
 2655SOL     OW19600   3.801   4.382   2.313 -0.0882  0.0880 -0.6420
 2655SOL    HW119601   3.747   4.324   2.367  0.4139 -0.0123 -0.2470
 2655SOL    HW219602   3.737   4.429   2.260 -0.4217  0.2836 -0.0602
 2656SOL     OW19603   0.110   1.218   6.491 -0.2246 -0.0036 -0.3639
 2656SOL    HW119604   0.034   1.172   6.527  1.1926  0.1347  2.8103
 2656SOL    HW219605   0.059   1.265   6.425  0.9420  3.1584  0.9692
 2657SOL     OW19606   2.486   3.644   1.987 -0.4176  0.2139  0.0452
 2657SOL    HW119607   2.410   3.608   1.941 -1.5497  0.1454  1.9508
 2657SOL    HW219608   2.551   3.645   1.918 -1.9116  1.3792 -1.3447
 2658SOL     OW19609   0.107   4.505   4.515  0.2097 -0.5962 -0.3295
 2658SOL    HW119610   0.014   4.485   4.498 -0.0418  1.0928 -0.9336
 2658SOL    HW219611   0.094   4.521   4.608  1.3734 -1.8206  0.0362
 2659SOL     OW19612   1.297   3.521   5.192 -0.3662  0.6739  0.1128
 2659SOL    HW119613   1.341   3.516   5.107 -1.5044 -1.2805 -0.3474
 2659SOL    HW219614   1.206   3.517   5.163 -0.0152 -0.7494 -0.7704
 2660SOL     OW19615   1.549   2.785   4.030 -0.5605  0.5841  0.0197
 2660SOL    HW119616   1.477   2.842   4.055  1.3007  1.6525  2.9485
 2660SOL    HW219617   1.507   2.699   4.025  1.4587 -0.3153 -1.3664
 2661SOL     OW19618   0.021   2.556  12.997 -0.4659 -0.2855 -0.3600
 2661SOL    HW119619   0.081   2.521  12.931  0.4626  0.2562  0.1925
 2661SOL    HW219620   4.731   2.475  13.038  2.4636 -1.3422 -0.4255
 2662SOL     OW19621   4.688   3.215   8.276 -0.2322  0.2540 -0.3473
 2662SOL    HW119622   4.707   3.140   8.219 -0.0347 -1.6736  2.2146
 2662SOL    HW219623   4.627   3.186   8.344  0.7805  2.5356  1.4961
 2663SOL     OW19624   4.338   0.417   5.512  0.1497 -0.1786 -0.0729
 2663SOL    HW119625   4.352   0.507   5.480 -0.7754  0.9271  2.6059
 2663SOL    HW219626   4.422   0.403   5.555 -0.0169 -0.0481  0.3011
 2664SOL     OW19627   2.408   1.889   5.931 -0.0130 -0.2698 -0.5567
 2664SOL    HW119628   2.372   1.965   5.885  1.7959  1.1718  0.3919
 2664SOL    HW219629   2.372   1.824   5.872 -1.0107  0.7106 -1.0199
 2665SOL     OW19630   0.916   2.041   5.306 -0.2273  0.1219 -0.2264
 2665SOL    HW119631   0.847   1.980   5.281 -0.0459  0.5041 -1.6467
 2665SOL    HW219632   0.982   1.985   5.347 -1.1804  0.6880  2.0897
 2666SOL     OW19633   2.274   4.700   9.067  0.1491  0.1944 -0.6108
 2666SOL    HW119634   2.306   4.613   9.093 -0.1164 -0.0768 -1.1789
 2666SOL    HW219635   2.339   4.726   9.002  0.1193  0.7083 -0.4303
 2667SOL     OW19636   2.582   1.760   0.798  0.0191  0.1285 -0.3498
 2667SOL    HW119637   2.554   1.772   0.889 -1.3334 -0.3991 -0.6967
 2667SOL    HW219638   2.638   1.837   0.788  1.7974 -1.1023  0.1784
 2668SOL     OW19639   3.192   2.335   5.949 -0.8309  0.3850 -0.1837
 2668SOL    HW119640   3.105   2.345   5.911 -0.3176  0.2661 -1.4262
 2668SOL    HW219641   3.215   2.249   5.912  0.4023  0.5904  0.0961
 2669SOL     OW19642   2.966   2.616  10.919  0.3635 -0.3419  0.2203
 2669SOL    HW119643   3.031   2.587  10.982 -0.1974  0.3605  1.1290
 2669SOL    HW219644   2.908   2.667  10.976 -1.1618  0.7098 -2.2457
 2670SOL     OW19645   0.928   1.609   2.120 -0.1397 -0.4763  0.1697
 2670SOL    HW119646   0.979   1.576   2.194  1.4147 -0.4338 -0.8893
 2670SOL    HW219647   0.857   1.547   2.102  0.2027 -0.3066 -1.7493
 2671SOL     OW19648   2.920   2.045  12.939  0.0490 -0.1314  0.4185
 2671SOL    HW119649   2.981   2.052  12.866  0.6184  0.8905  0.9874
 2671SOL    HW219650   2.886   2.135  12.943  2.2185  0.6453  1.6757
 2672SOL     OW19651   0.654   4.157   6.252  0.2676 -0.0465  0.8081
 2672SOL    HW119652   0.577   4.102   6.235  1.5098 -1.1933 -1.0393
 2672SOL    HW219653   0.709   4.093   6.298  2.0302  0.7429 -0.2223
 2673SOL     OW19654   3.756   3.790   8.523  0.4960 -0.2487 -0.0360
 2673SOL    HW119655   3.802   3.713   8.558  0.8237 -0.0235  0.0339
 2673SOL    HW219656   3.829   3.848   8.503 -1.0072  0.8418 -2.2872
 2674SOL     OW19657   2.070   3.715   1.336  0.0498 -0.3967 -0.7099
 2674SOL    HW119658   2.101   3.634   1.377 -0.2560 -0.1005  0.0893
 2674SOL    HW219659   2.035   3.686   1.251 -0.4666  0.8294 -0.9036
 2675SOL     OW19660   0.061   1.181   2.374  0.0191 -0.1667  0.1459
 2675SOL    HW119661   0.034   1.089   2.369 -1.1362  0.2369 -0.9398
 2675SOL    HW219662   0.013   1.221   2.302  0.1233 -2.6041 -1.2978
 2676SOL     OW19663   1.948   2.388   1.710 -0.1130 -0.5413  0.1004
 2676SOL    HW119664   1.865   2.347   1.685  1.2747 -3.1917 -0.1718
 2676SOL    HW219665   1.918   2.477   1.731 -1.8110 -1.0416 -0.1957
 2677SOL     OW19666   0.013   1.640   5.957  0.7470  0.5536  0.4586
 2677SOL    HW119667   0.001   1.691   6.037  1.3506 -0.7939  1.3989
 2677SOL    HW219668   0.101   1.610   5.980 -0.0949 -1.4680  1.0623
 2678SOL     OW19669   3.176   3.876   8.167  0.1404 -0.0106 -0.3371
 2678SOL    HW119670   3.082   3.862   8.163  0.0846  0.1416  0.5409
 2678SOL    HW219671   3.188   3.921   8.250  3.2467 -0.9594 -0.2472
 2679SOL     OW19672   1.639   2.094   4.556 -0.5783  0.5106  0.6003
 2679SOL    HW119673   1.663   2.009   4.591  1.1513  0.3861 -0.9002
 2679SOL    HW219674   1.577   2.114   4.626 -1.6434 -1.9527  0.3689
 2680SOL     OW19675   0.326   4.521   2.905  0.2204  0.4195  0.1497
 2680SOL    HW119676   0.389   4.592   2.900  0.8826 -0.1316  0.5434
 2680SOL    HW219677   0.308   4.541   2.997 -0.1756  0.2165  0.1139
 2681SOL     OW19678   0.164   0.858   7.555  0.2619  0.1688 -0.4010
 2681SOL    HW119679   0.102   0.901   7.497 -0.8119  0.2466  0.8095
 2681SOL    HW219680   0.174   0.770   7.517 -0.4260  0.0117 -0.2246
 2682SOL     OW19681   3.133   0.023  13.452 -0.2139 -0.2359  0.2816
 2682SOL    HW119682   3.123   0.108  13.410 -0.1914 -0.0302  0.6892
 2682SOL    HW219683   3.188   0.048  13.527  2.3452  1.0761 -2.0188
 2683SOL     OW19684   0.367   0.542   7.739 -0.0575  0.2156 -0.4588
 2683SOL    HW119685   0.324   0.596   7.672  0.7101  0.8994 -0.4106
 2683SOL    HW219686   0.373   0.453   7.705  1.5385  0.3034 -0.3989
 2684SOL     OW19687   0.146   0.871   1.645 -0.2110 -0.5776 -0.0567
 2684SOL    HW119688   0.206   0.923   1.699 -1.3831  0.2867  0.4083
 2684SOL    HW219689   0.150   0.787   1.690 -2.9853 -1.6024 -1.7517
 2685SOL     OW19690   0.490   2.526   8.658  0.2959  0.2973  0.1524
 2685SOL    HW119691   0.535   2.446   8.631  0.1876  1.0490 -2.3120
 2685SOL    HW219692   0.429   2.550   8.588 -0.3633  0.3712  0.7601
 2686SOL     OW19693   4.244   0.313  14.852 -0.6526  0.0524  0.2668
 2686SOL    HW119694   4.339   0.328  14.850 -0.1554 -2.9351  1.8814
 2686SOL    HW219695   4.230   0.241  14.913  1.3132  0.7539  1.5566
 2687SOL     OW19696   2.826   3.919   1.486  0.3482  0.7363  0.5270
 2687SOL    HW119697   2.790   3.900   1.400  1.0436 -1.3743  0.7034
 2687SOL    HW219698   2.843   4.012   1.473  0.4477  0.6172 -0.2055
 2688SOL     OW19699   2.438   4.331  13.344  0.1991 -0.7615 -0.2059
 2688SOL    HW119700   2.423   4.263  13.409  1.9481 -1.5964 -0.7065
 2688SOL    HW219701   2.531   4.350  13.355 -0.3785  1.1170  1.6052
 2689SOL     OW19702   1.964   2.493   0.340 -0.0981  0.7058  0.3601
 2689SOL    HW119703   1.981   2.587   0.340  2.4888  0.2229  3.5486
 2689SOL    HW219704   1.968   2.471   0.247 -0.5168  1.2416  0.2143
 2690SOL     OW19705   2.661   1.592   1.027  0.3392  0.1666 -0.7804
 2690SOL    HW119706   2.616   1.538   0.962  1.7558 -1.8947 -0.0221
 2690SOL    HW219707   2.738   1.613   0.974  1.1824 -0.2908  0.2770
 2691SOL     OW19708   3.801   2.485   9.859  0.2023 -0.0213  0.5247
 2691SOL    HW119709   3.804   2.521   9.947 -2.1258 -0.0772  0.6148
 2691SOL    HW219710   3.713   2.505   9.826  1.5555 -0.0643 -3.1204
 2692SOL     OW19711   1.590   1.849   5.145  0.4935  0.2381  0.3757
 2692SOL    HW119712   1.610   1.879   5.056 -1.5434 -0.8863 -0.4628
 2692SOL    HW219713   1.503   1.816   5.123  0.3677  0.9600 -0.2094
 2693SOL     OW19714   2.178   3.365   8.827 -0.3822 -0.0669 -1.0158
 2693SOL    HW119715   2.158   3.440   8.771  2.4526  0.5306 -1.2464
 2693SOL    HW219716   2.095   3.352   8.873  0.4766  1.7853  1.0630
 2694SOL     OW19717   2.829   2.219   8.254  0.7715  0.2672  0.4977
 2694SOL    HW119718   2.788   2.201   8.170  2.1546 -1.5358  0.2176
 2694SOL    HW219719   2.849   2.131   8.286  0.4085  0.2279  0.6153
 2695SOL     OW19720   0.724   1.386   5.369  0.3522  0.0937  0.3427
 2695SOL    HW119721   0.680   1.441   5.433  1.6275 -0.0185  1.3391
 2695SOL    HW219722   0.666   1.409   5.297  0.1724 -0.6159  0.2600
 2696SOL     OW19723   0.305   0.348  12.361 -0.7387 -0.0812  0.1117
 2696SOL    HW119724   0.271   0.405  12.292  0.8745  1.2553  0.4168
 2696SOL    HW219725   0.394   0.328  12.333 -1.7872 -1.9780 -1.8585
 2697SOL     OW19726   3.211   3.861   4.040  0.1344 -0.6354 -0.1726
 2697SOL    HW119727   3.200   3.896   3.952 -0.2532  2.2089  1.0207
 2697SOL    HW219728   3.180   3.939   4.084  0.6716 -0.7003  0.3307
 2698SOL     OW19729   4.187   1.708   8.362 -0.1336 -0.5524 -0.5404
 2698SOL    HW119730   4.174   1.662   8.445 -1.0284 -2.3240 -1.6436
 2698SOL    HW219731   4.281   1.704   8.346 -0.2064  0.0091 -1.1163
 2699SOL     OW19732   1.347   1.554   2.106  0.3501  0.1424  0.2411
 2699SOL    HW119733   1.365   1.525   2.195  0.8935  0.0591  0.1034
 2699SOL    HW219734   1.431   1.598   2.093 -0.6138  1.3583 -1.8834
 2700SOL     OW19735   0.279   3.968   4.203 -0.3300  0.0463  0.2495
 2700SOL    HW119736   0.303   3.879   4.180  0.7125  0.1199  1.0256
 2700SOL    HW219737   0.186   3.964   4.180 -1.0169  1.8895  2.6864
 2701SOL     OW19738   4.352   3.124   6.311  0.3473  0.0889  0.6309
 2701SOL    HW119739   4.427   3.180   6.289 -1.6622  1.3711 -2.7955
 2701SOL    HW219740   4.314   3.171   6.386  0.3036 -0.5631  1.0153
 2702SOL     OW19741   3.345   3.674   4.314  0.0511 -0.0302  0.7461
 2702SOL    HW119742   3.254   3.701   4.306 -1.3274 -4.2740  2.1450
 2702SOL    HW219743   3.382   3.737   4.376 -1.0609  0.4795  0.8855
 2703SOL     OW19744   0.968   2.536   8.733  0.9113  0.3873 -0.5842
 2703SOL    HW119745   1.036   2.469   8.730  2.7682  2.1795  1.0783
 2703SOL    HW219746   1.019   2.614   8.755  0.2733  0.7510 -0.3837
 2704SOL     OW19747   0.207   4.549   6.990 -0.2961  0.4860 -0.4673
 2704SOL    HW119748   0.239   4.466   6.955  0.8897 -0.0412  1.9059
 2704SOL    HW219749   0.276   4.614   6.984  0.1987  0.0848  0.9431
 2705SOL     OW19750   2.191   4.373   5.979  0.5369 -0.8857 -0.0478
 2705SOL    HW119751   2.174   4.440   5.912 -1.7073 -1.6493 -0.2428
 2705SOL    HW219752   2.238   4.436   6.034 -0.3274  0.7583 -1.1591
 2706SOL     OW19753   1.780   3.861  13.382  0.3477 -0.4115  0.1730
 2706SOL    HW119754   1.699   3.911  13.393  0.9434  0.4948  0.3469
 2706SOL    HW219755   1.766   3.794  13.449  3.4043 -0.4093  0.7760
 2707SOL     OW19756   2.066   2.738   2.569  0.2015 -0.5943 -0.2040
 2707SOL    HW119757   2.093   2.779   2.487 -1.0225 -2.1795 -1.4000
 2707SOL    HW219758   2.157   2.729   2.600 -0.2583  0.1596  1.3431
 2708SOL     OW19759   1.677   1.550   7.463 -0.0515 -0.2312 -0.2469
 2708SOL    HW119760   1.634   1.588   7.539  2.5537  0.5746  0.8136
 2708SOL    HW219761   1.770   1.548   7.485 -0.0150  4.0679 -0.0500
 2709SOL     OW19762   3.166   3.241   8.740  0.5759  0.2617  0.3384
 2709SOL    HW119763   3.074   3.219   8.754  0.4564  0.3366 -0.3463
 2709SOL    HW219764   3.207   3.154   8.738 -1.6818 -0.8095  1.2765
 2710SOL     OW19765   4.336   1.458   4.152  0.2779 -0.6670  0.0271
 2710SOL    HW119766   4.349   1.380   4.097  1.5930 -0.9662  0.7689
 2710SOL    HW219767   4.269   1.420   4.210 -0.2692 -2.2426 -1.6319
 2711SOL     OW19768   0.071   3.979  12.327 -0.2065  0.9232 -0.0162
 2711SOL    HW119769   0.060   4.032  12.248  0.3690 -0.7849 -1.2500
 2711SOL    HW219770   0.117   4.046  12.377  1.4298 -0.2491  0.0872
 2712SOL     OW19771   3.098   3.962   0.864 -0.1660  0.0748  0.0340
 2712SOL    HW119772   3.094   4.049   0.825  0.8903  0.2597  0.3328
 2712SOL    HW219773   3.191   3.940   0.856 -0.1568  1.0089 -2.2552
 2713SOL     OW19774   4.334   1.542   2.723  0.0511 -0.1791 -0.6082
 2713SOL    HW119775   4.395   1.614   2.741  0.3498 -0.2466 -1.3493
 2713SOL    HW219776   4.281   1.571   2.649  1.1225 -1.1693 -1.7609
 2714SOL     OW19777   1.834   4.021   7.183 -0.5312  0.0878  0.1754
 2714SOL    HW119778   1.824   4.086   7.252 -2.2579 -1.2237  1.1368
 2714SOL    HW219779   1.768   4.045   7.118 -1.8231  1.1379  1.8732
 2715SOL     OW19780   1.593   2.455   2.011  0.1003  0.0575  0.7475
 2715SOL    HW119781   1.624   2.545   2.008 -0.9288  0.4231  1.1664
 2715SOL    HW219782   1.546   2.452   2.094 -1.5660 -0.7929 -0.2098
 2716SOL     OW19783   2.895   1.795   5.778 -0.5342  0.0103  0.4856
 2716SOL    HW119784   2.914   1.763   5.690 -2.8642  2.8913 -1.0506
 2716SOL    HW219785   2.817   1.845   5.756  0.5026  1.9620  1.2633
 2717SOL     OW19786   2.315   3.580   7.584 -0.4112 -0.4402 -0.2576
 2717SOL    HW119787   2.321   3.641   7.510 -3.1259 -0.8477 -0.7994
 2717SOL    HW219788   2.401   3.537   7.586  0.1220  0.6113 -0.5687
 2718SOL     OW19789   1.291   0.555   8.992 -0.3656  0.0266  0.3153
 2718SOL    HW119790   1.286   0.540   9.086 -0.1611 -0.5446  0.2358
 2718SOL    HW219791   1.245   0.480   8.956  0.6148 -1.7162  2.6731
 2719SOL     OW19792   3.569   1.716   2.496  0.4049 -0.3947  0.9494
 2719SOL    HW119793   3.621   1.796   2.500 -0.9043  0.4484  0.9315
 2719SOL    HW219794   3.536   1.708   2.406 -0.5746  0.3223  1.2451
 2720SOL     OW19795   1.754   4.332   3.237 -0.0212 -0.5819  0.2952
 2720SOL    HW119796   1.713   4.250   3.263  0.5397 -0.0852  2.7560
 2720SOL    HW219797   1.844   4.317   3.265  0.5550 -0.8613 -1.6902
 2721SOL     OW19798   0.542   0.101  14.100  0.0743 -0.4161  0.0092
 2721SOL    HW119799   0.467   0.125  14.046 -0.4297 -2.3022 -0.1107
 2721SOL    HW219800   0.556   0.008  14.083  1.3019 -0.3700  0.6942
 2722SOL     OW19801   3.059   2.210   4.884 -0.5275 -0.4597  0.4199
 2722SOL    HW119802   3.040   2.136   4.827 -2.2581 -0.2907  0.7753
 2722SOL    HW219803   3.029   2.285   4.833 -0.2488 -0.4392  0.2851
 2723SOL     OW19804   2.394   4.402   4.577 -0.0322 -0.1581  0.1560
 2723SOL    HW119805   2.307   4.417   4.613  0.0528  1.0062 -0.1495
 2723SOL    HW219806   2.416   4.493   4.558  1.0121  0.0245  2.2069
 2724SOL     OW19807   2.004   3.251  11.256  0.6556  0.1031  0.1974
 2724SOL    HW119808   1.923   3.221  11.298  1.7314 -4.9556 -1.3341
 2724SOL    HW219809   2.027   3.334  11.297 -0.0840 -0.0530  0.9455
 2725SOL     OW19810   4.417   3.410   1.103 -0.2583  0.0530 -0.1526
 2725SOL    HW119811   4.370   3.392   1.021 -0.3674 -0.4302  0.0133
 2725SOL    HW219812   4.452   3.498   1.090  1.1864 -0.6246 -0.9661
 2726SOL     OW19813   4.275   1.823   2.020 -0.0768  0.2362 -0.4083
 2726SOL    HW119814   4.302   1.797   2.108  0.8824  1.4888 -0.3491
 2726SOL    HW219815   4.188   1.785   2.005  0.1083  0.7387 -2.7153
 2727SOL     OW19816   1.501   2.188   9.263  0.1977 -0.1180 -0.7791
 2727SOL    HW119817   1.447   2.153   9.192  0.3987 -1.0150 -0.4839
 2727SOL    HW219818   1.469   2.130   9.332 -0.5865  2.5360  1.0759
 2728SOL     OW19819   2.927   1.687   5.503 -0.1430  0.5586  0.2535
 2728SOL    HW119820   2.973   1.654   5.426  1.9806  0.8224  1.4203
 2728SOL    HW219821   2.862   1.617   5.515 -1.3314  1.7279  0.7096
 2729SOL     OW19822   1.640   2.766   8.951  1.0155 -0.1869  0.4045
 2729SOL    HW119823   1.549   2.786   8.929  1.5440  0.8573 -0.9161
 2729SOL    HW219824   1.649   2.676   8.919  2.1763  0.1670 -0.2668
 2730SOL     OW19825   3.090   0.239   1.092 -0.0692  0.1250  0.7662
 2730SOL    HW119826   3.151   0.167   1.105 -0.6232 -0.0874  2.1752
 2730SOL    HW219827   3.097   0.288   1.174 -1.6284  0.1333  0.9067
 2731SOL     OW19828   0.765   1.417   1.984 -0.1383 -0.5322 -0.5859
 2731SOL    HW119829   0.796   1.406   1.894 -2.4980  1.2040 -1.6023
 2731SOL    HW219830   0.791   1.333   2.023  0.6405 -0.6319 -1.2993
 2732SOL     OW19831   3.806   1.060   1.811  0.1921 -0.2988 -0.1464
 2732SOL    HW119832   3.887   1.032   1.853  0.4119 -0.1270 -0.4538
 2732SOL    HW219833   3.780   0.987   1.754 -1.0170  1.0136 -1.2899
 2733SOL     OW19834   1.488   2.946  16.178 -0.7701  0.4181  0.3755
 2733SOL    HW119835   1.544   2.944  16.255  0.2484  0.6980 -0.3593
 2733SOL    HW219836   1.508   3.027  16.131 -0.2002  0.9202  1.4828
 2734SOL     OW19837   0.458   0.166   4.200  0.5264 -0.0014  0.6258
 2734SOL    HW119838   0.402   0.091   4.218  1.4875 -0.8687  0.0313
 2734SOL    HW219839   0.547   0.140   4.223  1.1616 -0.7594 -2.6693
 2735SOL     OW19840   1.208   3.609  11.649 -0.0771 -0.3185  0.0960
 2735SOL    HW119841   1.174   3.520  11.659 -0.3848 -0.0644  1.3173
 2735SOL    HW219842   1.152   3.662  11.705  1.1419 -0.8579  1.8187
 2736SOL     OW19843   2.371   2.003   4.708  0.1934 -0.0093  0.2083
 2736SOL    HW119844   2.444   2.031   4.653  1.7185 -3.8403  0.2600
 2736SOL    HW219845   2.338   2.084   4.748 -2.5300 -0.4863 -1.0797
 2737SOL     OW19846   0.963   1.535   4.280  0.6597 -0.3896  0.2053
 2737SOL    HW119847   1.037   1.519   4.339  0.5339  2.4808  1.1550
 2737SOL    HW219848   0.954   1.454   4.230  1.9841 -0.2429 -0.2693
 2738SOL     OW19849   0.862   0.289   6.376  0.3304  0.7930 -0.5134
 2738SOL    HW119850   0.820   0.282   6.461  0.1983  1.9665 -0.4789
 2738SOL    HW219851   0.916   0.210   6.370  0.5460  0.8520  0.6516
 2739SOL     OW19852   2.213   3.683  11.483  0.2410  0.3440 -0.6377
 2739SOL    HW119853   2.203   3.778  11.483 -0.0773  0.3116  0.1759
 2739SOL    HW219854   2.307   3.681  11.462  0.0852  1.5801 -1.4132
 2740SOL     OW19855   1.513   3.915   2.582 -0.2928  0.0486  0.0922
 2740SOL    HW119856   1.536   3.880   2.496  2.0512 -0.5746  0.9751
 2740SOL    HW219857   1.576   3.986   2.591 -3.0015  2.1475  2.4050
 2741SOL     OW19858   1.186   2.771  17.176  0.2188  0.0190  0.2579
 2741SOL    HW119859   1.125   2.718  17.228  1.5319 -0.3859  1.3923
 2741SOL    HW219860   1.151   2.759  17.087  0.4102  1.4583 -0.0098
 2742SOL     OW19861   0.049   3.894   8.454 -0.4377 -0.0714 -0.5303
 2742SOL    HW119862   0.134   3.850   8.454  0.3952  1.6180  1.5595
 2742SOL    HW219863   0.076   3.978   8.489 -0.7391  0.7331 -2.2172
 2743SOL     OW19864   2.343   1.645   0.757 -0.2721  0.0507 -0.0270
 2743SOL    HW119865   2.427   1.686   0.737 -1.6658  3.1001  0.3553
 2743SOL    HW219866   2.376   1.581   0.820  2.3811  1.9603  0.5168
 2744SOL     OW19867   4.495   1.082   6.161  0.8529  0.5184 -0.2889
 2744SOL    HW119868   4.486   1.113   6.070 -1.3897  1.6657  0.3300
 2744SOL    HW219869   4.581   1.041   6.149 -0.6807 -2.5587 -0.7973
 2745SOL     OW19870   0.849   2.543   6.413 -0.0519 -0.1954 -0.6540
 2745SOL    HW119871   0.904   2.608   6.456  2.2299 -2.9005  0.4590
 2745SOL    HW219872   0.830   2.500   6.496  2.3341 -0.9091 -0.4734
 2746SOL     OW19873   1.151   1.558   2.386  0.2255  0.2764  0.2851
 2746SOL    HW119874   1.223   1.599   2.338 -0.8324 -0.5468 -2.0203
 2746SOL    HW219875   1.113   1.621   2.447  1.7970  0.2705  1.2480
 2747SOL     OW19876   3.549   3.801   5.473  0.3532 -0.1691 -0.7900
 2747SOL    HW119877   3.629   3.755   5.498  0.0415 -0.3961 -0.2183
 2747SOL    HW219878   3.559   3.894   5.490 -1.0896 -0.2547  0.5466
 2748SOL     OW19879   3.624   3.868  12.548 -0.2982  0.0453  0.3612
 2748SOL    HW119880   3.707   3.860  12.595 -1.1531  1.1064  2.0546
 2748SOL    HW219881   3.656   3.890  12.461 -2.9739  0.7447 -0.4513
 2749SOL     OW19882   0.982   4.129  12.929 -0.2099  0.4107 -0.1269
 2749SOL    HW119883   0.991   4.047  12.977 -1.5796  1.9358  2.6870
 2749SOL    HW219884   1.010   4.092  12.845 -1.9477 -0.3336 -0.3699
 2750SOL     OW19885   2.544   4.075   2.832 -0.2184 -0.2578  0.6097
 2750SOL    HW119886   2.493   4.004   2.793 -1.2851  0.7762  0.1225
 2750SOL    HW219887   2.611   4.076   2.763 -1.4142 -0.8578 -0.5483
 2751SOL     OW19888   0.227   0.983  10.148  0.0609  0.2383  0.1377
 2751SOL    HW119889   0.179   1.067  10.149 -0.1172  0.1358  0.1676
 2751SOL    HW219890   0.164   0.937  10.203 -1.6592 -1.5960 -3.3823
 2752SOL     OW19891   0.091   1.695   8.802 -0.7617  0.4437  0.2183
 2752SOL    HW119892   0.103   1.744   8.721 -0.7228 -1.3767 -0.8712
 2752SOL    HW219893   0.035   1.624   8.771 -0.3395  1.4033 -2.6771
 2753SOL     OW19894   1.212   0.352  12.013 -0.1664 -0.0629  0.0249
 2753SOL    HW119895   1.228   0.446  12.021 -1.1008 -0.2723  4.3646
 2753SOL    HW219896   1.121   0.343  12.040  0.3042 -2.1409  0.9093
 2754SOL     OW19897   0.191   1.699   6.429  0.4244  0.0273  0.5215
 2754SOL    HW119898   0.265   1.740   6.475  0.5686  1.2750 -0.8596
 2754SOL    HW219899   0.152   1.665   6.510 -0.0586 -0.8690 -0.0900
 2755SOL     OW19900   1.710   1.524   2.677  0.2274 -0.4820  0.5066
 2755SOL    HW119901   1.749   1.610   2.661  2.9584 -1.8281 -0.0276
 2755SOL    HW219902   1.636   1.555   2.730 -0.2981  0.9542 -1.0881
 2756SOL     OW19903   2.797   0.292  15.351 -0.0920  0.2788  0.3713
 2756SOL    HW119904   2.877   0.342  15.338  0.1204  0.3436  2.0033
 2756SOL    HW219905   2.827   0.242  15.427  0.7548 -0.2571 -0.3228
 2757SOL     OW19906   0.272   0.974  13.701 -0.0126  1.1612  0.1882
 2757SOL    HW119907   0.192   0.992  13.652 -0.7223 -0.2233  0.8252
 2757SOL    HW219908   0.243   0.926  13.779  1.3017 -0.4866 -0.3368
 2758SOL     OW19909   4.606   3.354   2.976 -0.0334  0.1517 -0.2745
 2758SOL    HW119910   4.665   3.325   3.045  0.3525  3.1094  0.6154
 2758SOL    HW219911   4.558   3.417   3.029  0.2094 -1.7214  2.1411
 2759SOL     OW19912   3.022   2.016   7.078  0.3275 -0.0657 -0.1422
 2759SOL    HW119913   3.002   2.108   7.060  0.4169 -0.2715 -1.2851
 2759SOL    HW219914   3.001   1.977   6.994  0.2384  0.0158 -0.1573
 2760SOL     OW19915   4.382   1.106  15.896  0.1462 -0.0661  0.2389
 2760SOL    HW119916   4.335   1.037  15.849 -0.7946  1.0468 -0.4499
 2760SOL    HW219917   4.305   1.150  15.933  0.1663  0.3414 -0.2051
 2761SOL     OW19918   0.668   3.050  13.287 -0.0005 -0.0540 -0.5780
 2761SOL    HW119919   0.702   3.130  13.247  2.6221 -0.6364  0.4906
 2761SOL    HW219920   0.670   3.077  13.379 -0.3745  0.1208 -0.6215
 2762SOL     OW19921   1.610   1.931   8.478  0.1566  0.0693 -0.1809
 2762SOL    HW119922   1.673   1.883   8.533  0.4778  0.9413  0.2134
 2762SOL    HW219923   1.539   1.866   8.482  1.4317 -1.2542  1.1110
 2763SOL     OW19924   0.053   3.269   3.156 -0.3450  0.2763  0.1783
 2763SOL    HW119925   0.095   3.316   3.228 -1.5891 -0.4469  1.3683
 2763SOL    HW219926   0.096   3.185   3.170  0.0445  0.0633 -2.2960
 2764SOL     OW19927   1.771   3.049   3.644  0.3577 -0.1219  0.1694
 2764SOL    HW119928   1.718   3.126   3.668  0.4024  0.4664 -1.6138
 2764SOL    HW219929   1.846   3.089   3.600  0.5918 -1.5492 -0.7034
 2765SOL     OW19930   3.482   1.587  16.218 -0.4364 -0.8458 -0.0586
 2765SOL    HW119931   3.412   1.639  16.181 -0.5851 -1.2719 -0.3791
 2765SOL    HW219932   3.519   1.552  16.137 -2.2558  0.3563 -1.3779
 2766SOL     OW19933   0.110   2.450   5.109 -0.0762 -0.1380  0.4326
 2766SOL    HW119934   0.116   2.497   5.026 -1.7250 -1.5275 -0.4646
 2766SOL    HW219935   0.175   2.491   5.166  0.1785 -0.1901  0.1827
 2767SOL     OW19936   3.898   1.038  14.147  0.0254  0.3633  0.5440
 2767SOL    HW119937   3.856   1.009  14.228  0.1672 -1.0262  0.1204
 2767SOL    HW219938   3.971   1.088  14.184  0.2214  0.6179 -0.1931
 2768SOL     OW19939   3.892   4.090   2.119  0.0691 -0.2908  0.1953
 2768SOL    HW119940   3.800   4.093   2.147 -0.8318  0.0355 -2.7976
 2768SOL    HW219941   3.914   4.180   2.097 -1.9390 -0.2806 -1.7740
 2769SOL     OW19942   0.172   0.073   9.587  0.1079 -0.6568 -0.6317
 2769SOL    HW119943   0.138   4.730   9.552  1.2678 -1.1375 -0.6354
 2769SOL    HW219944   0.245   0.041   9.640  1.1981  2.0220 -0.4792
 2770SOL     OW19945   1.416   1.079   8.790  0.0319  0.1289 -0.1225
 2770SOL    HW119946   1.411   0.992   8.828 -3.7459  0.5485  0.3391
 2770SOL    HW219947   1.383   1.125   8.867 -2.0765  0.9140 -1.4877
 2771SOL     OW19948   1.707   2.070   1.504  0.5402 -0.1329  0.3559
 2771SOL    HW119949   1.797   2.069   1.471 -0.3413  1.6466 -2.0757
 2771SOL    HW219950   1.710   2.143   1.566 -1.0210  1.0502 -0.9516
 2772SOL     OW19951   1.792   1.363   4.104 -0.5428 -0.3992 -0.1358
 2772SOL    HW119952   1.813   1.456   4.115 -0.6906 -0.2759 -0.8981
 2772SOL    HW219953   1.869   1.327   4.149 -0.0428  1.2004  0.2689
 2773SOL     OW19954   3.112   0.566   5.514  0.1876  0.1687 -0.1641
 2773SOL    HW119955   3.075   0.550   5.428 -1.1279 -2.4345  0.8831
 2773SOL    HW219956   3.206   0.578   5.496 -0.1054  1.0542 -1.0951
 2774SOL     OW19957   4.525   4.717  11.864  0.4327  0.2429  0.3410
 2774SOL    HW119958   4.482   0.051  11.910  0.8156 -0.3229  1.5669
 2774SOL    HW219959   4.613   4.715  11.902  0.3623 -1.7858  0.4052
 2775SOL     OW19960   3.205   0.600   3.310  0.8019 -0.5727  0.6147
 2775SOL    HW119961   3.209   0.504   3.310 -2.4678 -0.7068 -1.7178
 2775SOL    HW219962   3.245   0.625   3.227 -0.9982  1.4023  0.3312
 2776SOL     OW19963   0.117   1.688   7.284 -0.3200 -0.3201 -0.0802
 2776SOL    HW119964   0.065   1.609   7.289  1.8198 -1.6501  1.2922
 2776SOL    HW219965   0.072   1.741   7.350  1.4887  0.1738  0.7722
 2777SOL     OW19966   3.554   1.630  10.046  0.5353  0.0805 -0.1969
 2777SOL    HW119967   3.535   1.704   9.989  1.1242  1.5091  1.4575
 2777SOL    HW219968   3.475   1.580  10.026  1.7363 -2.8673  2.4254
 2778SOL     OW19969   4.095   1.901  13.581 -0.4004  0.2251  0.2920
 2778SOL    HW119970   4.036   1.958  13.630  0.1149 -0.8353  2.1691
 2778SOL    HW219971   4.159   1.958  13.539 -0.1566 -1.0372 -1.0541
 2779SOL     OW19972   1.218   3.188   8.172  0.1761  0.3432  0.8107
 2779SOL    HW119973   1.193   3.275   8.142  0.3336 -0.2819 -1.1160
 2779SOL    HW219974   1.222   3.203   8.266  1.5621  2.3545  0.4284
 2780SOL     OW19975   1.488   4.470   6.323  0.0698 -0.3561 -0.0804
 2780SOL    HW119976   1.573   4.455   6.281  0.8581  1.6717  0.8011
 2780SOL    HW219977   1.451   4.383   6.338  1.2577 -0.5152  1.8528
 2781SOL     OW19978   1.550   1.028   6.753 -0.3868  0.4336  0.0861
 2781SOL    HW119979   1.490   1.100   6.770 -0.0515  0.9348 -0.8919
 2781SOL    HW219980   1.598   1.062   6.678 -2.5649  0.9522 -1.0902
 2782SOL     OW19981   1.043   1.572  14.558 -0.1214  1.2379  0.2146
 2782SOL    HW119982   1.027   1.572  14.464  1.6242  2.6174 -0.0956
 2782SOL    HW219983   1.138   1.583  14.559 -0.0042  0.3066 -0.7585
 2783SOL     OW19984   3.934   4.561   2.901 -0.8145  0.2826 -0.7268
 2783SOL    HW119985   4.016   4.550   2.852  0.8809  3.2152  1.3866
 2783SOL    HW219986   3.944   4.490   2.965 -0.5444  1.6805  0.7946
 2784SOL     OW19987   1.095   3.640   1.744  0.2347 -0.5051 -0.0933
 2784SOL    HW119988   1.011   3.607   1.710 -0.6434  2.5028 -0.8561
 2784SOL    HW219989   1.068   3.701   1.813  2.4504  1.6417 -1.1691
 2785SOL     OW19990   4.214   0.656   6.926  0.0911  0.5119 -0.2374
 2785SOL    HW119991   4.143   0.705   6.968 -0.4291 -0.0386 -0.4748
 2785SOL    HW219992   4.275   0.730   6.923 -1.8216  2.0727 -1.0475
 2786SOL     OW19993   4.394   3.896   2.358 -0.1959 -0.3399  0.1945
 2786SOL    HW119994   4.387   3.857   2.271  0.4639 -0.5394  0.2274
 2786SOL    HW219995   4.350   3.828   2.408 -0.3355  0.9976  1.9074
 2787SOL     OW19996   4.566   2.166   7.522  0.5577 -0.1843  0.5492
 2787SOL    HW119997   4.567   2.198   7.432  0.4258 -0.7569  0.3468
 2787SOL    HW219998   4.621   2.088   7.524  0.3423 -0.3724 -0.5540
 2788SOL     OW19999   1.058   3.865   8.436 -0.1934 -0.1810  0.2750
 2788SOL    HW120000   0.972   3.901   8.414 -1.3526 -2.3697  1.2246
 2788SOL    HW220001   1.049   3.853   8.531 -0.0314  1.8180  0.5471
 2789SOL     OW20002   3.822   0.671  14.668  0.0942  0.2804 -0.0626
 2789SOL    HW120003   3.867   0.587  14.656 -4.2177 -2.2397  1.0633
 2789SOL    HW220004   3.742   0.647  14.714  2.0408 -0.8156  2.7461
 2790SOL     OW20005   3.751   3.137   4.503  0.3234  0.6760  0.2405
 2790SOL    HW120006   3.744   3.057   4.450  2.1934 -0.8562  2.2911
 2790SOL    HW220007   3.677   3.193   4.482 -0.7461 -1.1190 -0.7645
 2791SOL     OW20008   0.905   1.018   6.814 -0.1494 -0.2769 -0.0425
 2791SOL    HW120009   0.950   1.059   6.888 -2.3676 -1.1617  1.8013
 2791SOL    HW220010   0.985   1.011   6.761 -0.1961 -0.3494 -0.1038
 2792SOL     OW20011   3.335   1.590  17.338  0.6734 -0.1539  0.3045
 2792SOL    HW120012   3.293   1.577  17.424  2.1722 -1.5127  0.8308
 2792SOL    HW220013   3.279   1.556  17.269 -0.4665  0.7709  0.7626
 2793SOL     OW20014   2.213   2.283   2.324  0.6749  0.5465 -0.3863
 2793SOL    HW120015   2.208   2.326   2.239  1.1588  0.7195 -0.3298
 2793SOL    HW220016   2.267   2.205   2.307  2.5041  1.9286 -0.8948
 2794SOL     OW20017   4.155   3.192   7.204 -0.1671 -0.8198 -0.2087
 2794SOL    HW120018   4.061   3.194   7.225 -0.4835 -0.0707 -1.7059
 2794SOL    HW220019   4.166   3.275   7.158 -0.4145 -0.6001  0.1321
 2795SOL     OW20020   2.813   0.751   3.501 -0.5733 -0.2675 -0.3797
 2795SOL    HW120021   2.832   0.838   3.536 -1.4555 -0.0946 -0.3397
 2795SOL    HW220022   2.824   0.688   3.573  1.6660  2.1276  1.3597
 2796SOL     OW20023   4.242   2.710   4.859 -0.3479 -0.2313  1.0886
 2796SOL    HW120024   4.282   2.649   4.797 -0.0578  1.2550 -0.2075
 2796SOL    HW220025   4.312   2.738   4.919 -0.0976  2.3915 -0.4363
 2797SOL     OW20026   1.976   1.420   5.381 -0.3004  0.1898 -0.2030
 2797SOL    HW120027   1.977   1.464   5.296  1.6879 -0.1187 -0.3371
 2797SOL    HW220028   1.976   1.499   5.436  1.4643 -0.4244  0.6936
 2798SOL     OW20029   3.251   0.924   4.230  0.1955  0.1527 -0.0907
 2798SOL    HW120030   3.330   0.924   4.176  0.3568  0.4353  0.1395
 2798SOL    HW220031   3.198   0.859   4.184  1.1405 -0.6148 -0.0883
 2799SOL     OW20032   3.892   4.573   8.362  0.7025  0.1321 -0.0366
 2799SOL    HW120033   3.980   4.599   8.388  0.1080  2.6125 -0.4756
 2799SOL    HW220034   3.839   4.606   8.435 -2.1474 -1.0240 -1.5640
 2800SOL     OW20035   2.020   1.376   2.033 -0.5839  0.2360  1.2237
 2800SOL    HW120036   2.009   1.402   1.942  0.6231  0.9352  1.2658
 2800SOL    HW220037   2.116   1.385   2.037 -0.4300 -1.5293  1.2707
 2801SOL     OW20038   0.792   0.767   5.954 -0.1474  0.3089  0.0917
 2801SOL    HW120039   0.698   0.757   5.964 -0.3223  1.1193 -0.8506
 2801SOL    HW220040   0.801   0.765   5.859  0.8805  0.4406  0.1847
 2802SOL     OW20041   2.814   4.041   4.605  0.1953  0.3359 -0.0228
 2802SOL    HW120042   2.750   4.063   4.674  0.6322  0.4253  0.3545
 2802SOL    HW220043   2.866   3.974   4.649 -2.1566 -2.2004 -1.1037
 2803SOL     OW20044   0.325   3.057  10.205  0.1446 -0.1577  0.1501
 2803SOL    HW120045   0.279   3.139  10.223 -1.7123 -1.0142 -0.6878
 2803SOL    HW220046   0.275   2.984  10.242 -1.1338  1.3390  1.3427
 2804SOL     OW20047   0.562   1.451   5.147  0.2484  0.3284 -0.0401
 2804SOL    HW120048   0.604   1.537   5.145 -1.2147  1.0907  2.0172
 2804SOL    HW220049   0.469   1.472   5.156 -0.0795 -0.4354 -1.5920
 2805SOL     OW20050   1.190   2.246   0.106  0.2754 -0.5545 -0.4866
 2805SOL    HW120051   1.251   2.318   0.120  2.6359 -2.8043  0.9536
 2805SOL    HW220052   1.104   2.287   0.115  1.2830  1.2311  0.8733
 2806SOL     OW20053   3.547   1.230   7.733  0.0948 -0.0644 -0.1488
 2806SOL    HW120054   3.498   1.167   7.785 -2.4352  1.2579 -0.9084
 2806SOL    HW220055   3.477   1.261   7.675 -0.2053  0.4480  0.4912
 2807SOL     OW20056   3.925   3.595   7.229  0.5225 -0.0928  0.2347
 2807SOL    HW120057   3.869   3.612   7.304 -1.7177 -1.8938 -1.0395
 2807SOL    HW220058   3.928   3.675   7.176 -0.2196 -0.2949 -0.1115
 2808SOL     OW20059   4.677   4.390   2.817  0.1012  0.1978 -0.1214
 2808SOL    HW120060   4.730   4.449   2.763  0.0138  0.5924  0.2250
 2808SOL    HW220061   4.690   4.433   2.902 -0.1259  1.9056 -0.9528
 2809SOL     OW20062   0.246   3.790   1.683 -0.0699  0.2710  0.3597
 2809SOL    HW120063   0.188   3.864   1.704  2.4487  2.5327 -0.6418
 2809SOL    HW220064   0.185   3.727   1.644  1.0677 -0.1423 -0.7559
 2810SOL     OW20065   1.016   0.290   9.258 -0.4998  0.1105 -0.6844
 2810SOL    HW120066   1.035   0.229   9.188  1.7654  1.3494 -1.1414
 2810SOL    HW220067   0.920   0.291   9.261 -0.4025  1.0097  2.4572
 2811SOL     OW20068   3.109   1.382   8.112 -0.1611  0.1155  0.2428
 2811SOL    HW120069   3.158   1.383   8.194  1.1264 -0.9146 -0.5240
 2811SOL    HW220070   3.052   1.306   8.126 -1.2479  0.6721 -1.2383
 2812SOL     OW20071   4.060   0.097   2.593  0.0648 -0.2284 -0.4987
 2812SOL    HW120072   3.995   0.135   2.651  0.0006  0.0348 -0.7447
 2812SOL    HW220073   4.133   0.063   2.644 -0.7507  1.3805  1.7528
 2813SOL     OW20074   3.142   1.527   0.486  0.2239  0.0337  0.0364
 2813SOL    HW120075   3.047   1.519   0.482  0.1532  1.7998 -2.0094
 2813SOL    HW220076   3.161   1.600   0.544 -1.8296 -0.3459  1.1581
 2814SOL     OW20077   3.454   3.128   7.945 -0.4775  0.4369 -0.4123
 2814SOL    HW120078   3.540   3.170   7.955  0.2530 -1.4425  1.2472
 2814SOL    HW220079   3.413   3.143   8.030  0.9689  0.5743  0.2721
 2815SOL     OW20080   2.676   4.249  10.752  0.3517 -0.1759 -0.1001
 2815SOL    HW120081   2.719   4.275  10.833  1.6139 -2.1936 -0.1084
 2815SOL    HW220082   2.583   4.257  10.772  0.4027 -1.3415  0.6500
 2816SOL     OW20083   3.921   3.949   2.593 -0.0146  0.1007 -0.2366
 2816SOL    HW120084   3.980   4.025   2.596  0.7350 -0.5175  0.7022
 2816SOL    HW220085   3.906   3.938   2.499 -0.9835  1.0080 -0.1892
 2817SOL     OW20086   0.968   3.012   7.351 -0.7658  0.0628  0.3005
 2817SOL    HW120087   0.920   3.093   7.331  0.3406  0.5627 -0.3600
 2817SOL    HW220088   1.056   3.049   7.350 -1.9074  2.7298 -4.1745
 2818SOL     OW20089   1.913   3.031  15.072 -0.0747 -0.0750 -0.5600
 2818SOL    HW120090   1.909   3.102  15.007 -2.2407 -0.3631 -0.7355
 2818SOL    HW220091   1.928   2.959  15.011 -0.8216  0.2747 -1.1642
 2819SOL     OW20092   4.314   3.055   1.907  0.2457  0.1346 -0.5210
 2819SOL    HW120093   4.339   2.969   1.942 -0.8189 -0.1754 -0.5282
 2819SOL    HW220094   4.263   3.031   1.830 -1.0569 -0.9538  0.6637
 2820SOL     OW20095   2.304   4.190   2.345  0.6319  0.1928  0.4773
 2820SOL    HW120096   2.343   4.146   2.422 -1.2408  1.0336  1.8939
 2820SOL    HW220097   2.274   4.278   2.366 -0.3292  0.2117 -1.0102
 2821SOL     OW20098   3.955   0.818  11.646  0.0267  0.3104 -0.0435
 2821SOL    HW120099   3.896   0.745  11.666  0.9902 -0.6246 -0.6369
 2821SOL    HW220100   4.006   0.769  11.582 -1.0468 -1.6257  0.5851
 2822SOL     OW20101   3.423   4.730   6.561 -0.2977  0.2590  0.0277
 2822SOL    HW120102   3.478   0.016   6.635  2.3716 -3.7934 -0.5985
 2822SOL    HW220103   3.486   4.687   6.503 -1.4754 -0.6400 -0.5984
 2823SOL     OW20104   4.051   4.359  16.815  0.2584 -0.3766 -0.6686
 2823SOL    HW120105   4.008   4.440  16.842  1.4686  0.3362 -0.8535
 2823SOL    HW220106   4.005   4.286  16.857 -2.2204  1.1878 -0.6904
 2824SOL     OW20107   2.505   4.698   6.711 -0.0663  0.8868  0.1083
 2824SOL    HW120108   2.527   4.656   6.628 -1.6041 -0.6474  0.4837
 2824SOL    HW220109   2.463   4.625   6.756 -1.2696  0.6996 -1.3135
 2825SOL     OW20110   3.966   0.041   5.627 -0.1099  0.4099  0.2393
 2825SOL    HW120111   4.021   4.703   5.608 -0.0673  0.3263  0.6835
 2825SOL    HW220112   4.013   0.118   5.596 -1.5360  0.5264 -1.5712
 2826SOL     OW20113   0.201   3.077   7.675 -0.2517  0.5347 -0.6379
 2826SOL    HW120114   0.243   3.158   7.704  0.1225 -1.0364  3.2428
 2826SOL    HW220115   0.109   3.104   7.677 -0.9728 -1.9792 -0.4144
 2827SOL     OW20116   3.686   3.623  12.400  0.1766  0.3472 -0.3075
 2827SOL    HW120117   3.725   3.601  12.485 -1.4310 -2.7422 -0.3754
 2827SOL    HW220118   3.690   3.718  12.411 -2.7529  0.3374  0.7522
 2828SOL     OW20119   1.813   3.155   3.302  0.3232  0.4279 -0.2352
 2828SOL    HW120120   1.762   3.219   3.252 -0.5816  0.6343  0.9551
 2828SOL    HW220121   1.830   3.219   3.372 -0.6478  1.5963 -1.0623
 2829SOL     OW20122   1.208   4.283   2.978  0.2389  0.3167  0.0984
 2829SOL    HW120123   1.179   4.350   2.916 -0.4151  0.1497  0.2197
 2829SOL    HW220124   1.293   4.319   3.004  0.4952  0.2238 -0.6290
 2830SOL     OW20125   3.741   2.352  16.131  0.0577 -0.4307 -0.3145
 2830SOL    HW120126   3.705   2.321  16.213  2.5216 -0.9695  0.5656
 2830SOL    HW220127   3.755   2.271  16.083 -0.7558 -0.1727 -0.9818
 2831SOL     OW20128   1.944   3.479   8.525 -0.4984  0.3604  0.0722
 2831SOL    HW120129   1.941   3.388   8.555 -2.0101  1.1512  2.3208
 2831SOL    HW220130   1.893   3.480   8.444 -0.3435  0.5081 -0.0240
 2832SOL     OW20131   0.468   0.143   5.083  0.2783  0.5586 -0.0141
 2832SOL    HW120132   0.416   0.160   5.005 -1.3926  3.2073  1.6594
 2832SOL    HW220133   0.396   0.139   5.147 -0.1199 -1.4044 -0.5975
 2833SOL     OW20134   2.189   4.527   8.269  0.5308  0.0935  0.3350
 2833SOL    HW120135   2.229   4.442   8.249 -1.9517 -0.5082 -1.9385
 2833SOL    HW220136   2.142   4.511   8.351 -1.1783  1.2595 -0.4264
 2834SOL     OW20137   1.015   1.139  17.116  0.0159 -0.2504  0.3903
 2834SOL    HW120138   0.932   1.183  17.100 -0.1250  0.5284  3.2175
 2834SOL    HW220139   1.076   1.209  17.091 -1.1070  0.0896 -1.4050
 2835SOL     OW20140   3.347   1.018   6.693  0.0291  0.4992  0.0443
 2835SOL    HW120141   3.263   1.024   6.648 -0.4868  2.3092  1.2212
 2835SOL    HW220142   3.401   1.057   6.625 -0.2023 -1.0638 -1.0439
 2836SOL     OW20143   2.650   1.354   3.768 -0.3038 -0.0024  0.0326
 2836SOL    HW120144   2.716   1.296   3.805 -2.9850 -0.9925  3.2207
 2836SOL    HW220145   2.594   1.370   3.843 -0.3089  1.7479 -0.3368
 2837SOL     OW20146   1.303   1.751   9.193  0.0853 -0.6388 -0.2314
 2837SOL    HW120147   1.224   1.710   9.157 -0.1469 -0.7050  0.3540
 2837SOL    HW220148   1.296   1.747   9.288  4.0938  1.9033  0.1795
 2838SOL     OW20149   0.010   4.421   8.354  0.0733 -0.0461  0.2608
 2838SOL    HW120150   4.706   4.505   8.341  1.0835  0.6958  1.8275
 2838SOL    HW220151   0.052   4.429   8.439  0.6323 -1.9272  0.1697
 2839SOL     OW20152   4.485   0.049   9.455 -0.3100 -0.0739 -0.1546
 2839SOL    HW120153   4.394   0.079   9.456 -0.8931 -1.8285 -0.4729
 2839SOL    HW220154   4.525   0.136   9.451  0.3452 -0.3778 -0.1098
 2840SOL     OW20155   1.907   1.946   3.638  0.0820 -0.3462 -0.2151
 2840SOL    HW120156   1.921   2.014   3.572  0.5078 -1.0848 -0.8945
 2840SOL    HW220157   1.989   1.897   3.646  0.0140 -0.3566  0.3641
 2841SOL     OW20158   3.008   1.678   4.603  0.0741  0.8311  0.2613
 2841SOL    HW120159   2.969   1.591   4.608 -1.2605  1.3655 -0.9335
 2841SOL    HW220160   3.094   1.665   4.562  0.5339  0.9410  1.1780
 2842SOL     OW20161   2.338   4.639  10.923 -0.5188  0.4630  0.5954
 2842SOL    HW120162   2.273   4.590  10.972 -0.6839  0.3427  0.2579
 2842SOL    HW220163   2.371   4.583  10.853 -1.6547  0.8768 -0.2729
 2843SOL     OW20164   2.207   4.291   6.945  0.2889  0.4112 -0.2546
 2843SOL    HW120165   2.189   4.260   7.034  1.8776 -2.2071 -0.8620
 2843SOL    HW220166   2.258   4.218   6.912 -0.9019 -0.3373 -0.4234
 2844SOL     OW20167   1.423   1.505   1.247 -0.3142  0.0239 -0.3255
 2844SOL    HW120168   1.339   1.535   1.212  0.1367  0.3242 -1.1543
 2844SOL    HW220169   1.386   1.456   1.320  3.9904 -0.9966  1.1486
 2845SOL     OW20170   0.295   2.981  12.378  0.6596  0.4470 -0.0470
 2845SOL    HW120171   0.275   3.072  12.396 -4.6971 -0.6358 -0.4899
 2845SOL    HW220172   0.379   2.970  12.332  0.8548 -0.3251  0.4789
 2846SOL     OW20173   0.390   0.730   0.169  0.8432  0.0582  0.2930
 2846SOL    HW120174   0.470   0.690   0.201  0.7734 -1.0266 -0.9206
 2846SOL    HW220175   0.405   0.761   0.080 -0.2725  1.5495  0.6050
 2847SOL     OW20176   2.386   0.231   2.591  0.1896 -0.3775 -0.3915
 2847SOL    HW120177   2.351   0.288   2.659 -1.1373 -3.6934  1.6963
 2847SOL    HW220178   2.429   0.165   2.645  3.7998 -0.0530 -2.8668
 2848SOL     OW20179   0.583   3.446  17.504 -0.3160 -0.3137  0.0519
 2848SOL    HW120180   0.524   3.509  17.544 -0.5436 -1.1497  1.0416
 2848SOL    HW220181   0.634   3.507  17.451  1.3342 -1.0748  0.7385
 2849SOL     OW20182   1.864   1.616   4.160  0.3037  0.1995  0.0696
 2849SOL    HW120183   1.793   1.677   4.180 -0.1498 -0.6443  1.0195
 2849SOL    HW220184   1.939   1.676   4.158 -1.4371  2.4065  1.3383
 2850SOL     OW20185   2.776   2.549   7.601 -0.2265 -0.2870 -0.4363
 2850SOL    HW120186   2.865   2.522   7.624 -0.1962  1.2451  1.1586
 2850SOL    HW220187   2.798   2.642   7.596  0.6015 -0.4014  1.3758
 2851SOL     OW20188   1.952   3.694   5.964  0.0096  0.3136  0.3319
 2851SOL    HW120189   1.951   3.723   5.873  0.6382 -1.0352 -0.1146
 2851SOL    HW220190   1.906   3.612   5.946  0.2488  0.3064 -0.2558
 2852SOL     OW20191   0.745   3.353   6.908  0.0480  0.7376  0.0710
 2852SOL    HW120192   0.694   3.416   6.959  0.2294  0.7549  0.2313
 2852SOL    HW220193   0.702   3.353   6.822 -2.6726  0.0482  1.4150
 2853SOL     OW20194   2.543   3.546   5.964  0.0762  0.2447 -0.1282
 2853SOL    HW120195   2.585   3.463   5.986  0.2441 -0.1902 -2.1062
 2853SOL    HW220196   2.528   3.538   5.870 -1.7890  2.6851 -0.0357
 2854SOL     OW20197   3.882   4.185   4.936 -0.4256  0.2555 -0.4307
 2854SOL    HW120198   3.806   4.129   4.917 -1.2518  0.9374  0.8835
 2854SOL    HW220199   3.947   4.145   4.878 -1.6028 -0.2835 -1.3827
 2855SOL     OW20200   3.582   4.358   2.081  0.0425 -0.4060  0.1622
 2855SOL    HW120201   3.562   4.310   2.000 -1.3098  2.4970 -1.2149
 2855SOL    HW220202   3.580   4.294   2.152  0.5807 -0.3518  0.2282
 2856SOL     OW20203   4.691   3.901   3.066 -0.1293 -0.1564 -0.4696
 2856SOL    HW120204   0.016   3.837   3.098  2.4523  2.8058  0.3889
 2856SOL    HW220205   0.003   3.930   2.990 -0.1517 -0.4141 -0.5802
 2857SOL     OW20206   1.597   1.772   3.084  0.0010 -0.3196 -0.4102
 2857SOL    HW120207   1.655   1.843   3.057 -0.3950  0.3429  0.4613
 2857SOL    HW220208   1.620   1.772   3.177 -4.7937 -1.7085  0.7962
 2858SOL     OW20209   1.511   2.365   3.310 -0.4587 -0.5046 -0.6323
 2858SOL    HW120210   1.422   2.339   3.286  0.2830 -2.1541 -1.4943
 2858SOL    HW220211   1.538   2.386   3.221 -1.3875  2.4555 -0.2263
 2859SOL     OW20212   0.259   1.849   4.922  0.2060  0.4576 -0.0804
 2859SOL    HW120213   0.335   1.906   4.922  0.0263  0.7011  0.2065
 2859SOL    HW220214   0.228   1.876   5.009  0.4707 -0.2487  0.2323
 2860SOL     OW20215   3.185   0.607  10.323  0.1645  0.0273  0.0922
 2860SOL    HW120216   3.221   0.695  10.335 -0.7257  0.3687  0.2872
 2860SOL    HW220217   3.093   0.624  10.346  0.2932 -0.7946  1.2435
 2861SOL     OW20218   3.782   2.063   3.519  0.4501 -0.3680  0.0654
 2861SOL    HW120219   3.788   2.130   3.451 -2.5275  2.4647  2.5831
 2861SOL    HW220220   3.701   2.021   3.492  1.2367 -0.4554 -2.1411
 2862SOL     OW20221   1.328   3.974   6.956  0.3635  0.1334 -0.6947
 2862SOL    HW120222   1.393   3.905   6.970  1.1559  0.6755 -1.6981
 2862SOL    HW220223   1.270   3.939   6.889  0.2336 -0.0173 -0.5049
 2863SOL     OW20224   2.200   2.254  16.407  0.0762 -0.0642 -0.4635
 2863SOL    HW120225   2.260   2.183  16.388  0.9057  0.8122 -1.1259
 2863SOL    HW220226   2.152   2.255  16.324 -2.1305  2.6812  0.8152
 2864SOL     OW20227   1.716   3.225   1.681  0.0898  0.2003  0.5871
 2864SOL    HW120228   1.643   3.194   1.733 -1.3511  1.1293 -0.8872
 2864SOL    HW220229   1.787   3.211   1.744  0.4491  1.3804  0.4517
 2865SOL     OW20230   2.707   3.284   5.937  0.0191 -0.5568  0.1029
 2865SOL    HW120231   2.643   3.223   5.974 -1.3833  0.9949  0.2668
 2865SOL    HW220232   2.779   3.283   6.000 -0.8645 -1.2591  1.0911
 2866SOL     OW20233   0.307   1.794  14.835  0.4059  0.4619  0.1520
 2866SOL    HW120234   0.232   1.736  14.846 -1.1218  2.8637  2.2703
 2866SOL    HW220235   0.325   1.813  14.928 -2.9257  0.5040  0.7737
 2867SOL     OW20236   3.734   2.885   5.363 -0.2766 -0.3580  0.2074
 2867SOL    HW120237   3.729   2.980   5.369  2.4040 -0.2245  0.1898
 2867SOL    HW220238   3.735   2.850   5.452  1.7999  0.9493  0.7001
 2868SOL     OW20239   0.618   1.499   4.546 -0.6102 -0.0149 -0.2991
 2868SOL    HW120240   0.699   1.449   4.537  0.6740  2.3375 -1.6443
 2868SOL    HW220241   0.590   1.470   4.633 -2.6367 -0.4306 -1.0777
 2869SOL     OW20242   0.408   1.583  13.051  0.5274  0.2437 -0.5263
 2869SOL    HW120243   0.473   1.525  13.091 -1.1325 -1.9272 -0.9985
 2869SOL    HW220244   0.329   1.528  13.052  0.7866 -0.1247 -0.1160
 2870SOL     OW20245   4.656   2.888  16.974  0.0070  0.2445  0.6148
 2870SOL    HW120246   4.657   2.796  16.999 -0.3934  0.5015  1.5812
 2870SOL    HW220247   4.603   2.886  16.894  0.6392 -0.4257  0.2158
 2871SOL     OW20248   1.985   3.113   8.217  0.5696  0.1371 -0.0067
 2871SOL    HW120249   1.975   3.180   8.149  0.8106 -0.6599 -0.8244
 2871SOL    HW220250   1.922   3.140   8.285 -0.7007  4.2463 -2.7890
 2872SOL     OW20251   0.067   3.992   5.898  0.1954  0.3768 -0.1673
 2872SOL    HW120252   0.137   3.985   5.962 -1.3509  2.8317  1.7764
 2872SOL    HW220253   0.007   3.932   5.942  0.1165 -0.1020 -0.9092
 2873SOL     OW20254   3.037   1.179   9.105  0.0294  0.2047 -0.1057
 2873SOL    HW120255   3.011   1.184   9.197  0.9861 -0.0453  0.1810
 2873SOL    HW220256   3.009   1.089   9.088 -2.2598  0.7441  0.7188
 2874SOL     OW20257   0.060   4.602   2.689  0.2272 -0.6506  0.3239
 2874SOL    HW120258   0.079   4.539   2.620 -0.9133  0.1061 -0.6930
 2874SOL    HW220259   0.147   4.628   2.719  0.8775 -1.8673 -0.5170
 2875SOL     OW20260   3.747   3.000   1.274 -0.0067  0.2242  0.0131
 2875SOL    HW120261   3.693   3.052   1.214 -0.5767 -0.7033 -0.2864
 2875SOL    HW220262   3.698   2.992   1.355  0.1312  2.0694  0.2736
 2876SOL     OW20263   2.751   2.880   2.663 -0.0117 -0.3988 -0.1440
 2876SOL    HW120264   2.669   2.929   2.659  0.3352  0.1796 -0.2152
 2876SOL    HW220265   2.744   2.846   2.752  0.0226 -1.9495 -0.7190
 2877SOL     OW20266   3.629   0.070   0.140 -0.7460 -0.1765  0.2368
 2877SOL    HW120267   3.663   0.084   0.052 -0.0170 -2.4513  0.1645
 2877SOL    HW220268   3.542   0.104   0.121 -0.4748  0.2455 -0.2558
 2878SOL     OW20269   1.703   2.278   6.014  0.1302  0.2996  0.1435
 2878SOL    HW120270   1.746   2.198   5.984 -0.4192  1.3224 -3.4034
 2878SOL    HW220271   1.636   2.229   6.061  0.9206 -0.9943 -0.0827
 2879SOL     OW20272   3.928   1.773   3.254 -0.8137 -0.3415 -0.1781
 2879SOL    HW120273   3.894   1.806   3.337  0.4405 -0.0672  0.2256
 2879SOL    HW220274   4.013   1.816   3.257 -1.1307  0.5085 -3.5255
 2880SOL     OW20275   4.466   1.715   5.789  0.1185  0.1787 -0.1998
 2880SOL    HW120276   4.511   1.791   5.828  1.8837  0.5033 -2.8325
 2880SOL    HW220277   4.458   1.666   5.870 -2.3537  2.8396  1.1789
 2881SOL     OW20278   4.716   0.752   2.153  0.4885 -0.3619  0.3044
 2881SOL    HW120279   4.643   0.690   2.159 -1.5442  1.8990 -1.2292
 2881SOL    HW220280   4.662   0.808   2.097  2.0811 -1.1034 -1.9526
 2882SOL     OW20281   3.543   3.400  11.238  0.2382  0.8148  0.1286
 2882SOL    HW120282   3.589   3.401  11.322 -1.0018  1.5674  0.8034
 2882SOL    HW220283   3.489   3.478  11.252 -1.4056 -0.1068 -1.1162
 2883SOL     OW20284   0.345   1.225   2.459 -0.5918 -0.1272  0.1038
 2883SOL    HW120285   0.367   1.140   2.499  0.6633  0.3455  0.4083
 2883SOL    HW220286   0.251   1.213   2.442 -0.8649 -1.1162  2.2494
 2884SOL     OW20287   4.226   3.174   8.285 -0.5137 -0.0178  0.3813
 2884SOL    HW120288   4.258   3.257   8.320 -1.2310 -0.2031  1.4508
 2884SOL    HW220289   4.170   3.199   8.211 -1.7189 -2.2148  0.5378
 2885SOL     OW20290   0.337   1.517   8.619  0.2723 -0.2548  0.0364
 2885SOL    HW120291   0.376   1.432   8.640  0.5765 -0.1215  0.0108
 2885SOL    HW220292   0.279   1.537   8.692  1.7418  2.2246  0.5480
 2886SOL     OW20293   4.531   0.195  15.705 -0.1831 -0.1396  0.1927
 2886SOL    HW120294   4.585   0.269  15.677  0.5433 -1.1131 -0.9729
 2886SOL    HW220295   4.452   0.218  15.656  0.9952 -3.0101 -3.0130
 2887SOL     OW20296   2.187   0.519   5.074  0.1759  0.2061  0.0532
 2887SOL    HW120297   2.183   0.429   5.105  1.2939  0.0745 -0.1718
 2887SOL    HW220298   2.160   0.562   5.155  0.1934  0.3003  0.0099
 2888SOL     OW20299   2.873   1.965  10.577  0.4123  0.4658  0.2996
 2888SOL    HW120300   2.823   1.901  10.526  1.8045 -0.6943  0.3841
 2888SOL    HW220301   2.846   1.940  10.665 -0.3554  0.8864  0.1827
 2889SOL     OW20302   1.435   2.078   4.250  0.9330 -0.2697 -0.0967
 2889SOL    HW120303   1.458   1.985   4.254  2.0589  0.0094  0.0596
 2889SOL    HW220304   1.525   2.104   4.272  1.3254 -1.4161 -0.3626
 2890SOL     OW20305   2.478   1.726   2.764 -0.7089  0.3878 -1.0793
 2890SOL    HW120306   2.508   1.801   2.815  1.8535 -1.3466 -0.0459
 2890SOL    HW220307   2.385   1.748   2.767 -0.7757 -0.2097  1.1148
 2891SOL     OW20308   1.025   4.559   3.576  0.1649  0.1615 -0.4778
 2891SOL    HW120309   0.932   4.543   3.562 -0.3802 -0.0798  3.4754
 2891SOL    HW220310   1.038   4.526   3.665 -1.4413  0.8019 -0.0018
 2892SOL     OW20311   3.480   0.122   5.228 -0.0309 -0.7152  0.3634
 2892SOL    HW120312   3.454   0.081   5.145 -0.0263  0.0531 -0.0222
 2892SOL    HW220313   3.510   0.054   5.288 -0.1454 -0.2054  1.0003
 2893SOL     OW20314   2.494   0.463  13.294 -0.2542 -0.1905 -0.1685
 2893SOL    HW120315   2.409   0.453  13.252  0.1316 -1.0096 -0.7368
 2893SOL    HW220316   2.559   0.437  13.229  0.5113 -1.3073  1.0273
 2894SOL     OW20317   1.072   3.743   2.946 -0.2529  0.3096  0.1476
 2894SOL    HW120318   1.100   3.789   2.868  2.0709  0.0421  0.8169
 2894SOL    HW220319   0.990   3.789   2.964 -0.7999  0.1409 -1.9572
 2895SOL     OW20320   0.546   0.155   3.331 -0.5085 -0.2737  0.2873
 2895SOL    HW120321   0.490   0.228   3.304  0.3013  0.6989  1.2346
 2895SOL    HW220322   0.578   0.183   3.416  0.9253  2.6561 -1.2265
 2896SOL     OW20323   4.038   1.583   3.524  0.3174 -0.2647  0.9151
 2896SOL    HW120324   3.980   1.651   3.489  0.3798  0.4388  2.1789
 2896SOL    HW220325   4.072   1.642   3.591 -0.5522 -0.2718  1.3582
 2897SOL     OW20326   1.354   1.038   0.705 -0.6718  0.2734  0.0931
 2897SOL    HW120327   1.441   1.023   0.740 -0.7763 -1.1798 -0.2881
 2897SOL    HW220328   1.331   0.945   0.703 -2.4411  0.7397 -1.5025
 2898SOL     OW20329   2.153   2.161  14.608 -0.2487  0.1769  0.4067
 2898SOL    HW120330   2.173   2.245  14.568 -1.0373  0.1640 -0.0050
 2898SOL    HW220331   2.071   2.138  14.564 -0.1015  0.0261  0.2127
 2899SOL     OW20332   1.775   3.048   5.215 -0.1377  0.2425  0.2467
 2899SOL    HW120333   1.793   2.954   5.208 -0.6131  0.1822 -0.1445
 2899SOL    HW220334   1.861   3.084   5.237  0.4786 -0.3685 -1.1368
 2900SOL     OW20335   0.981   0.989   7.332  0.5091 -0.1847  0.4634
 2900SOL    HW120336   0.961   0.976   7.424 -0.0097  3.8841  0.9498
 2900SOL    HW220337   1.064   0.944   7.325  0.2067 -0.7647  0.6065
 2901SOL     OW20338   1.126   4.111   7.850  0.4613  0.8303  0.4248
 2901SOL    HW120339   1.210   4.070   7.830  0.6849  0.4804  2.0803
 2901SOL    HW220340   1.079   4.053   7.910  0.1808  0.8810  0.2542
 2902SOL     OW20341   1.947   3.589   8.000 -0.0336 -0.3668 -0.1432
 2902SOL    HW120342   1.986   3.655   8.057  0.0452 -0.4534 -0.0963
 2902SOL    HW220343   2.016   3.580   7.934 -0.2233 -1.2773 -0.2220
 2903SOL     OW20344   3.460   2.476   3.170 -0.0138  0.6795  0.0536
 2903SOL    HW120345   3.501   2.562   3.166  1.7115 -0.1327  0.2438
 2903SOL    HW220346   3.462   2.451   3.263 -0.2477 -1.6441 -0.5554
 2904SOL     OW20347   3.714   4.724   7.307  0.4218  0.0288 -0.0806
 2904SOL    HW120348   3.703   4.636   7.273 -0.7609  0.5007 -0.8875
 2904SOL    HW220349   3.787   0.014   7.252  0.6596 -0.2466  0.0946
 2905SOL     OW20350   4.402   3.626   8.427  0.0783  0.2993 -0.1084
 2905SOL    HW120351   4.398   3.604   8.334  2.6100  1.3281 -0.4557
 2905SOL    HW220352   4.324   3.581   8.460  0.6150 -0.2818  0.3630
 2906SOL     OW20353   4.597   1.547  10.391 -0.1753  0.5667 -0.6866
 2906SOL    HW120354   4.652   1.604  10.337  0.3205  0.4353 -0.3257
 2906SOL    HW220355   4.624   1.457  10.373 -2.4347 -0.2615  0.0103
 2907SOL     OW20356   3.077   0.026   1.655 -0.0047 -0.6717  0.0905
 2907SOL    HW120357   3.149   0.067   1.704 -1.3855  0.4433  1.2174
 2907SOL    HW220358   3.104   4.672   1.659  0.6783 -0.4650  0.3632
 2908SOL     OW20359   1.926   3.320  12.744  0.1967 -0.4607 -0.3834
 2908SOL    HW120360   1.908   3.286  12.657  2.2847  1.3491 -1.5315
 2908SOL    HW220361   1.872   3.269  12.804 -0.7489 -0.2283 -1.0429
 2909SOL     OW20362   4.377   1.461   4.546 -0.3107  0.1861  0.4168
 2909SOL    HW120363   4.343   1.415   4.469  1.2535 -0.4374  0.0953
 2909SOL    HW220364   4.339   1.405   4.614  0.6719  0.1445  0.9270
 2910SOL     OW20365   2.398   4.073   8.024 -0.6187  0.3455  0.3402
 2910SOL    HW120366   2.341   4.150   8.018  1.7170  1.9307 -1.8029
 2910SOL    HW220367   2.483   4.116   8.037 -0.1445 -0.2824 -0.6217
 2911SOL     OW20368   1.397   3.806   1.999 -0.2752  0.4331 -0.1001
 2911SOL    HW120369   1.332   3.767   2.057  1.6415 -0.5071  1.4255
 2911SOL    HW220370   1.477   3.782   2.046 -0.3932  0.9934  0.3897
 2912SOL     OW20371   2.138   3.704   8.938 -0.7179 -0.2425  0.0710
 2912SOL    HW120372   2.090   3.754   8.872  0.0658  0.5578  0.1048
 2912SOL    HW220373   2.082   3.627   8.951 -1.5471  0.3440 -0.0292
 2913SOL     OW20374   3.875   0.619   3.634  0.1673 -0.0544  0.7093
 2913SOL    HW120375   3.835   0.683   3.574  1.0981 -0.4729 -0.3493
 2913SOL    HW220376   3.927   0.569   3.572 -0.1836  0.9020 -0.3664
 2914SOL     OW20377   4.073   2.623   3.522 -0.0852  0.3111  0.1549
 2914SOL    HW120378   4.023   2.691   3.567  1.9558  0.2812  2.4221
 2914SOL    HW220379   4.160   2.663   3.525  0.9920 -2.0087 -0.6459
 2915SOL     OW20380   4.055   3.017  14.574  0.1918 -0.0394  0.1342
 2915SOL    HW120381   4.080   3.110  14.570 -0.1770  0.0130 -0.7750
 2915SOL    HW220382   3.962   3.021  14.554  0.1851  0.7605  0.3220
 2916SOL     OW20383   2.054   0.077   8.321 -0.4545 -0.4447 -0.3213
 2916SOL    HW120384   1.967   0.049   8.292 -0.8483  1.1780 -0.6702
 2916SOL    HW220385   2.106   0.012   8.273 -1.3034 -0.7292 -0.8514
 2917SOL     OW20386   0.754   0.430  11.298 -0.0531 -0.0786 -0.5453
 2917SOL    HW120387   0.738   0.511  11.248  1.2547  0.3984 -0.2011
 2917SOL    HW220388   0.792   0.369  11.235  1.2224  0.9212 -0.7639
 2918SOL     OW20389   1.829   3.729   1.968 -0.3258  0.0348  0.0419
 2918SOL    HW120390   1.766   3.696   2.032 -0.3938 -1.0587 -0.5872
 2918SOL    HW220391   1.776   3.797   1.925 -0.3621 -0.0966 -0.1201
 2919SOL     OW20392   2.234   1.875   9.743 -0.9683 -0.1437  0.1752
 2919SOL    HW120393   2.225   1.781   9.725  1.1610 -0.2193 -0.5267
 2919SOL    HW220394   2.270   1.909   9.661  0.7973 -0.3656  0.8652
 2920SOL     OW20395   0.434   3.727   5.465 -0.4565 -0.0333  0.4646
 2920SOL    HW120396   0.401   3.667   5.398 -1.5512  0.5053  0.5168
 2920SOL    HW220397   0.399   3.680   5.541 -1.7915  1.2021  0.6112
 2921SOL     OW20398   3.355   3.363   0.472  0.8455  0.3476 -0.2851
 2921SOL    HW120399   3.356   3.408   0.388 -0.0557 -2.3693 -1.7436
 2921SOL    HW220400   3.261   3.348   0.486  0.5554  1.0865 -1.4638
 2922SOL     OW20401   3.920   2.465   1.616  0.3716 -0.6649 -0.1149
 2922SOL    HW120402   3.913   2.398   1.683 -2.7695 -0.5853 -0.3533
 2922SOL    HW220403   3.848   2.520   1.648 -0.3401 -0.9385 -1.2378
 2923SOL     OW20404   1.011   1.421   8.395 -0.4989  0.3834 -0.5622
 2923SOL    HW120405   1.031   1.481   8.467  1.0042  1.1776 -1.6495
 2923SOL    HW220406   0.968   1.351   8.444  0.9226 -0.3536 -0.3646
 2924SOL     OW20407   3.030   0.801   0.719  0.3724 -0.1833  0.3014
 2924SOL    HW120408   3.077   0.884   0.712  0.1325  0.0023  0.9490
 2924SOL    HW220409   3.099   0.736   0.704  0.6278 -0.3038  2.0263
 2925SOL     OW20410   0.568   0.297  12.262 -0.4522 -0.5667 -0.0375
 2925SOL    HW120411   0.645   0.347  12.286 -1.2067  0.4642  0.2208
 2925SOL    HW220412   0.602   0.208  12.251 -0.4850 -0.8099  1.8078
 2926SOL     OW20413   4.024   1.791   4.932  0.2095 -0.5607 -0.0104
 2926SOL    HW120414   4.014   1.698   4.952  1.5981 -0.5113  0.9447
 2926SOL    HW220415   4.046   1.826   5.019 -0.0845 -1.1089  0.2844
 2927SOL     OW20416   0.244   2.491   3.256  0.5492  0.2429 -0.1430
 2927SOL    HW120417   0.180   2.436   3.211  0.0500 -1.0147  2.1327
 2927SOL    HW220418   0.321   2.489   3.199  1.7874  2.7153  1.4586
 2928SOL     OW20419   1.102   0.543   3.782  0.4208  0.0466 -0.4749
 2928SOL    HW120420   1.015   0.546   3.742 -1.0840  0.0971  2.7243
 2928SOL    HW220421   1.162   0.538   3.708  1.0181 -0.4636  0.0515
 2929SOL     OW20422   0.247   1.969  17.731 -0.1269  0.4963 -0.2632
 2929SOL    HW120423   0.250   2.054   0.024  0.1311  1.3447 -1.9232
 2929SOL    HW220424   0.251   1.903   0.049 -0.6159  0.8109  0.0594
 2930SOL     OW20425   3.558   1.776   0.388  0.7913 -0.5150  0.2926
 2930SOL    HW120426   3.527   1.690   0.418  1.0956 -1.1742 -1.2461
 2930SOL    HW220427   3.509   1.831   0.448 -1.6513 -1.3987 -0.8572
 2931SOL     OW20428   3.268   1.981  17.534 -0.6332 -0.2143  0.1338
 2931SOL    HW120429   3.223   1.980  17.619 -0.2736 -3.0644  0.3175
 2931SOL    HW220430   3.210   2.030  17.476  1.1210 -1.9051 -3.0588
 2932SOL     OW20431   3.083   4.031  10.220  0.7635 -0.0806  0.3965
 2932SOL    HW120432   3.133   4.094  10.168  0.9917  0.1420  0.8835
 2932SOL    HW220433   3.044   4.094  10.281 -1.8926 -0.2695 -1.1402
 2933SOL     OW20434   1.776   0.934   1.922  0.3318  0.0135  0.3951
 2933SOL    HW120435   1.741   0.847   1.938  0.4792 -0.3449 -1.2336
 2933SOL    HW220436   1.752   0.970   2.008  0.6345  0.9331  0.0918
 2934SOL     OW20437   4.186   4.127   2.815 -0.6017  0.5567  0.0073
 2934SOL    HW120438   4.157   4.197   2.873 -0.0470  0.1656  0.7630
 2934SOL    HW220439   4.119   4.129   2.746  2.3799  0.9467 -2.8762
 2935SOL     OW20440   3.976   1.817   8.212 -0.0337  0.2885 -0.5188
 2935SOL    HW120441   4.043   1.773   8.266 -2.2427 -2.1133  0.2702
 2935SOL    HW220442   3.900   1.772   8.250  1.6612 -0.3909  2.1217
 2936SOL     OW20443   3.551   3.008  15.280  0.2028 -0.4387  0.1342
 2936SOL    HW120444   3.602   3.089  15.274  2.5361 -1.7328  2.4654
 2936SOL    HW220445   3.550   2.982  15.188 -1.0047  1.1734 -0.3047
 2937SOL     OW20446   2.659   3.677  12.287  0.1043  0.1109 -0.0823
 2937SOL    HW120447   2.687   3.752  12.340 -0.8081  1.3226 -1.2845
 2937SOL    HW220448   2.644   3.719  12.202  2.1889 -1.0914 -1.0475
 2938SOL     OW20449   1.171   0.797   2.306  0.1251  0.0382  0.2929
 2938SOL    HW120450   1.218   0.876   2.278 -0.1770 -0.5746 -1.9467
 2938SOL    HW220451   1.243   0.734   2.308 -0.8323 -1.1535 -2.2667
 2939SOL     OW20452   3.911   4.253   8.528  0.0173  0.0096  0.1135
 2939SOL    HW120453   3.842   4.307   8.568 -0.7368  0.0765 -1.2852
 2939SOL    HW220454   3.930   4.284   8.440 -1.8893  0.4794 -0.1346
 2940SOL     OW20455   0.632   2.270   7.097 -0.2651  0.5466  0.3182
 2940SOL    HW120456   0.568   2.284   7.167  0.1147 -2.8879  1.3480
 2940SOL    HW220457   0.703   2.330   7.118  2.2292 -2.5543  0.8294
 2941SOL     OW20458   3.844   2.676  14.977  0.1688 -0.2628  0.3145
 2941SOL    HW120459   3.823   2.602  15.034 -1.0011  0.9873  1.5061
 2941SOL    HW220460   3.855   2.639  14.890  0.7938  0.6940 -0.0082
 2942SOL     OW20461   1.939   1.455   1.302 -0.5008  0.2416  0.6152
 2942SOL    HW120462   2.003   1.503   1.354 -0.5268  0.4714  0.4371
 2942SOL    HW220463   1.994   1.391   1.257 -0.3329  1.1378 -0.4647
 2943SOL     OW20464   2.940   2.735   4.504 -0.3159 -0.1033  0.1839
 2943SOL    HW120465   2.931   2.825   4.536 -0.5205 -0.1903  0.3674
 2943SOL    HW220466   2.981   2.753   4.419  1.2559  2.1381  1.4249
 2944SOL     OW20467   2.149   3.283   3.977  0.0116 -0.4781  0.8459
 2944SOL    HW120468   2.129   3.375   3.958  1.2277  0.3265  3.4714
 2944SOL    HW220469   2.063   3.243   3.993 -1.3867  2.4164  0.5964
 2945SOL     OW20470   2.481   1.447   0.192  0.4163  0.1545  0.3433
 2945SOL    HW120471   2.440   1.367   0.223  1.6671 -1.2717 -1.6797
 2945SOL    HW220472   2.469   1.440   0.098  1.9531 -0.2100  0.1656
 2946SOL     OW20473   0.620   3.119   1.495 -1.1477  0.1398  0.1974
 2946SOL    HW120474   0.714   3.135   1.484 -0.6168 -1.3231  2.5988
 2946SOL    HW220475   0.611   3.204   1.537  1.6768  0.0324  1.0346
 2947SOL     OW20476   2.697   3.813  11.133 -0.0444  0.2299  0.2071
 2947SOL    HW120477   2.790   3.797  11.148 -0.1084 -0.3353 -0.0247
 2947SOL    HW220478   2.654   3.739  11.174 -0.0879 -0.3101 -0.8246
 2948SOL     OW20479   1.813   3.460   4.316 -0.0021  0.4694 -0.3140
 2948SOL    HW120480   1.748   3.464   4.386  0.2343  1.2405 -0.1478
 2948SOL    HW220481   1.872   3.529   4.344  2.8131 -1.9660 -0.2536
 2949SOL     OW20482   3.071   0.404   5.231  0.0784 -0.4952 -0.3225
 2949SOL    HW120483   3.063   0.329   5.289 -4.4200  0.1582 -0.0491
 2949SOL    HW220484   3.162   0.390   5.206  0.0361 -1.6769  0.1932
 2950SOL     OW20485   4.067   3.635   2.540 -0.0413  0.2888  0.2034
 2950SOL    HW120486   4.005   3.612   2.609 -2.1953  2.1652 -1.0809
 2950SOL    HW220487   4.003   3.671   2.478 -0.8181  0.8837  1.3685
 2951SOL     OW20488   4.306   2.989  12.116 -0.6828 -0.0907 -0.1090
 2951SOL    HW120489   4.340   2.901  12.099  2.0247  0.9806 -0.2070
 2951SOL    HW220490   4.284   2.982  12.209 -2.5216 -0.3072 -0.5646
 2952SOL     OW20491   2.090   1.588  16.275 -0.3149 -0.0784  0.0333
 2952SOL    HW120492   2.132   1.548  16.199  1.2561 -0.6969  1.2346
 2952SOL    HW220493   2.014   1.627  16.232  1.8846  0.6153 -3.2338
 2953SOL     OW20494   0.687   0.552  10.214  0.6082 -0.0259 -0.0141
 2953SOL    HW120495   0.615   0.591  10.164 -0.5031 -0.2666  1.4020
 2953SOL    HW220496   0.722   0.499  10.142  0.5590 -1.8676  1.3427
 2954SOL     OW20497   4.659   1.264   5.465 -0.0765  0.0896 -0.1841
 2954SOL    HW120498   0.010   1.264   5.501 -0.4984 -0.8405  0.8565
 2954SOL    HW220499   4.673   1.201   5.394  3.0545 -0.4117  0.8708
 2955SOL     OW20500   4.036   2.933   5.343  0.0817 -0.1036 -0.4730
 2955SOL    HW120501   4.091   2.889   5.408 -1.1878 -0.3667  0.4402
 2955SOL    HW220502   3.959   2.877   5.353 -0.9637  1.4634  0.2926
 2956SOL     OW20503   0.126   4.004   2.829  0.4481 -0.0587 -0.0063
 2956SOL    HW120504   0.213   4.011   2.866 -0.1508 -0.7982  1.5291
 2956SOL    HW220505   0.146   4.048   2.746  0.3914 -1.2402 -0.6464
 2957SOL     OW20506   3.987   3.263   5.762 -0.1009  0.4106 -0.0011
 2957SOL    HW120507   3.966   3.222   5.678  1.9247 -0.0543 -0.2689
 2957SOL    HW220508   3.901   3.290   5.794 -0.2913  0.1811 -0.3231
 2958SOL     OW20509   3.115   3.048   3.314 -0.7227  0.1422  0.1448
 2958SOL    HW120510   3.112   3.027   3.221 -0.5446  1.1909 -0.0969
 2958SOL    HW220511   3.022   3.027   3.323 -0.3642 -0.5560  2.1724
 2959SOL     OW20512   4.517   1.065   7.606  0.3479 -0.2969  0.6547
 2959SOL    HW120513   4.587   1.022   7.557  0.3647  1.1485 -0.6021
 2959SOL    HW220514   4.557   1.122   7.672 -0.9376  0.8081  0.4923
 2960SOL     OW20515   1.233   4.491   4.176 -0.1522  0.7787 -0.3449
 2960SOL    HW120516   1.201   4.558   4.235  1.2093  0.6914  0.5052
 2960SOL    HW220517   1.162   4.428   4.188 -0.8953  1.6921 -0.0007
 2961SOL     OW20518   3.515   2.796  12.360 -0.5798 -0.3430 -0.6035
 2961SOL    HW120519   3.526   2.868  12.297 -2.5898 -0.8849 -1.5981
 2961SOL    HW220520   3.530   2.720  12.304 -0.9969  0.0285 -1.2295
 2962SOL     OW20521   1.697   0.308   2.986  0.7277 -0.4996  0.3958
 2962SOL    HW120522   1.641   0.231   2.997  0.1056 -0.3254 -1.6088
 2962SOL    HW220523   1.766   0.283   3.047 -0.2327  1.1584  2.1751
 2963SOL     OW20524   4.045   1.217   8.067  0.0782  0.3098  0.1571
 2963SOL    HW120525   4.010   1.269   7.994  0.6654  3.5346  2.2060
 2963SOL    HW220526   3.973   1.155   8.082 -1.1170  1.0447 -2.4140
 2964SOL     OW20527   1.324   1.572   5.637 -0.3061 -0.0094  0.0238
 2964SOL    HW120528   1.344   1.665   5.640  1.4771 -0.3745 -0.7217
 2964SOL    HW220529   1.240   1.568   5.682  1.4930 -0.5807  3.3094
 2965SOL     OW20530   3.734   2.599   7.796  0.1388 -0.5155  0.2116
 2965SOL    HW120531   3.810   2.623   7.848  1.2384 -1.2816 -1.0580
 2965SOL    HW220532   3.703   2.523   7.845  0.5031 -0.2101  0.9038
 2966SOL     OW20533   1.659   1.141   6.534  0.0891  0.7244 -0.2081
 2966SOL    HW120534   1.672   1.086   6.456 -1.5492 -0.3465  0.2630
 2966SOL    HW220535   1.638   1.226   6.497 -0.5875  1.2439  1.3668
 2967SOL     OW20536   3.493   4.737   8.073  0.5233 -0.2242  0.3119
 2967SOL    HW120537   3.507   4.659   8.127 -1.8183 -1.7578 -1.2931
 2967SOL    HW220538   3.542   4.706   7.997 -0.2483 -0.9502  0.1033
 2968SOL     OW20539   2.582   2.843  12.751 -0.0861 -0.2788  0.0129
 2968SOL    HW120540   2.568   2.937  12.757 -0.2170 -0.1919 -1.8300
 2968SOL    HW220541   2.631   2.837  12.669  1.3755  1.9470  0.7320
 2969SOL     OW20542   3.936   1.475   2.787 -0.2039 -0.2058 -0.1178
 2969SOL    HW120543   3.977   1.426   2.859 -2.0834 -2.4918 -0.6217
 2969SOL    HW220544   3.857   1.423   2.773 -1.1324  1.6866 -1.8216
 2970SOL     OW20545   1.774   0.051   6.109  0.0415 -0.6364 -0.5693
 2970SOL    HW120546   1.769   4.724   6.039 -2.2832 -0.8730 -0.1757
 2970SOL    HW220547   1.851   0.013   6.152  0.8147  0.8725 -0.6224
 2971SOL     OW20548   4.216   3.432   4.926  0.4113 -0.2522  0.9637
 2971SOL    HW120549   4.121   3.418   4.930  0.5436 -0.6859  2.6933
 2971SOL    HW220550   4.232   3.494   4.998 -1.6914  1.3839  0.0374
 2972SOL     OW20551   4.483   0.037   9.780  0.1869 -0.7454  0.5371
 2972SOL    HW120552   4.531   0.097   9.723  0.8269 -1.4315  0.3617
 2972SOL    HW220553   4.514   0.066   9.866 -0.0432  0.4188  0.2290
 2973SOL     OW20554   1.521   3.132   6.210 -0.3679  0.5032 -0.0362
 2973SOL    HW120555   1.571   3.051   6.198  1.0866  1.5502 -1.0631
 2973SOL    HW220556   1.589   3.200   6.218 -1.1674  1.3504 -0.4576
 2974SOL     OW20557   0.484   2.942  17.617 -0.0822  0.0753  0.6835
 2974SOL    HW120558   0.435   2.942  17.699  0.2142 -0.7157  0.8654
 2974SOL    HW220559   0.408   2.959  17.561  0.1511  2.2688  1.0341
 2975SOL     OW20560   1.111   0.404   8.816  0.1699  0.4698 -0.0385
 2975SOL    HW120561   1.026   0.378   8.780  0.6253 -0.4656 -0.4338
 2975SOL    HW220562   1.168   0.387   8.741 -0.0074 -0.8866  0.1354
 2976SOL     OW20563   2.486   2.767   7.367 -0.4337 -0.4975 -0.3939
 2976SOL    HW120564   2.536   2.837   7.410 -2.6551  0.7259  0.1781
 2976SOL    HW220565   2.426   2.829   7.326 -1.0372  0.2573  1.6340
 2977SOL     OW20566   3.674   4.364  16.828  0.2019  0.7663  0.7629
 2977SOL    HW120567   3.715   4.450  16.819 -1.7472  1.4537 -1.9207
 2977SOL    HW220568   3.586   4.398  16.848 -0.2796  0.3127 -0.5521
 2978SOL     OW20569   0.881   2.063   2.453 -0.5920 -0.2638  0.0659
 2978SOL    HW120570   0.884   2.132   2.519  0.0789  2.8937 -3.2480
 2978SOL    HW220571   0.972   2.067   2.423 -1.0117  0.8967 -1.0350
 2979SOL     OW20572   0.252   1.233   1.862 -0.1977 -0.1081 -0.0942
 2979SOL    HW120573   0.297   1.162   1.816  0.7239 -0.2652  1.0627
 2979SOL    HW220574   0.169   1.245   1.816  0.3333 -0.3869 -1.1416
 2980SOL     OW20575   3.587   1.064   0.093 -0.5519 -0.2299  0.0881
 2980SOL    HW120576   3.639   1.103   0.022 -0.4378  1.2906  0.9962
 2980SOL    HW220577   3.494   1.067   0.070 -0.6019 -1.3041  0.1774
 2981SOL     OW20578   4.370   3.946   9.557 -0.2228  0.2139 -0.5084
 2981SOL    HW120579   4.425   3.872   9.529  0.4528  0.2362  0.7421
 2981SOL    HW220580   4.425   3.971   9.631  0.1296  0.0756 -0.7186
 2982SOL     OW20581   0.279   3.508   4.888 -0.1239 -0.4076  0.0331
 2982SOL    HW120582   0.199   3.560   4.875  0.5301  0.2864 -1.2009
 2982SOL    HW220583   0.333   3.537   4.815  0.1674 -2.7388 -0.6650
 2983SOL     OW20584   2.328   0.433   9.344  0.0861 -0.5833 -0.2845
 2983SOL    HW120585   2.323   0.482   9.262 -0.2340  0.4969  0.3793
 2983SOL    HW220586   2.369   0.350   9.318  0.6505 -0.9847  1.8462
 2984SOL     OW20587   3.498   0.196   4.195 -0.3340 -0.4042  0.1290
 2984SOL    HW120588   3.494   0.266   4.131 -1.1048 -0.4915  0.0808
 2984SOL    HW220589   3.589   0.167   4.191  0.3085  1.4119  1.4987
 2985SOL     OW20590   2.762   1.372   0.224 -0.3996 -0.0809 -0.1304
 2985SOL    HW120591   2.668   1.389   0.236 -0.3093  0.8709 -0.7937
 2985SOL    HW220592   2.769   1.408   0.136 -0.7613 -3.9122 -1.7603
 2986SOL     OW20593   1.955   3.437   5.322  0.1209 -0.3258 -0.4268
 2986SOL    HW120594   2.012   3.511   5.344 -2.3312  0.6203  2.6173
 2986SOL    HW220595   1.876   3.480   5.291 -0.3888 -0.9046  0.0745
 2987SOL     OW20596   2.355   2.033   6.196 -0.1427 -0.5302  0.0904
 2987SOL    HW120597   2.441   2.027   6.237  0.1715 -2.9373 -0.9457
 2987SOL    HW220598   2.355   1.980   6.117  1.2700 -0.5220  0.0953
 2988SOL     OW20599   3.658   3.184  10.923 -0.2939 -0.2218  0.1222
 2988SOL    HW120600   3.746   3.212  10.948  0.0974  0.8767 -2.5800
 2988SOL    HW220601   3.690   3.094  10.920 -0.7004 -0.2898 -1.7331
 2989SOL     OW20602   1.461   2.232   0.233  0.1055 -0.1022  0.1138
 2989SOL    HW120603   1.502   2.251   0.149 -0.3174  0.2572 -0.0168
 2989SOL    HW220604   1.377   2.193   0.210 -0.3062  0.5898  0.4169
 2990SOL     OW20605   3.019   2.703   4.793 -0.2342  0.2243 -0.2349
 2990SOL    HW120606   3.072   2.724   4.717  1.4396 -1.0472  0.5816
 2990SOL    HW220607   3.039   2.769   4.860 -1.2708 -0.0492  0.3468
 2991SOL     OW20608   1.506   0.818   7.112 -0.0615  0.1569  0.2766
 2991SOL    HW120609   1.559   0.739   7.117 -1.9202 -1.1363 -0.4515
 2991SOL    HW220610   1.541   0.869   7.185  1.4568  1.2823 -1.2511
 2992SOL     OW20611   4.727   2.099   4.409  0.2664 -0.4179  0.3223
 2992SOL    HW120612   4.713   2.193   4.419  0.7295 -0.3850  0.6628
 2992SOL    HW220613   4.675   2.070   4.485  1.3608 -0.6170  0.9913
 2993SOL     OW20614   0.814   3.524   6.243  0.1418  0.3586  0.2503
 2993SOL    HW120615   0.908   3.543   6.239  0.0696  0.9946  1.5628
 2993SOL    HW220616   0.797   3.491   6.155  0.4283  0.0426  0.3115
 2994SOL     OW20617   1.641   3.842   5.853 -0.5453 -0.2702  0.6162
 2994SOL    HW120618   1.561   3.887   5.882 -0.9643 -1.3659  1.1640
 2994SOL    HW220619   1.614   3.767   5.799 -1.0770  0.4299 -0.0963
 2995SOL     OW20620   2.597   3.887   5.224  0.1813 -0.1226 -0.0085
 2995SOL    HW120621   2.587   3.980   5.245  1.4103 -0.0050  0.1016
 2995SOL    HW220622   2.691   3.886   5.204 -0.0756 -1.5422 -1.1523
 2996SOL     OW20623   3.207   2.813   1.362 -0.0352 -0.3805  0.4199
 2996SOL    HW120624   3.158   2.776   1.436 -0.8971  2.9433  1.4801
 2996SOL    HW220625   3.159   2.896   1.364 -1.0402 -0.9491  0.0585
 2997SOL     OW20626   2.520   3.628   4.212  0.5732  0.2308 -0.0138
 2997SOL    HW120627   2.495   3.711   4.172 -1.5445  0.0853  0.9966
 2997SOL    HW220628   2.614   3.640   4.205  0.3274  1.1017 -1.8647
 2998SOL     OW20629   0.471   0.520   4.044 -0.3622 -0.3819 -0.4717
 2998SOL    HW120630   0.545   0.569   4.007  0.6936 -2.1508 -0.6940
 2998SOL    HW220631   0.508   0.489   4.127  0.0257 -1.2949 -0.9838
 2999SOL     OW20632   1.143   3.458   8.081  0.5208 -0.1259 -0.7274
 2999SOL    HW120633   1.140   3.494   8.169  3.6789 -1.5496 -0.0277
 2999SOL    HW220634   1.214   3.503   8.034  0.3566 -1.1983 -2.0106
 3000SOL     OW20635   0.264   1.209  17.289 -0.1532  0.3237  0.0007
 3000SOL    HW120636   0.263   1.297  17.328  1.0067 -0.4597  1.7932
 3000SOL    HW220637   0.179   1.212  17.245 -0.0858 -0.1771 -0.1640
 3001SOL     OW20638   0.524   1.766  14.674  0.2304 -0.1324  0.4120
 3001SOL    HW120639   0.469   1.736  14.602 -2.3538 -2.1256  3.2709
 3001SOL    HW220640   0.460   1.786  14.742 -1.4751  0.6307 -1.4267
 3002SOL     OW20641   0.663   3.691   8.319  0.1556  0.9955 -0.5244
 3002SOL    HW120642   0.704   3.701   8.405 -0.1764 -0.6139 -0.1644
 3002SOL    HW220643   0.736   3.658   8.265 -0.2317 -1.0615  0.2218
 3003SOL     OW20644   3.354   0.767  11.037  0.2577  0.0900 -0.3718
 3003SOL    HW120645   3.383   0.699  11.097  1.7261  0.5934 -0.5206
 3003SOL    HW220646   3.275   0.800  11.080  0.4154 -0.1398  0.0950
 3004SOL     OW20647   1.180   0.933   6.708  0.1669 -0.2424 -0.0809
 3004SOL    HW120648   1.231   0.981   6.642  1.4166  2.4102  2.7825
 3004SOL    HW220649   1.238   0.941   6.784 -0.1411 -1.6316  0.2936
 3005SOL     OW20650   2.668   1.874  12.833  0.0834  0.2932  0.7858
 3005SOL    HW120651   2.757   1.901  12.856 -0.0414  2.4940 -1.2165
 3005SOL    HW220652   2.617   1.924  12.898  1.8620  2.8032  0.2734
 3006SOL     OW20653   4.076   4.074  11.179 -0.4884 -0.2747 -1.1116
 3006SOL    HW120654   4.147   4.132  11.207  0.3944 -0.5388 -2.8522
 3006SOL    HW220655   4.068   4.013  11.253  3.0227  1.7617  0.9751
 3007SOL     OW20656   0.021   2.990   5.543  0.3153 -0.0484 -0.4171
 3007SOL    HW120657   0.058   2.996   5.631  0.8707  0.4245 -0.6800
 3007SOL    HW220658   0.078   2.917   5.518 -0.7221 -1.0349  0.0868
 3008SOL     OW20659   3.113   2.787   4.317  0.1396  0.0884 -0.6254
 3008SOL    HW120660   3.170   2.855   4.353 -2.8149  1.4966  1.3877
 3008SOL    HW220661   3.098   2.817   4.227  2.5297 -0.2213 -1.1246
 3009SOL     OW20662   3.131   0.565   8.246 -0.1441  0.2181  0.3099
 3009SOL    HW120663   3.170   0.623   8.180 -0.1860 -0.7663 -0.5722
 3009SOL    HW220664   3.046   0.598   8.274 -0.8502 -2.3243  1.1957
 3010SOL     OW20665   2.360   0.840  12.194 -0.1281  0.0135 -0.4264
 3010SOL    HW120666   2.272   0.842  12.230  0.2065  0.6678  0.3629
 3010SOL    HW220667   2.383   0.750  12.220  0.6209  0.4522  0.4224
 3011SOL     OW20668   1.016   2.278   3.804  0.2158  0.3014  0.5632
 3011SOL    HW120669   0.938   2.230   3.775 -0.2880  1.7154 -0.4486
 3011SOL    HW220670   0.984   2.289   3.894 -0.8974  2.1438 -0.0506
 3012SOL     OW20671   3.470   1.468  15.183  0.2828 -0.0358  0.4187
 3012SOL    HW120672   3.402   1.435  15.241  0.4382  0.1459  0.7001
 3012SOL    HW220673   3.418   1.537  15.141  0.9513  1.0672  1.4350
 3013SOL     OW20674   0.502   0.283   1.543  0.1094 -0.5549  0.4585
 3013SOL    HW120675   0.446   0.284   1.621  0.7001 -0.6498  0.8860
 3013SOL    HW220676   0.592   0.277   1.575  0.2063 -1.4652  0.0235
 3014SOL     OW20677   3.721   3.310  14.646  0.3284 -0.8550 -0.1844
 3014SOL    HW120678   3.744   3.298  14.738 -1.3702 -0.7542  0.2532
 3014SOL    HW220679   3.747   3.228  14.604 -0.9314 -1.7340  0.7650
 3015SOL     OW20680   4.507   0.909   1.999 -0.5098 -0.1099 -0.3913
 3015SOL    HW120681   4.552   0.876   1.921  0.2408  0.1263 -0.0575
 3015SOL    HW220682   4.414   0.888   1.989 -0.1344 -0.5322 -2.9169
 3016SOL     OW20683   2.764   2.972  13.382  0.0165 -0.6020  0.5777
 3016SOL    HW120684   2.787   2.923  13.461 -3.4341  0.1381  2.0982
 3016SOL    HW220685   2.847   2.962  13.337  1.0289  1.4079  1.9905
 3017SOL     OW20686   1.686   2.364   1.621  0.0944  0.0759 -0.1208
 3017SOL    HW120687   1.606   2.408   1.646 -0.5026 -1.3411  0.4941
 3017SOL    HW220688   1.709   2.425   1.551  0.4541  1.5604  1.3012
 3018SOL     OW20689   2.730   1.804   9.160 -0.3544  0.5299 -0.2657
 3018SOL    HW120690   2.742   1.897   9.141  1.5062  0.2617 -0.3382
 3018SOL    HW220691   2.823   1.783   9.164 -0.0990  1.7223 -0.0931
 3019SOL     OW20692   3.014   2.539   3.828  0.4160 -0.3185  0.5425
 3019SOL    HW120693   2.953   2.603   3.792  1.5645  1.9300  2.5979
 3019SOL    HW220694   2.994   2.526   3.921 -2.2739 -1.4503 -0.2073
 3020SOL     OW20695   3.395   2.282   6.729 -0.4612  0.0552 -0.3761
 3020SOL    HW120696   3.318   2.327   6.765 -0.1086  0.2693  0.1066
 3020SOL    HW220697   3.374   2.192   6.750 -2.2338  0.5877  0.1668
 3021SOL     OW20698   1.242   3.341  17.390  0.7076 -0.1851 -0.1662
 3021SOL    HW120699   1.202   3.424  17.417  1.6772  0.6442 -1.2640
 3021SOL    HW220700   1.158   3.303  17.366  1.4951 -1.7222 -0.4770
 3022SOL     OW20701   2.340   4.505   5.748  0.2910  0.5940  0.6888
 3022SOL    HW120702   2.390   4.584   5.730  1.0002  0.1706  0.7881
 3022SOL    HW220703   2.253   4.546   5.747 -0.2805 -0.6074  0.4864
 3023SOL     OW20704   3.368   1.702   3.284 -0.8505 -0.4939  0.6020
 3023SOL    HW120705   3.374   1.776   3.225  0.5530  1.2214  2.9025
 3023SOL    HW220706   3.442   1.650   3.253 -0.4797  0.0473  0.5901
 3024SOL     OW20707   2.240   0.885   2.003  0.1443  0.0906 -0.8547
 3024SOL    HW120708   2.201   0.970   1.984 -0.4679 -0.1268 -0.5732
 3024SOL    HW220709   2.233   0.873   2.098 -0.4284  0.6300 -0.8272
 3025SOL     OW20710   4.462   4.274   4.113  0.3978  0.4583 -0.7190
 3025SOL    HW120711   4.479   4.355   4.065 -0.4189 -0.4242 -2.4652
 3025SOL    HW220712   4.543   4.285   4.164  0.5183  0.8574 -0.9943
 3026SOL     OW20713   0.519   0.870   7.380  0.2263  0.3852 -0.4862
 3026SOL    HW120714   0.589   0.934   7.372  0.7470  0.0628  1.6158
 3026SOL    HW220715   0.547   0.806   7.314 -2.6334 -0.9764 -0.3826
 3027SOL     OW20716   1.706   4.493   5.394 -0.2415 -0.2361  0.0267
 3027SOL    HW120717   1.670   4.576   5.364 -0.0682 -0.7421 -1.5802
 3027SOL    HW220718   1.781   4.473   5.338  0.7861 -0.9955  1.6723
 3028SOL     OW20719   1.602   0.517   9.786  0.3717  1.1190 -0.7016
 3028SOL    HW120720   1.680   0.482   9.830 -0.8627  1.3084  1.6383
 3028SOL    HW220721   1.555   0.543   9.865 -1.7772 -2.5910 -0.7573
 3029SOL     OW20722   3.389   1.438   6.732  0.0968 -0.4997 -0.2470
 3029SOL    HW120723   3.469   1.386   6.733 -0.6194 -1.5854  1.2362
 3029SOL    HW220724   3.316   1.376   6.726 -1.4794  1.1040  1.8348
 3030SOL     OW20725   2.252   3.126   8.550 -0.0374 -0.9074  0.2467
 3030SOL    HW120726   2.220   3.154   8.464  1.3857  0.3096  0.1133
 3030SOL    HW220727   2.304   3.047   8.533 -0.9448 -1.4741  0.1191
 3031SOL     OW20728   2.370   4.459   6.830 -0.2875 -0.1003  0.1196
 3031SOL    HW120729   2.312   4.407   6.885  0.3820  1.7622  2.5740
 3031SOL    HW220730   2.297   4.508   6.790 -0.4507 -0.9931 -0.6873
 3032SOL     OW20731   3.669   3.266   3.716 -0.7065 -0.2052  0.2621
 3032SOL    HW120732   3.691   3.176   3.694  0.2592  0.0032  0.3880
 3032SOL    HW220733   3.701   3.279   3.806 -2.2981  4.2199  0.2392
 3033SOL     OW20734   4.003   4.506   2.428  0.3933 -0.5365  0.3034
 3033SOL    HW120735   3.937   4.460   2.376  0.7745 -0.7120 -0.0273
 3033SOL    HW220736   4.084   4.468   2.393  0.5152 -0.7653  0.8360
 3034SOL     OW20737   2.922   2.540   5.146  0.2214  0.6190  0.4149
 3034SOL    HW120738   2.869   2.492   5.083  0.6951 -0.0207  0.5057
 3034SOL    HW220739   2.885   2.627   5.131 -1.6723 -0.0630  1.2052
 3035SOL     OW20740   1.478   3.137   1.114  0.2715  0.0108  0.4715
 3035SOL    HW120741   1.508   3.108   1.200 -2.1411 -1.1885  0.9083
 3035SOL    HW220742   1.400   3.082   1.113  0.2618  0.0170  0.8334
 3036SOL     OW20743   0.213   1.057   9.683 -0.2889 -0.3299  0.4990
 3036SOL    HW120744   0.188   1.023   9.597 -0.9349 -1.9651  1.3187
 3036SOL    HW220745   0.207   0.979   9.738  1.7317 -1.8889 -1.4794
 3037SOL     OW20746   2.317   4.147   7.712  0.0231  0.1224  0.7156
 3037SOL    HW120747   2.300   4.175   7.802  0.0297  0.6501  0.5576
 3037SOL    HW220748   2.344   4.233   7.680 -0.0574  0.1280  0.6623
 3038SOL     OW20749   3.492   1.140   4.954 -0.0695  0.7643  0.2418
 3038SOL    HW120750   3.469   1.048   4.947 -1.6165  1.2839 -1.5541
 3038SOL    HW220751   3.587   1.149   4.941  0.0051 -1.6996 -0.8340
 3039SOL     OW20752   3.562   0.215   1.234  0.6032 -0.2894  0.1331
 3039SOL    HW120753   3.486   0.187   1.285  0.5907 -1.9910 -0.7908
 3039SOL    HW220754   3.538   0.303   1.207  0.1237 -0.3869  0.2383
 3040SOL     OW20755   0.407   4.135   0.720 -0.3566 -0.5666  0.4552
 3040SOL    HW120756   0.345   4.180   0.778 -0.5795  0.4111 -0.5448
 3040SOL    HW220757   0.455   4.209   0.682 -0.7181  0.6990  2.4454
 3041SOL     OW20758   2.140   4.015  13.215 -0.5978  0.2249  0.0199
 3041SOL    HW120759   2.161   4.069  13.291  3.1133  1.4126 -1.8855
 3041SOL    HW220760   2.227   4.020  13.176 -0.4120  1.3919  0.6000
 3042SOL     OW20761   4.587   4.583   5.290 -0.4332  0.2161 -0.0604
 3042SOL    HW120762   4.582   4.531   5.370 -1.1496  1.3231  0.6135
 3042SOL    HW220763   4.564   4.515   5.228 -2.7180 -0.4363  1.5276
 3043SOL     OW20764   2.041   0.997  11.517 -0.1778 -0.2499  0.5318
 3043SOL    HW120765   1.963   0.997  11.462 -1.0847 -0.1636  1.8106
 3043SOL    HW220766   2.101   0.936  11.475 -1.8140 -1.7954  0.4315
 3044SOL     OW20767   3.748   4.102  16.590 -0.1169 -0.1448  0.0171
 3044SOL    HW120768   3.823   4.043  16.601 -0.1830 -0.2392 -0.0484
 3044SOL    HW220769   3.744   4.132  16.681  1.3810 -1.7333  0.5972
 3045SOL     OW20770   0.080   0.622  12.253  0.3355 -0.1303 -0.6063
 3045SOL    HW120771   0.062   0.607  12.345  2.6015 -0.1153 -0.1521
 3045SOL    HW220772   0.012   0.682  12.221 -0.4616  0.4065  2.1406
 3046SOL     OW20773   0.993   2.331   2.528 -0.5450 -0.1821  0.3467
 3046SOL    HW120774   0.925   2.328   2.460 -0.5639 -0.5093  0.3812
 3046SOL    HW220775   1.051   2.403   2.503 -2.5320  0.8070 -1.4169
 3047SOL     OW20776   1.484   4.159   7.263  0.2565 -0.5559 -0.0859
 3047SOL    HW120777   1.555   4.223   7.259  0.7287 -1.1453 -1.2174
 3047SOL    HW220778   1.412   4.209   7.223  1.6922  1.8393  0.3373
 3048SOL     OW20779   0.842   4.590   5.792 -0.2591  0.1865 -0.2318
 3048SOL    HW120780   0.874   4.568   5.880  1.2319  1.4063 -0.4798
 3048SOL    HW220781   0.811   4.509   5.751 -2.3833  0.9822 -0.1715
 3049SOL     OW20782   4.434   2.438   2.904 -0.2029  0.0682 -0.4529
 3049SOL    HW120783   4.363   2.377   2.885 -0.9868  0.8000  0.1307
 3049SOL    HW220784   4.499   2.385   2.951 -0.2990  0.8199  0.5275
 3050SOL     OW20785   4.311   1.603   4.861  0.3121  0.0051 -0.1395
 3050SOL    HW120786   4.249   1.598   4.933 -0.9155 -0.4290 -1.2157
 3050SOL    HW220787   4.274   1.542   4.797  0.4414  0.0486 -0.2579
 3051SOL     OW20788   0.133   0.645  15.212 -0.6843  0.6650  0.6135
 3051SOL    HW120789   0.132   0.739  15.227  0.5674  0.9987 -1.3822
 3051SOL    HW220790   0.162   0.639  15.121 -0.2346  0.9774  0.7376
 3052SOL     OW20791   1.599   2.306  13.021 -0.6776  0.7690  0.3754
 3052SOL    HW120792   1.646   2.374  12.974 -0.8717 -1.0872 -2.4911
 3052SOL    HW220793   1.594   2.351  13.105  1.8652  0.7724  0.5111
 3053SOL     OW20794   3.232   1.953   0.830  0.4155  0.2188 -0.0092
 3053SOL    HW120795   3.213   1.966   0.923 -1.3674 -0.7768 -0.2463
 3053SOL    HW220796   3.183   2.024   0.788 -1.2487 -1.7965 -1.4358
 3054SOL     OW20797   2.398   1.993   2.478  0.0905 -0.7577  0.1457
 3054SOL    HW120798   2.399   2.056   2.550  3.4395  1.1244 -1.5281
 3054SOL    HW220799   2.328   2.021   2.419 -1.6139  0.8423  2.9029
 3055SOL     OW20800   0.690   2.002   6.841 -0.3280 -0.1956 -0.5303
 3055SOL    HW120801   0.717   1.969   6.927  0.6605 -0.0256 -0.7726
 3055SOL    HW220802   0.698   1.919   6.793  1.6036  0.6393 -1.6823
 3056SOL     OW20803   0.417   0.989   3.439  0.4980 -0.1520  0.1643
 3056SOL    HW120804   0.361   1.008   3.514  1.3608  0.2449  0.7077
 3056SOL    HW220805   0.488   1.051   3.457  2.8528 -2.3881 -1.4877
 3057SOL     OW20806   2.990   0.404  13.031  0.2039  0.0204  0.1187
 3057SOL    HW120807   3.066   0.434  13.081  0.9797  0.1026 -1.1300
 3057SOL    HW220808   2.988   0.463  12.956 -0.1525 -0.3964 -0.2056
 3058SOL     OW20809   1.625   1.191   8.216 -0.1727  0.6004  0.1586
 3058SOL    HW120810   1.698   1.132   8.199 -0.6319 -0.0518  0.4328
 3058SOL    HW220811   1.556   1.132   8.185 -0.7486  1.3386  0.0150
 3059SOL     OW20812   2.073   4.097   8.072 -0.1988  0.0484 -0.4026
 3059SOL    HW120813   1.984   4.133   8.074 -0.1579  0.0172  1.4826
 3059SOL    HW220814   2.119   4.138   7.998 -0.3929 -2.0959 -1.7149
 3060SOL     OW20815   2.664   4.415  16.759  0.0913  0.0353  0.4952
 3060SOL    HW120816   2.654   4.507  16.733 -1.0902 -0.7574 -1.8737
 3060SOL    HW220817   2.658   4.425  16.854 -1.8806 -2.8682  0.6680
 3061SOL     OW20818   3.226   0.963   8.098  0.0432 -0.0456  0.2404
 3061SOL    HW120819   3.275   1.022   8.041 -1.2592  0.2908 -0.5146
 3061SOL    HW220820   3.233   0.884   8.044 -0.6521  1.1735 -1.6237
 3062SOL     OW20821   2.299   2.604  16.338  0.3636  0.3279  0.2361
 3062SOL    HW120822   2.294   2.602  16.242  1.7621 -1.8138  0.2097
 3062SOL    HW220823   2.355   2.528  16.355  1.0009 -0.1468 -3.9577
 3063SOL     OW20824   0.958   1.728  16.294 -0.0069  0.0268  0.6170
 3063SOL    HW120825   0.936   1.684  16.212  0.9358 -1.2802  1.0658
 3063SOL    HW220826   0.878   1.711  16.345  0.3375  2.1273  1.8620
 3064SOL     OW20827   0.491   3.758   1.944 -0.5333 -0.4899 -0.6413
 3064SOL    HW120828   0.434   3.829   1.913  1.2612  0.4385 -1.7551
 3064SOL    HW220829   0.502   3.769   2.038 -0.9886  0.7933 -0.7317
 3065SOL     OW20830   2.292   2.120  15.840  0.4107  0.5317  0.0069
 3065SOL    HW120831   2.288   2.028  15.864 -0.5948 -0.1992 -2.8928
 3065SOL    HW220832   2.385   2.133  15.855  0.4910  1.2770 -1.1143
 3066SOL     OW20833   0.712   3.617  17.315  0.4902 -0.1023 -0.2496
 3066SOL    HW120834   0.665   3.665  17.247  1.5280  1.8399  0.4314
 3066SOL    HW220835   0.781   3.669  17.356  0.5825  0.6144 -1.3203
 3067SOL     OW20836   1.229   0.476   5.933 -0.4707  0.2784  0.0455
 3067SOL    HW120837   1.207   0.403   5.991 -0.6197 -0.4362 -0.8946
 3067SOL    HW220838   1.169   0.550   5.938  0.5972  1.1121  0.5737
 3068SOL     OW20839   4.621   4.072   4.832 -0.1575  0.7185 -0.1694
 3068SOL    HW120840   4.702   4.120   4.810  1.2738 -1.9655 -0.7305
 3068SOL    HW220841   4.645   4.028   4.913 -2.3304  0.0774  0.1108
 3069SOL     OW20842   0.031   1.952  17.567 -0.9561  0.7736  0.4414
 3069SOL    HW120843   0.104   1.943  17.628 -1.3368  0.1194  0.8035
 3069SOL    HW220844   4.700   1.910  17.619 -1.3925  1.7623  0.6629
 3070SOL     OW20845   1.739   4.257   5.932 -0.0031 -0.0975  1.4061
 3070SOL    HW120846   1.679   4.214   5.993 -0.6492 -0.8120  0.2670
 3070SOL    HW220847   1.819   4.252   5.984 -1.6149 -0.3806  3.8708
 3071SOL     OW20848   1.261   0.979   9.421 -0.1313 -0.2717 -0.3007
 3071SOL    HW120849   1.250   1.042   9.492 -3.3035 -0.7262 -0.4102
 3071SOL    HW220850   1.347   0.998   9.385 -1.2582  0.1590 -2.7529
 3072SOL     OW20851   0.976   1.181  14.937 -0.1940  0.4046  0.1766
 3072SOL    HW120852   0.893   1.219  14.908  1.0104  2.5487 -0.4639
 3072SOL    HW220853   0.991   1.226  15.021  0.6616  1.5902 -0.6064
 3073SOL     OW20854   3.100   2.992   9.399  0.5216 -0.0082 -0.5029
 3073SOL    HW120855   3.194   3.002   9.381  0.9526 -1.7835  0.7732
 3073SOL    HW220856   3.093   2.998   9.494 -0.0666  0.1540 -0.5554
 3074SOL     OW20857   1.578   0.692   7.375  0.3770 -0.5973  0.5755
 3074SOL    HW120858   1.576   0.651   7.288 -2.0277 -3.6453  2.0763
 3074SOL    HW220859   1.592   0.786   7.363  0.6199 -0.7402 -0.2482
 3075SOL     OW20860   1.724   4.168   5.663  0.1966 -0.0671 -0.4743
 3075SOL    HW120861   1.745   4.205   5.749 -3.4373 -1.7451  1.1299
 3075SOL    HW220862   1.773   4.086   5.667  0.4727  0.1718  1.2739
 3076SOL     OW20863   3.898   4.423   8.137  0.0530  0.0325  0.0887
 3076SOL    HW120864   3.893   4.477   8.216  1.2053 -0.9683  0.8451
 3076SOL    HW220865   3.973   4.461   8.092 -0.7112  0.3903 -0.8752
 3077SOL     OW20866   3.413   4.044  15.703 -0.2613 -0.0553 -0.0610
 3077SOL    HW120867   3.357   4.054  15.625  0.5029  1.0042 -0.4766
 3077SOL    HW220868   3.354   4.040  15.779  1.8350  0.9397  1.6105
 3078SOL     OW20869   2.376   2.606   5.753  0.2034  0.2317 -0.2051
 3078SOL    HW120870   2.352   2.516   5.776  0.2470 -0.3789 -2.4958
 3078SOL    HW220871   2.290   2.641   5.727  0.3895 -0.4286 -1.7237
 3079SOL     OW20872   3.634   4.121   2.246  0.8622  0.2473  0.3509
 3079SOL    HW120873   3.548   4.080   2.244  1.4942 -0.9004 -3.3494
 3079SOL    HW220874   3.648   4.120   2.341 -0.4798 -0.9633  0.5282
 3080SOL     OW20875   4.056   3.586   9.696 -0.4105 -0.0622 -0.1987
 3080SOL    HW120876   4.060   3.625   9.609  1.7963 -0.6842 -0.3762
 3080SOL    HW220877   4.040   3.497   9.666 -0.7892  0.7553 -2.4201
 3081SOL     OW20878   0.372   0.123   2.765  0.0613 -0.0672 -0.2532
 3081SOL    HW120879   0.395   0.213   2.743  2.1728 -0.9433 -1.6086
 3081SOL    HW220880   0.329   0.101   2.683  0.6344 -1.1395 -0.2726
 3082SOL     OW20881   2.867   1.464   0.467 -0.2960  0.0421 -0.1985
 3082SOL    HW120882   2.834   1.428   0.385 -0.5868  0.0863 -0.1008
 3082SOL    HW220883   2.791   1.515   0.492 -1.4994 -1.4816 -0.7394
 3083SOL     OW20884   1.677   4.474  17.214 -0.1124 -0.3462  0.1870
 3083SOL    HW120885   1.629   4.501  17.135  2.3666  2.1401 -0.4454
 3083SOL    HW220886   1.615   4.493  17.285 -0.6255 -1.9483  0.1776
 3084SOL     OW20887   0.635   0.834   4.264  0.7326 -0.0132 -0.2190
 3084SOL    HW120888   0.620   0.786   4.183  1.6388 -0.6940  0.0190
 3084SOL    HW220889   0.694   0.903   4.234 -0.2307  1.2083  0.7204
 3085SOL     OW20890   3.268   3.145   7.076  0.2674  0.1637 -0.3507
 3085SOL    HW120891   3.231   3.080   7.136 -1.4154  0.2498 -1.3131
 3085SOL    HW220892   3.323   3.090   7.020  1.4581  2.4775 -1.4381
 3086SOL     OW20893   0.716   4.425   2.904  0.3380 -0.1149  0.0938
 3086SOL    HW120894   0.677   4.498   2.855  1.7357 -0.0010 -0.8500
 3086SOL    HW220895   0.804   4.460   2.915 -0.1970  1.3928 -0.3747
 3087SOL     OW20896   3.740   3.951   1.468  0.4770 -0.4807 -0.3576
 3087SOL    HW120897   3.656   3.911   1.443  0.8902 -0.9096 -1.0434
 3087SOL    HW220898   3.788   3.874   1.499 -1.0471 -0.2727  2.5410
 3088SOL     OW20899   0.347   0.965  17.493  0.3243 -0.1475  0.4119
 3088SOL    HW120900   0.322   1.040  17.547 -0.1409  0.7074 -0.9810
 3088SOL    HW220901   0.397   0.910  17.553  0.1802 -0.8365 -0.1009
 3089SOL     OW20902   4.310   3.616  13.742  0.1736  0.0302  0.0080
 3089SOL    HW120903   4.238   3.629  13.680  0.9124 -0.3303 -0.9290
 3089SOL    HW220904   4.262   3.551  13.793 -2.3913  0.4898 -1.8150
 3090SOL     OW20905   2.323   0.242  13.027  0.3270  0.1740  0.1074
 3090SOL    HW120906   2.413   0.259  13.055 -0.1045  1.4388  0.7493
 3090SOL    HW220907   2.329   0.149  13.005 -2.4195  0.0771 -0.2479
 3091SOL     OW20908   0.781   3.667   2.413 -0.2944  0.2963  0.4898
 3091SOL    HW120909   0.717   3.697   2.477 -1.1682  0.3406 -0.4132
 3091SOL    HW220910   0.723   3.653   2.338  1.5346  1.2395 -1.0914
 3092SOL     OW20911   3.411   4.009   3.247 -0.0675 -0.3170  0.1801
 3092SOL    HW120912   3.360   4.027   3.168  0.3109 -2.7578 -0.6265
 3092SOL    HW220913   3.397   4.094   3.288  3.6481 -1.0925  3.0737
 3093SOL     OW20914   3.293   2.635  11.580 -0.6939 -0.2942 -0.4940
 3093SOL    HW120915   3.282   2.725  11.549 -1.7506  0.1645  1.1709
 3093SOL    HW220916   3.310   2.592  11.497 -0.8438 -1.6353  0.1711
 3094SOL     OW20917   3.159   3.262   1.295 -0.4944  0.2472 -0.3659
 3094SOL    HW120918   3.106   3.342   1.302  0.0139  0.5584 -0.0690
 3094SOL    HW220919   3.242   3.295   1.330 -0.1160  0.6860 -1.6959
 3095SOL     OW20920   3.063   0.792   6.732 -0.0827  0.8076  0.0282
 3095SOL    HW120921   3.077   0.886   6.722  0.2218  0.7537 -0.0500
 3095SOL    HW220922   3.144   0.759   6.771 -0.3916 -1.2047 -1.0343
 3096SOL     OW20923   2.619   2.572   7.823  0.3296 -0.1509  0.1532
 3096SOL    HW120924   2.692   2.600   7.878  1.2280  2.0758 -2.1700
 3096SOL    HW220925   2.662   2.576   7.737 -2.3891  1.6091 -1.1109
 3097SOL     OW20926   0.473   1.478  17.070  0.4173 -0.4998 -0.1310
 3097SOL    HW120927   0.529   1.487  16.993  1.2666 -0.3104  0.5094
 3097SOL    HW220928   0.540   1.459  17.135  0.5486  1.3622  0.2772
 3098SOL     OW20929   0.604   2.713  11.357 -0.1649 -0.1122  0.4969
 3098SOL    HW120930   0.694   2.745  11.365  0.9034 -2.3532 -2.4216
 3098SOL    HW220931   0.617   2.622  11.330  0.8779 -0.4403  2.1343
 3099SOL     OW20932   0.465   4.440   8.005  0.7213  0.7507  0.1478
 3099SOL    HW120933   0.466   4.373   8.073  0.8532  0.2397 -0.3563
 3099SOL    HW220934   0.555   4.433   7.973  1.7635  0.6902  3.0801
 3100SOL     OW20935   0.326   1.648   6.848  0.3458 -0.0867 -0.1700
 3100SOL    HW120936   0.237   1.679   6.864  1.3917  2.3827  0.7797
 3100SOL    HW220937   0.303   1.557   6.866 -0.3664  0.5273  2.0474
 3101SOL     OW20938   2.676   3.405  14.764  0.5917 -0.7722 -0.0049
 3101SOL    HW120939   2.743   3.379  14.701  1.4681 -1.1967  1.0930
 3101SOL    HW220940   2.677   3.497  14.741  2.2754 -0.4998  1.1637
 3102SOL     OW20941   2.045   0.829   4.902 -0.1307  0.1873 -0.6754
 3102SOL    HW120942   2.004   0.895   4.958  0.2294  1.5853 -2.0512
 3102SOL    HW220943   1.967   0.781   4.875 -1.2309  2.2679 -1.2113
 3103SOL     OW20944   3.349   4.481   0.202 -0.0080  0.2385 -0.2773
 3103SOL    HW120945   3.269   4.438   0.173 -0.3608  1.3520 -0.9401
 3103SOL    HW220946   3.317   4.554   0.255  0.2840 -0.0671  0.3228
 3104SOL     OW20947   3.943   0.711   8.595  0.5635  0.2716 -0.0788
 3104SOL    HW120948   4.027   0.667   8.610  0.1850 -0.6985 -0.7819
 3104SOL    HW220949   3.942   0.774   8.667  1.0324  0.9621 -0.6790
 3105SOL     OW20950   0.910   3.504  13.299 -0.7247  0.1090 -0.0353
 3105SOL    HW120951   0.883   3.413  13.309  0.5713  0.0603  3.1383
 3105SOL    HW220952   0.945   3.508  13.210  0.3284 -2.0234  0.2786
 3106SOL     OW20953   4.286   4.581  14.575 -0.0363  0.3506  0.2937
 3106SOL    HW120954   4.298   4.640  14.501 -0.1260 -0.3485 -0.2813
 3106SOL    HW220955   4.297   4.638  14.651  2.7684 -1.3479  1.1430
 3107SOL     OW20956   3.428   4.255   5.136  0.4919  0.4403  0.1697
 3107SOL    HW120957   3.497   4.321   5.125  1.4480 -0.9764 -2.4511
 3107SOL    HW220958   3.470   4.186   5.084  2.7060  1.1398  1.0128
 3108SOL     OW20959   1.532   0.699   3.026  0.0907  0.5219  0.3358
 3108SOL    HW120960   1.522   0.653   2.943  1.8861  1.4906 -0.4201
 3108SOL    HW220961   1.580   0.777   2.999  0.3646  0.6096  1.0658
 3109SOL     OW20962   0.560   1.334   3.899 -0.2288 -0.1831  0.1279
 3109SOL    HW120963   0.625   1.360   3.965  0.4977  1.7460 -1.3686
 3109SOL    HW220964   0.477   1.338   3.945 -1.1737 -0.0021 -1.6148
 3110SOL     OW20965   0.214   4.264   0.864  0.5877  0.9760 -0.3550
 3110SOL    HW120966   0.254   4.230   0.944 -0.4187  0.6697  0.0101
 3110SOL    HW220967   0.144   4.199   0.862  1.7182 -0.2146 -1.9144
 3111SOL     OW20968   0.263   2.128   4.311  0.4865  0.4510 -0.3506
 3111SOL    HW120969   0.174   2.097   4.330  0.9736 -0.4874  0.3916
 3111SOL    HW220970   0.260   2.216   4.347 -0.3110 -0.2633  1.3184
 3112SOL     OW20971   1.900   0.919   3.276  0.1626 -0.1623 -0.0622
 3112SOL    HW120972   1.965   0.983   3.306 -0.2601 -0.1559  0.8231
 3112SOL    HW220973   1.819   0.951   3.314  1.3304 -0.4049  2.6720
 3113SOL     OW20974   0.508   1.077   2.207  0.3115 -0.3539 -0.5354
 3113SOL    HW120975   0.452   1.153   2.221  1.7451  0.7273 -0.6528
 3113SOL    HW220976   0.449   1.008   2.239  1.6676 -0.4038  1.8887
 3114SOL     OW20977   1.172   2.035   7.845  0.3303 -0.2377  0.2022
 3114SOL    HW120978   1.199   2.078   7.926 -1.7860  2.1592 -0.3491
 3114SOL    HW220979   1.130   2.114   7.810  0.3318 -1.6146 -2.9469
 3115SOL     OW20980   3.266   1.319   7.889  0.0538 -0.4426 -0.2046
 3115SOL    HW120981   3.203   1.333   7.960  0.6449 -1.2526  0.4838
 3115SOL    HW220982   3.212   1.284   7.818 -0.4270 -1.0090  0.4363
 3116SOL     OW20983   1.625   3.891   8.805  0.6414 -0.0309 -0.0728
 3116SOL    HW120984   1.684   3.871   8.878 -0.3323  0.7894  0.9379
 3116SOL    HW220985   1.591   3.801   8.799  0.9838  0.0254 -2.5700
 3117SOL     OW20986   0.455   1.878   8.318  0.5285 -0.1299 -0.3841
 3117SOL    HW120987   0.550   1.890   8.309  0.2358  1.7277 -1.1487
 3117SOL    HW220988   0.441   1.834   8.234 -1.9155 -0.7421  0.3472
 3118SOL     OW20989   2.037   3.083   2.312 -0.0066  0.1848 -0.1390
 3118SOL    HW120990   2.011   3.138   2.386  1.8238  0.0486  0.6114
 3118SOL    HW220991   2.132   3.094   2.319  0.2065 -1.4697 -0.4209
 3119SOL     OW20992   0.523   4.719   2.926  0.0651 -0.3762 -0.0467
 3119SOL    HW120993   0.451   0.037   2.897 -0.7792 -1.3540  0.1264
 3119SOL    HW220994   0.607   0.015   2.898 -0.1968 -0.2793 -0.7331
 3120SOL     OW20995   2.829   3.449   7.192 -0.0702 -0.2761 -0.1109
 3120SOL    HW120996   2.788   3.382   7.136  2.3154 -3.2100  1.6362
 3120SOL    HW220997   2.758   3.510   7.207 -0.4084 -0.6571 -0.1591
 3121SOL     OW20998   3.292   4.413   2.211  0.3467 -0.1530  0.3229
 3121SOL    HW120999   3.375   4.381   2.174  0.3106  1.5962 -1.2848
 3121SOL    HW221000   3.238   4.335   2.217  1.6383 -0.9761  1.2209
 3122SOL     OW21001   1.381   3.782  15.378  0.2778  0.6189 -0.2868
 3122SOL    HW121002   1.396   3.831  15.459 -1.5466  0.1514  0.3293
 3122SOL    HW221003   1.293   3.745  15.391  0.5835 -0.6862 -1.9771
 3123SOL     OW21004   0.278   2.370   8.423  0.2032  0.4336  0.3155
 3123SOL    HW121005   0.288   2.463   8.401  0.6123  0.9237  2.5900
 3123SOL    HW221006   0.224   2.378   8.501  2.5831 -3.7788  2.3830
 3124SOL     OW21007   3.623   1.387  14.078 -0.4863 -0.2754 -0.1946
 3124SOL    HW121008   3.714   1.382  14.048 -1.5317  1.2561 -3.6452
 3124SOL    HW221009   3.589   1.465  14.035  0.8080  0.4068  0.0068
 3125SOL     OW21010   0.619   4.682  12.152  0.3318  0.4645  0.5919
 3125SOL    HW121011   0.616   4.727  12.067  0.3104 -0.5946  0.0293
 3125SOL    HW221012   0.541   4.721  12.192  0.8782  1.7077  0.4495
 3126SOL     OW21013   2.803   2.200   7.948  0.7661  0.0201 -0.0387
 3126SOL    HW121014   2.747   2.225   7.874 -2.0063 -1.8900  1.3697
 3126SOL    HW221015   2.876   2.258   7.929 -0.9255  1.9109 -0.7444
 3127SOL     OW21016   1.150   3.598   8.321 -0.6059 -0.0243  0.1599
 3127SOL    HW121017   1.154   3.692   8.336 -0.5243  0.2079 -1.2500
 3127SOL    HW221018   1.163   3.570   8.411  0.3030 -1.4736 -0.4323
 3128SOL     OW21019   0.960   1.273   9.804  0.7670 -0.0403 -0.3365
 3128SOL    HW121020   0.884   1.224   9.834  1.0700  0.0178  0.5517
 3128SOL    HW221021   1.027   1.208   9.825  0.2216 -0.9434 -1.3892
 3129SOL     OW21022   3.209   3.881  15.083 -0.3538 -1.1722  0.7780
 3129SOL    HW121023   3.194   3.841  14.997 -1.3951  0.6428  0.1021
 3129SOL    HW221024   3.188   3.974  15.070  4.0451 -0.3166 -0.0535
 3130SOL     OW21025   2.312   2.749   3.137 -0.2510 -0.5751 -0.2819
 3130SOL    HW121026   2.385   2.793   3.094 -0.5742 -0.6014 -0.8491
 3130SOL    HW221027   2.345   2.742   3.227 -0.5943 -1.6594 -0.2448
 3131SOL     OW21028   4.332   0.429   8.806  0.0799  0.3146  0.1951
 3131SOL    HW121029   4.372   0.421   8.720 -0.6538  4.8424 -0.5246
 3131SOL    HW221030   4.269   0.499   8.791  0.0418 -0.2624 -2.2143
 3132SOL     OW21031   1.018   1.196  14.004  0.4844 -0.2367 -0.3382
 3132SOL    HW121032   1.067   1.258  13.951  0.9988 -1.0025 -0.7668
 3132SOL    HW221033   1.066   1.198  14.087 -0.8334  0.4538  0.3995
 3133SOL     OW21034   1.243   2.908   7.788 -0.4294 -0.5393 -0.2123
 3133SOL    HW121035   1.309   2.968   7.753 -0.3806 -0.3475  0.2088
 3133SOL    HW221036   1.301   2.853   7.840 -0.8922 -1.5957 -0.8121
 3134SOL     OW21037   3.378   3.633  11.168  0.2278  0.1840 -0.0343
 3134SOL    HW121038   3.296   3.600  11.205  0.0321 -0.1903 -0.7815
 3134SOL    HW221039   3.343   3.684  11.094 -0.7490  0.3278  0.5283
 3135SOL     OW21040   1.900   4.686   8.089  0.1217  0.0145  1.3152
 3135SOL    HW121041   1.850   0.005   8.032  1.3748 -1.1748 -0.9885
 3135SOL    HW221042   1.981   4.665   8.042 -0.7264 -1.3820  0.4820
 3136SOL     OW21043   4.672   4.703   8.390  0.1365 -0.4017 -0.1679
 3136SOL    HW121044   4.653   0.056   8.413 -1.7985  0.1117 -3.9900
 3136SOL    HW221045   4.589   4.668   8.423 -1.2628  1.9311 -1.2464
 3137SOL     OW21046   3.820   2.829   4.425  0.0738  0.0461 -0.2399
 3137SOL    HW121047   3.892   2.891   4.412 -0.8582  0.7368 -2.1528
 3137SOL    HW221048   3.828   2.796   4.514 -2.0526  0.0966 -0.0231
 3138SOL     OW21049   0.407   2.794   6.235 -0.0434  0.2147  0.5359
 3138SOL    HW121050   0.367   2.865   6.285 -0.3763  0.0743  0.4660
 3138SOL    HW221051   0.500   2.817   6.238 -0.4216  1.9075 -0.9129
 3139SOL     OW21052   1.962   1.630   8.151 -0.0578 -0.0958  0.0106
 3139SOL    HW121053   2.027   1.559   8.151 -0.6924 -0.6744  0.4313
 3139SOL    HW221054   1.899   1.591   8.213  1.3676 -1.5849  0.5395
 3140SOL     OW21055   1.211   4.363   6.045 -0.1689 -0.1043  0.6024
 3140SOL    HW121056   1.183   4.319   5.965  1.6379 -0.5419  0.2136
 3140SOL    HW221057   1.129   4.385   6.089  0.0402  2.3340 -0.2308
 3141SOL     OW21058   4.033   4.317   5.834  0.0247 -0.0921 -0.0292
 3141SOL    HW121059   3.956   4.326   5.891 -0.0155  0.3736 -0.1564
 3141SOL    HW221060   3.998   4.357   5.754  2.2150  1.6983 -0.0876
 3142SOL     OW21061   4.684   1.542   8.617 -0.1595  0.0202 -0.1623
 3142SOL    HW121062   4.629   1.464   8.622 -0.4635  0.2449 -0.0069
 3142SOL    HW221063   4.691   1.549   8.522 -0.1449 -0.7813 -0.2220
 3143SOL     OW21064   0.014   1.547  13.254 -0.2124  0.3608 -0.0039
 3143SOL    HW121065   0.098   1.501  13.257 -0.1293  0.4908 -0.2896
 3143SOL    HW221066   0.020   1.596  13.336  0.4720  0.1855  0.0530
 3144SOL     OW21067   2.642   0.837  16.548 -0.0683 -0.2860 -0.0025
 3144SOL    HW121068   2.648   0.743  16.563  0.8013 -0.3509 -0.7713
 3144SOL    HW221069   2.720   0.878  16.587  0.3558  0.2875 -1.4534
 3145SOL     OW21070   3.942   4.543   4.404 -0.1232 -0.6455 -0.0558
 3145SOL    HW121071   3.998   4.585   4.339  0.7540  0.3646  1.3390
 3145SOL    HW221072   3.904   4.626   4.432 -0.9175 -2.0223  3.0074
 3146SOL     OW21073   3.994   2.637   8.302  0.0929  0.2684 -0.2691
 3146SOL    HW121074   4.053   2.617   8.230 -0.8842  1.3731 -1.3812
 3146SOL    HW221075   3.922   2.574   8.296  0.4694 -0.4241  2.7606
 3147SOL     OW21076   0.849   2.645   3.872  0.0068 -0.7424 -0.3571
 3147SOL    HW121077   0.869   2.595   3.792 -0.0125 -1.1539 -0.1048
 3147SOL    HW221078   0.934   2.672   3.905  1.0179 -0.7414 -2.9608
 3148SOL     OW21079   3.055   0.094   2.248  0.6315  0.4288  0.6135
 3148SOL    HW121080   3.049   4.738   2.264  1.2846  0.1740 -0.7297
 3148SOL    HW221081   2.964   0.114   2.268  0.4931  2.6254 -2.2649
 3149SOL     OW21082   1.816   1.200   3.431  0.1224  0.3719  0.2580
 3149SOL    HW121083   1.829   1.257   3.506  0.6281 -0.1934  0.5990
 3149SOL    HW221084   1.880   1.241   3.372  0.2721 -0.5623 -0.2366
 3150SOL     OW21085   0.418   1.538   7.536  0.0160 -0.1876  0.6797
 3150SOL    HW121086   0.505   1.528   7.573  0.1035  2.2535  1.0845
 3150SOL    HW221087   0.410   1.633   7.540 -1.2481 -0.4062  3.5972
 3151SOL     OW21088   3.093   4.341   0.166 -0.7723 -0.7392  0.2978
 3151SOL    HW121089   3.153   4.269   0.184  1.3133 -0.1587 -4.3147
 3151SOL    HW221090   3.013   4.291   0.184 -0.1628 -0.9692  2.3949
 3152SOL     OW21091   3.426   0.404   3.502  0.0469 -0.4188 -0.0683
 3152SOL    HW121092   3.433   0.343   3.575  0.9666  0.1244  0.2929
 3152SOL    HW221093   3.416   0.355   3.420 -2.5257 -0.8070  0.4958
 3153SOL     OW21094   3.611   0.953   2.293  0.3699 -0.6177  0.1587
 3153SOL    HW121095   3.538   0.971   2.353 -0.0716 -0.7059 -0.3441
 3153SOL    HW221096   3.661   1.027   2.326 -1.3728  0.1922  1.0301
 3154SOL     OW21097   3.004   1.847   6.836  0.1605  0.0014  0.4150
 3154SOL    HW121098   2.909   1.845   6.844  0.2597  1.3154  1.9847
 3154SOL    HW221099   3.021   1.807   6.751  1.3026 -3.4143  2.2636
 3155SOL     OW21100   3.553   0.857   7.500 -0.1556  0.4456  0.4145
 3155SOL    HW121101   3.614   0.813   7.558 -0.2956 -0.9325 -0.4836
 3155SOL    HW221102   3.486   0.790   7.482  1.5987 -1.5374  1.3030
 3156SOL     OW21103   0.603   3.392  10.514 -0.3203  0.8052 -0.3064
 3156SOL    HW121104   0.585   3.427  10.601 -1.1494  1.3759 -0.7096
 3156SOL    HW221105   0.671   3.327  10.531 -0.8802  0.1514 -0.4977
 3157SOL     OW21106   1.128   1.414   9.420 -0.2876 -0.6939 -0.0200
 3157SOL    HW121107   1.099   1.384   9.506  3.1401  2.4816  2.2349
 3157SOL    HW221108   1.203   1.357   9.402  1.1217  1.4631 -1.0404
 3158SOL     OW21109   4.390   1.094   9.108 -0.2967  0.3709  0.6314
 3158SOL    HW121110   4.346   1.174   9.080 -0.2448  0.6165  1.2402
 3158SOL    HW221111   4.321   1.049   9.157  0.1558 -0.4957  0.4607
 3159SOL     OW21112   3.082   2.881   4.067  0.0327  0.1743 -0.1565
 3159SOL    HW121113   3.134   2.833   4.003  0.4581  0.2485  0.1303
 3159SOL    HW221114   2.995   2.862   4.032  0.9065 -1.4140 -1.4604
 3160SOL     OW21115   1.727   0.650   5.584 -0.1473 -0.0596 -0.3178
 3160SOL    HW121116   1.652   0.639   5.644  0.6781  0.7053  0.8656
 3160SOL    HW221117   1.774   0.572   5.612  0.8806  0.3368 -0.9447
 3161SOL     OW21118   1.187   2.651   5.795 -0.1521 -0.0970 -0.5304
 3161SOL    HW121119   1.232   2.684   5.873  0.4992 -1.4120 -0.3471
 3161SOL    HW221120   1.095   2.649   5.820  0.3004 -0.3306  1.1145
 3162SOL     OW21121   0.354   4.695   5.900  1.3111  0.1293  0.2312
 3162SOL    HW121122   0.429   4.637   5.903 -0.3086 -2.0173 -0.9486
 3162SOL    HW221123   0.281   4.643   5.935  2.3960 -0.1302  2.0712
 3163SOL     OW21124   3.221   3.076   5.754 -0.4771 -0.0985  0.2596
 3163SOL    HW121125   3.299   3.032   5.721 -1.0567 -0.5808 -0.4621
 3163SOL    HW221126   3.260   3.126   5.826 -1.9193  0.7561  0.4542
 3164SOL     OW21127   0.462   2.597   7.043  0.3040  0.0272  0.1955
 3164SOL    HW121128   0.387   2.655   7.051  0.2689 -0.2169  1.5236
 3164SOL    HW221129   0.532   2.649   7.082  0.5096 -0.2489  0.2022
 3165SOL     OW21130   2.912   2.020   3.103 -0.0367 -0.4058  0.1441
 3165SOL    HW121131   2.968   2.064   3.167  1.1211 -2.0045  0.2202
 3165SOL    HW221132   2.850   1.972   3.157  0.8392 -0.4184  1.1467
 3166SOL     OW21133   2.860   4.356  17.715  0.0498  0.1175 -0.0457
 3166SOL    HW121134   2.927   4.412   0.003  0.9756 -2.3308  1.8712
 3166SOL    HW221135   2.884   4.270  17.751 -1.6641 -1.2903 -2.2642
 3167SOL     OW21136   0.062   0.661   2.507 -0.1112  0.2361  0.0419
 3167SOL    HW121137   0.052   0.590   2.443 -1.9445  0.8551 -0.3344
 3167SOL    HW221138   0.085   0.606   2.582 -1.4367 -1.5152 -0.8438
 3168SOL     OW21139   1.774   3.489   5.909 -0.0386  0.1913 -0.7263
 3168SOL    HW121140   1.747   3.528   5.826  0.0989 -1.6141 -1.6291
 3168SOL    HW221141   1.689   3.450   5.930 -1.5029  3.0083 -1.5338
 3169SOL     OW21142   1.468   4.182   3.291  0.8880 -0.3646  0.0525
 3169SOL    HW121143   1.537   4.138   3.341  2.8073  1.5199 -0.9496
 3169SOL    HW221144   1.414   4.216   3.363 -0.5468 -0.8014 -0.8084
 3170SOL     OW21145   4.541   4.463  11.684  0.0015 -0.4469  0.2994
 3170SOL    HW121146   4.483   4.402  11.731 -2.3102  1.8180  0.3843
 3170SOL    HW221147   4.624   4.470  11.731  1.3828 -1.5050 -2.0262
 3171SOL     OW21148   2.533   2.480  15.209 -0.1749 -0.2711  0.3376
 3171SOL    HW121149   2.467   2.455  15.145  0.6694  0.7476 -0.9378
 3171SOL    HW221150   2.492   2.473  15.295  0.2630  1.3253  0.6908
 3172SOL     OW21151   4.641   3.381  13.833 -0.5313  0.2913  0.3287
 3172SOL    HW121152   4.641   3.286  13.847  2.9253 -0.1698 -2.7784
 3172SOL    HW221153   4.605   3.411  13.916 -0.8629 -2.4843  1.1730
 3173SOL     OW21154   4.554   1.184   7.270  0.2084 -0.2575 -0.4835
 3173SOL    HW121155   4.459   1.197   7.276  0.1925 -1.6706  2.2759
 3173SOL    HW221156   4.573   1.277   7.259  2.2506 -0.5866  0.3132
 3174SOL     OW21157   3.225   4.552  10.189 -0.0478 -0.0723 -0.1746
 3174SOL    HW121158   3.226   4.529  10.282  0.0822  1.3913  0.1967
 3174SOL    HW221159   3.273   4.635  10.183  2.0111 -1.2232  0.9022
 3175SOL     OW21160   2.871   0.690   8.296  0.3764  0.1400  0.2964
 3175SOL    HW121161   2.785   0.723   8.322 -0.7398 -2.1749 -0.4470
 3175SOL    HW221162   2.893   0.750   8.225 -0.4864 -1.1181 -1.0217
 3176SOL     OW21163   1.398   1.187  14.086  0.0677  0.4148 -0.6787
 3176SOL    HW121164   1.309   1.179  14.121  0.9513 -1.4915  1.1359
 3176SOL    HW221165   1.447   1.133  14.148 -1.2752 -0.4961 -0.4255
 3177SOL     OW21166   3.839   1.251   2.176  0.7394 -0.0896 -0.3585
 3177SOL    HW121167   3.846   1.155   2.169  2.0614  0.1310 -1.9824
 3177SOL    HW221168   3.746   1.266   2.160  0.1177 -2.4735  0.9019
 3178SOL     OW21169   4.559   2.049   3.597  0.0289 -0.2448 -0.6947
 3178SOL    HW121170   4.559   2.130   3.649  2.7077 -0.6239 -0.1223
 3178SOL    HW221171   4.582   1.975   3.653  0.2187  0.1842 -0.1964
 3179SOL     OW21172   4.025   0.854   5.438  0.1274 -0.5221 -0.6041
 3179SOL    HW121173   4.071   0.829   5.517  1.4578 -0.0857 -1.2407
 3179SOL    HW221174   4.054   0.783   5.381 -0.2102  0.4863 -2.0334
 3180SOL     OW21175   2.887   4.104   4.067  0.3688 -0.1115  0.2998
 3180SOL    HW121176   2.978   4.077   4.075 -0.0483 -2.2230 -2.0349
 3180SOL    HW221177   2.869   4.166   4.137  1.9537 -0.6068  1.1481
 3181SOL     OW21178   4.176   1.732  17.037  0.2065 -0.2174 -0.0303
 3181SOL    HW121179   4.188   1.685  16.954  1.0478 -1.4675  0.8063
 3181SOL    HW221180   4.196   1.822  17.011 -0.7489  0.5009  1.7421
 3182SOL     OW21181   3.583   4.248   3.392 -0.4414 -0.2951 -0.2371
 3182SOL    HW121182   3.507   4.305   3.386  0.2465  0.6014 -0.5068
 3182SOL    HW221183   3.647   4.314   3.366 -2.9159  2.3462  0.3707
 3183SOL     OW21184   1.616   4.539   3.162 -0.3372  0.2179 -1.0165
 3183SOL    HW121185   1.542   4.541   3.223 -2.0026 -0.1761 -3.0338
 3183SOL    HW221186   1.668   4.468   3.199 -0.1946  0.8276 -0.0369
 3184SOL     OW21187   0.466   1.898   3.478  0.7354  0.5806  0.6826
 3184SOL    HW121188   0.392   1.958   3.476  2.4830  2.6812 -1.2041
 3184SOL    HW221189   0.428   1.818   3.442 -0.0677  1.3161 -0.0850
 3185SOL     OW21190   4.681   2.374   4.442  0.6272 -0.1872  0.4103
 3185SOL    HW121191   4.591   2.357   4.416  0.3251  0.9243  0.7253
 3185SOL    HW221192   4.667   2.468   4.452  3.1595  0.2319  0.1607
 3186SOL     OW21193   1.886   4.031   1.429  0.6066 -0.3892  0.1966
 3186SOL    HW121194   1.796   4.039   1.463 -0.0999 -2.4219 -1.2416
 3186SOL    HW221195   1.942   4.021   1.506  2.3046  0.0532 -0.9761
 3187SOL     OW21196   4.375   0.166   4.380 -0.8038  0.1628  0.5269
 3187SOL    HW121197   4.337   0.084   4.411 -2.2215  0.2089 -1.0728
 3187SOL    HW221198   4.408   0.206   4.460  3.3717 -3.0499  0.3806
 3188SOL     OW21199   3.247   3.661  15.215  0.0922  0.2384 -0.2607
 3188SOL    HW121200   3.212   3.599  15.152  0.8900 -1.1872  0.6893
 3188SOL    HW221201   3.239   3.749  15.179 -2.4531 -0.6220 -1.7830
 3189SOL     OW21202   2.419   1.011   3.483  0.3205  0.1467  0.3078
 3189SOL    HW121203   2.427   1.078   3.414  0.2237  2.1601  2.2626
 3189SOL    HW221204   2.428   0.923   3.447 -1.1069  0.0923  0.0917
 3190SOL     OW21205   2.776   2.702   6.921  0.6840 -0.1272  0.1245
 3190SOL    HW121206   2.704   2.744   6.968  1.3720  0.5430  0.5817
 3190SOL    HW221207   2.850   2.733   6.973  1.3255 -1.6900  0.1390
 3191SOL     OW21208   1.661   2.990   8.246  0.6076 -0.6234 -0.4370
 3191SOL    HW121209   1.731   3.022   8.303 -1.2220  1.9665  0.3493
 3191SOL    HW221210   1.718   2.940   8.187 -0.5731 -0.9674 -1.2798
 3192SOL     OW21211   1.008   3.524   8.941  0.2786  0.3195  0.1762
 3192SOL    HW121212   1.041   3.526   8.851  1.1592  1.0346  0.5101
 3192SOL    HW221213   1.015   3.432   8.966 -0.8675  0.0474 -0.4541
 3193SOL     OW21214   3.138   0.338   8.849 -0.0682 -0.0025  0.3522
 3193SOL    HW121215   3.050   0.361   8.877  0.2809 -0.1405  1.5634
 3193SOL    HW221216   3.163   0.409   8.790  0.5711  0.0176  0.6408
 3194SOL     OW21217   2.768   3.542   3.613 -0.5416 -0.0268  0.3684
 3194SOL    HW121218   2.861   3.557   3.595 -0.5061  0.6185  1.0940
 3194SOL    HW221219   2.758   3.575   3.702 -0.5464 -0.8754  0.6834
 3195SOL     OW21220   2.590   0.420   8.560  0.3258 -0.6484 -0.4274
 3195SOL    HW121221   2.575   0.511   8.587  1.5159  0.3269 -3.1493
 3195SOL    HW221222   2.527   0.368   8.610  0.6491 -0.8235 -0.2032
 3196SOL     OW21223   0.391   4.076  11.048 -0.2524  0.2337 -0.0592
 3196SOL    HW121224   0.339   3.996  11.038  0.0024  0.2131 -1.2604
 3196SOL    HW221225   0.368   4.117  10.965 -0.5394 -1.4930 -0.8301
 3197SOL     OW21226   1.384   2.555   3.988  0.2714  0.3904 -0.6601
 3197SOL    HW121227   1.425   2.470   3.999  0.9573  0.6886 -0.9324
 3197SOL    HW221228   1.322   2.541   3.916 -1.9470 -2.3279  1.8040
 3198SOL     OW21229   4.539   3.465   4.425 -0.1143  0.2345  0.3069
 3198SOL    HW121230   4.484   3.394   4.459  0.4940 -0.3862  0.0095
 3198SOL    HW221231   4.608   3.476   4.491 -0.5713 -0.6303  0.9442
 3199SOL     OW21232   1.790   4.209   7.361  0.2049 -0.9632  0.3189
 3199SOL    HW121233   1.881   4.235   7.372  0.4476 -1.1481 -1.2147
 3199SOL    HW221234   1.752   4.278   7.306 -0.5054 -0.5049  1.3946
 3200SOL     OW21235   0.185   2.893  17.049  0.7300  0.3461  0.1049
 3200SOL    HW121236   0.248   2.834  17.007 -1.0596 -0.2513 -1.7900
 3200SOL    HW221237   0.117   2.898  16.981  1.0722 -0.5051 -0.3068
 3201SOL     OW21238   4.738   1.714   5.219 -0.0303  0.5132 -0.2634
 3201SOL    HW121239   4.648   1.718   5.185 -0.4334  1.1061  0.8815
 3201SOL    HW221240   0.037   1.636   5.179 -0.3528 -0.8530  2.0649
 3202SOL     OW21241   4.693   3.350   5.775  0.2918 -0.0339 -0.0859
 3202SOL    HW121242   4.609   3.377   5.737  1.6999 -0.1180 -3.2250
 3202SOL    HW221243   0.015   3.364   5.702 -1.4567  2.5912 -1.0239
 3203SOL     OW21244   1.375   0.371  14.302  0.3791 -0.1151 -0.5002
 3203SOL    HW121245   1.321   0.449  14.315 -0.1932 -0.4075 -1.1137
 3203SOL    HW221246   1.397   0.387  14.210  0.1757  3.3530  0.0496
 3204SOL     OW21247   1.147   3.180   4.582  0.1304  0.3022  0.2917
 3204SOL    HW121248   1.110   3.186   4.670 -0.6962  1.5045 -0.1405
 3204SOL    HW221249   1.080   3.182   4.514  1.5020 -4.5018 -1.2321
 3205SOL     OW21250   2.561   3.390   5.281 -0.5316  0.3792 -0.2539
 3205SOL    HW121251   2.636   3.390   5.341  0.4082  1.8542 -1.4551
 3205SOL    HW221252   2.562   3.482   5.257 -1.4547  0.7261  0.9838
 3206SOL     OW21253   3.476   2.941   4.488 -0.0101 -0.2224 -0.2538
 3206SOL    HW121254   3.511   2.879   4.552  0.4512  4.8253  4.3231
 3206SOL    HW221255   3.452   3.020   4.536 -0.5729 -1.8229  2.0656
 3207SOL     OW21256   1.705   2.744   4.259  0.5110  0.7800 -0.1057
 3207SOL    HW121257   1.743   2.674   4.206  1.2755  0.6990  0.5414
 3207SOL    HW221258   1.649   2.786   4.194  1.8618  1.4776 -0.8247
 3208SOL     OW21259   4.506   0.761   3.399 -0.1579 -0.3333  0.1682
 3208SOL    HW121260   4.577   0.812   3.362 -0.3768  1.0052  1.5688
 3208SOL    HW221261   4.536   0.680   3.357  0.8554  0.9477 -1.5537
 3209SOL     OW21262   3.208   0.877   6.000 -0.0428 -0.6849  0.0396
 3209SOL    HW121263   3.189   0.966   6.029  0.1901 -0.0340 -1.8064
 3209SOL    HW221264   3.296   0.866   6.034 -0.1718  0.7299  0.8237
 3210SOL     OW21265   1.126   0.138   9.060  0.4054  0.0161  0.9696
 3210SOL    HW121266   1.219   0.124   9.046  0.4425  1.9664 -0.6740
 3210SOL    HW221267   1.096   0.053   9.027 -0.8865  0.8971 -0.0874
 3211SOL     OW21268   4.635   2.455   6.981 -0.5914  0.1751 -0.4752
 3211SOL    HW121269   4.711   2.486   6.932  0.1092  0.0022  0.4973
 3211SOL    HW221270   4.576   2.527   6.960 -0.6663  0.2730  0.0644
 3212SOL     OW21271   4.673   0.830   6.748 -0.1588 -0.6076  0.3586
 3212SOL    HW121272   0.015   0.858   6.791 -0.3645 -0.2410  0.5038
 3212SOL    HW221273   4.696   0.737   6.745  0.6418 -0.4418  1.3801
 3213SOL     OW21274   3.703   3.024  14.822 -0.0036 -0.1116  0.0682
 3213SOL    HW121275   3.671   2.988  14.740  2.2121  0.9480 -1.2581
 3213SOL    HW221276   3.738   3.106  14.787 -0.8238  0.2859  0.1884
 3214SOL     OW21277   1.057   0.592   7.354 -0.2966  0.5131  0.3887
 3214SOL    HW121278   1.115   0.661   7.321 -0.9170  1.0070  0.3326
 3214SOL    HW221279   1.115   0.558   7.423  1.8108  2.6335 -0.3278
 3215SOL     OW21280   3.044   1.632   8.019  0.1204  0.1704 -1.0858
 3215SOL    HW121281   3.061   1.541   8.044 -1.1401 -0.1933 -1.5409
 3215SOL    HW221282   3.071   1.622   7.927  1.7293  1.2682 -0.7424
 3216SOL     OW21283   2.860   2.371   3.098  0.3384  0.1002 -0.0992
 3216SOL    HW121284   2.786   2.398   3.043  0.5344  3.1063  1.1042
 3216SOL    HW221285   2.930   2.350   3.035  0.9481 -0.9727  0.9502
 3217SOL     OW21286   0.077   1.378   7.022  0.4879 -0.0150  0.1612
 3217SOL    HW121287   0.091   1.292   7.061 -0.0445 -0.9034 -1.6080
 3217SOL    HW221288   0.168   1.407   7.010  0.4949 -0.2763 -0.4087
 3218SOL     OW21289   3.587   2.316   7.166 -0.2840  0.0007 -0.5956
 3218SOL    HW121290   3.506   2.270   7.144  0.6249 -0.7840 -2.2991
 3218SOL    HW221291   3.633   2.311   7.081 -0.0547  2.7967 -0.6222
 3219SOL     OW21292   3.900   2.034   0.922  0.3148 -0.0807  0.6224
 3219SOL    HW121293   3.966   2.048   0.854  0.4727  0.7165  0.9384
 3219SOL    HW221294   3.935   2.092   0.990  0.4127 -0.1771  0.6537
 3220SOL     OW21295   1.260   3.030   3.595  0.4325 -0.7002  0.0526
 3220SOL    HW121296   1.169   3.049   3.618  0.6931  0.2272  0.3192
 3220SOL    HW221297   1.286   3.114   3.556 -0.8815 -0.7382 -0.9083
 3221SOL     OW21298   0.542   0.946   5.345 -0.5259 -0.5424  0.1712
 3221SOL    HW121299   0.565   1.019   5.402 -0.9335  1.2784 -1.9968
 3221SOL    HW221300   0.625   0.898   5.344  0.0628  0.5007 -1.4136
 3222SOL     OW21301   2.594   4.019   9.901  0.1522 -0.1637 -0.1422
 3222SOL    HW121302   2.678   3.976   9.919 -0.0319  0.0387  1.1951
 3222SOL    HW221303   2.611   4.107   9.934 -1.2204  0.5534 -1.3454
 3223SOL     OW21304   4.367   2.203   4.599  0.0260  0.1100 -0.3275
 3223SOL    HW121305   4.331   2.124   4.639 -2.2689 -0.3556 -3.3036
 3223SOL    HW221306   4.457   2.195   4.631 -0.4813 -1.4235  0.7421
 3224SOL     OW21307   4.234   2.823   6.245 -0.1478  0.5941  0.3815
 3224SOL    HW121308   4.305   2.860   6.297 -0.9251  0.3092  1.6381
 3224SOL    HW221309   4.221   2.888   6.176 -0.3275 -0.7798 -0.8678
 3225SOL     OW21310   3.131   2.101   5.116 -0.0755 -0.4198  0.1593
 3225SOL    HW121311   3.075   2.131   5.188 -0.3688  1.0778 -0.6959
 3225SOL    HW221312   3.098   2.158   5.046 -0.8051 -0.8906  0.1210
 3226SOL     OW21313   0.043   3.378   6.306 -0.1024 -0.1547  0.2129
 3226SOL    HW121314   0.134   3.351   6.295 -0.1266 -0.6033  1.1562
 3226SOL    HW221315   4.733   3.316   6.251 -1.0524  0.5779  0.2187
 3227SOL     OW21316   4.337   2.202   3.953  0.6629  0.3750  0.1693
 3227SOL    HW121317   4.249   2.225   3.923 -0.0372 -1.5437  0.7394
 3227SOL    HW221318   4.331   2.262   4.028 -0.4581 -2.8578  2.6676
 3228SOL     OW21319   1.453   4.399   5.353 -0.1226 -0.2337 -0.5160
 3228SOL    HW121320   1.469   4.312   5.388  0.3984 -0.1630 -0.5832
 3228SOL    HW221321   1.543   4.433   5.357 -0.6659  0.9764  1.8105
 3229SOL     OW21322   1.109   3.892   8.710 -0.1460  0.2537 -0.1019
 3229SOL    HW121323   1.189   3.943   8.726 -0.0724  0.0776  0.0931
 3229SOL    HW221324   1.052   3.934   8.775 -1.5894 -2.2490  0.2475
 3230SOL     OW21325   0.290   1.614   9.140 -0.0285 -0.4064 -0.2427
 3230SOL    HW121326   0.261   1.693   9.093  0.7356 -0.0637 -0.1243
 3230SOL    HW221327   0.218   1.605   9.202  1.2013 -0.0152  1.2189
 3231SOL     OW21328   0.023   2.323   5.709  0.4050 -0.5728 -0.1757
 3231SOL    HW121329   4.706   2.390   5.668  1.6860  0.7430  0.2459
 3231SOL    HW221330   0.067   2.289   5.631 -0.8252 -1.6359 -0.4111
 3232SOL     OW21331   4.087   4.234  16.565 -0.4180 -0.4309  0.1345
 3232SOL    HW121332   4.035   4.301  16.520  1.3722  0.1182 -1.1255
 3232SOL    HW221333   4.094   4.281  16.648  0.1556 -1.0399  0.4281
 3233SOL     OW21334   1.500   4.569  17.004  0.5463 -0.7785  0.2313
 3233SOL    HW121335   1.549   4.521  16.937 -0.2347 -0.6735 -0.4103
 3233SOL    HW221336   1.438   4.616  16.948  0.0147 -1.3652  0.3196
 3234SOL     OW21337   0.055   0.697   5.987  0.3309 -0.5271  0.1207
 3234SOL    HW121338   0.024   0.775   6.033  0.5413  0.0749 -0.7686
 3234SOL    HW221339   0.030   0.629   6.050 -0.6924  0.7068  1.0232
 3235SOL     OW21340   4.432   0.713   8.109 -0.7716 -0.2301  0.1775
 3235SOL    HW121341   4.367   0.742   8.044 -0.0281  1.2116  0.0867
 3235SOL    HW221342   4.374   0.717   8.185 -0.2297  3.1509  0.4018
 3236SOL     OW21343   0.587   3.170  13.536 -0.0443  0.6436 -0.0569
 3236SOL    HW121344   0.531   3.234  13.492  1.1533  2.2054  0.6969
 3236SOL    HW221345   0.532   3.148  13.611  1.8977  3.1448  2.0968
 3237SOL     OW21346   4.191   2.092   3.489 -0.0308  0.2557  0.4639
 3237SOL    HW121347   4.176   2.183   3.515  0.5505 -0.2369  2.5428
 3237SOL    HW221348   4.197   2.060   3.579 -0.9101  0.9996  0.7822
 3238SOL     OW21349   2.169   0.271  15.723  0.2685  0.0739  0.0216
 3238SOL    HW121350   2.123   0.231  15.649  1.1008  0.8099 -0.8866
 3238SOL    HW221351   2.238   0.322  15.680  2.9419 -2.7607  0.9888
 3239SOL     OW21352   0.773   0.673  10.428 -0.2489 -0.0528 -0.5131
 3239SOL    HW121353   0.861   0.641  10.446  0.1375  0.8723 -0.7584
 3239SOL    HW221354   0.742   0.625  10.351 -0.0912 -3.6134  1.6379
 3240SOL     OW21355   3.067   4.226   8.049  0.0773 -0.1345 -0.3078
 3240SOL    HW121356   3.037   4.244   7.960 -0.3664 -1.2290 -0.3785
 3240SOL    HW221357   3.162   4.211   8.043  0.1780  0.0813  0.7505
 3241SOL     OW21358   4.026   1.448   6.367 -0.2024 -0.4436 -0.3869
 3241SOL    HW121359   4.085   1.396   6.421  0.8288 -0.0250 -1.0941
 3241SOL    HW221360   4.086   1.499   6.312  1.7421  1.3178  3.3961
 3242SOL     OW21361   4.484   0.585   2.117  0.2073 -0.2701 -0.2856
 3242SOL    HW121362   4.406   0.638   2.132  0.2038 -0.9809  2.2317
 3242SOL    HW221363   4.451   0.496   2.128 -1.0831  0.2893  0.3230
 3243SOL     OW21364   3.625   4.473   9.105  0.1294  0.2811  0.1350
 3243SOL    HW121365   3.659   4.387   9.081  1.2228  0.7715 -0.0751
 3243SOL    HW221366   3.534   4.457   9.079  0.2595  0.6606 -0.5601
 3244SOL     OW21367   1.008   0.387   7.162 -0.2667  0.2735 -0.2157
 3244SOL    HW121368   1.018   0.479   7.185  0.7107  0.1499 -0.1434
 3244SOL    HW221369   1.051   0.339   7.233  1.4862  0.4428 -1.1867
 3245SOL     OW21370   2.171   1.157   7.318 -0.0128  0.5305 -0.1707
 3245SOL    HW121371   2.139   1.211   7.390  1.7588  0.1506  0.9200
 3245SOL    HW221372   2.123   1.075   7.330  1.2188 -0.2451 -0.5042
 3246SOL     OW21373   0.292   0.961   6.137 -0.0621 -0.6077 -0.1189
 3246SOL    HW121374   0.333   0.876   6.155 -2.9139 -1.2295  3.4134
 3246SOL    HW221375   0.311   1.009   6.218  1.9518 -0.5872 -0.5897
 3247SOL     OW21376   3.782   3.710   5.566  0.3965 -0.2844  0.6387
 3247SOL    HW121377   3.845   3.772   5.601  0.4594 -0.1672  0.3190
 3247SOL    HW221378   3.754   3.667   5.647 -0.1547  1.0877  1.1587
 3248SOL     OW21379   0.515   1.486   2.707 -0.6535 -0.8950  0.2305
 3248SOL    HW121380   0.576   1.490   2.633  2.2430  1.2781  2.7009
 3248SOL    HW221381   0.546   1.409   2.754  0.2809 -0.1921  0.7770
 3249SOL     OW21382   1.925   3.878   2.309  0.0866  0.6265  0.1996
 3249SOL    HW121383   1.966   3.942   2.251 -1.5281  0.0951 -1.5242
 3249SOL    HW221384   1.919   3.796   2.258  1.9740  1.3824 -1.2491
 3250SOL     OW21385   0.052   2.386  11.230 -0.2446  0.0026  0.6893
 3250SOL    HW121386   0.032   2.379  11.324 -2.0415 -0.5244  0.2671
 3250SOL    HW221387   0.144   2.411  11.222 -0.9621  1.7961 -1.9758
 3251SOL     OW21388   4.585   0.016   4.526  0.8573 -0.2765  0.5197
 3251SOL    HW121389   4.507   0.033   4.578 -0.4992 -2.0507 -0.9286
 3251SOL    HW221390   4.580   4.658   4.527  0.5272 -0.2989 -2.6368
 3252SOL     OW21391   4.142   1.433   3.326 -0.0008 -0.0043  0.1315
 3252SOL    HW121392   4.078   1.473   3.385 -0.5544 -0.5524 -0.0968
 3252SOL    HW221393   4.182   1.513   3.293 -2.8220  0.8439 -1.2486
 3253SOL     OW21394   3.959   0.746   7.520 -0.1014  0.2412 -0.2635
 3253SOL    HW121395   3.973   0.681   7.451  1.2323  0.9478 -0.6553
 3253SOL    HW221396   4.035   0.738   7.579  0.0029  1.5189 -0.2369
 3254SOL     OW21397   0.921   3.833  11.289  0.5686  0.1074  0.1703
 3254SOL    HW121398   0.831   3.808  11.313  0.3174  1.0165  0.1785
 3254SOL    HW221399   0.954   3.842  11.378 -1.1016  2.1068  0.5897
 3255SOL     OW21400   3.509   4.408  15.533 -0.3225 -0.7126 -0.1276
 3255SOL    HW121401   3.508   4.313  15.520  1.3055 -0.7949  0.3480
 3255SOL    HW221402   3.604   4.411  15.534 -0.4502  3.4346 -1.1601
 3256SOL     OW21403   2.820   4.055  13.754  0.0241 -0.6048  0.5606
 3256SOL    HW121404   2.770   4.128  13.790 -0.0744 -1.3326  1.8877
 3256SOL    HW221405   2.759   4.018  13.690 -2.7613  0.9609  2.3063
 3257SOL     OW21406   4.438   2.012  12.372 -0.1889  0.1923  0.2331
 3257SOL    HW121407   4.466   2.092  12.329 -0.8278  0.1220 -0.3080
 3257SOL    HW221408   4.415   2.036  12.462  0.1101 -1.5915  0.7991
 3258SOL     OW21409   3.274   0.171   2.398  0.4136 -0.6307  0.0531
 3258SOL    HW121410   3.334   0.097   2.393  1.1357 -0.0920  0.7638
 3258SOL    HW221411   3.191   0.144   2.358  1.0968 -0.6817 -1.3076
 3259SOL     OW21412   1.089   4.127  14.917 -0.3591 -0.2999 -0.3754
 3259SOL    HW121413   1.139   4.204  14.892  0.4680 -1.1852 -1.4346
 3259SOL    HW221414   1.065   4.146  15.008  2.1776  0.2729  0.1801
 3260SOL     OW21415   0.176   2.520   4.821  0.6563 -0.3632  0.2837
 3260SOL    HW121416   0.250   2.463   4.799 -0.1082 -0.6022 -1.6289
 3260SOL    HW221417   0.179   2.570   4.740  1.4550 -0.2362  0.3883
 3261SOL     OW21418   3.753   3.571   0.786  0.3794  0.3566  0.5592
 3261SOL    HW121419   3.786   3.482   0.784 -0.2374  0.0273  3.7669
 3261SOL    HW221420   3.665   3.560   0.751  1.4507 -3.8883 -0.7425
 3262SOL     OW21421   0.657   3.662   6.029  0.0806  0.3266  0.0140
 3262SOL    HW121422   0.700   3.726   6.086  0.0651 -0.2527  0.6907
 3262SOL    HW221423   0.566   3.677   6.057 -1.2551 -3.3813 -2.3445
 3263SOL     OW21424   0.028   1.336   6.753 -0.5190 -0.2345  0.8213
 3263SOL    HW121425   0.103   1.292   6.713  1.6558  1.0425  3.4998
 3263SOL    HW221426   0.051   1.338   6.846  0.8788 -0.0151  0.4658
 3264SOL     OW21427   2.169   3.887  14.065 -0.0462 -0.0440  0.5846
 3264SOL    HW121428   2.094   3.947  14.069 -1.3728 -1.7795  1.7542
 3264SOL    HW221429   2.185   3.890  14.159  1.7587 -1.1063  0.3032
 3265SOL     OW21430   2.282   1.124   5.587  0.0012  0.3959 -0.3059
 3265SOL    HW121431   2.349   1.056   5.584 -1.9509 -1.5317  0.0104
 3265SOL    HW221432   2.240   1.087   5.665  0.7900 -1.3611 -0.7271
 3266SOL     OW21433   0.229   0.524   3.406  0.3160 -0.0289 -0.1151
 3266SOL    HW121434   0.251   0.611   3.374 -1.5959  0.6102  0.2764
 3266SOL    HW221435   0.207   0.540   3.498 -0.6548  2.8400 -0.8564
 3267SOL     OW21436   0.305   0.363  15.638  0.4369 -0.2185 -0.5595
 3267SOL    HW121437   0.289   0.421  15.713 -2.1330 -0.8797 -0.5772
 3267SOL    HW221438   0.245   0.290  15.655 -0.2090  0.6180  0.8115
 3268SOL     OW21439   4.666   1.008   6.532 -0.3219  0.0527  0.6383
 3268SOL    HW121440   4.661   0.933   6.592  3.6750 -1.2212 -0.6396
 3268SOL    HW221441   4.661   0.968   6.445  0.4961  2.2251 -0.4026
 3269SOL     OW21442   0.529   0.304   3.007 -0.1671 -0.4518  0.3106
 3269SOL    HW121443   0.601   0.242   2.999  0.0159  0.0332 -1.8418
 3269SOL    HW221444   0.563   0.367   3.070 -3.0614 -0.6546  2.0960
 3270SOL     OW21445   3.300   2.287   2.822  0.6367 -0.4092 -0.0908
 3270SOL    HW121446   3.335   2.371   2.852  1.0499 -0.6200  0.0158
 3270SOL    HW221447   3.208   2.312   2.811  0.7508 -0.3043 -0.7781
 3271SOL     OW21448   4.501   4.552   9.299  0.0403 -0.5186  0.2287
 3271SOL    HW121449   4.448   4.614   9.349  1.3183  0.4924  0.3419
 3271SOL    HW221450   4.559   4.613   9.253 -0.6971 -0.3684 -0.5024
 3272SOL     OW21451   0.951   2.348   3.253 -0.2579  0.1947 -0.0822
 3272SOL    HW121452   0.912   2.307   3.330 -2.4729 -0.0108 -1.3255
 3272SOL    HW221453   0.936   2.441   3.271  1.9332  0.8950 -1.8536
 3273SOL     OW21454   3.082   4.052   7.030 -0.0179  0.4270  0.0897
 3273SOL    HW121455   3.095   4.122   6.966  0.9251  0.4428  0.3020
 3273SOL    HW221456   3.169   4.012   7.038  1.2030  2.7011 -1.8841
 3274SOL     OW21457   4.568   2.617   7.888  0.0168 -0.1596  0.0593
 3274SOL    HW121458   4.512   2.582   7.820  0.7929  0.5015 -0.9153
 3274SOL    HW221459   4.645   2.642   7.837 -2.5643  1.0471 -3.1937
 3275SOL     OW21460   0.190   0.873  14.190  0.4302  0.5389  0.0738
 3275SOL    HW121461   0.178   0.849  14.098  2.3092  0.6471 -0.1961
 3275SOL    HW221462   0.109   0.847  14.235 -0.2580 -0.4109 -1.7050
 3276SOL     OW21463   2.775   4.550   7.252 -0.9346 -0.2465  0.5707
 3276SOL    HW121464   2.839   4.479   7.253 -0.4189  0.2000 -0.7056
 3276SOL    HW221465   2.699   4.503   7.219 -0.0670 -0.7722 -0.6611
 3277SOL     OW21466   1.992   3.225   8.619 -1.1006  0.3248 -0.6324
 3277SOL    HW121467   2.083   3.195   8.613 -0.6766  1.4622  0.0498
 3277SOL    HW221468   1.981   3.196   8.710 -0.2945  1.6523 -0.1037
 3278SOL     OW21469   0.831   0.595   1.062  0.5841  0.6473 -0.3095
 3278SOL    HW121470   0.845   0.553   0.977  0.2728 -1.8152  0.8420
 3278SOL    HW221471   0.924   0.599   1.086  0.8056  1.1067 -1.2280
 3279SOL     OW21472   1.507   0.509   6.676 -0.1291 -0.4504 -0.1253
 3279SOL    HW121473   1.462   0.476   6.598  2.1132  0.4908 -1.8243
 3279SOL    HW221474   1.462   0.593   6.683 -0.2953 -0.5243 -0.3170
 3280SOL     OW21475   3.457   3.799   7.215  0.4375  0.0924  0.2493
 3280SOL    HW121476   3.525   3.767   7.156  0.0376 -2.1723  1.0117
 3280SOL    HW221477   3.511   3.828   7.288 -0.0508 -0.3519  0.7925
 3281SOL     OW21478   1.677   0.289   5.993 -0.3402 -0.5262 -0.4504
 3281SOL    HW121479   1.725   0.229   6.050  1.1501 -0.0079 -1.1662
 3281SOL    HW221480   1.593   0.285   6.037 -0.1209  0.6423  0.0893
 3282SOL     OW21481   0.231   1.047   3.227 -0.1671 -0.3920  0.0615
 3282SOL    HW121482   0.254   1.036   3.319  0.5015 -1.5353 -0.2510
 3282SOL    HW221483   0.286   1.118   3.194 -0.4113 -0.0200  0.4529
 3283SOL     OW21484   4.107   2.716   4.160  0.1690  0.6872 -0.5240
 3283SOL    HW121485   4.034   2.706   4.098 -0.6551 -0.3173  0.5930
 3283SOL    HW221486   4.183   2.680   4.115 -0.3381 -1.2968  0.1952
 3284SOL     OW21487   4.376   3.644  15.538 -0.1396  0.2447 -0.1060
 3284SOL    HW121488   4.405   3.652  15.628 -0.7636 -1.6558  0.2621
 3284SOL    HW221489   4.366   3.549  15.540 -1.9622  0.4601  1.2900
 3285SOL     OW21490   1.532   0.079   3.118  0.2608  0.1677 -0.5627
 3285SOL    HW121491   1.557   4.736   3.074  1.2876  0.1770  0.0021
 3285SOL    HW221492   1.575   0.074   3.204  0.6197  1.6514 -0.6556
 3286SOL     OW21493   3.529   3.012   3.577 -0.0538  0.1729 -0.3473
 3286SOL    HW121494   3.457   2.988   3.519  0.1359  1.6247 -1.1890
 3286SOL    HW221495   3.566   2.924   3.586 -1.3353 -0.5581 -2.2615
 3287SOL     OW21496   1.157   1.933   5.422 -0.5239 -0.0388 -0.2502
 3287SOL    HW121497   1.151   1.938   5.517  1.3310 -0.5621 -0.1049
 3287SOL    HW221498   1.208   2.011   5.402  0.4612 -0.3238  1.1892
 3288SOL     OW21499   1.709   1.086   4.702  0.0997  0.0533 -0.7103
 3288SOL    HW121500   1.662   1.023   4.757 -0.7255  0.1873 -1.2501
 3288SOL    HW221501   1.635   1.134   4.663  0.5048  0.6482 -0.7506
 3289SOL     OW21502   0.631   0.748   5.572 -0.0655 -0.2730  0.2524
 3289SOL    HW121503   0.557   0.808   5.563  1.4561  1.3558 -1.1528
 3289SOL    HW221504   0.601   0.675   5.627 -0.6530  0.1709  0.5179
 3290SOL     OW21505   2.314   4.301   2.831  0.2440 -0.3911  0.1000
 3290SOL    HW121506   2.322   4.278   2.923 -0.2792 -2.0990 -0.2721
 3290SOL    HW221507   2.396   4.351   2.823 -0.2061  0.2556 -0.5047
 3291SOL     OW21508   3.985   4.148  17.005  0.1974  0.2304  0.3232
 3291SOL    HW121509   3.977   4.186  17.092 -0.2386 -0.5120  0.6116
 3291SOL    HW221510   4.040   4.072  17.025 -1.4347 -1.2821 -0.9285
 3292SOL     OW21511   0.485   1.009   7.887  0.0009 -0.3585 -0.2399
 3292SOL    HW121512   0.461   0.956   7.811  1.7191  0.3003 -1.2342
 3292SOL    HW221513   0.515   0.943   7.951 -1.0044  2.7740  3.4574
 3293SOL     OW21514   2.083   0.648  11.321 -0.0356  0.0239 -0.1371
 3293SOL    HW121515   2.105   0.727  11.273 -0.6268  0.2373 -0.0585
 3293SOL    HW221516   2.170   0.615  11.341 -0.7958  0.5791  4.0049
 3294SOL     OW21517   2.497   3.707   2.261 -0.2779  0.0502 -0.0523
 3294SOL    HW121518   2.523   3.682   2.172 -0.0913  2.3738 -0.6557
 3294SOL    HW221519   2.410   3.745   2.246 -0.6785 -1.6345 -2.0616
 3295SOL     OW21520   3.997   0.750  16.627 -0.8638  0.0369  0.3146
 3295SOL    HW121521   3.943   0.805  16.571 -0.7166 -0.6296 -0.4815
 3295SOL    HW221522   3.943   0.671  16.624  0.3629 -0.6722 -2.4097
 3296SOL     OW21523   0.020   1.295   8.307 -0.2059  0.3177 -0.3319
 3296SOL    HW121524   0.023   1.390   8.316 -1.8417  0.5015 -1.6524
 3296SOL    HW221525   4.697   1.264   8.374 -1.9136  0.4583 -1.8358
 3297SOL     OW21526   0.054   1.590   0.774 -0.0960  0.3735  0.4882
 3297SOL    HW121527   0.128   1.571   0.832  1.0672  0.1117 -1.0608
 3297SOL    HW221528   4.727   1.604   0.842 -1.1880 -1.2763 -0.2165
 3298SOL     OW21529   3.973   0.691   6.344 -0.1553  0.8164  0.0269
 3298SOL    HW121530   3.904   0.664   6.406  0.3878 -1.6604 -0.4301
 3298SOL    HW221531   4.041   0.628   6.369 -2.7914 -2.6467 -1.4832
 3299SOL     OW21532   3.797   0.071  16.044 -0.3430 -0.0930  0.2111
 3299SOL    HW121533   3.735   0.085  15.972  3.1584 -0.4317 -2.8217
 3299SOL    HW221534   3.743   0.023  16.106 -1.5364  1.3331  0.2949
 3300SOL     OW21535   1.262   3.687  13.460  0.4444 -0.2124 -0.1027
 3300SOL    HW121536   1.168   3.678  13.476  0.3852 -0.4904 -0.5782
 3300SOL    HW221537   1.276   3.780  13.474 -2.1142  0.4596 -2.0238
 3301SOL     OW21538   0.756   2.386   4.176 -0.3929  0.0354  0.8257
 3301SOL    HW121539   0.824   2.450   4.198 -0.0853  0.1038 -0.2948
 3301SOL    HW221540   0.808   2.306   4.165 -0.9663 -0.1299 -0.6130
 3302SOL     OW21541   0.542   4.136  11.263 -0.0535 -1.0813  0.0934
 3302SOL    HW121542   0.489   4.101  11.192 -0.9788  1.4415 -0.4672
 3302SOL    HW221543   0.490   4.210  11.296  0.3653 -0.3546 -0.8631
 3303SOL     OW21544   2.122   2.733   8.737  0.1998  0.4094  0.4630
 3303SOL    HW121545   2.043   2.767   8.779 -0.3660 -0.8969  0.4358
 3303SOL    HW221546   2.085   2.673   8.673 -0.3609  0.1775  1.0070
 3304SOL     OW21547   4.200   4.054   9.363 -0.1218 -0.5195  0.1754
 3304SOL    HW121548   4.291   4.062   9.333 -0.3224  1.5093  0.0862
 3304SOL    HW221549   4.224   4.029   9.452  0.4715  0.0954  0.1883
 3305SOL     OW21550   2.376   4.472   7.405 -0.0256 -0.1515 -0.1580
 3305SOL    HW121551   2.431   4.394   7.416  0.4093  0.1912  0.1171
 3305SOL    HW221552   2.432   4.549   7.402  0.1099 -0.2471 -0.1135
 3306SOL     OW21553   1.682   3.750   1.249 -0.7039  0.5487 -0.2409
 3306SOL    HW121554   1.698   3.668   1.201 -0.0305  0.1718  0.6436
 3306SOL    HW221555   1.619   3.723   1.316  1.1037 -1.3705  0.6720
 3307SOL     OW21556   2.356   0.718  10.747 -0.1677  0.0796  0.6966
 3307SOL    HW121557   2.331   0.639  10.796 -0.7810 -1.7908 -2.6395
 3307SOL    HW221558   2.450   0.702  10.732 -0.1289 -0.7627  1.8041
 3308SOL     OW21559   3.457   2.777  14.601 -0.1033  0.4624 -0.1141
 3308SOL    HW121560   3.372   2.795  14.640 -0.6848 -0.5408 -0.9012
 3308SOL    HW221561   3.507   2.855  14.628  0.2497 -0.2968  1.4201
 3309SOL     OW21562   3.076   0.932   7.751  0.2459  0.1028  0.2371
 3309SOL    HW121563   3.043   0.951   7.663  0.6512  1.9804  0.4854
 3309SOL    HW221564   3.171   0.942   7.740  0.5083 -1.1505  1.3485
 3310SOL     OW21565   4.339   2.055   2.284  0.4015  0.8809 -0.5722
 3310SOL    HW121566   4.390   2.071   2.363 -0.9353 -0.3639  0.5302
 3310SOL    HW221567   4.350   1.960   2.282 -0.2820  0.7906  0.1241
 3311SOL     OW21568   4.673   0.601   8.665 -0.0764  0.5261  0.2015
 3311SOL    HW121569   4.705   0.663   8.600 -2.9266  2.6496  0.8199
 3311SOL    HW221570   0.011   0.545   8.678 -1.8186 -1.9340 -0.1015
 3312SOL     OW21571   1.035   1.911   4.688  0.2256 -0.1666 -0.3378
 3312SOL    HW121572   1.055   1.896   4.596 -0.1037 -2.8368  0.0311
 3312SOL    HW221573   0.967   1.844   4.696 -1.0451  1.1513 -0.1232
 3313SOL     OW21574   3.222   1.637   6.546  0.2359 -0.3740 -0.2648
 3313SOL    HW121575   3.290   1.570   6.554 -0.0809 -0.7737 -0.9733
 3313SOL    HW221576   3.269   1.720   6.546  0.0573 -0.2744 -0.2859
 3314SOL     OW21577   2.517   1.045  13.117 -0.2414 -0.2124 -0.1790
 3314SOL    HW121578   2.518   0.963  13.165  2.5645 -1.5199 -2.4326
 3314SOL    HW221579   2.574   1.089  13.180 -3.7265  0.7466  2.3168
 3315SOL     OW21580   0.444   2.130   3.720  0.4070 -0.0996 -0.1766
 3315SOL    HW121581   0.504   2.055   3.713  0.7675  0.1318  0.3914
 3315SOL    HW221582   0.481   2.187   3.653 -0.1814  0.5485  0.0444
 3316SOL     OW21583   0.646   0.384   5.336  0.5332  0.6427  0.6043
 3316SOL    HW121584   0.717   0.367   5.398  2.2199 -0.6744 -1.7319
 3316SOL    HW221585   0.657   0.474   5.305  0.6934  0.4053 -0.0129
 3317SOL     OW21586   4.069   3.627   6.782 -0.3711 -0.6278 -0.1481
 3317SOL    HW121587   4.104   3.568   6.716  0.3901 -1.4159  0.9517
 3317SOL    HW221588   3.990   3.578   6.807  0.3747 -1.7639  0.0007
 3318SOL     OW21589   0.834   3.985  15.310  0.8740 -0.5924  0.3782
 3318SOL    HW121590   0.911   3.940  15.344 -0.5241 -1.5843  2.1750
 3318SOL    HW221591   0.799   4.010  15.395 -3.3883  0.3939 -1.6480
 3319SOL     OW21592   4.686   2.518   4.104 -0.2342  0.0798  0.0639
 3319SOL    HW121593   4.729   2.505   4.019  0.6753  3.2961  0.0251
 3319SOL    HW221594   4.726   2.592   4.150  1.9783 -1.8118  1.1640
 3320SOL     OW21595   4.680   2.530  17.558 -0.2861  0.3170  1.4745
 3320SOL    HW121596   4.647   2.450  17.518 -1.4823  1.5630  0.0015
 3320SOL    HW221597   4.702   2.501  17.647 -1.2057 -1.0740  1.2466
 3321SOL     OW21598   2.807   3.609   2.024 -0.2505  0.2494  0.0144
 3321SOL    HW121599   2.765   3.611   1.938 -1.4489  0.3383  0.6107
 3321SOL    HW221600   2.821   3.517   2.044  1.0824  0.2811 -0.7230
 3322SOL     OW21601   2.263   0.836  11.449 -0.2017 -0.1542  0.0453
 3322SOL    HW121602   2.324   0.777  11.404 -1.0559 -0.5162 -0.6332
 3322SOL    HW221603   2.324   0.897  11.490  0.8608  0.9994 -3.2718
 3323SOL     OW21604   3.344   2.097   4.231  0.0090 -0.2570  0.3160
 3323SOL    HW121605   3.339   2.184   4.269  1.3368 -0.3678  0.7240
 3323SOL    HW221606   3.343   2.111   4.136  2.3280 -1.3274  0.1495
 3324SOL     OW21607   3.171   1.677   7.693  0.0936 -0.5072 -0.1572
 3324SOL    HW121608   3.185   1.639   7.606  1.5088 -0.0008 -0.1531
 3324SOL    HW221609   3.095   1.729   7.667  0.3409  0.0166  0.1856
 3325SOL     OW21610   1.946   0.854   7.239 -0.3696 -0.3890 -0.4828
 3325SOL    HW121611   1.861   0.895   7.255  0.2042  1.3163 -1.7638
 3325SOL    HW221612   1.988   0.906   7.170  2.7755 -0.0270  1.7148
 3326SOL     OW21613   1.457   4.697  14.618  0.0429 -0.1838 -0.9736
 3326SOL    HW121614   1.496   4.712  14.531  0.2444  1.7588 -0.5585
 3326SOL    HW221615   1.402   0.037  14.620  2.0283  1.2625 -1.6241
 3327SOL     OW21616   2.705   4.460   2.156 -0.1779  0.8613  0.0498
 3327SOL    HW121617   2.730   4.550   2.176 -0.7749  0.9817  0.2527
 3327SOL    HW221618   2.696   4.415   2.240 -2.0485 -1.3283 -1.3324
 3328SOL     OW21619   1.222   2.317   3.283  0.0993  0.0500  0.0453
 3328SOL    HW121620   1.132   2.343   3.264  0.8363  2.6952  0.1923
 3328SOL    HW221621   1.231   2.231   3.243 -2.6850  0.2883 -1.0762
 3329SOL     OW21622   1.272   2.395   4.966  0.1696 -0.0149 -0.3273
 3329SOL    HW121623   1.253   2.308   5.002  2.2616 -0.7901 -1.0908
 3329SOL    HW221624   1.368   2.390   4.967  0.2268  1.2252  0.6910
 3330SOL     OW21625   1.321   4.171   4.252  0.1034  0.3136 -0.0502
 3330SOL    HW121626   1.235   4.212   4.240  1.1662  1.9053 -2.1177
 3330SOL    HW221627   1.349   4.159   4.162  2.2925 -2.3525  0.9630
 3331SOL     OW21628   0.796   4.302   4.698  0.5955  0.7658  0.3830
 3331SOL    HW121629   0.799   4.295   4.794 -1.0031 -0.9635  0.3164
 3331SOL    HW221630   0.761   4.390   4.687  1.0858  0.8238 -0.7322
 3332SOL     OW21631   1.155   1.295   2.493 -0.1644  0.1069  0.2640
 3332SOL    HW121632   1.238   1.285   2.540 -0.7741 -0.6020  1.1859
 3332SOL    HW221633   1.168   1.384   2.459  2.7352 -0.5055 -0.2921
 3333SOL     OW21634   3.113   3.852   5.724 -0.2613  0.8816  0.1122
 3333SOL    HW121635   3.130   3.824   5.634 -1.6555  1.6507 -0.3898
 3333SOL    HW221636   3.047   3.916   5.699 -0.7237 -0.0614 -1.0864
 3334SOL     OW21637   0.848   4.324   5.246 -0.0856 -0.3811  0.4036
 3334SOL    HW121638   0.852   4.377   5.326 -0.0671 -0.0790  0.2052
 3334SOL    HW221639   0.936   4.335   5.209  0.2339  0.7245  1.4903
 3335SOL     OW21640   1.113   0.596   1.150  0.0784 -0.2430  0.7486
 3335SOL    HW121641   1.151   0.579   1.064 -0.2150 -1.4859  0.8718
 3335SOL    HW221642   1.143   0.516   1.192  0.2911 -1.1997 -1.2167
 3336SOL     OW21643   2.046   0.857   4.024 -0.4413  0.2526 -0.4280
 3336SOL    HW121644   2.052   0.927   3.959  0.2340  1.9351  1.4579
 3336SOL    HW221645   1.983   0.897   4.084  3.8245  5.0686  0.7799
 3337SOL     OW21646   1.626   2.890   2.987 -0.3739  0.6515  0.0241
 3337SOL    HW121647   1.594   2.854   3.070 -2.4953 -0.1015 -1.1319
 3337SOL    HW221648   1.713   2.917   3.016  0.8420 -1.8201 -1.2536
 3338SOL     OW21649   0.345   3.016   6.370 -0.6430  0.1133  0.7806
 3338SOL    HW121650   0.412   3.076   6.401  0.0670  0.0972 -0.6941
 3338SOL    HW221651   0.280   3.080   6.343  0.1441  0.7821  0.4726
 3339SOL     OW21652   3.607   1.661   5.064 -0.0533  0.0997  0.0095
 3339SOL    HW121653   3.646   1.747   5.048 -2.8536  1.3757  0.0949
 3339SOL    HW221654   3.578   1.627   4.979 -2.1039  0.5707  0.5387
 3340SOL     OW21655   0.000   3.599   2.248  0.1833 -0.2795 -0.2917
 3340SOL    HW121656   4.697   3.554   2.174 -0.4728 -2.1089  1.1962
 3340SOL    HW221657   4.671   3.611   2.314  1.0009 -1.2633  0.7348
 3341SOL     OW21658   2.331   2.581   8.527  0.0187  0.2178  0.0688
 3341SOL    HW121659   2.342   2.546   8.438 -1.4299  0.1074 -0.0751
 3341SOL    HW221660   2.251   2.533   8.550 -0.4066  1.7774  1.8113
 3342SOL     OW21661   1.451   4.201   3.607  0.8702  0.0746 -0.5438
 3342SOL    HW121662   1.358   4.220   3.618  0.8310 -1.4464  1.7616
 3342SOL    HW221663   1.455   4.116   3.652  0.8956 -0.6849 -1.9980
 3343SOL     OW21664   1.033   3.141  17.391  0.2454 -0.2742 -0.2983
 3343SOL    HW121665   1.077   3.152  17.475  1.8280  0.1497 -1.1863
 3343SOL    HW221666   0.956   3.197  17.400 -1.2064 -2.4001  0.7020
 3344SOL     OW21667   0.460   1.969  17.235  0.4196  0.0947  0.8907
 3344SOL    HW121668   0.378   1.934  17.269  0.4688  1.1619  2.1063
 3344SOL    HW221669   0.521   1.920  17.289  0.4858 -0.0291  0.7050
 3345SOL     OW21670   2.577   2.036   3.295 -0.2015  0.4767 -0.1374
 3345SOL    HW121671   2.596   1.973   3.225 -1.2094 -1.1553  1.0665
 3345SOL    HW221672   2.662   2.077   3.312 -0.8844  0.2001  3.8201
 3346SOL     OW21673   4.733   0.892   2.382  0.0198  0.3466 -0.3656
 3346SOL    HW121674   4.738   0.843   2.300  0.9423 -0.0158 -0.0942
 3346SOL    HW221675   0.031   0.829   2.445 -0.3828  0.2182 -0.2614
 3347SOL     OW21676   4.417   1.436   7.754 -0.3080  0.1583  0.7785
 3347SOL    HW121677   4.355   1.405   7.689  1.1150 -0.2388 -0.4077
 3347SOL    HW221678   4.390   1.385   7.830 -1.1539  0.0899  0.4255
 3348SOL     OW21679   1.609   3.275   3.161  0.3786 -0.0581 -0.1612
 3348SOL    HW121680   1.536   3.229   3.201 -0.5859 -0.0759 -1.9171
 3348SOL    HW221681   1.594   3.243   3.072  0.2576 -0.0299 -0.1506
 3349SOL     OW21682   2.739   0.299   1.606 -0.3749 -0.6076 -0.6232
 3349SOL    HW121683   2.776   0.239   1.541  2.4108  1.5761 -1.0956
 3349SOL    HW221684   2.696   0.356   1.543 -0.8644 -1.2925 -0.9039
 3350SOL     OW21685   3.655   2.590   4.574  0.3310 -0.7564 -0.1068
 3350SOL    HW121686   3.747   2.615   4.582 -0.6237  2.4221  0.8902
 3350SOL    HW221687   3.605   2.665   4.541  0.8238 -0.2084  0.4001
 3351SOL     OW21688   3.269   1.151   3.969 -0.2867 -0.4033  0.6853
 3351SOL    HW121689   3.233   1.092   3.902  1.0623 -0.1973 -0.2321
 3351SOL    HW221690   3.334   1.092   4.009  0.7449 -0.1251 -0.5730
 3352SOL     OW21691   2.815   0.515   2.594 -0.1144 -0.0508  0.3988
 3352SOL    HW121692   2.776   0.428   2.602 -0.3922  0.2269  1.9811
 3352SOL    HW221693   2.900   0.492   2.556 -0.1387 -0.7743  0.7717
 3353SOL     OW21694   2.359   3.674   9.490 -0.4069 -0.6877  0.6504
 3353SOL    HW121695   2.417   3.743   9.522 -0.0213 -1.7938  2.3068
 3353SOL    HW221696   2.303   3.661   9.566  1.1063 -0.2654  1.8356
 3354SOL     OW21697   0.295   4.718   4.267  0.3380 -0.1214 -0.2035
 3354SOL    HW121698   0.224   0.005   4.327 -1.0225 -0.7654 -1.5383
 3354SOL    HW221699   0.291   4.625   4.292 -1.1822 -0.0530 -0.1637
 3355SOL     OW21700   2.908   3.790   0.988  0.2677 -0.4782  0.4863
 3355SOL    HW121701   2.908   3.718   0.926  0.2245 -0.9623  1.0406
 3355SOL    HW221702   2.967   3.850   0.943  0.2822 -1.9906 -1.4926
 3356SOL     OW21703   2.549   3.494   9.364  0.0911 -0.2894  0.6487
 3356SOL    HW121704   2.506   3.497   9.279 -0.1253  0.8969  0.7961
 3356SOL    HW221705   2.484   3.546   9.411 -0.7317 -1.4148  0.7692
 3357SOL     OW21706   0.171   4.082   2.481 -0.5035 -0.1120 -0.3975
 3357SOL    HW121707   0.199   3.997   2.516  0.7447  1.2259  1.8021
 3357SOL    HW221708   0.086   4.053   2.447  0.8224  0.0689 -3.9066
 3358SOL     OW21709   3.403   2.369   7.810  0.2516  0.2516  0.0797
 3358SOL    HW121710   3.373   2.317   7.885  0.3433 -2.2267 -1.6035
 3358SOL    HW221711   3.447   2.441   7.855 -2.1256  2.3129 -0.8582
 3359SOL     OW21712   4.476   1.918   3.389 -0.4219 -0.8698 -0.4339
 3359SOL    HW121713   4.404   1.981   3.385  1.6120  1.6243  2.3456
 3359SOL    HW221714   4.526   1.962   3.458 -0.9805 -0.9356  0.0115
 3360SOL     OW21715   3.526   0.676   9.544  0.1749 -0.6766 -0.2369
 3360SOL    HW121716   3.510   0.612   9.475  0.5268 -0.8005 -0.2067
 3360SOL    HW221717   3.438   0.710   9.561 -0.1098 -0.8092 -1.4654
 3361SOL     OW21718   0.938   1.667  17.748  0.9911 -0.6272 -0.1632
 3361SOL    HW121719   0.871   1.722  17.708 -0.1835  0.8725  3.8942
 3361SOL    HW221720   0.891   1.643   0.076  2.2217 -0.6856  0.5434
 3362SOL     OW21721   4.583   3.780   5.621 -0.1077  0.1998 -0.0179
 3362SOL    HW121722   4.509   3.726   5.650 -0.1897  0.1599 -0.2999
 3362SOL    HW221723   4.549   3.868   5.637 -1.2057  0.0820 -1.6697
 3363SOL     OW21724   0.650   4.375   9.846  0.1550  0.4026 -0.4946
 3363SOL    HW121725   0.605   4.333   9.772  1.1522  0.8694 -1.3561
 3363SOL    HW221726   0.582   4.436   9.875  0.8954  0.7697  0.4414
 3364SOL     OW21727   3.444   2.731   2.245  0.3124 -0.5267 -0.1467
 3364SOL    HW121728   3.494   2.766   2.319  1.4286 -0.0687 -1.1271
 3364SOL    HW221729   3.431   2.636   2.253 -1.5049 -0.1280  1.5857
 3365SOL     OW21730   4.502   4.028   7.821  0.2899 -0.3752 -0.9095
 3365SOL    HW121731   4.535   3.994   7.737  2.3180 -0.3637 -0.1075
 3365SOL    HW221732   4.569   3.992   7.879  0.9349 -0.1391 -1.5055
 3366SOL     OW21733   0.883   1.714  15.951 -0.2302 -0.5416 -0.0439
 3366SOL    HW121734   0.789   1.694  15.951  0.1243 -2.2462 -1.5353
 3366SOL    HW221735   0.890   1.780  15.883 -0.1207 -2.0077 -1.4626
 3367SOL     OW21736   4.722   0.369  10.238  0.5056 -0.4551  0.0074
 3367SOL    HW121737   0.026   0.388  10.155  0.8078  2.3547  0.8145
 3367SOL    HW221738   0.030   0.289  10.263 -2.4401 -1.2598  2.9684
 3368SOL     OW21739   1.657   2.634   6.131  0.4938 -0.0039  0.1666
 3368SOL    HW121740   1.584   2.583   6.096 -0.5376 -0.5909  3.1699
 3368SOL    HW221741   1.603   2.688   6.188  1.9485  0.3147  1.2209
 3369SOL     OW21742   0.395   0.484   8.818 -0.9979  0.0184 -0.0557
 3369SOL    HW121743   0.490   0.481   8.815 -1.0261 -3.7532  2.2101
 3369SOL    HW221744   0.381   0.497   8.912  1.9270  0.0054  0.3623
 3370SOL     OW21745   2.913   2.361   8.657 -0.0293 -0.0003 -0.1813
 3370SOL    HW121746   2.969   2.356   8.735 -0.7881  2.3976  0.5361
 3370SOL    HW221747   2.872   2.447   8.666 -1.5591 -1.1169  3.4567
 3371SOL     OW21748   0.538   3.306   9.212  0.3679  0.1023 -0.6134
 3371SOL    HW121749   0.469   3.285   9.275  0.7165  0.1707 -0.2094
 3371SOL    HW221750   0.546   3.224   9.164  0.3291  0.8136 -1.8402
 3372SOL     OW21751   4.605   1.881  11.213 -0.7349 -0.3580  0.2553
 3372SOL    HW121752   4.527   1.893  11.160 -0.0822 -0.3294 -0.6962
 3372SOL    HW221753   4.636   1.971  11.206 -2.7203  0.2517 -0.6683
 3373SOL     OW21754   2.181   2.850   1.784 -0.3201 -0.1448  0.2900
 3373SOL    HW121755   2.105   2.792   1.793 -0.5071  0.3248  1.7259
 3373SOL    HW221756   2.166   2.913   1.854  0.7115  0.1749  0.2260
 3374SOL     OW21757   2.976   2.063   7.331  0.3392 -0.3814  0.2644
 3374SOL    HW121758   2.954   1.975   7.363 -0.4132 -0.2655  0.0729
 3374SOL    HW221759   3.001   2.039   7.241  1.2519  0.6738  0.2410
 3375SOL     OW21760   0.571   2.922   4.526  0.0589 -0.3697  0.4356
 3375SOL    HW121761   0.558   2.844   4.471 -0.6687 -0.7602  1.1691
 3375SOL    HW221762   0.507   2.982   4.487  0.6271 -0.6781 -0.9584
 3376SOL     OW21763   1.989   1.200   3.026 -0.4233 -0.1542  0.5555
 3376SOL    HW121764   2.055   1.133   3.039 -0.0994 -0.3542 -2.0134
 3376SOL    HW221765   2.028   1.259   2.961 -0.4566  0.4601  1.0901
 3377SOL     OW21766   1.586   0.370   0.296  0.1767  0.1929  0.1267
 3377SOL    HW121767   1.518   0.434   0.274  1.1710  0.5950 -1.6949
 3377SOL    HW221768   1.659   0.407   0.247  0.2093  3.3531  2.5536
 3378SOL     OW21769   1.342   4.026   1.834  0.2179  0.4685  0.2877
 3378SOL    HW121770   1.347   3.944   1.883  2.8905  0.5695  0.1934
 3378SOL    HW221771   1.278   4.002   1.767  1.4593  1.3531 -1.2157
 3379SOL     OW21772   3.214   3.394   6.919 -0.0088  0.2585  0.4349
 3379SOL    HW121773   3.167   3.316   6.950  0.0053 -0.0035 -0.2040
 3379SOL    HW221774   3.136   3.449   6.913  0.0487  0.0211 -2.2756
 3380SOL     OW21775   3.822   2.365   3.641 -0.0172 -0.2865  0.3546
 3380SOL    HW121776   3.732   2.337   3.659  0.2082  0.3899  2.6340
 3380SOL    HW221777   3.810   2.447   3.593 -0.1145 -0.8933 -0.6419
 3381SOL     OW21778   3.142   3.073   4.431  0.2689 -0.3345  0.4483
 3381SOL    HW121779   3.123   3.092   4.339  4.1602  1.6327  0.0270
 3381SOL    HW221780   3.054   3.048   4.459 -0.5236  0.4960 -1.2638
 3382SOL     OW21781   3.866   2.145   8.329 -0.0345  0.6914  0.2377
 3382SOL    HW121782   3.785   2.125   8.283  0.4766  2.6722 -1.5311
 3382SOL    HW221783   3.845   2.233   8.363  0.4994 -0.0380  2.4646
 3383SOL     OW21784   4.671   3.124  17.120 -0.1732  0.3842  0.7277
 3383SOL    HW121785   4.674   3.192  17.052 -1.9466 -0.8230 -0.5601
 3383SOL    HW221786   4.687   3.048  17.065 -2.8221  0.3998 -0.0890
 3384SOL     OW21787   2.738   2.997   8.953 -0.2956  0.7451 -0.2614
 3384SOL    HW121788   2.757   3.038   8.868  3.8606 -2.1227 -0.7530
 3384SOL    HW221789   2.826   2.959   8.961  0.1601  2.1095  1.2515
 3385SOL     OW21790   2.192   3.957   3.138  0.2771  0.1906 -0.2070
 3385SOL    HW121791   2.261   4.003   3.090 -2.0919  2.4886 -1.4477
 3385SOL    HW221792   2.120   4.014   3.108 -0.7780 -0.8998  0.2439
 3386SOL     OW21793   1.988   1.835   2.229 -0.6830 -0.2330  0.3177
 3386SOL    HW121794   1.903   1.820   2.188  0.2765 -1.2085 -1.3231
 3386SOL    HW221795   1.958   1.867   2.314  1.2233 -1.5207  1.4800
 3387SOL     OW21796   1.489   2.715   9.210 -0.2000  0.0030 -0.6031
 3387SOL    HW121797   1.513   2.723   9.118 -3.0307 -1.6451 -1.5007
 3387SOL    HW221798   1.473   2.621   9.222  0.5358 -0.2527 -1.6317
 3388SOL     OW21799   3.488   0.481   7.304 -0.1177 -0.0306  0.0092
 3388SOL    HW121800   3.560   0.483   7.367  0.2685  0.7011 -0.4572
 3388SOL    HW221801   3.531   0.480   7.218 -0.9087 -0.3436 -0.3794
 3389SOL     OW21802   4.618   1.862   8.341 -0.0881  0.5625 -0.4822
 3389SOL    HW121803   4.529   1.828   8.334 -0.2190  0.8176 -0.0827
 3389SOL    HW221804   4.643   1.856   8.249 -1.0347  0.6502 -0.7377
 3390SOL     OW21805   4.197   4.536   7.586 -0.0407  0.1844 -0.0757
 3390SOL    HW121806   4.220   4.534   7.493 -2.7417  2.9460 -0.7689
 3390SOL    HW221807   4.279   4.516   7.632  0.7418  0.0861 -1.4964
 3391SOL     OW21808   1.708   0.077  16.010 -0.3425  0.8031 -0.3019
 3391SOL    HW121809   1.674   0.155  15.965 -1.6096 -0.1358 -0.9606
 3391SOL    HW221810   1.626   0.040  16.040  0.7480  1.2712  3.1786
 3392SOL     OW21811   0.758   4.243   3.941 -0.2365 -0.4910  0.1307
 3392SOL    HW121812   0.843   4.271   3.976  0.9459 -1.5629 -1.8340
 3392SOL    HW221813   0.691   4.289   3.991 -2.0552 -2.4301 -0.5414
 3393SOL     OW21814   4.182   2.371   2.371  0.3462  0.3498  0.1350
 3393SOL    HW121815   4.178   2.299   2.307 -0.4160  1.5891 -1.2100
 3393SOL    HW221816   4.151   2.440   2.312  1.9928 -0.7160 -1.9688
 3394SOL     OW21817   4.412   2.021   1.958  0.2370  0.3465 -0.1722
 3394SOL    HW121818   4.378   2.005   1.870 -1.4503 -2.5248  0.9985
 3394SOL    HW221819   4.357   1.951   1.992  0.3056  1.9112  3.1537
 3395SOL     OW21820   3.357   0.125   1.385 -0.3320 -0.2254  0.0196
 3395SOL    HW121821   3.380   0.044   1.431 -1.2995 -0.2436  0.4889
 3395SOL    HW221822   3.343   0.174   1.466  0.2561  0.5939 -0.3808
 3396SOL     OW21823   2.574   3.341   6.388  0.0854  0.9126  0.4105
 3396SOL    HW121824   2.566   3.420   6.442  2.4885  0.7897  0.9267
 3396SOL    HW221825   2.654   3.361   6.339  1.3377 -1.1715  1.6109
 3397SOL     OW21826   1.509   1.892  15.867 -0.2082  0.3165 -0.0727
 3397SOL    HW121827   1.589   1.945  15.873  0.1516 -0.2626  0.2815
 3397SOL    HW221828   1.472   1.913  15.953  0.5916 -0.2832  0.4176
 3398SOL     OW21829   2.448   2.805   7.941  0.3329 -0.1834 -0.1618
 3398SOL    HW121830   2.542   2.820   7.951  0.4805 -0.5997 -0.9685
 3398SOL    HW221831   2.444   2.787   7.848  1.0578 -3.5121  0.4684
 3399SOL     OW21832   3.573   3.830   0.042  0.2362 -0.1870  0.6711
 3399SOL    HW121833   3.496   3.854  17.741  0.9578 -1.3300 -0.9013
 3399SOL    HW221834   3.642   3.874  17.744  1.1240 -0.4046  1.6991
 3400SOL     OW21835   1.898   3.891   0.631  0.6189 -0.2774  0.0823
 3400SOL    HW121836   1.851   3.861   0.709  0.7434 -0.4355  0.0957
 3400SOL    HW221837   1.879   3.820   0.570  2.2404 -0.9585  0.3736
 3401SOL     OW21838   0.235   0.307   0.894 -0.3853  0.1105 -0.0861
 3401SOL    HW121839   0.267   0.269   0.975  1.1238 -1.2028 -1.3057
 3401SOL    HW221840   0.221   0.243   0.824 -0.5487  1.1291 -0.9967
 3402SOL     OW21841   0.931   4.680  15.863 -0.2254 -0.3793 -0.3413
 3402SOL    HW121842   0.946   4.648  15.952 -1.6199  1.0554  0.4229
 3402SOL    HW221843   0.847   4.636  15.854 -0.9538  0.8383  0.4806
 3403SOL     OW21844   4.012   2.666   9.589  0.4249 -0.6118  0.8895
 3403SOL    HW121845   3.998   2.701   9.677 -0.5752  0.3899  0.3316
 3403SOL    HW221846   3.980   2.578   9.607 -2.4984 -0.0186 -1.3600
 3404SOL     OW21847   4.625   1.942   2.401 -0.0554  0.0214 -0.0334
 3404SOL    HW121848   4.544   1.971   2.444  0.4046 -1.9763  2.1667
 3404SOL    HW221849   4.664   1.888   2.469 -0.4121  0.3972  0.4690
 3405SOL     OW21850   4.579   3.583   2.028  0.2331  0.1348 -0.7554
 3405SOL    HW121851   4.553   3.670   1.999  0.4603  0.3071 -0.4452
 3405SOL    HW221852   4.501   3.534   2.054 -0.6434  1.7070 -0.4392
 3406SOL     OW21853   2.499   3.545   3.584 -0.0761 -0.0142 -0.5644
 3406SOL    HW121854   2.497   3.516   3.675 -0.1364 -0.7797 -0.8099
 3406SOL    HW221855   2.586   3.514   3.559  1.4112  2.0312  2.1180
 3407SOL     OW21856   0.293   4.412   4.355  0.2709  0.0563 -0.0840
 3407SOL    HW121857   0.242   4.331   4.349 -2.8775  1.8941  1.3431
 3407SOL    HW221858   0.238   4.463   4.415  1.6811 -0.7546  1.9262
 3408SOL     OW21859   0.588   2.347   6.422 -0.4931  0.0355  0.3823
 3408SOL    HW121860   0.676   2.358   6.385 -0.9435  1.4257 -0.2706
 3408SOL    HW221861   0.573   2.424   6.477 -0.3725  0.5161 -0.2486
 3409SOL     OW21862   2.415   3.074   1.933  0.3090 -0.1966 -0.3813
 3409SOL    HW121863   2.471   3.003   1.965  0.3301  0.4602  1.0026
 3409SOL    HW221864   2.428   3.069   1.838 -2.4401  0.6378 -0.7998
 3410SOL     OW21865   3.714   1.586  15.225 -0.6658  0.4235  0.6522
 3410SOL    HW121866   3.761   1.503  15.221 -1.2280  0.1141  0.4678
 3410SOL    HW221867   3.625   1.557  15.205  0.1198  0.5516 -3.1419
 3411SOL     OW21868   2.737   3.844   6.420  0.3579  0.5554  0.4999
 3411SOL    HW121869   2.749   3.844   6.325 -1.4028 -1.5483  0.2713
 3411SOL    HW221870   2.654   3.892   6.424 -1.3554 -2.1559 -2.3340
 3412SOL     OW21871   3.150   0.747   3.791  0.0513 -0.6630 -0.0989
 3412SOL    HW121872   3.126   0.674   3.849  0.1031  0.3030  1.1536
 3412SOL    HW221873   3.170   0.695   3.713  0.8242 -0.7655  0.1720
 3413SOL     OW21874   0.215   3.651   3.710 -0.0809 -0.5021  0.0590
 3413SOL    HW121875   0.133   3.656   3.759  0.3720 -0.5916  0.8300
 3413SOL    HW221876   0.274   3.707   3.761  2.2274 -0.3830 -2.7389
 3414SOL     OW21877   0.617   4.668   3.193  0.0358  0.0791 -0.1167
 3414SOL    HW121878   0.553   4.671   3.122  0.7591 -0.4523 -0.7951
 3414SOL    HW221879   0.606   0.020   3.221  0.0029 -0.0426  0.2567
 3415SOL     OW21880   0.515   0.051  13.324 -0.2253 -0.3910  0.1208
 3415SOL    HW121881   0.467   0.132  13.305  1.6123  0.6708 -0.0787
 3415SOL    HW221882   0.488   0.030  13.413  2.1069 -1.2629  0.6235
 3416SOL     OW21883   1.040   0.393   4.958 -0.4647  0.4027  0.8474
 3416SOL    HW121884   1.040   0.484   4.988 -1.9212  0.5307  0.4604
 3416SOL    HW221885   1.081   0.349   5.033  0.2314 -0.8504 -0.2658
 3417SOL     OW21886   4.308   4.483   1.922 -0.1643 -0.2278 -0.0013
 3417SOL    HW121887   4.375   4.447   1.980 -0.3669 -0.3726  0.1447
 3417SOL    HW221888   4.261   4.403   1.899 -0.8959 -0.1970  1.3335
 3418SOL     OW21889   1.686   1.358   1.724  0.3468 -0.1620 -0.0745
 3418SOL    HW121890   1.725   1.443   1.707 -0.0510  0.1893  0.7575
 3418SOL    HW221891   1.602   1.364   1.677 -0.2079  1.9733  1.1813
 3419SOL     OW21892   1.474   3.466  15.711  0.3284  0.2401 -0.1435
 3419SOL    HW121893   1.392   3.420  15.695  1.9383 -1.3997 -3.5792
 3419SOL    HW221894   1.445   3.557  15.710  0.3153  0.2318 -0.4696
 3420SOL     OW21895   2.366   3.567  14.088  0.1746 -0.2935 -0.0511
 3420SOL    HW121896   2.271   3.576  14.084  0.0987 -1.7254 -1.3429
 3420SOL    HW221897   2.378   3.647  14.138  0.4551 -0.0754 -0.4675
 3421SOL     OW21898   4.451   3.463  17.215  0.0775  0.6925 -0.3928
 3421SOL    HW121899   4.435   3.427  17.128 -1.8973  0.6186 -0.0067
 3421SOL    HW221900   4.545   3.479  17.220  0.6239 -2.6580 -0.4686
 3422SOL     OW21901   3.495   2.438  12.263 -0.5737 -0.0783  0.3700
 3422SOL    HW121902   3.472   2.435  12.170 -1.3428 -0.0652  0.5573
 3422SOL    HW221903   3.588   2.459  12.257 -0.3620 -0.5756  1.7908
 3423SOL     OW21904   0.666   0.535   9.499 -0.8442  0.4942 -0.0476
 3423SOL    HW121905   0.710   0.596   9.440 -1.9100  0.5205 -0.8175
 3423SOL    HW221906   0.641   0.470   9.434  1.3508 -1.2934  0.8806
 3424SOL     OW21907   1.651   2.014   9.703  0.2521  0.3150  0.3145
 3424SOL    HW121908   1.685   2.081   9.762 -1.5681  1.6904 -0.1990
 3424SOL    HW221909   1.719   2.014   9.636  0.2096 -0.0070  0.2711
 3425SOL     OW21910   2.694   0.048   2.119 -0.3518  0.7718  0.5099
 3425SOL    HW121911   2.727   0.126   2.164  2.8534  0.0853 -0.6363
 3425SOL    HW221912   2.629   0.089   2.061 -2.1551 -2.2427  0.3884
 3426SOL     OW21913   0.579   0.916   6.248  0.0134 -0.2381  0.5750
 3426SOL    HW121914   0.608   0.991   6.299 -1.8172  0.9495 -0.1592
 3426SOL    HW221915   0.521   0.879   6.315 -0.0407 -2.5345 -0.7487
 3427SOL     OW21916   0.963   0.679   5.344 -0.3163 -0.1881 -0.5671
 3427SOL    HW121917   0.980   0.766   5.382 -2.4542 -0.5635  1.2996
 3427SOL    HW221918   1.002   0.613   5.401 -1.9317 -0.7538 -0.1157
 3428SOL     OW21919   3.883   2.537   5.699  0.3664 -0.2974  0.3824
 3428SOL    HW121920   3.935   2.458   5.699 -1.9583 -1.8260  3.2151
 3428SOL    HW221921   3.857   2.544   5.791  0.0869 -2.3378  0.4470
 3429SOL     OW21922   3.988   0.455  10.163 -0.1081 -0.0607  0.5991
 3429SOL    HW121923   3.957   0.385  10.104 -0.0789 -0.0356  0.5542
 3429SOL    HW221924   3.918   0.468  10.226 -1.4354  0.5975 -1.0013
 3430SOL     OW21925   1.824   1.773  16.894  0.0042 -0.2357 -0.5777
 3430SOL    HW121926   1.838   1.683  16.864  0.2440  0.2293 -1.8561
 3430SOL    HW221927   1.787   1.757  16.981 -1.8758  1.0848 -1.1412
 3431SOL     OW21928   2.421   3.215   9.645  0.2570  0.2730  0.2709
 3431SOL    HW121929   2.496   3.156   9.642  0.8970  1.1110 -0.0714
 3431SOL    HW221930   2.356   3.149   9.671  0.3758  1.6780  4.0393
 3432SOL     OW21931   2.829   4.067  11.117  0.2399  0.2882 -0.5990
 3432SOL    HW121932   2.895   4.105  11.059  0.9759  0.6802  0.4889
 3432SOL    HW221933   2.789   3.996  11.067 -2.6714  1.3137  0.2690
 3433SOL     OW21934   3.017   0.110   3.798  0.8039 -0.1333 -0.7276
 3433SOL    HW121935   2.968   0.169   3.855  0.6436  0.2559 -1.2641
 3433SOL    HW221936   3.022   0.030   3.850 -0.7202  0.7147  0.6994
 3434SOL     OW21937   3.777   4.307   1.416  0.1553 -0.0984 -0.0984
 3434SOL    HW121938   3.841   4.360   1.368  0.2479 -0.5637 -0.4836
 3434SOL    HW221939   3.798   4.223   1.377 -2.7133 -1.4290  1.1785
 3435SOL     OW21940   2.780   1.980   6.013  0.3569 -0.3446 -0.0099
 3435SOL    HW121941   2.854   1.981   6.074  0.3879  0.6341 -0.0563
 3435SOL    HW221942   2.771   1.889   5.984 -0.0550 -0.0530 -0.8232
 3436SOL     OW21943   0.100   3.438   2.705 -0.1386  0.0338  0.1259
 3436SOL    HW121944   0.093   3.375   2.633  1.0535  0.8692 -0.7351
 3436SOL    HW221945   0.013   3.475   2.719 -0.6007 -0.9151 -0.2715
 3437SOL     OW21946   2.961   0.628   2.853 -0.0589 -0.2430 -0.1222
 3437SOL    HW121947   2.937   0.720   2.840 -1.2036 -0.5341 -0.0703
 3437SOL    HW221948   2.889   0.607   2.912  0.9640 -1.4230  0.7116
 3438SOL     OW21949   3.534   2.840   8.512  0.1470 -0.4472  0.1209
 3438SOL    HW121950   3.619   2.827   8.552  0.4337  1.1130  0.0210
 3438SOL    HW221951   3.515   2.934   8.519 -0.0622 -0.3327 -1.8086
 3439SOL     OW21952   0.664   0.983  16.672 -0.3615 -0.7309  0.2443
 3439SOL    HW121953   0.662   1.012  16.581 -1.3359 -0.6560  0.2914
 3439SOL    HW221954   0.671   0.887  16.664 -0.0329 -0.7510  0.7539
 3440SOL     OW21955   4.426   2.742  12.052  0.5164  0.1316  0.0218
 3440SOL    HW121956   4.420   2.705  11.964 -0.0339  2.7476 -1.0468
 3440SOL    HW221957   4.518   2.768  12.045 -0.2336  2.0220 -2.9434
 3441SOL     OW21958   3.343   0.695   7.407 -0.0793 -0.2251  0.6821
 3441SOL    HW121959   3.385   0.639   7.341  1.5821 -0.6480  2.0714
 3441SOL    HW221960   3.250   0.675   7.400  0.0124  0.1951 -1.5200
 3442SOL     OW21961   0.641   3.602  16.911 -0.4785 -0.5041  0.0745
 3442SOL    HW121962   0.559   3.557  16.930  0.3257 -1.6524  0.7958
 3442SOL    HW221963   0.659   3.647  16.993 -0.7934  0.0160 -0.1460
 3443SOL     OW21964   0.132   3.467  17.045  0.1401 -0.2457 -0.3596
 3443SOL    HW121965   0.068   3.402  17.018 -1.5160  0.7027  1.2764
 3443SOL    HW221966   0.123   3.520  16.965  0.7684 -0.9791 -0.9187
 3444SOL     OW21967   2.968   2.836  13.619 -0.3749  0.3540  0.3685
 3444SOL    HW121968   3.049   2.864  13.576  0.6408 -1.8607  0.8357
 3444SOL    HW221969   3.010   2.770  13.675 -1.5994 -0.4285  0.3462
 3445SOL     OW21970   3.287   3.262   7.328  0.1753  0.4621  0.5013
 3445SOL    HW121971   3.275   3.260   7.233  4.2198 -1.3961  0.0332
 3445SOL    HW221972   3.205   3.224   7.359  0.2081 -0.3524 -0.4019
 3446SOL     OW21973   2.799   0.125   9.767  0.0187 -0.4997  0.0610
 3446SOL    HW121974   2.815   0.058   9.701  0.2034 -1.3910  1.0055
 3446SOL    HW221975   2.705   0.141   9.754 -0.0143 -0.0269  0.9041
 3447SOL     OW21976   3.127   2.813  11.817 -0.7831  0.0776  0.3259
 3447SOL    HW121977   3.062   2.884  11.819 -1.0813 -0.1541 -0.9217
 3447SOL    HW221978   3.156   2.826  11.727  1.0268  0.8793  1.0336
 3448SOL     OW21979   3.993   2.593   3.894 -0.2988  0.3005 -0.0578
 3448SOL    HW121980   4.085   2.584   3.868 -0.9355  0.3543 -2.2952
 3448SOL    HW221981   3.994   2.517   3.952  0.3399  0.5971  0.3279
 3449SOL     OW21982   3.455   2.701   7.663 -0.0388  0.9686 -0.4496
 3449SOL    HW121983   3.545   2.707   7.631 -0.3417 -0.8476 -1.6569
 3449SOL    HW221984   3.455   2.747   7.747  0.7879 -0.4060  0.2981
 3450SOL     OW21985   4.628   0.786  12.170 -0.0715  0.0553 -0.8145
 3450SOL    HW121986   4.586   0.734  12.101 -2.3486  2.4748 -1.2363
 3450SOL    HW221987   4.569   0.861  12.167  0.2785  0.3774  0.5670
 3451SOL     OW21988   3.788   0.336   3.419 -0.4142 -0.0828 -0.2890
 3451SOL    HW121989   3.871   0.376   3.446  0.5264 -0.0262 -3.2712
 3451SOL    HW221990   3.770   0.276   3.491 -1.9417  0.3920 -0.2841
 3452SOL     OW21991   4.113   2.723   2.844  0.2456  0.0082  0.0116
 3452SOL    HW121992   4.043   2.689   2.900 -0.2148  1.3518  0.2559
 3452SOL    HW221993   4.097   2.672   2.765 -3.1355 -1.6419  1.7547
 3453SOL     OW21994   4.574   4.170   2.982 -0.1785  0.1246  0.0560
 3453SOL    HW121995   4.529   4.132   2.907 -1.9161  0.3874  0.9629
 3453SOL    HW221996   4.637   4.233   2.946 -0.8034  0.1755 -0.9392
 3454SOL     OW21997   3.267   3.765   9.634  0.4932 -0.2297 -0.5455
 3454SOL    HW121998   3.220   3.726   9.707  2.2784 -1.6942 -0.1771
 3454SOL    HW221999   3.323   3.826   9.682 -1.0128  1.2305 -0.6176
 3455SOL     OW22000   4.005   3.514   4.273  0.5589  0.1921  0.1303
 3455SOL    HW122001   3.951   3.506   4.351  1.6707  0.1464  0.8941
 3455SOL    HW222002   3.941   3.523   4.203 -1.0520  0.0622  1.5894
 3456SOL     OW22003   4.548   3.268   6.174  0.1329  0.4831  1.0169
 3456SOL    HW122004   4.524   3.358   6.153  3.5002  1.3406  0.9224
 3456SOL    HW222005   4.569   3.230   6.089 -1.9036  0.5621  0.4686
 3457SOL     OW22006   2.503   3.861   7.893 -0.0351 -0.4780  0.0996
 3457SOL    HW122007   2.471   3.863   7.802  2.5999  0.5115 -0.8002
 3457SOL    HW222008   2.446   3.917   7.946 -0.0551  0.0892 -0.5157
 3458SOL     OW22009   0.706   1.035   9.224  0.2176 -0.5389  0.1328
 3458SOL    HW122010   0.790   1.014   9.265  1.8085  1.7886 -1.9325
 3458SOL    HW222011   0.707   1.129   9.243 -0.2364 -0.0479 -2.2625
 3459SOL     OW22012   4.086   4.701  16.690 -0.0824  0.0554  0.4714
 3459SOL    HW122013   4.168   4.652  16.692 -0.4508 -0.5974 -0.3109
 3459SOL    HW222014   4.122   0.051  16.695  1.5488 -0.6147  0.5181
 3460SOL     OW22015   1.055   1.506   3.724 -0.1448  0.0593 -0.1804
 3460SOL    HW122016   0.983   1.567   3.740 -1.6848 -1.8697  0.1807
 3460SOL    HW222017   1.121   1.544   3.666 -0.7267  2.3394  0.6401
 3461SOL     OW22018   3.705   2.087   3.803  0.0048 -0.0210  0.6364
 3461SOL    HW122019   3.634   2.142   3.837 -0.7960  0.2707 -1.5042
 3461SOL    HW222020   3.710   2.106   3.710 -0.3593  1.3543  0.8887
 3462SOL     OW22021   0.446   3.440  13.102  0.0408  0.4379 -0.0199
 3462SOL    HW122022   0.366   3.488  13.083  0.1557  0.2426 -0.9751
 3462SOL    HW222023   0.471   3.404  13.017  0.5878 -0.7730  0.6444
 3463SOL     OW22024   4.232   3.722   7.695  0.2191 -1.0677  0.1721
 3463SOL    HW122025   4.177   3.738   7.618  1.0311 -2.1445 -0.6151
 3463SOL    HW222026   4.196   3.794   7.747 -1.0277 -1.2594 -0.4089
 3464SOL     OW22027   1.518   0.446  13.008 -0.1576 -0.3156 -0.0320
 3464SOL    HW122028   1.583   0.408  13.068  0.3528  2.1343  0.9903
 3464SOL    HW222029   1.449   0.382  13.021 -1.5549  1.4028  0.9173
 3465SOL     OW22030   0.891   1.004   8.448 -0.8438 -0.3456  0.2842
 3465SOL    HW122031   0.904   1.075   8.511 -0.2756  0.2319 -0.4827
 3465SOL    HW222032   0.796   1.001   8.460 -0.9488  1.0332 -0.2588
 3466SOL     OW22033   2.943   1.034  10.935 -0.3269 -0.1952  0.0737
 3466SOL    HW122034   2.912   1.117  10.971  0.0285  0.5672 -1.3894
 3466SOL    HW222035   2.876   0.974  10.968 -0.6518 -0.4559 -1.0759
 3467SOL     OW22036   0.393   2.044   6.864  0.3032  0.2482 -0.7782
 3467SOL    HW122037   0.479   2.069   6.829  0.4572 -0.0439 -0.6111
 3467SOL    HW222038   0.391   2.074   6.955  0.4650 -1.3565 -0.2275
 3468SOL     OW22039   1.131   1.356   6.184  0.2043  0.1266  0.1048
 3468SOL    HW122040   1.138   1.261   6.174 -1.1348  0.3326 -2.6306
 3468SOL    HW222041   1.180   1.383   6.107  0.4112  1.1338  0.5888
 3469SOL     OW22042   3.971   3.026   9.864  0.1887  0.6548  0.0387
 3469SOL    HW122043   4.064   3.049   9.869  1.0595 -2.4387 -1.2125
 3469SOL    HW222044   3.970   2.932   9.884 -1.8989  1.1601  2.1593
 3470SOL     OW22045   3.974   2.401   6.648  0.4336 -0.2719 -0.1580
 3470SOL    HW122046   3.908   2.339   6.618  0.8230 -0.0339 -1.4852
 3470SOL    HW222047   3.983   2.366   6.737 -0.7187 -1.4211 -0.4991
 3471SOL     OW22048   3.581   4.644   4.641 -0.1337  0.0531 -0.8369
 3471SOL    HW122049   3.627   4.587   4.580  0.1460  1.7286 -2.1953
 3471SOL    HW222050   3.537   4.705   4.582 -0.1846  2.0719  1.2616
 3472SOL     OW22051   3.484   0.206   4.863  0.6209  0.2378 -0.1639
 3472SOL    HW122052   3.412   0.205   4.801  0.5201 -0.7380 -0.0224
 3472SOL    HW222053   3.480   0.302   4.863  1.5377  0.2742 -0.8243
 3473SOL     OW22054   2.600   2.414   9.271 -0.3522 -0.1464  0.4260
 3473SOL    HW122055   2.523   2.443   9.221 -1.4384  0.2706  2.3154
 3473SOL    HW222056   2.655   2.373   9.204 -0.9057  0.4190 -0.3776
 3474SOL     OW22057   3.990   1.599   1.677 -0.1435 -0.1616 -0.1207
 3474SOL    HW122058   4.005   1.506   1.661  0.2134 -0.2417  0.6910
 3474SOL    HW222059   4.073   1.623   1.719  0.1826  0.3180 -1.0410
 3475SOL     OW22060   2.298   2.367  15.367  0.3779 -0.1625 -0.0020
 3475SOL    HW122061   2.290   2.297  15.302 -4.6688 -0.5184  0.9432
 3475SOL    HW222062   2.290   2.313  15.446  0.5974 -1.1259 -0.6407
 3476SOL     OW22063   0.019   3.052   9.075  0.3050 -0.2240  0.1799
 3476SOL    HW122064   0.063   2.967   9.067 -0.8336 -1.0163  2.3372
 3476SOL    HW222065   4.666   3.027   9.064  0.3495 -0.0266 -0.6506
 3477SOL     OW22066   2.402   2.268   8.053  0.4299 -0.6210  0.2450
 3477SOL    HW122067   2.454   2.289   7.975  0.6240 -0.5837  0.3851
 3477SOL    HW222068   2.457   2.211   8.106  3.2102  1.1829 -0.6992
 3478SOL     OW22069   2.785   0.218   6.880  0.8853  0.4382 -0.3403
 3478SOL    HW122070   2.829   0.142   6.841 -1.8836 -0.5083 -1.6344
 3478SOL    HW222071   2.761   0.180   6.964 -0.3896 -0.3679 -1.0784
 3479SOL     OW22072   4.199   3.743  15.808 -0.1271 -0.0558  0.3547
 3479SOL    HW122073   4.238   3.821  15.768  1.2399 -0.7494  0.3595
 3479SOL    HW222074   4.271   3.728  15.870 -0.9064 -0.4315  1.1702
 3480SOL     OW22075   3.495   1.566   1.804 -0.5190  0.1463  0.1348
 3480SOL    HW122076   3.415   1.534   1.761  0.1364 -0.5470 -0.5581
 3480SOL    HW222077   3.559   1.550   1.735  2.7244 -0.2488  3.2707
 3481SOL     OW22078   4.578   3.824  12.399 -0.8035  0.2736  0.1741
 3481SOL    HW122079   4.575   3.812  12.304 -0.9417 -0.4579  0.2757
 3481SOL    HW222080   4.633   3.902  12.389 -1.6046  0.8523  0.2085
 3482SOL     OW22081   3.427   4.581   1.150 -0.3318 -0.0482  0.3480
 3482SOL    HW122082   3.443   4.532   1.230 -0.1907  0.2166  0.4804
 3482SOL    HW222083   3.511   4.627   1.148  0.7028 -1.9503  0.2848
 3483SOL     OW22084   2.157   3.346   9.679  0.0441 -0.5783  0.7226
 3483SOL    HW122085   2.195   3.270   9.724 -2.9213 -2.5799 -0.1549
 3483SOL    HW222086   2.064   3.342   9.702 -0.1254 -1.0186 -0.0493
 3484SOL     OW22087   1.966   0.027   6.748  0.4043  0.0499 -0.6942
 3484SOL    HW122088   1.917   0.040   6.667  2.9961 -0.8959 -2.4161
 3484SOL    HW222089   2.009   0.112   6.753 -1.7500  0.9916  1.6691
 3485SOL     OW22090   0.425   3.999   5.447  0.3718 -0.6902 -0.5293
 3485SOL    HW122091   0.470   4.029   5.368  0.4448 -0.5865 -0.4486
 3485SOL    HW222092   0.400   3.908   5.429  0.6877 -1.1439  1.2901
 3486SOL     OW22093   1.166   3.632   4.845 -0.1781  0.1707 -0.3621
 3486SOL    HW122094   1.094   3.624   4.781 -0.5189 -0.4359  0.0898
 3486SOL    HW222095   1.171   3.727   4.850  0.8597  0.2354 -2.7626
 3487SOL     OW22096   1.581   0.723   3.793  0.5835 -0.3218 -0.4752
 3487SOL    HW122097   1.503   0.769   3.761 -0.3046 -2.0569 -0.8244
 3487SOL    HW222098   1.601   0.777   3.869  0.0400 -2.1017  0.9165
 3488SOL     OW22099   1.451   4.523   2.891 -0.2455  0.2652 -0.0406
 3488SOL    HW122100   1.472   4.469   2.967  0.6770 -0.3420 -0.7241
 3488SOL    HW222101   1.439   4.447   2.833 -2.6432 -0.6161  1.6004
 3489SOL     OW22102   2.807   2.314   1.142  0.3826 -0.1839 -0.7758
 3489SOL    HW122103   2.837   2.340   1.229  0.5172 -0.4079 -0.7584
 3489SOL    HW222104   2.857   2.374   1.086  2.6289  0.0063  1.4953
 3490SOL     OW22105   4.017   1.966   5.624 -0.0527  0.3856 -0.3928
 3490SOL    HW122106   3.982   2.031   5.563 -1.3416  1.0898  1.1053
 3490SOL    HW222107   4.109   1.979   5.601 -0.1697 -2.0730 -2.2238
 3491SOL     OW22108   1.318   1.851   5.698 -0.2877  0.5762  0.4775
 3491SOL    HW122109   1.392   1.911   5.692  0.6733 -0.8651 -2.1378
 3491SOL    HW222110   1.249   1.916   5.686  0.4848  1.0187 -1.5758
 3492SOL     OW22111   4.094   2.788   4.423  0.0432 -0.5712 -0.1760
 3492SOL    HW122112   4.047   2.708   4.398  1.8073 -1.7681  0.2878
 3492SOL    HW222113   4.115   2.820   4.335 -1.6114  1.5293  0.1962
 3493SOL     OW22114   2.262   0.519   4.385 -0.6294 -0.6021  0.3404
 3493SOL    HW122115   2.273   0.614   4.390 -0.9677 -0.5582  0.2478
 3493SOL    HW222116   2.222   0.501   4.300 -1.9749  1.2072  0.5778
 3494SOL     OW22117   2.579   1.257  17.130  0.7454  0.0091  0.3292
 3494SOL    HW122118   2.594   1.335  17.077 -3.5786 -0.1397 -1.1111
 3494SOL    HW222119   2.651   1.197  17.114  0.8751 -0.2528  1.8784
 3495SOL     OW22120   1.635   0.494   3.186 -0.1104  0.3899 -0.2035
 3495SOL    HW122121   1.660   0.421   3.129  1.7027  0.7424  0.1458
 3495SOL    HW222122   1.617   0.569   3.129  1.8582  0.0993 -1.2199
 3496SOL     OW22123   2.962   1.336   1.758  0.1121  0.3556 -0.2090
 3496SOL    HW122124   2.962   1.398   1.831 -1.6173 -0.2369  0.3016
 3496SOL    HW222125   3.032   1.274   1.778 -0.3242 -0.3807 -0.9111
 3497SOL     OW22126   4.225   2.678  15.062 -0.2088  0.2770  0.0800
 3497SOL    HW122127   4.151   2.622  15.041  0.3353 -0.3707 -0.1019
 3497SOL    HW222128   4.181   2.716  15.138 -0.5271  0.5756 -0.2524
 3498SOL     OW22129   1.397   1.514   9.005  0.1977 -0.5820  0.6515
 3498SOL    HW122130   1.304   1.538   9.011  0.3942 -0.0454  1.5614
 3498SOL    HW222131   1.413   1.488   9.096  1.4412 -3.8913 -0.5309
 3499SOL     OW22132   1.604   1.937  13.003 -0.4713 -0.3447 -0.3252
 3499SOL    HW122133   1.664   1.928  13.077 -1.4687  0.2220  0.5530
 3499SOL    HW222134   1.520   1.901  13.032 -1.0154  1.1518 -0.0540
 3500SOL     OW22135   1.025   1.396  15.076 -0.0289 -0.2257  0.3937
 3500SOL    HW122136   1.106   1.359  15.039 -0.6206 -1.2636  0.1393
 3500SOL    HW222137   1.029   1.397  15.171 -0.7213 -1.2978  0.4317
 3501SOL     OW22138   2.635   1.061   3.838 -0.3273 -0.7321  0.3004
 3501SOL    HW122139   2.666   0.983   3.793 -0.5133 -0.8726  0.4187
 3501SOL    HW222140   2.717   1.110   3.848  0.2026 -1.5794  0.0620
 3502SOL     OW22141   1.485   0.448   3.415 -0.5932 -0.5438  0.4862
 3502SOL    HW122142   1.500   0.437   3.321 -1.2138 -0.3909  0.3707
 3502SOL    HW222143   1.575   0.470   3.439 -0.5036  1.4740 -1.6786
 3503SOL     OW22144   1.589   0.302   1.884 -1.1757  0.2945 -0.0967
 3503SOL    HW122145   1.682   0.280   1.892 -1.3599 -1.0611 -1.7876
 3503SOL    HW222146   1.552   0.220   1.852  3.6372 -1.7073 -0.4756
 3504SOL     OW22147   2.658   4.641  12.477 -0.0317  0.3057 -0.0625
 3504SOL    HW122148   2.703   4.572  12.526 -1.7218 -1.1632 -0.5635
 3504SOL    HW222149   2.615   4.583  12.414 -0.0823  1.9681 -1.5553
 3505SOL     OW22150   1.952   1.577  12.705  0.2355 -0.1470  0.2568
 3505SOL    HW122151   1.909   1.638  12.765  0.8667 -0.3781  0.9303
 3505SOL    HW222152   1.997   1.638  12.647 -1.8760  0.8199 -0.3736
 3506SOL     OW22153   3.639   3.383   0.435 -0.1649 -0.8985  0.5215
 3506SOL    HW122154   3.559   3.368   0.484 -0.1506 -1.3632  0.3970
 3506SOL    HW222155   3.645   3.296   0.397  0.1801 -0.3059 -0.7951
 3507SOL     OW22156   1.147   4.103   7.420  0.3422  0.0784  0.5968
 3507SOL    HW122157   1.070   4.079   7.472 -0.6383  1.3942 -0.2401
 3507SOL    HW222158   1.152   4.029   7.359 -3.1948  0.0556  0.3297
 3508SOL     OW22159   1.474   1.093  17.050 -0.0627  0.1766 -0.1976
 3508SOL    HW122160   1.411   1.027  17.024  0.6300 -0.5546 -0.0329
 3508SOL    HW222161   1.424   1.133  17.121  1.0588 -2.4822  2.0938
 3509SOL     OW22162   2.010   2.050   1.488 -0.0988  0.2706  0.0184
 3509SOL    HW122163   2.104   2.056   1.508 -0.5042  3.8694  0.8632
 3509SOL    HW222164   1.997   1.965   1.530 -2.4772  0.8395  0.4476
 3510SOL     OW22165   4.318   0.929   5.920 -0.0584 -0.6132 -0.3236
 3510SOL    HW122166   4.324   0.900   6.011  2.0665  0.7295 -0.0490
 3510SOL    HW222167   4.409   0.955   5.907 -0.2526  0.9254  1.4469
 3511SOL     OW22168   0.784   0.786   3.539 -0.2424 -0.1520  0.3487
 3511SOL    HW122169   0.800   0.697   3.571  2.4876 -0.1319 -0.8951
 3511SOL    HW222170   0.759   0.840   3.614  0.0260  0.0710  0.2798
 3512SOL     OW22171   4.214   3.170   3.144 -0.1182  0.6088  0.2527
 3512SOL    HW122172   4.201   3.112   3.069 -1.2851 -0.0285  0.9390
 3512SOL    HW222173   4.295   3.129   3.175 -0.0567 -0.2626 -1.0319
 3513SOL     OW22174   2.352   1.481  17.651  0.5343  0.1142 -0.1804
 3513SOL    HW122175   2.328   1.573  17.667 -0.5942 -0.3035  0.4905
 3513SOL    HW222176   2.411   1.491  17.576  0.3085  2.8414 -0.0221
 3514SOL     OW22177   2.493   4.233  15.298  0.2974  0.6285  0.8719
 3514SOL    HW122178   2.550   4.202  15.228  1.6270  1.9276  1.3813
 3514SOL    HW222179   2.563   4.275  15.348  0.8000  2.3565 -1.3117
 3515SOL     OW22180   1.264   3.940   0.519  0.0961 -0.3775  0.3492
 3515SOL    HW122181   1.325   3.887   0.570  0.4987  0.6531  0.9396
 3515SOL    HW222182   1.324   4.009   0.488 -1.0027 -0.1527 -1.2862
 3516SOL     OW22183   3.760   0.167  17.639 -0.2264 -0.2122 -0.0299
 3516SOL    HW122184   3.841   0.150  17.687  0.0351  2.1341  0.3981
 3516SOL    HW222185   3.790   0.176  17.548  0.6607 -1.2630  0.1640
 3517SOL     OW22186   4.620   0.692   4.744  0.4125 -0.2306  0.1371
 3517SOL    HW122187   4.668   0.766   4.779  0.2521  0.5220 -1.2299
 3517SOL    HW222188   4.673   0.613   4.760  1.5892 -0.1048 -2.9977
 3518SOL     OW22189   0.370   1.735   3.889  0.3883  0.5192 -0.1516
 3518SOL    HW122190   0.297   1.678   3.910 -0.1973  1.4808  0.3978
 3518SOL    HW222191   0.348   1.823   3.918  0.4623  0.0015  1.4405
 3519SOL     OW22192   4.184   3.184   5.207 -0.2014 -0.3952  0.0087
 3519SOL    HW122193   4.191   3.161   5.114  0.3681 -0.7289  0.1343
 3519SOL    HW222194   4.108   3.136   5.239  1.2555 -2.5885  0.1158
 3520SOL     OW22195   2.038   3.930  17.627  0.1825 -0.2691 -0.1686
 3520SOL    HW122196   2.031   4.020  17.660 -0.8050  0.4057 -2.2685
 3520SOL    HW222197   2.133   3.925  17.611  0.5142 -0.1625  1.7115
 3521SOL     OW22198   2.623   4.652   0.837 -0.5261  0.5663 -0.3801
 3521SOL    HW122199   2.589   4.621   0.921  0.0863 -0.1034 -0.3786
 3521SOL    HW222200   2.614   0.008   0.841  2.6229  0.9341 -1.6477
 3522SOL     OW22201   4.298   2.855   3.296 -0.0419  0.3783  0.0155
 3522SOL    HW122202   4.352   2.932   3.280  2.2515 -1.0127  1.1258
 3522SOL    HW222203   4.344   2.782   3.255  0.6159  0.9798 -0.2956
 3523SOL     OW22204   2.775   4.402  11.309  0.3961 -0.3888  0.6304
 3523SOL    HW122205   2.866   4.389  11.334  0.8345  0.0375 -0.7015
 3523SOL    HW222206   2.757   4.467  11.376 -1.0321  0.8855 -0.9828
 3524SOL     OW22207   0.541   0.139  11.203  0.4611 -0.1238 -0.5719
 3524SOL    HW122208   0.601   0.164  11.133  2.5306  1.2556  1.6880
 3524SOL    HW222209   0.601   0.090  11.259 -0.0820  0.3073  0.3984
 3525SOL     OW22210   2.925   2.647   2.646  0.3582 -0.2543 -0.0857
 3525SOL    HW122211   2.884   2.733   2.646  0.9694  0.0404  0.2426
 3525SOL    HW222212   2.852   2.611   2.596 -0.6510  0.1026  1.1523
 3526SOL     OW22213   2.974   1.005   9.672 -0.6128  0.2200  0.1770
 3526SOL    HW122214   2.967   1.084   9.617  0.7182 -1.8304 -2.9124
 3526SOL    HW222215   2.945   0.934   9.615 -3.9545 -0.8014  3.1144
 3527SOL     OW22216   3.972   4.345   5.555  0.1076  0.5618 -0.2118
 3527SOL    HW122217   4.042   4.407   5.576  0.0717  0.0986  1.2525
 3527SOL    HW222218   3.966   4.347   5.459 -2.1488 -1.7870 -0.1228
 3528SOL     OW22219   2.171   2.018  11.488 -0.1330 -0.1915 -0.4055
 3528SOL    HW122220   2.263   2.008  11.513  0.3956 -0.6135 -2.4433
 3528SOL    HW222221   2.131   1.933  11.508 -1.6897  0.6199 -0.0935
 3529SOL     OW22222   0.331   2.475   2.610  0.2442  0.1787  0.6442
 3529SOL    HW122223   0.288   2.401   2.654 -0.5860  0.7344  0.7757
 3529SOL    HW222224   0.259   2.513   2.560 -0.8051 -3.3329 -0.5228
 3530SOL     OW22225   3.579   3.440   8.128 -0.2434  0.2036 -0.4244
 3530SOL    HW122226   3.642   3.511   8.138  0.3312 -0.4911  1.0267
 3530SOL    HW222227   3.606   3.420   8.039 -1.0346 -1.1908 -0.3521
 3531SOL     OW22228   4.500   0.534  16.763 -0.3675  0.6438 -0.0402
 3531SOL    HW122229   4.525   0.604  16.823  1.8511 -0.3234  0.1742
 3531SOL    HW222230   4.420   0.566  16.721 -0.2995  1.1055  0.1822
 3532SOL     OW22231   4.544   1.421  13.130 -0.1969  0.1900  0.1632
 3532SOL    HW122232   4.604   1.481  13.174  2.6059 -0.2715 -3.0610
 3532SOL    HW222233   4.601   1.373  13.070  0.7763  0.8295  0.5691
 3533SOL     OW22234   4.445   3.821   3.141 -0.2357  0.9471 -0.1718
 3533SOL    HW122235   4.523   3.860   3.103 -0.4338  0.4457 -1.0910
 3533SOL    HW222236   4.448   3.726   3.128  0.5484  0.6806  1.9182
 3534SOL     OW22237   0.331   1.881   5.995  0.2102  0.2865 -0.1567
 3534SOL    HW122238   0.309   1.789   5.984  1.1293  0.0277  0.2163
 3534SOL    HW222239   0.414   1.884   6.042 -0.0704  0.8827  0.3047
 3535SOL     OW22240   1.102   1.468   1.003  0.3937  0.1063 -0.0058
 3535SOL    HW122241   1.119   1.381   1.040 -0.6276 -0.4348 -0.8135
 3535SOL    HW222242   1.109   1.532   1.074 -0.4500 -1.9111  1.8709
 3536SOL     OW22243   4.534   3.712   5.078  0.1732  0.1967 -0.2836
 3536SOL    HW122244   4.538   3.763   4.997  0.7149 -0.4761 -0.6825
 3536SOL    HW222245   4.625   3.721   5.109  0.1748  1.5279 -0.6643
 3537SOL     OW22246   2.965   4.454   2.055  0.4192 -0.2156  0.4054
 3537SOL    HW122247   2.885   4.457   2.107  0.4594  0.0763  0.4534
 3537SOL    HW222248   2.930   4.446   1.967 -3.2839  2.0628  1.6690
 3538SOL     OW22249   1.650   3.759   7.421  0.2370  0.5431 -0.1814
 3538SOL    HW122250   1.561   3.783   7.396  0.4383  0.0650 -1.3129
 3538SOL    HW222251   1.642   3.664   7.411 -0.3441  0.5427  0.2565
 3539SOL     OW22252   3.139   3.302   3.928 -0.9493 -0.3203 -0.0098
 3539SOL    HW122253   3.213   3.270   3.876 -0.6402 -0.6251  0.6175
 3539SOL    HW222254   3.168   3.391   3.948  0.3489 -0.7535  0.0967
 3540SOL     OW22255   3.207   3.760   1.806 -0.1814 -0.4152  0.1430
 3540SOL    HW122256   3.155   3.693   1.760  0.2811 -0.2715 -0.5975
 3540SOL    HW222257   3.177   3.835   1.755  2.2882 -0.4556 -1.3904
 3541SOL     OW22258   2.276   2.381   5.814  0.1008  0.1141 -0.8348
 3541SOL    HW122259   2.292   2.287   5.805  0.7809 -0.3146  4.3401
 3541SOL    HW222260   2.186   2.378   5.784  0.1924  2.1657 -1.2643
 3542SOL     OW22261   2.455   0.513   8.954 -0.1275  0.3064  0.3163
 3542SOL    HW122262   2.489   0.433   8.993 -1.5961 -0.7636 -0.6156
 3542SOL    HW222263   2.379   0.476   8.909  0.1213  0.2933 -0.0884
 3543SOL     OW22264   3.550   1.507   3.193 -0.2571 -0.4041 -0.0673
 3543SOL    HW122265   3.636   1.469   3.177  0.2013  0.6567 -0.1293
 3543SOL    HW222266   3.493   1.431   3.180 -1.5558  0.8474 -1.7453
 3544SOL     OW22267   4.580   4.464   4.538  0.7992 -0.1225  0.2377
 3544SOL    HW122268   4.493   4.460   4.498  1.9088 -3.7716 -1.7829
 3544SOL    HW222269   4.572   4.408   4.615  1.1958  0.0920  0.4367
 3545SOL     OW22270   2.064   3.882   4.220 -0.5454 -0.1659  0.1500
 3545SOL    HW122271   2.063   3.967   4.262  1.1660 -0.3588  0.5405
 3545SOL    HW222272   2.141   3.891   4.165 -0.6681  2.5771  0.4212
 3546SOL     OW22273   3.030   4.370   2.489 -0.6110  0.1192 -0.6855
 3546SOL    HW122274   3.066   4.345   2.404 -0.0000 -2.2182  0.2742
 3546SOL    HW222275   3.003   4.284   2.523 -0.1368  0.7026  1.1531
 3547SOL     OW22276   1.923   2.034   3.003  0.1906  0.4493  0.4316
 3547SOL    HW122277   1.829   2.026   2.990  0.1053  0.8063  0.8188
 3547SOL    HW222278   1.927   2.122   2.966 -1.8526  0.1200 -0.5331
 3548SOL     OW22279   4.691   0.468  17.675  0.1906 -0.2587  0.0368
 3548SOL    HW122280   4.625   0.505  17.733 -0.2312 -1.2179  0.1655
 3548SOL    HW222281   0.031   0.489  17.726  0.8264 -0.5023 -0.8397
 3549SOL     OW22282   1.447   2.806   4.994 -0.0591 -0.2624 -0.3367
 3549SOL    HW122283   1.357   2.791   4.966 -0.4564  3.2036 -0.9175
 3549SOL    HW222284   1.457   2.900   4.981  1.0016 -0.3258 -0.0172
 3550SOL     OW22285   0.448   1.906  13.509  0.7068  0.5097 -0.2927
 3550SOL    HW122286   0.519   1.879  13.568  0.3854  0.9000  0.2680
 3550SOL    HW222287   0.398   1.828  13.484  3.1168 -1.2579  0.4090
 3551SOL     OW22288   2.706   2.496   3.871 -0.5882  0.6299  0.2892
 3551SOL    HW122289   2.614   2.497   3.844 -0.4372 -0.9553 -0.2544
 3551SOL    HW222290   2.688   2.452   3.955  3.9272 -1.5996  0.0369
 3552SOL     OW22291   0.698   3.320  13.262 -0.5072  0.0243 -0.0755
 3552SOL    HW122292   0.686   3.388  13.196 -1.2520  0.6600  0.7071
 3552SOL    HW222293   0.612   3.314  13.303 -0.4619 -0.9646 -0.1437
 3553SOL     OW22294   2.607   2.852   1.937  0.4440 -0.3386  0.4852
 3553SOL    HW122295   2.648   2.929   1.899  1.9224 -0.8378  1.0453
 3553SOL    HW222296   2.675   2.826   1.999  0.2751  0.1726  0.8862
 3554SOL     OW22297   2.111   4.280   1.782 -0.3388  0.0424  0.0725
 3554SOL    HW122298   2.104   4.361   1.833  0.3296  0.9497 -1.2866
 3554SOL    HW222299   2.018   4.258   1.783 -0.4305  0.4272 -0.3389
 3555SOL     OW22300   4.391   1.201   0.524 -0.6962 -0.6079 -0.0388
 3555SOL    HW122301   4.315   1.171   0.473  0.2009 -0.0311 -1.6965
 3555SOL    HW222302   4.402   1.135   0.593  1.4762  1.1831  1.2955
 3556SOL     OW22303   2.915   4.626  10.440  0.3145  0.4279 -0.1592
 3556SOL    HW122304   2.868   4.570  10.502 -0.3837  0.5375 -0.5832
 3556SOL    HW222305   2.917   4.571  10.361  0.8233  0.4841 -0.1831
 3557SOL     OW22306   0.662   0.730   7.018 -0.7258  0.1325 -0.0673
 3557SOL    HW122307   0.671   0.691   7.105  1.5260 -0.8068 -0.7286
 3557SOL    HW222308   0.749   0.770   7.018 -0.0147 -1.4016 -1.2817
 3558SOL     OW22309   4.079   2.487   4.518 -0.1842  0.0564 -0.0308
 3558SOL    HW122310   4.076   2.438   4.600  1.1170 -0.2652 -0.1753
 3558SOL    HW222311   4.099   2.414   4.459 -0.9853  0.6271 -0.9949
 3559SOL     OW22312   0.210   4.605   3.163 -1.2828  0.7407 -0.1233
 3559SOL    HW122313   0.255   4.638   3.240 -1.8689 -1.7644  1.3312
 3559SOL    HW222314   0.198   4.690   3.121 -0.7841  0.1658 -1.4333
 3560SOL     OW22315   3.539   0.043   2.719 -0.1680  0.2287  0.2804
 3560SOL    HW122316   3.570   0.053   2.629  2.0958 -1.1202  0.8847
 3560SOL    HW222317   3.588   0.109   2.767  2.9586 -0.8525 -1.3902
 3561SOL     OW22318   2.125   0.795  15.045  0.1239  0.5513  0.7559
 3561SOL    HW122319   2.131   0.814  15.139  1.9204 -1.5097  1.0636
 3561SOL    HW222320   2.034   0.819  15.028 -0.2623 -1.5285 -0.0618
 3562SOL     OW22321   4.627   1.434   9.946 -0.5369 -0.3385 -0.3224
 3562SOL    HW122322   4.610   1.342   9.925 -1.0089 -0.5065  0.7887
 3562SOL    HW222323   4.681   1.424  10.025 -1.7558  0.0803  0.5639
 3563SOL     OW22324   0.103   0.619   0.161  0.2596 -0.0352  0.1515
 3563SOL    HW122325   0.194   0.615   0.191  0.0781  0.4002  0.7558
 3563SOL    HW222326   0.107   0.678   0.086  1.9355 -1.1472 -0.6330
 3564SOL     OW22327   3.718   2.588   6.752  0.0491 -0.2804 -0.1790
 3564SOL    HW122328   3.700   2.677   6.722  0.0580  0.7336  2.8553
 3564SOL    HW222329   3.768   2.554   6.678 -0.3769 -0.0149 -0.5897
 3565SOL     OW22330   3.093   2.359   8.859 -0.8177  0.5586  0.2224
 3565SOL    HW122331   3.085   2.454   8.862 -3.0489  0.4239 -1.3300
 3565SOL    HW222332   3.188   2.360   8.871 -0.3150 -0.7722 -3.7321
 3566SOL     OW22333   2.594   2.215   6.908  0.4710  0.0433  0.5517
 3566SOL    HW122334   2.658   2.145   6.903  0.5942  0.1121  1.1711
 3566SOL    HW222335   2.557   2.212   6.820 -0.6980 -0.5036  1.0684
 3567SOL     OW22336   0.654   4.167   5.329  0.2443 -0.0880 -0.0585
 3567SOL    HW122337   0.587   4.229   5.356  0.3154 -0.5977  1.2887
 3567SOL    HW222338   0.717   4.227   5.289  1.1112  0.3136  1.8931
 3568SOL     OW22339   3.451   2.906   6.486  0.3895  0.4653  0.2419
 3568SOL    HW122340   3.480   2.909   6.394 -1.6710 -0.5282 -0.4338
 3568SOL    HW222341   3.398   2.986   6.485  0.8806  0.7949  0.7811
 3569SOL     OW22342   0.660   4.292   0.742 -0.2410  0.2131 -0.4215
 3569SOL    HW122343   0.751   4.322   0.737 -0.2203  0.4036  1.4229
 3569SOL    HW222344   0.617   4.375   0.763  3.3077  1.2062  2.8864
 3570SOL     OW22345   1.038   2.433  13.464  0.4756  0.0249  0.3950
 3570SOL    HW122346   1.022   2.528  13.465  0.3916  0.0108  0.2401
 3570SOL    HW222347   1.116   2.431  13.410 -0.5141  1.0115 -1.0626
 3571SOL     OW22348   1.559   0.008   4.267 -0.1205 -0.0090  0.2829
 3571SOL    HW122349   1.538   0.096   4.235  1.2112 -0.3974 -1.6652
 3571SOL    HW222350   1.511   4.695   4.202  1.2272  0.9562 -1.4683
 3572SOL     OW22351   4.035   0.925   1.925 -0.0753  0.5372  0.3001
 3572SOL    HW122352   4.107   0.920   1.862  0.0704  0.7692  0.4470
 3572SOL    HW222353   4.025   0.830   1.920  2.8411  0.3161 -1.4278
 3573SOL     OW22354   2.620   0.138   4.579 -0.4967 -0.4928  0.3234
 3573SOL    HW122355   2.698   0.155   4.526 -0.5174  0.5814  0.6517
 3573SOL    HW222356   2.572   0.220   4.578  1.1233  0.4399 -1.2458
 3574SOL     OW22357   3.099   3.759  14.860 -0.3165 -0.0072  0.2652
 3574SOL    HW122358   3.096   3.738  14.767 -0.9567 -4.8196  1.4008
 3574SOL    HW222359   3.122   3.675  14.900  0.3059  0.8512  1.7317
 3575SOL     OW22360   2.063   0.803   6.775  0.2307  0.1384 -0.2268
 3575SOL    HW122361   2.083   0.715   6.807 -2.2130 -0.0212  0.8928
 3575SOL    HW222362   1.983   0.819   6.825 -0.2753 -0.1995 -0.9286
 3576SOL     OW22363   0.257   0.805   2.871 -0.2726  0.2369  0.1761
 3576SOL    HW122364   0.189   0.857   2.829 -2.0646 -1.5397  0.9104
 3576SOL    HW222365   0.320   0.800   2.799 -0.1506 -0.2066  0.3160
 3577SOL     OW22366   3.957   0.236  15.728 -0.1755 -0.7470  0.0543
 3577SOL    HW122367   4.010   0.272  15.800  0.0335 -0.4533 -0.2463
 3577SOL    HW222368   4.001   0.151  15.732 -0.7789 -1.0568 -0.0622
 3578SOL     OW22369   2.908   1.306  14.963  0.0195  0.0168  0.4401
 3578SOL    HW122370   2.925   1.226  14.913  1.3852 -0.9693  2.4652
 3578SOL    HW222371   2.830   1.328  14.913 -0.6491 -1.6378  0.7466
 3579SOL     OW22372   0.779   0.491   3.998  0.3532 -0.4448  0.1577
 3579SOL    HW122373   0.763   0.399   4.018 -0.1127 -0.1017  1.3781
 3579SOL    HW222374   0.827   0.484   3.916 -0.8017  0.1351 -0.5678
 3580SOL     OW22375   3.188   3.616   2.778 -0.3279  0.4552  0.4077
 3580SOL    HW122376   3.249   3.573   2.718 -1.6960  1.2044 -1.5380
 3580SOL    HW222377   3.224   3.593   2.864 -0.1194  1.3557  0.5626
 3581SOL     OW22378   1.888   1.512   4.683 -0.3388  0.2767  0.3112
 3581SOL    HW122379   1.894   1.474   4.595  0.6140  1.6984 -0.2399
 3581SOL    HW222380   1.816   1.575   4.681 -0.5582 -0.0218 -1.4792
 3582SOL     OW22381   3.979   0.196   7.991 -0.1306 -0.0451  0.1431
 3582SOL    HW122382   3.925   0.118   7.993  0.9123 -0.7242  1.6107
 3582SOL    HW222383   3.987   0.214   7.897 -1.3898  0.0119  0.0501
 3583SOL     OW22384   2.597   2.596   3.220  0.2739 -0.2017 -0.5796
 3583SOL    HW122385   2.590   2.690   3.238 -0.1952 -0.5035  0.8134
 3583SOL    HW222386   2.629   2.563   3.304  0.0435 -0.4829 -0.6011
 3584SOL     OW22387   1.515   2.218   1.338 -0.2146  0.4076 -0.3044
 3584SOL    HW122388   1.590   2.172   1.375 -0.8676 -0.6124 -0.2485
 3584SOL    HW222389   1.478   2.143   1.293 -0.0702 -0.8060  1.6046
 3585SOL     OW22390   1.925   0.710   2.506  0.3276  0.0987  0.5745
 3585SOL    HW122391   1.865   0.655   2.557 -1.8266  1.1338 -0.8536
 3585SOL    HW222392   1.913   0.671   2.419 -0.7301 -1.2998  1.3468
 3586SOL     OW22393   1.149   1.364   0.720  0.4240 -0.1070  0.8376
 3586SOL    HW122394   1.107   1.298   0.776 -2.1198  1.1035  0.3417
 3586SOL    HW222395   1.142   1.441   0.776 -1.0436 -0.6478  1.4085
 3587SOL     OW22396   1.924   3.969   8.482  0.2380  0.2885  1.0035
 3587SOL    HW122397   2.004   3.927   8.513 -1.4696 -2.9070  1.1135
 3587SOL    HW222398   1.962   4.039   8.429 -1.6757 -0.5459 -1.5103
 3588SOL     OW22399   1.863   3.359   3.001  0.1709 -0.5970  0.0446
 3588SOL    HW122400   1.821   3.396   2.924 -0.1222  0.6130  0.7805
 3588SOL    HW222401   1.789   3.348   3.061  0.0841  1.2605  0.2588
 3589SOL     OW22402   3.570   0.784  11.577 -0.3718  0.2511  0.0637
 3589SOL    HW122403   3.617   0.838  11.514  0.4789 -0.8488 -0.2481
 3589SOL    HW222404   3.635   0.717  11.598  0.9294  1.3036 -0.5890
 3590SOL     OW22405   4.374   1.425   2.997  0.2416 -0.2089  0.7764
 3590SOL    HW122406   4.306   1.429   2.930  0.3741  0.4049  0.6790
 3590SOL    HW222407   4.323   1.449   3.075 -0.3389  1.7967 -0.2195
 3591SOL     OW22408   2.898   1.657  11.747 -0.1543  0.2753 -0.0683
 3591SOL    HW122409   2.905   1.729  11.685  1.1950  0.4625  0.3053
 3591SOL    HW222410   2.822   1.612  11.710  0.7974 -1.5884  0.1883
 3592SOL     OW22411   1.061   3.390  13.670  0.8376 -0.0619  0.4556
 3592SOL    HW122412   1.002   3.319  13.645 -1.3464  1.4421  1.2638
 3592SOL    HW222413   1.003   3.461  13.699 -0.0690 -0.2137 -0.9972
 3593SOL     OW22414   2.338   4.587  13.389  0.0172 -0.5659  0.0169
 3593SOL    HW122415   2.298   4.569  13.474  0.2908 -0.9664  0.0577
 3593SOL    HW222416   2.382   4.503  13.377  0.1338 -0.3677 -0.9729
 3594SOL     OW22417   1.035   3.575   6.993 -0.2345 -0.0893  0.8895
 3594SOL    HW122418   1.118   3.559   7.039 -0.0480 -0.9005  0.2708
 3594SOL    HW222419   0.973   3.529   7.050 -0.0751  0.2541  1.3456
 3595SOL     OW22420   4.290   0.438  10.158  0.0102  0.1909  0.2122
 3595SOL    HW122421   4.232   0.483  10.220 -0.1519  0.8359 -0.4115
 3595SOL    HW222422   4.236   0.363  10.135 -2.4458  2.1301 -0.3504
 3596SOL     OW22423   3.812   2.236   2.406  0.2066  1.0880 -0.4610
 3596SOL    HW122424   3.770   2.229   2.321  1.2607 -1.1701 -0.7956
 3596SOL    HW222425   3.805   2.146   2.438 -1.0732  2.0935  2.0979
 3597SOL     OW22426   0.305   3.940   2.160  0.2843 -0.2663 -0.2571
 3597SOL    HW122427   0.248   3.973   2.230 -1.3717 -0.6052 -1.4246
 3597SOL    HW222428   0.380   3.943   2.218  1.2051 -0.9140 -1.4213
 3598SOL     OW22429   1.499   2.898  12.345  0.4772  0.1612  0.0424
 3598SOL    HW122430   1.425   2.853  12.305  0.6332  0.3088 -0.4184
 3598SOL    HW222431   1.562   2.872  12.278  0.9349 -0.1683  0.6009
 3599SOL     OW22432   3.866   1.159   0.911  0.6637 -0.1028 -0.3732
 3599SOL    HW122433   3.922   1.115   0.974 -1.3514 -0.6024  1.0832
 3599SOL    HW222434   3.831   1.238   0.953 -0.8030 -1.6665  1.3371
 3600SOL     OW22435   2.260   4.022   4.029  0.0694 -0.1282 -0.0391
 3600SOL    HW122436   2.299   4.077   3.961  0.1938  0.4917  0.5421
 3600SOL    HW222437   2.203   4.087   4.070 -0.8858 -1.5269  0.8356
 3601SOL     OW22438   3.332   3.976   7.037  0.0276  0.2822  0.4322
 3601SOL    HW122439   3.393   3.979   6.963  1.9327 -0.5260  1.9720
 3601SOL    HW222440   3.391   3.940   7.104 -0.4135 -1.0167  0.1194
 3602SOL     OW22441   3.948   1.147   0.484  0.1781  0.9418  0.3016
 3602SOL    HW122442   4.039   1.118   0.480  0.5707  2.1355  0.6938
 3602SOL    HW222443   3.935   1.156   0.389 -1.1191  2.1929  0.6031
 3603SOL     OW22444   2.984   2.108   2.361  0.1452  0.4315  0.0696
 3603SOL    HW122445   3.056   2.052   2.390  0.0783  0.1092 -0.3752
 3603SOL    HW222446   2.980   2.078   2.270 -0.4844 -0.3033  0.3357
 3604SOL     OW22447   3.036   1.385   6.160  0.5217  0.8402 -0.1328
 3604SOL    HW122448   3.057   1.424   6.075  0.7976  1.1326  0.0690
 3604SOL    HW222449   3.038   1.463   6.216 -1.1916 -0.3648  1.6005
 3605SOL     OW22450   3.813   2.878  17.108  0.4205 -0.2160 -0.4162
 3605SOL    HW122451   3.896   2.865  17.155  0.7652 -1.0027 -1.2552
 3605SOL    HW222452   3.753   2.911  17.175 -0.0303 -0.1264 -0.8637
 3606SOL     OW22453   3.810   2.261   1.847 -0.0535  0.0334 -0.4333
 3606SOL    HW122454   3.769   2.181   1.815  1.3388 -0.6294 -0.5735
 3606SOL    HW222455   3.893   2.223   1.877 -0.5482  1.0763  2.2260
 3607SOL     OW22456   1.505   1.572  14.242 -0.4851 -0.1251 -0.2995
 3607SOL    HW122457   1.576   1.560  14.305  0.6995  1.7191 -1.2980
 3607SOL    HW222458   1.520   1.664  14.220  0.6716 -0.0499  0.8004
 3608SOL     OW22459   2.905   3.344   2.586  0.4301  0.8954  0.6022
 3608SOL    HW122460   2.813   3.364   2.574  0.8210  1.4424 -1.5783
 3608SOL    HW222461   2.928   3.402   2.659  1.9589  0.8152  0.1974
 3609SOL     OW22462   0.199   4.689   7.244  0.6487  0.2648  0.4167
 3609SOL    HW122463   0.167   4.623   7.182 -0.1803  0.8958  0.1720
 3609SOL    HW222464   0.167   0.029   7.200 -0.4416  1.1888  2.8830
 3610SOL     OW22465   4.285   3.140   6.966 -0.6161  0.6423  0.9724
 3610SOL    HW122466   4.347   3.212   6.980 -1.2649  1.4958 -0.5461
 3610SOL    HW222467   4.223   3.141   7.039 -0.3298 -1.3425  1.2438
 3611SOL     OW22468   1.859   1.602   3.560 -0.0379  0.0373 -0.4061
 3611SOL    HW122469   1.841   1.589   3.653 -1.9462  0.3623 -0.7436
 3611SOL    HW222470   1.954   1.614   3.570 -0.0990  0.2993 -0.1367
 3612SOL     OW22471   0.878   1.678   3.743 -0.3422  0.0913  0.0616
 3612SOL    HW122472   0.885   1.771   3.763  0.4500 -0.0044  0.2336
 3612SOL    HW222473   0.791   1.659   3.778  0.9575 -1.2879  2.5332
 3613SOL     OW22474   3.109   4.602   3.969 -0.3877 -0.3677  0.4333
 3613SOL    HW122475   3.148   4.541   3.907  0.5702 -1.2079  1.8661
 3613SOL    HW222476   3.049   4.543   4.014 -0.5748 -1.2675 -1.0096
 3614SOL     OW22477   3.618   4.144  16.356 -0.0382  0.1816 -0.4411
 3614SOL    HW122478   3.660   4.130  16.442 -0.4028 -0.9897 -0.4509
 3614SOL    HW222479   3.632   4.053  16.331 -0.4714  0.6234 -2.2470
 3615SOL     OW22480   1.425   2.819   5.668 -0.1853  0.1815  0.0766
 3615SOL    HW122481   1.516   2.843   5.649 -0.3709 -0.0417 -1.1161
 3615SOL    HW222482   1.394   2.787   5.583  0.2413 -0.2578  0.0837
 3616SOL     OW22483   1.988   2.449  11.766  0.3961 -0.6249  0.4665
 3616SOL    HW122484   1.965   2.412  11.680 -0.5901  0.6928  0.1525
 3616SOL    HW222485   2.029   2.533  11.743 -0.6517 -0.0226  0.7912
 3617SOL     OW22486   3.543   2.451   8.175  0.5218  0.2208  0.3673
 3617SOL    HW122487   3.550   2.385   8.244  0.8172 -1.8369 -1.6213
 3617SOL    HW222488   3.596   2.403   8.112  1.8798  0.8701  1.0154
 3618SOL     OW22489   1.156   0.274   6.127 -0.2904  0.1102 -0.0344
 3618SOL    HW122490   1.116   0.210   6.186  0.1888 -0.5798 -0.4490
 3618SOL    HW222491   1.154   0.211   6.054 -0.7378 -0.6851  0.6685
 3619SOL     OW22492   1.705   0.606   7.614  0.2316 -0.5522 -0.4005
 3619SOL    HW122493   1.678   0.641   7.529 -1.8239 -0.2719  0.3603
 3619SOL    HW222494   1.675   0.515   7.613 -0.2799 -0.3943  0.4188
 3620SOL     OW22495   1.431   1.616   8.282  0.1301 -0.6330  0.0161
 3620SOL    HW122496   1.439   1.644   8.191 -3.3612 -1.5012 -0.5418
 3620SOL    HW222497   1.373   1.540   8.277 -0.3155 -0.3830  1.2444
 3621SOL     OW22498   0.122   0.084   1.634  0.1610 -0.2662  0.4984
 3621SOL    HW122499   0.085   0.029   1.704  0.6435  0.5359  1.3825
 3621SOL    HW222500   0.083   0.045   1.556 -1.2804  1.4218  0.3672
 3622SOL     OW22501   3.264   1.928   8.917 -0.5573 -0.3543  0.3003
 3622SOL    HW122502   3.336   1.989   8.932 -1.2110  0.1561  1.3181
 3622SOL    HW222503   3.214   1.942   8.997 -0.2707 -0.6507  0.5346
 3623SOL     OW22504   0.287   2.827   7.753 -0.0627  0.1235  0.0290
 3623SOL    HW122505   0.375   2.819   7.714  0.8338 -0.3704  2.1564
 3623SOL    HW222506   0.252   2.914   7.736  1.3458  0.7136  0.1291
 3624SOL     OW22507   1.451   0.332   7.426 -0.2523  0.1514 -0.0059
 3624SOL    HW122508   1.400   0.353   7.505 -0.5397 -0.0239 -0.1427
 3624SOL    HW222509   1.544   0.335   7.446 -0.6703  0.5222  1.9384
 3625SOL     OW22510   2.349   2.674   2.597 -0.4896 -0.3455 -0.5943
 3625SOL    HW122511   2.330   2.603   2.536 -1.9910 -0.2669 -0.2105
 3625SOL    HW222512   2.440   2.692   2.572 -0.4251 -0.5006 -0.4688
 3626SOL     OW22513   4.372   3.995   4.950 -0.3667  0.5631  0.3337
 3626SOL    HW122514   4.457   3.993   4.904 -1.3714  0.0297 -1.5231
 3626SOL    HW222515   4.384   4.023   5.040  0.4840 -1.2280  0.7936
 3627SOL     OW22516   3.419   2.162   3.987  0.3062 -0.3044  0.1645
 3627SOL    HW122517   3.368   2.128   3.914  0.0727  2.6515 -1.0624
 3627SOL    HW222518   3.397   2.255   3.980  3.1798  0.5135  1.6582
 3628SOL     OW22519   0.367   1.748   5.404 -0.0974  0.5364 -0.1570
 3628SOL    HW122520   0.365   1.833   5.361 -3.8030  0.2217 -0.6397
 3628SOL    HW222521   0.279   1.746   5.443 -0.4866  1.5012 -0.9895
 3629SOL     OW22522   2.101   1.676   4.747  0.2534 -0.6822 -0.3865
 3629SOL    HW122523   2.045   1.599   4.747  0.0137 -0.5215  1.7639
 3629SOL    HW222524   2.179   1.647   4.699  0.6879  0.3132 -0.2919
 3630SOL     OW22525   2.069   3.328  13.006 -0.4368 -0.2889  0.5389
 3630SOL    HW122526   2.057   3.382  12.927 -1.2601 -0.6619  0.4083
 3630SOL    HW222527   2.023   3.378  13.073 -2.1052 -3.3583  1.6369
 3631SOL     OW22528   1.441   1.850   2.878  1.1608 -0.3204 -0.3087
 3631SOL    HW122529   1.481   1.800   2.948 -2.0945  0.6844  2.2962
 3631SOL    HW222530   1.348   1.830   2.889  0.7799  1.1440 -0.8493
 3632SOL     OW22531   0.013   3.786   1.875  0.0654  0.0158  0.2853
 3632SOL    HW122532   0.052   3.862   1.833  1.3692 -0.0936  1.3033
 3632SOL    HW222533   0.088   3.763   1.930  0.9063  0.1253 -0.8198
 3633SOL     OW22534   3.239   1.506   9.330 -0.1625 -0.2218  0.0863
 3633SOL    HW122535   3.151   1.474   9.311 -0.1303 -0.6408  0.6377
 3633SOL    HW222536   3.285   1.494   9.247 -0.1423 -0.7992  0.1782
 3634SOL     OW22537   1.709   3.888  14.439  0.1242  0.2194 -0.0921
 3634SOL    HW122538   1.715   3.982  14.422 -0.8413  0.3285  0.1430
 3634SOL    HW222539   1.658   3.897  14.519 -0.6299  0.8508 -0.6411
 3635SOL     OW22540   2.032   4.511   3.800 -0.4710 -0.0993  0.4518
 3635SOL    HW122541   1.988   4.582   3.752  1.9418  0.1750 -1.3166
 3635SOL    HW222542   1.989   4.431   3.768 -0.5848  0.4386 -0.7671
 3636SOL     OW22543   4.215   0.291   0.584  0.3936  0.4506 -0.1823
 3636SOL    HW122544   4.294   0.344   0.573  0.4212  0.5834  0.6955
 3636SOL    HW222545   4.247   0.211   0.625 -3.8189 -1.1194  0.0820
 3637SOL     OW22546   1.299   2.383   2.662  0.1856  0.0251  0.3167
 3637SOL    HW122547   1.230   2.388   2.596  2.0806  0.8521 -1.5874
 3637SOL    HW222548   1.308   2.473   2.692 -3.3228  0.1029  1.1083
 3638SOL     OW22549   4.593   1.613  11.728 -0.5857  0.1655  0.0903
 3638SOL    HW122550   4.674   1.646  11.766 -0.4863  0.6271 -0.5311
 3638SOL    HW222551   4.575   1.534  11.779 -1.8312  0.6643  0.4180
 3639SOL     OW22552   0.498   1.736   3.115 -0.7879 -0.0535  0.5896
 3639SOL    HW122553   0.587   1.770   3.128 -0.6194  0.2193 -1.1663
 3639SOL    HW222554   0.504   1.722   3.020 -0.4781 -4.3705  1.2434
 3640SOL     OW22555   2.290   0.542   7.096 -0.0772  0.3746  0.6563
 3640SOL    HW122556   2.365   0.483   7.095  0.1571  0.7217 -1.1714
 3640SOL    HW222557   2.264   0.526   7.187  2.6558 -0.0684  1.3681
 3641SOL     OW22558   1.376   0.176  16.717  0.1119  0.0285 -0.1083
 3641SOL    HW122559   1.366   0.188  16.812 -1.9169 -2.1168 -0.0366
 3641SOL    HW222560   1.454   0.119  16.717  1.7540  2.2965 -1.2497
 3642SOL     OW22561   2.564   2.565  13.051  0.0084 -0.0071  0.6788
 3642SOL    HW122562   2.557   2.608  13.136 -0.4292  0.7850  0.2414
 3642SOL    HW222563   2.647   2.592  13.013  0.3442 -1.4025  0.4001
 3643SOL     OW22564   4.387   0.821   9.404 -0.2960 -0.7972 -0.1617
 3643SOL    HW122565   4.311   0.778   9.365  0.7913 -1.4405 -1.5570
 3643SOL    HW222566   4.352   0.844   9.490  0.8665 -1.2388  0.4335
 3644SOL     OW22567   0.321   0.040   5.618  0.5374  0.5247 -0.4412
 3644SOL    HW122568   0.324   0.025   5.712  0.4204  0.0806 -0.5108
 3644SOL    HW222569   0.414   0.040   5.596  0.1736  2.2893 -1.9963
 3645SOL     OW22570   3.844   3.936   7.992 -0.9195 -0.3284  0.3578
 3645SOL    HW122571   3.767   3.986   7.966 -1.2454 -1.6060 -1.0988
 3645SOL    HW222572   3.853   3.974   8.080  1.5192 -0.1185  0.0295
 3646SOL     OW22573   4.161   3.880   6.690  0.3974  0.2241 -0.2984
 3646SOL    HW122574   4.119   3.924   6.764 -0.4837 -3.2804  1.2950
 3646SOL    HW222575   4.116   3.796   6.693 -1.0601  1.1558  3.8546
 3647SOL     OW22576   3.989   1.951   4.211 -0.1275 -0.1332  0.0382
 3647SOL    HW122577   3.995   2.023   4.274  2.2060  1.8748 -2.4328
 3647SOL    HW222578   3.903   1.967   4.172 -0.6146 -4.1774 -0.5292
 3648SOL     OW22579   4.154   0.020   7.738 -0.2495  0.3120  0.2081
 3648SOL    HW122580   4.243   0.045   7.765  0.1441  0.9553 -1.6667
 3648SOL    HW222581   4.180   4.667   7.725 -0.1796  0.5009 -0.9364
 3649SOL     OW22582   2.211   3.250   9.074 -0.4203 -0.7683 -0.5314
 3649SOL    HW122583   2.278   3.182   9.068  0.4278  0.0389 -0.3423
 3649SOL    HW222584   2.226   3.296   8.991  4.1981 -0.1843  0.6029
 3650SOL     OW22585   0.392   3.258   7.976 -0.3401  0.2049 -0.7839
 3650SOL    HW122586   0.483   3.233   7.962  0.5997  1.7496  2.3333
 3650SOL    HW222587   0.376   3.277   7.884  0.3029 -0.2261 -0.9860
 3651SOL     OW22588   0.224   1.536  12.756  0.2025 -0.2133  0.3861
 3651SOL    HW122589   0.240   1.627  12.732 -0.2737 -0.4317 -0.7554
 3651SOL    HW222590   0.129   1.541  12.761  0.2666  1.9959 -0.5498
 3652SOL     OW22591   0.297   2.693   3.433 -0.1398  0.7337  0.2048
 3652SOL    HW122592   0.381   2.731   3.405 -0.2311  0.3392 -0.6135
 3652SOL    HW222593   0.300   2.610   3.384 -0.5361  0.9093 -0.1133
 3653SOL     OW22594   4.077   1.571   0.020 -0.2491  0.2357 -0.3945
 3653SOL    HW122595   4.028   1.645  17.736 -0.2310  0.8590  0.8853
 3653SOL    HW222596   4.121   1.535  17.695 -0.7519  0.4955 -0.8048
 3654SOL     OW22597   3.192   2.554   4.955 -0.0945  0.2969  0.3819
 3654SOL    HW122598   3.130   2.594   4.894 -0.4441 -0.8644 -0.0262
 3654SOL    HW222599   3.147   2.576   5.036 -3.4394 -1.2206 -1.0761
 3655SOL     OW22600   3.280   4.564   5.541  0.1464 -0.3363 -0.6529
 3655SOL    HW122601   3.270   4.470   5.557 -1.1697 -0.1481 -0.3818
 3655SOL    HW222602   3.238   4.571   5.455 -1.8961 -0.7324  0.3145
 3656SOL     OW22603   1.764   4.628   3.525 -0.1597  0.0592  0.0629
 3656SOL    HW122604   1.839   4.591   3.479  1.4204  0.4962  2.2871
 3656SOL    HW222605   1.719   4.548   3.554 -0.9436  1.1928  1.9372
 3657SOL     OW22606   2.229   2.803   6.896  0.1566  0.5956  0.2834
 3657SOL    HW122607   2.300   2.752   6.856  1.1626  2.0740  0.2116
 3657SOL    HW222608   2.201   2.862   6.827  1.2378  1.0767  0.2582
 3658SOL     OW22609   3.028   2.516   5.514  0.5589  0.1491 -0.3620
 3658SOL    HW122610   3.025   2.473   5.599 -0.0412  1.8411  0.4728
 3658SOL    HW222611   2.998   2.606   5.529 -0.7997 -0.2608 -0.5913
 3659SOL     OW22612   3.924   1.846   6.449  0.2388  0.3975  0.3449
 3659SOL    HW122613   3.909   1.779   6.382 -2.0575  0.9900  0.2605
 3659SOL    HW222614   3.912   1.930   6.404  0.1474  1.0783  1.6512
 3660SOL     OW22615   1.614   3.867   2.334  0.6212 -0.0544 -0.5805
 3660SOL    HW122616   1.594   3.910   2.251  0.6683  1.0491 -0.0189
 3660SOL    HW222617   1.708   3.851   2.340  0.4647 -1.8813 -3.0421
 3661SOL     OW22618   4.546   2.458   5.588  1.0072 -0.0351 -0.9151
 3661SOL    HW122619   4.492   2.483   5.513 -0.5715 -2.7894 -0.7154
 3661SOL    HW222620   4.503   2.502   5.662 -0.4210 -1.4407 -0.9079
 3662SOL     OW22621   3.612   4.183   8.347  0.0541 -0.6330 -0.3310
 3662SOL    HW122622   3.630   4.153   8.436 -0.2672  1.3732  0.4066
 3662SOL    HW222623   3.696   4.182   8.301 -0.1452 -0.0032 -0.7073
 3663SOL     OW22624   3.286   1.184  17.254  0.4799 -0.4556 -0.2501
 3663SOL    HW122625   3.288   1.220  17.166  0.3629 -2.6944 -1.1721
 3663SOL    HW222626   3.201   1.139  17.258  1.2649 -1.8133  1.3039
 3664SOL     OW22627   1.197   3.255   5.749  0.4775 -0.3208  0.1908
 3664SOL    HW122628   1.146   3.242   5.669  1.3276 -2.1844 -0.0646
 3664SOL    HW222629   1.215   3.163   5.771 -1.0994 -0.0361  2.6944
 3665SOL     OW22630   3.502   0.346   3.967  0.1352 -0.8349  0.3041
 3665SOL    HW122631   3.412   0.326   3.940 -0.0907  1.6195 -0.6913
 3665SOL    HW222632   3.553   0.345   3.887 -0.0775  1.5352  0.1314
 3666SOL     OW22633   3.512   4.030   4.545  0.2272 -0.2563 -0.5741
 3666SOL    HW122634   3.462   4.091   4.492  0.6864  2.2420  1.8682
 3666SOL    HW222635   3.598   4.072   4.555 -0.2760  0.5992  0.1769
 3667SOL     OW22636   3.854   3.228   2.338 -0.2008  0.0984 -0.1001
 3667SOL    HW122637   3.837   3.292   2.407  1.6548 -0.2029  0.6497
 3667SOL    HW222638   3.774   3.235   2.286 -1.6330  0.2103  2.1042
 3668SOL     OW22639   1.225   2.723   9.112 -0.4986  0.5966 -0.0625
 3668SOL    HW122640   1.162   2.668   9.160  0.0014 -0.1142 -0.2224
 3668SOL    HW222641   1.315   2.705   9.137  0.4332  1.6774 -2.6265
 3669SOL     OW22642   4.159   3.474   6.556 -0.2623  0.4691  0.3506
 3669SOL    HW122643   4.243   3.449   6.518  0.7864  1.1549  2.1911
 3669SOL    HW222644   4.122   3.400   6.604 -0.7449  0.6015  0.1788
 3670SOL     OW22645   1.292   0.589   8.622 -0.1057 -0.1345  0.1768
 3670SOL    HW122646   1.330   0.584   8.709  0.7723 -0.7867 -0.2511
 3670SOL    HW222647   1.289   0.495   8.608 -1.8658  0.3681 -2.9833
 3671SOL     OW22648   4.552   4.005   9.725  0.1060  0.0854 -0.7052
 3671SOL    HW122649   4.570   4.084   9.775  0.1609 -0.7782  0.6446
 3671SOL    HW222650   4.555   3.939   9.794 -0.9838  4.4911  3.4780
 3672SOL     OW22651   1.585   3.811   5.042 -0.3064  0.5772 -0.0579
 3672SOL    HW122652   1.548   3.899   5.041  0.1900  0.7870  0.2369
 3672SOL    HW222653   1.533   3.776   4.970  1.2939  0.5345 -1.1821
 3673SOL     OW22654   1.401   3.911   7.357  0.2542 -0.5284 -0.4365
 3673SOL    HW122655   1.341   3.940   7.425  0.4319 -0.5695 -0.2607
 3673SOL    HW222656   1.433   3.996   7.327  0.9552 -0.6375 -0.0025
 3674SOL     OW22657   4.436   3.006  16.823  0.0800  0.4853 -0.0056
 3674SOL    HW122658   4.389   2.924  16.834  1.0599 -0.3171 -1.7935
 3674SOL    HW222659   4.376   3.069  16.861  0.4968  2.6556 -2.8970
 3675SOL     OW22660   0.272   4.482   5.013  0.4684  0.2944 -0.2156
 3675SOL    HW122661   0.342   4.421   4.995 -2.1502 -2.7689  0.0226
 3675SOL    HW222662   0.306   4.561   4.970  0.1891  0.5781  0.0763
 3676SOL     OW22663   2.524   4.737   5.073  0.5089  0.4438  0.3152
 3676SOL    HW122664   2.476   4.708   4.995 -0.1267  1.3639  0.3628
 3676SOL    HW222665   2.609   4.693   5.065 -1.0045 -2.4649  0.0480
 3677SOL     OW22666   2.791   2.412   1.881 -0.0345 -0.0282 -0.4402
 3677SOL    HW122667   2.704   2.415   1.841 -0.0177  0.5323 -0.4306
 3677SOL    HW222668   2.838   2.391   1.800 -1.0013 -0.9391 -0.7693
 3678SOL     OW22669   0.271   0.406   6.180  0.2265  0.8031 -0.4541
 3678SOL    HW122670   0.272   0.310   6.175 -0.8805  0.6583  2.1303
 3678SOL    HW222671   0.366   0.417   6.167  0.8734  0.0324  3.8473
 3679SOL     OW22672   2.750   0.960   6.045 -0.0832 -0.0635 -0.0969
 3679SOL    HW122673   2.780   1.036   6.096 -0.1407 -1.2691  1.7266
 3679SOL    HW222674   2.742   0.887   6.105 -0.1059  0.0114 -0.0087
 3680SOL     OW22675   2.731   2.157  10.123  0.5770 -0.2171  0.4458
 3680SOL    HW122676   2.742   2.197  10.209 -1.9832 -0.3943  0.8658
 3680SOL    HW222677   2.821   2.132  10.102  0.9346  1.3701  0.1071
 3681SOL     OW22678   1.371   4.559  11.750 -0.6556  0.6177 -0.6702
 3681SOL    HW122679   1.302   4.492  11.751  0.8163 -0.9053 -1.0305
 3681SOL    HW222680   1.383   4.571  11.656  1.1151  3.0563 -0.1313
 3682SOL     OW22681   4.282   3.602   5.150  0.2435 -0.3431 -0.1291
 3682SOL    HW122682   4.260   3.668   5.216 -2.3646 -1.5709  0.2360
 3682SOL    HW222683   4.362   3.636   5.110  0.2264 -0.0193  0.1075
 3683SOL     OW22684   3.099   4.395   1.046 -0.1822 -0.1215  0.0260
 3683SOL    HW122685   3.053   4.312   1.039  0.2592 -0.3965  0.3763
 3683SOL    HW222686   3.038   4.449   0.995 -0.3229 -0.2256  0.0858
 3684SOL     OW22687   2.933   2.516   7.293  0.8414 -0.3923 -0.5427
 3684SOL    HW122688   2.861   2.579   7.288  0.6319 -0.7172 -1.6888
 3684SOL    HW222689   2.886   2.435   7.309  0.4722 -0.3832 -1.5494
 3685SOL     OW22690   0.308   3.546  11.845 -0.7970  0.5771 -0.1458
 3685SOL    HW122691   0.370   3.615  11.870 -0.7533 -0.0708  1.5809
 3685SOL    HW222692   0.232   3.604  11.845 -0.6636  0.7557  1.2416
 3686SOL     OW22693   4.676   0.209   9.658 -0.4064 -0.1758 -0.6764
 3686SOL    HW122694   0.018   0.159   9.644  0.0289  0.8770 -1.9281
 3686SOL    HW222695   4.689   0.296   9.621  3.2459 -0.9645 -1.1967
 3687SOL     OW22696   2.067   0.948   7.492  0.0899  0.6745  0.3500
 3687SOL    HW122697   2.074   0.887   7.419  0.3739  0.7199  0.3407
 3687SOL    HW222698   1.994   0.908   7.539  0.0432  0.3319 -0.0188
 3688SOL     OW22699   3.108   2.493  12.521  0.1785  0.2971  0.2272
 3688SOL    HW122700   3.030   2.450  12.558  0.2311  1.5640  1.8267
 3688SOL    HW222701   3.075   2.504  12.432  2.7399  1.0029 -0.6071
 3689SOL     OW22702   1.474   3.238   3.968  0.3851 -0.3053  0.6392
 3689SOL    HW122703   1.502   3.167   4.026 -1.0076  0.0471  1.7182
 3689SOL    HW222704   1.379   3.230   3.963  0.2612  2.0620 -0.9730
 3690SOL     OW22705   3.731   0.702   2.620 -0.1302 -0.5315 -0.1901
 3690SOL    HW122706   3.773   0.637   2.676  2.0990  0.9528 -0.1444
 3690SOL    HW222707   3.664   0.647   2.581  0.1622 -0.7231 -0.4256
 3691SOL     OW22708   3.568   4.496  11.285  0.4442  0.3027  0.6889
 3691SOL    HW122709   3.509   4.434  11.327  0.2081 -0.5277 -0.8837
 3691SOL    HW222710   3.567   4.576  11.338 -1.3224 -0.2118  1.4074
 3692SOL     OW22711   2.284   3.293   0.963  0.3045  0.1129 -0.0421
 3692SOL    HW122712   2.332   3.372   0.941 -0.2542 -0.0693 -1.9335
 3692SOL    HW222713   2.229   3.276   0.885  0.8859  0.6468 -0.5662
 3693SOL     OW22714   3.921   0.877   2.775 -0.0473 -0.2394 -0.2604
 3693SOL    HW122715   3.871   0.860   2.696 -0.1050 -1.8484  0.1222
 3693SOL    HW222716   3.850   0.896   2.837  1.1678  1.9142  0.4896
 3694SOL     OW22717   3.197   1.483   3.328  0.1372  0.3114 -0.7332
 3694SOL    HW122718   3.242   1.543   3.269 -0.4299  0.1943 -1.2888
 3694SOL    HW222719   3.261   1.479   3.399  0.0366  0.9376 -0.6092
 3695SOL     OW22720   3.714   3.488   7.419  0.0918 -0.2747 -0.6469
 3695SOL    HW122721   3.753   3.491   7.507 -1.6895 -0.1471  0.1414
 3695SOL    HW222722   3.640   3.428   7.428 -0.4155  0.6795  1.5281
 3696SOL     OW22723   1.959   1.315   3.826 -0.1889 -0.4450  0.5158
 3696SOL    HW122724   1.889   1.379   3.843  1.0596  1.0179  0.0984
 3696SOL    HW222725   1.909   1.233   3.833  0.0492 -0.5355  1.1916
 3697SOL     OW22726   2.798   3.337   5.444  0.0936 -0.2119  0.2332
 3697SOL    HW122727   2.890   3.362   5.430 -0.3912  0.9460 -0.9204
 3697SOL    HW222728   2.777   3.365   5.533  1.0805 -2.7104  1.2497
 3698SOL     OW22729   1.224   1.408   5.926  0.3644 -0.1425  0.0820
 3698SOL    HW122730   1.187   1.470   5.863  1.3376  0.9471  0.5770
 3698SOL    HW222731   1.311   1.446   5.938 -0.1401  0.5879  1.4314
 3699SOL     OW22732   0.376   2.604   7.486 -0.1227 -0.3189  0.4612
 3699SOL    HW122733   0.316   2.672   7.456 -0.0348 -0.2141  0.5263
 3699SOL    HW222734   0.450   2.654   7.518  1.1458 -2.3398  0.6606
 3700SOL     OW22735   2.913   3.139  10.786  0.5206  0.0218 -0.2048
 3700SOL    HW122736   2.984   3.154  10.848 -0.2233 -3.6347  1.5861
 3700SOL    HW222737   2.955   3.115  10.703 -1.5574 -2.2398 -0.6294
 3701SOL     OW22738   1.467   2.262   5.649  0.2847  0.0266 -0.1497
 3701SOL    HW122739   1.427   2.235   5.732 -1.8841  1.3712 -0.7570
 3701SOL    HW222740   1.450   2.356   5.649 -0.1934 -0.0527  3.1739
 3702SOL     OW22741   4.074   4.365   6.998  0.1842 -0.0288 -0.3346
 3702SOL    HW122742   4.002   4.303   7.004 -0.1035  0.4580  1.3517
 3702SOL    HW222743   4.041   4.448   7.034  1.3117  0.8280 -1.2478
 3703SOL     OW22744   0.156   3.157   7.057  0.2136  0.2431  0.3065
 3703SOL    HW122745   0.175   3.241   7.016  0.4343  0.7016  1.3564
 3703SOL    HW222746   0.142   3.102   6.980 -5.6070  1.8810  0.1577
 3704SOL     OW22747   2.953   4.481   2.731  0.1848  0.4470  0.5688
 3704SOL    HW122748   2.995   4.451   2.650  0.2211 -0.9061  1.0814
 3704SOL    HW222749   2.875   4.522   2.693  0.7021 -0.4678 -1.5164
 3705SOL     OW22750   3.990   3.292   9.642 -0.1396  0.1573 -0.6197
 3705SOL    HW122751   3.924   3.227   9.617  0.9039 -1.1988  0.0996
 3705SOL    HW222752   4.035   3.304   9.559  1.1676 -0.7585 -0.0442
 3706SOL     OW22753   3.014   3.861   8.430  0.4561  0.5926  0.1991
 3706SOL    HW122754   3.030   3.767   8.441  0.0240  0.5758  0.6941
 3706SOL    HW222755   3.036   3.886   8.520  0.5796  0.6972  0.1388
 3707SOL     OW22756   0.874   2.689   9.410  0.2742  0.0500 -0.4701
 3707SOL    HW122757   0.785   2.719   9.397  0.2665 -0.5145 -1.7386
 3707SOL    HW222758   0.902   2.655   9.325 -2.0253  3.3227 -2.5148
 3708SOL     OW22759   2.855   4.388   1.531  0.0060 -0.1419 -0.0109
 3708SOL    HW122760   2.802   4.323   1.577 -0.0795  0.5347  0.8411
 3708SOL    HW222761   2.862   4.338   1.450 -2.6228 -1.0049  0.3090
 3709SOL     OW22762   4.638   0.298   5.274 -0.0462 -0.0140  0.3832
 3709SOL    HW122763   4.576   0.237   5.315  1.1808 -0.6875  1.2449
 3709SOL    HW222764   4.650   0.371   5.333  0.7664  0.7001 -0.6737
 3710SOL     OW22765   2.048   4.184   3.061  0.0377  0.6681  0.2773
 3710SOL    HW122766   1.995   4.256   3.095  1.7076  1.4441  1.2458
 3710SOL    HW222767   2.012   4.157   2.977  1.7056 -2.1977  0.4593
 3711SOL     OW22768   2.720   3.293  11.621  0.0291  0.3449 -0.0934
 3711SOL    HW122769   2.713   3.272  11.714 -1.8972  0.9992 -0.0793
 3711SOL    HW222770   2.731   3.203  11.591  3.1536  0.3069  1.1966
 3712SOL     OW22771   1.068   3.746   0.063 -0.2200  0.7770 -0.0204
 3712SOL    HW122772   1.146   3.800   0.074 -0.6572  0.9122  2.6015
 3712SOL    HW222773   1.032   3.773   0.148  2.3034 -0.2043  1.3402
 3713SOL     OW22774   4.278   1.330   9.080 -0.1162 -0.2286 -0.1804
 3713SOL    HW122775   4.239   1.381   9.151 -0.8473 -1.9278  0.6406
 3713SOL    HW222776   4.355   1.380   9.056  0.8445 -2.9285 -2.7686
 3714SOL     OW22777   0.914   1.187   8.638  0.2287 -0.0868 -0.6645
 3714SOL    HW122778   1.009   1.193   8.640  0.3466 -1.1950 -3.0929
 3714SOL    HW222779   0.898   1.256   8.703 -0.4286 -0.5603 -0.3123
 3715SOL     OW22780   3.381   2.869   8.271 -0.1258  0.2123  0.0383
 3715SOL    HW122781   3.434   2.790   8.276  1.5744  1.3047 -0.5321
 3715SOL    HW222782   3.432   2.933   8.321  0.2051 -0.2694  0.3049
 3716SOL     OW22783   0.054   4.123   2.237  0.4670  0.2742  0.2496
 3716SOL    HW122784   4.730   4.189   2.267  1.4291  1.9626 -1.4473
 3716SOL    HW222785   0.022   4.047   2.285 -1.5255  1.2557  0.4781
 3717SOL     OW22786   2.554   1.153   4.137 -0.0040  0.3901  0.1205
 3717SOL    HW122787   2.511   1.081   4.183  0.7152 -2.3213 -3.4404
 3717SOL    HW222788   2.640   1.116   4.115 -0.0155  0.4334 -0.0026
 3718SOL     OW22789   0.835   4.070   2.741 -0.4114  0.0730  0.2601
 3718SOL    HW122790   0.820   4.163   2.720  0.3968 -0.3632 -2.2635
 3718SOL    HW222791   0.766   4.030   2.688  1.5490 -2.0499 -0.6816
 3719SOL     OW22792   1.510   1.262   4.567  0.0893  0.0931 -0.0775
 3719SOL    HW122793   1.493   1.356   4.558 -0.9518 -0.1588 -0.6765
 3719SOL    HW222794   1.434   1.213   4.538  1.5838 -0.6854 -2.6590
 3720SOL     OW22795   0.399   4.525   9.117 -0.0050 -0.5387  0.0319
 3720SOL    HW122796   0.412   4.615   9.145  1.5964 -0.2268 -1.7695
 3720SOL    HW222797   0.304   4.512   9.114 -0.1303  0.2903  0.3765
 3721SOL     OW22798   2.053   3.923   7.058 -0.4016  0.0173 -0.2026
 3721SOL    HW122799   1.980   3.953   7.113  0.1274  1.7372 -0.4451
 3721SOL    HW222800   2.071   3.834   7.090  1.5076  0.9622  1.2887
 3722SOL     OW22801   2.020   1.265   4.183 -0.4734 -0.1814 -0.2799
 3722SOL    HW122802   2.025   1.170   4.193  0.4087 -0.2949 -1.8156
 3722SOL    HW222803   2.099   1.283   4.132  0.4720  0.0199  1.2762
 3723SOL     OW22804   3.004   3.401  12.461 -0.1702  0.0232 -0.1924
 3723SOL    HW122805   2.919   3.361  12.445 -0.0636 -0.9119  1.6140
 3723SOL    HW222806   2.987   3.491  12.432  1.4980 -0.4479 -2.5957
 3724SOL     OW22807   2.898   1.524   9.202  0.0435 -0.1054  0.1333
 3724SOL    HW122808   2.900   1.439   9.158 -1.3062 -0.3277  0.4773
 3724SOL    HW222809   2.827   1.517   9.267  2.4467  0.4072  2.8159
 3725SOL     OW22810   4.013   3.994  16.677  0.7218 -0.2348  0.0887
 3725SOL    HW122811   4.045   4.074  16.636  3.4479 -1.2483  0.2972
 3725SOL    HW222812   4.077   3.966  16.742  0.3939 -0.9001  0.1261
 3726SOL     OW22813   0.151   4.551   7.722  0.0214 -0.3976  0.1241
 3726SOL    HW122814   0.148   4.539   7.817  1.6057 -0.3887  0.1836
 3726SOL    HW222815   0.060   4.547   7.695 -0.3374 -0.1621  1.3072
 3727SOL     OW22816   1.732   0.260   8.477  0.2738 -0.2285  0.3450
 3727SOL    HW122817   1.825   0.248   8.496  0.3106 -0.2965  0.1208
 3727SOL    HW222818   1.733   0.316   8.400 -0.2941 -0.1948  0.3608
 3728SOL     OW22819   3.174   2.916   4.659  0.1673 -0.3062 -0.5230
 3728SOL    HW122820   3.187   3.003   4.696  1.9992 -0.4764 -0.7887
 3728SOL    HW222821   3.176   2.942   4.567  0.0750 -1.3505 -0.8200
 3729SOL     OW22822   1.443   0.223   4.758 -0.4212 -0.9494  0.2703
 3729SOL    HW122823   1.358   0.213   4.716  0.8091 -0.0880 -2.4337
 3729SOL    HW222824   1.442   0.292   4.824 -1.0220  0.3063 -1.0683
 3730SOL     OW22825   2.009   0.837   9.470  0.1255 -0.1233  0.4435
 3730SOL    HW122826   2.065   0.809   9.542 -2.8283 -0.4886  2.6415
 3730SOL    HW222827   1.923   0.801   9.494  0.7366 -1.3244  0.8122
 3731SOL     OW22828   2.373   1.319   8.786  0.3065  0.0044 -0.2602
 3731SOL    HW122829   2.396   1.236   8.827 -0.3769  0.0502  0.2043
 3731SOL    HW222830   2.346   1.294   8.697 -1.5237  0.6481  0.1364
 3732SOL     OW22831   1.328   3.684  11.907  0.3265  0.1040  0.1010
 3732SOL    HW122832   1.389   3.636  11.851  0.8373  1.9985 -0.9639
 3732SOL    HW222833   1.263   3.710  11.841  0.2550 -1.3387 -0.4105
 3733SOL     OW22834   2.693   3.991   3.017 -0.0047  0.3094 -0.4315
 3733SOL    HW122835   2.631   4.013   2.947 -1.2764 -3.0712 -0.4047
 3733SOL    HW222836   2.689   4.072   3.069  0.6225 -0.5114  0.9102
 3734SOL     OW22837   4.175   2.826  11.308 -0.0123  0.5542  0.3256
 3734SOL    HW122838   4.216   2.850  11.391  0.2400  0.0855  0.3366
 3734SOL    HW222839   4.150   2.911  11.272 -1.6516 -0.7426 -1.5641
 3735SOL     OW22840   2.235   1.684   6.406  0.6412  0.2275  0.3294
 3735SOL    HW122841   2.308   1.626   6.386  0.9218  1.3996 -2.0444
 3735SOL    HW222842   2.285   1.758   6.438  0.5007  1.1323 -1.5415
 3736SOL     OW22843   2.783   1.415   6.903  0.0716 -0.6059 -0.6545
 3736SOL    HW122844   2.750   1.343   6.849  1.2485  0.4466 -2.7685
 3736SOL    HW222845   2.706   1.431   6.958 -0.1054 -1.4892 -0.6346
 3737SOL     OW22846   4.237   0.831   5.619  0.3740 -0.3879  0.1485
 3737SOL    HW122847   4.298   0.761   5.644 -1.3241 -1.4318  1.4280
 3737SOL    HW222848   4.235   0.873   5.705 -0.2070  1.2032 -0.6619
 3738SOL     OW22849   3.501   1.271   8.726 -0.6918 -0.4832 -0.5503
 3738SOL    HW122850   3.491   1.219   8.806  0.2142 -0.4058 -0.3819
 3738SOL    HW222851   3.479   1.357   8.762 -1.6447 -1.3361  0.8815
 3739SOL     OW22852   0.864   2.063   5.854  0.0435 -0.3492 -0.1638
 3739SOL    HW122853   0.814   2.113   5.789 -0.3246  0.0351  0.4093
 3739SOL    HW222854   0.846   2.113   5.934  0.4222  0.9018 -0.8501
 3740SOL     OW22855   0.633   3.422   4.582 -0.2307  0.3053  0.1230
 3740SOL    HW122856   0.652   3.358   4.514  0.9772  3.6539 -2.6998
 3740SOL    HW222857   0.612   3.356   4.648  2.6415 -0.4588  0.2668
 3741SOL     OW22858   2.588   1.825   3.138  0.2056 -0.0662  0.4352
 3741SOL    HW122859   2.648   1.790   3.204  0.5468 -0.8441 -0.2872
 3741SOL    HW222860   2.646   1.815   3.062  0.1966  0.7125  0.3236
 3742SOL     OW22861   3.853   3.201   6.822 -0.7539 -0.1207  0.2617
 3742SOL    HW122862   3.805   3.119   6.831 -0.7599 -0.3890 -2.0634
 3742SOL    HW222863   3.787   3.264   6.851  0.1142  2.2623 -2.9366
 3743SOL     OW22864   0.802   1.577   0.752  0.1991 -0.3994 -0.1124
 3743SOL    HW122865   0.726   1.548   0.803  0.7546 -1.3750  0.1597
 3743SOL    HW222866   0.819   1.663   0.789  0.6300  0.1120 -1.5005
 3744SOL     OW22867   4.446   0.652   5.394  0.3036 -0.4667  0.0052
 3744SOL    HW122868   4.512   0.614   5.336 -0.6850 -1.3157 -0.5735
 3744SOL    HW222869   4.425   0.722   5.333  2.2234 -0.7776 -1.0098
 3745SOL     OW22870   1.503   1.284   2.432 -0.3164 -0.2415  0.7217
 3745SOL    HW122871   1.520   1.254   2.521 -0.4938 -0.3626  0.7142
 3745SOL    HW222872   1.584   1.248   2.393 -0.9006  0.0124 -0.7396
 3746SOL     OW22873   2.620   4.091   6.545  0.0048  0.0087  0.2258
 3746SOL    HW122874   2.572   4.129   6.471 -1.6465 -2.0170  0.2739
 3746SOL    HW222875   2.554   4.044   6.596  0.1560 -0.5664 -0.1080
 3747SOL     OW22876   3.953   0.874   3.472 -0.1442 -0.1313 -0.5041
 3747SOL    HW122877   3.989   0.827   3.397 -0.3449  1.4036 -1.5707
 3747SOL    HW222878   3.885   0.925   3.428 -0.9505  0.6020  1.5922
 3748SOL     OW22879   0.985   3.276   7.955 -0.8422 -0.5076 -0.0067
 3748SOL    HW122880   1.058   3.276   7.892 -1.8189  0.2179 -1.1408
 3748SOL    HW222881   1.018   3.335   8.023  2.4759 -2.3509 -0.0089
 3749SOL     OW22882   4.194   2.169   5.843  0.2619  0.4290 -0.2163
 3749SOL    HW122883   4.259   2.208   5.902  0.4155 -0.1562  0.0035
 3749SOL    HW222884   4.147   2.121   5.912  0.0664  2.2140  0.8997
 3750SOL     OW22885   3.259   4.604   0.913  0.1367  0.5874 -0.0904
 3750SOL    HW122886   3.342   4.594   0.959 -0.4862  0.6769  1.0477
 3750SOL    HW222887   3.212   4.527   0.945  2.9352 -0.4586  1.5051
 3751SOL     OW22888   1.863   0.601  12.195  0.5930 -0.5579  0.5328
 3751SOL    HW122889   1.832   0.691  12.208  3.3544  0.0335  2.9475
 3751SOL    HW222890   1.779   0.563  12.167  0.4443 -0.7467  1.2412
 3752SOL     OW22891   2.105   2.924   1.471  0.0006  0.5516  0.7301
 3752SOL    HW122892   2.107   2.843   1.522  1.5926  0.4271  0.4681
 3752SOL    HW222893   2.158   2.982   1.526 -0.2333  1.7876 -0.3416
 3753SOL     OW22894   2.343   3.948   2.013  0.0029  1.1521 -0.0973
 3753SOL    HW122895   2.315   3.862   2.043  1.2587  0.8632  0.2577
 3753SOL    HW222896   2.423   3.927   1.965 -0.8437  0.9602 -1.4187
 3754SOL     OW22897   1.141   4.152   0.607 -0.5496 -1.0212 -0.0641
 3754SOL    HW122898   1.187   4.078   0.569  1.5072  0.4249 -0.3958
 3754SOL    HW222899   1.156   4.123   0.696  3.4246 -0.0603 -0.4451
 3755SOL     OW22900   0.886   0.979   3.016 -0.7701  0.6747 -0.4029
 3755SOL    HW122901   0.913   0.904   3.068  2.7403  0.2490 -2.8120
 3755SOL    HW222902   0.872   0.942   2.929  0.7313  0.4508 -0.5528
 3756SOL     OW22903   1.022   3.640   7.732 -0.5416 -0.2378 -0.4432
 3756SOL    HW122904   1.087   3.701   7.766 -1.2815 -0.7201  1.8841
 3756SOL    HW222905   0.990   3.591   7.808  0.1133 -1.6501 -1.0775
 3757SOL     OW22906   2.238   1.251   4.399  0.4951 -0.4934  0.3017
 3757SOL    HW122907   2.213   1.297   4.479  1.0390  1.9863 -0.9579
 3757SOL    HW222908   2.201   1.305   4.330  0.0580 -0.6321  0.4313
 3758SOL     OW22909   2.875   0.496   5.800 -0.2755 -0.2034  0.5019
 3758SOL    HW122910   2.819   0.496   5.878 -1.4469  0.4445 -0.3281
 3758SOL    HW222911   2.840   0.572   5.754  2.0021  0.2704 -0.4409
 3759SOL     OW22912   4.522   3.133   7.448  0.5000  0.1607 -0.2869
 3759SOL    HW122913   4.455   3.084   7.496  1.2951  0.8029  1.5020
 3759SOL    HW222914   4.477   3.152   7.366  2.1018 -0.8341 -1.3992
 3760SOL     OW22915   3.436   4.261   3.956 -0.2675  0.0692 -0.0500
 3760SOL    HW122916   3.505   4.202   3.925 -1.0704  0.1395 -1.9687
 3760SOL    HW222917   3.362   4.221   3.910 -0.6966 -1.6337  2.1093
 3761SOL     OW22918   1.994   2.561   2.821  0.5107 -0.0031  0.4523
 3761SOL    HW122919   2.019   2.635   2.877 -1.8452  0.2430  1.1652
 3761SOL    HW222920   1.979   2.610   2.739 -1.1054 -0.5597  0.4217
 3762SOL     OW22921   1.054   3.898  11.517 -0.2489 -0.2673  0.1308
 3762SOL    HW122922   1.061   3.867  11.607  0.4966 -2.1424 -0.5691
 3762SOL    HW222923   1.122   3.965  11.524  1.7989 -2.3790  0.2389
 3763SOL     OW22924   2.625   0.633  16.177 -0.4764  0.4486 -0.1950
 3763SOL    HW122925   2.545   0.655  16.129 -2.0150 -2.4568  1.0593
 3763SOL    HW222926   2.642   0.721  16.211 -1.8068  0.0216  1.5445
 3764SOL     OW22927   3.194   4.455  17.659 -0.3689  0.1658  0.6103
 3764SOL    HW122928   3.267   4.431  17.601  0.6711  0.1023  1.9435
 3764SOL    HW222929   3.168   4.369  17.692 -5.2977  0.9439 -1.3002
 3765SOL     OW22930   3.399   2.474   4.744  0.9551 -0.3024 -0.3698
 3765SOL    HW122931   3.411   2.548   4.684  2.0564  0.0782  0.3242
 3765SOL    HW222932   3.323   2.497   4.798  1.0860 -0.4560 -0.1196
 3766SOL     OW22933   1.050   1.702   6.771 -0.5763 -0.2118 -0.2229
 3766SOL    HW122934   0.973   1.646   6.765 -0.6073  0.1355 -3.5876
 3766SOL    HW222935   1.012   1.772   6.718  1.0345  2.4973  2.1805
 3767SOL     OW22936   2.659   4.347   1.917 -0.8845 -0.0859  0.3360
 3767SOL    HW122937   2.607   4.406   1.862 -1.2817  0.6376  1.4779
 3767SOL    HW222938   2.671   4.395   1.998 -1.3000  1.8234 -0.7258
 3768SOL     OW22939   1.310   1.799   2.577  0.2353  0.0309 -0.6497
 3768SOL    HW122940   1.322   1.888   2.610  0.2539 -0.4751  0.7208
 3768SOL    HW222941   1.331   1.797   2.484 -0.7492  1.2434 -0.9053
 3769SOL     OW22942   3.756   3.578  12.124  0.4789 -0.6032 -0.2828
 3769SOL    HW122943   3.686   3.624  12.076 -0.8849 -2.8692 -0.4657
 3769SOL    HW222944   3.743   3.609  12.213 -0.4918 -0.3537 -0.5076
 3770SOL     OW22945   3.416   1.559   7.513 -0.2788 -0.3048 -0.2271
 3770SOL    HW122946   3.502   1.600   7.507 -0.1136 -0.5951  0.1560
 3770SOL    HW222947   3.433   1.470   7.545 -1.6154 -0.4299  0.1178
 3771SOL     OW22948   3.316   4.592   2.686  0.4929  0.3803 -0.4536
 3771SOL    HW122949   3.360   4.535   2.623 -0.0327 -1.0526  0.4741
 3771SOL    HW222950   3.389   4.645   2.718 -1.2393  2.2941  0.3043
 3772SOL     OW22951   4.514   2.173   5.717 -0.2012  0.2291  0.4564
 3772SOL    HW122952   4.460   2.246   5.687 -1.3392 -0.5261  0.6348
 3772SOL    HW222953   4.597   2.205   5.751 -1.4492  0.4903  3.2482
 3773SOL     OW22954   0.054   3.198   7.334  0.1442  0.4071  0.1940
 3773SOL    HW122955   4.703   3.168   7.348  0.0632  0.5004 -0.1359
 3773SOL    HW222956   0.057   3.203   7.239 -1.5018  0.5421  0.1525
 3774SOL     OW22957   3.834   1.967   4.441  0.3382 -0.3290 -0.5697
 3774SOL    HW122958   3.926   1.954   4.466 -0.0528 -2.9934 -0.5251
 3774SOL    HW222959   3.773   1.945   4.512 -1.2547 -1.0252 -2.1559
 3775SOL     OW22960   2.745   0.624   3.054  1.2979  0.1787  0.2107
 3775SOL    HW122961   2.725   0.717   3.067  0.8845  0.1512 -0.2238
 3775SOL    HW222962   2.826   0.632   3.104  0.0036 -1.3564  2.5526
 3776SOL     OW22963   3.466   1.228   8.148  0.0549 -0.3114 -0.1790
 3776SOL    HW122964   3.491   1.139   8.124 -1.3730 -0.2885 -1.7903
 3776SOL    HW222965   3.432   1.256   8.062  0.1060  0.3498  0.0137
 3777SOL     OW22966   2.969   2.451   0.927 -0.2060 -0.2241 -0.3374
 3777SOL    HW122967   3.048   2.405   0.899  0.6456  0.0525  1.5960
 3777SOL    HW222968   2.910   2.438   0.853  0.8193 -0.0419 -1.1836
 3778SOL     OW22969   4.396   0.533   3.713  0.3150  0.8466  0.4266
 3778SOL    HW122970   4.365   0.532   3.623 -0.2452  2.0784  0.6151
 3778SOL    HW222971   4.490   0.527   3.696 -0.0067  0.1116 -1.1055
 3779SOL     OW22972   2.058   3.874   4.684 -0.2120 -0.7371  0.4270
 3779SOL    HW122973   2.031   3.929   4.758 -0.7574 -0.8217  0.2892
 3779SOL    HW222974   1.986   3.887   4.621  0.7471 -0.8883 -0.7044
 3780SOL     OW22975   2.583   2.712   4.548  0.8255 -0.4091 -0.0349
 3780SOL    HW122976   2.636   2.708   4.627  3.3118 -0.5521 -1.6959
 3780SOL    HW222977   2.517   2.644   4.563 -0.3619  0.4073 -1.4982
 3781SOL     OW22978   4.428   2.780   6.628 -0.7580 -0.4928  0.1832
 3781SOL    HW122979   4.458   2.849   6.569 -0.7609 -0.3694  0.3242
 3781SOL    HW222980   4.425   2.825   6.712  1.4345 -0.8226  0.4456
 3782SOL     OW22981   2.831   1.405  11.364  0.4374  0.5464 -0.0106
 3782SOL    HW122982   2.863   1.319  11.337  2.4964  1.3337 -0.0535
 3782SOL    HW222983   2.905   1.435  11.416  1.2377 -1.7311  0.1634
 3783SOL     OW22984   4.717   3.758  15.892 -0.2100 -0.3417  0.0467
 3783SOL    HW122985   0.034   3.720  15.824  1.3319  3.0720 -0.6092
 3783SOL    HW222986   4.631   3.743  15.853 -0.6974  1.9982  0.2136
 3784SOL     OW22987   3.265   0.246   3.866  0.7124  0.0378 -0.4073
 3784SOL    HW122988   3.182   0.201   3.851  0.3367  0.0704  1.6998
 3784SOL    HW222989   3.325   0.184   3.825 -2.0950 -2.3498 -0.8927
 3785SOL     OW22990   0.470   1.157   2.736 -0.1983 -0.0825 -0.0263
 3785SOL    HW122991   0.555   1.164   2.694 -1.2838 -0.5669 -2.2630
 3785SOL    HW222992   0.484   1.120   2.823  0.1143 -0.9617 -0.4521
 3786SOL     OW22993   3.224   1.869   7.904  0.8054  0.2106  0.0695
 3786SOL    HW122994   3.134   1.900   7.892  0.6816 -0.7431 -1.5053
 3786SOL    HW222995   3.249   1.831   7.820 -0.4165  0.4480 -0.3991
 3787SOL     OW22996   3.286   3.002   8.747  0.4664  0.3375 -0.2218
 3787SOL    HW122997   3.374   3.041   8.740 -0.3264  1.4784 -3.5413
 3787SOL    HW222998   3.290   2.913   8.712 -1.6026  0.6880 -1.3177
 3788SOL     OW22999   1.261   2.266  13.882 -0.2268  0.1836 -0.2555
 3788SOL    HW123000   1.274   2.171  13.879 -1.4910  0.0141 -0.2739
 3788SOL    HW223001   1.329   2.303  13.826  1.0568  0.9105  1.7865
 3789SOL     OW23002   0.018   2.557   3.841  0.4391 -0.6100  0.4564
 3789SOL    HW123003   0.028   2.627   3.776  1.0683 -1.8223 -0.7459
 3789SOL    HW223004   0.057   2.491   3.783  0.3875  1.0731 -1.5082
 3790SOL     OW23005   1.001   1.131   4.819 -0.5927 -0.0017 -0.6262
 3790SOL    HW123006   1.013   1.226   4.815 -0.5970 -0.0387 -1.4617
 3790SOL    HW223007   0.998   1.112   4.913 -1.0946  0.8008 -0.4803
 3791SOL     OW23008   0.456   3.096   2.411  0.0173  0.2244  0.3085
 3791SOL    HW123009   0.373   3.047   2.404  0.8720 -1.2415  0.4140
 3791SOL    HW223010   0.510   3.033   2.363 -1.6977 -0.0444 -1.2755
 3792SOL     OW23011   1.091   0.896   1.224 -0.5752 -0.5867  1.4729
 3792SOL    HW123012   1.067   0.811   1.186  1.7227 -0.2081 -0.8173
 3792SOL    HW223013   1.185   0.896   1.205 -1.0587 -0.5403 -0.8705
 3793SOL     OW23014   3.621   4.607   8.826  0.6354 -0.1949 -0.3545
 3793SOL    HW123015   3.629   4.571   8.915  2.2316  2.0205  0.4018
 3793SOL    HW223016   3.531   4.638   8.831  1.0686  0.6744  1.9262
 3794SOL     OW23017   0.540   1.171  17.222  0.3845 -0.6747  0.4630
 3794SOL    HW123018   0.451   1.200  17.204 -0.3311 -2.4983  1.0512
 3794SOL    HW223019   0.526   1.110  17.294 -0.1606 -0.6312  0.3909
 3795SOL     OW23020   0.829   0.387  12.336 -0.1634  0.0514 -0.1215
 3795SOL    HW123021   0.827   0.294  12.358 -0.0850  0.0535 -0.1050
 3795SOL    HW223022   0.851   0.430  12.418  0.4661  0.4418 -0.4926
 3796SOL     OW23023   2.638   4.249   9.319  0.0511  0.0146  0.4111
 3796SOL    HW123024   2.543   4.257   9.325  0.0169  1.9008 -2.3790
 3796SOL    HW223025   2.661   4.170   9.368  2.2239  0.8019  0.6646
 3797SOL     OW23026   2.121   0.194   4.244  0.3503  0.0975 -0.1676
 3797SOL    HW123027   2.158   0.281   4.232  1.0232 -0.5799 -2.8594
 3797SOL    HW223028   2.027   0.212   4.237 -0.1793 -2.3531  0.7032
 3798SOL     OW23029   2.132   2.511  15.863  0.0303  0.6502 -0.0878
 3798SOL    HW123030   2.150   2.566  15.787  0.7319 -2.0822 -1.9211
 3798SOL    HW223031   2.036   2.504  15.867  0.0374  1.7032  2.1697
 3799SOL     OW23032   2.524   3.068   5.354  0.4831  0.5656 -0.5203
 3799SOL    HW123033   2.591   3.136   5.349  0.3552  0.4759 -3.1417
 3799SOL    HW223034   2.546   3.027   5.438 -0.0563 -0.5845 -0.9395
 3800SOL     OW23035   4.710   4.384   5.999 -0.2303 -0.0359  0.6014
 3800SOL    HW123036   4.691   4.361   6.090 -2.4021  0.6195  0.2956
 3800SOL    HW223037   0.024   4.460   6.024  0.2120 -0.1170 -0.0625
 3801SOL     OW23038   3.900   1.292   6.092 -0.1344  0.4397  0.1016
 3801SOL    HW123039   3.922   1.358   6.027  0.8823 -0.1036 -0.1102
 3801SOL    HW223040   3.943   1.334   6.167 -1.1715  0.5677  0.6212
 3802SOL     OW23041   3.682   0.233   2.854 -0.1682 -0.3057  0.0137
 3802SOL    HW123042   3.758   0.277   2.892 -0.2923 -0.7191  0.7254
 3802SOL    HW223043   3.681   0.161   2.916 -2.9514  1.4421  2.0009
 3803SOL     OW23044   2.969   1.404   7.788  0.4585  0.6044  0.0491
 3803SOL    HW123045   3.021   1.433   7.713  0.5446  1.3411  0.4005
 3803SOL    HW223046   2.922   1.335   7.742  0.9219 -0.6555  1.4802
 3804SOL     OW23047   1.514   2.949   2.443  0.5814  0.1983  0.4707
 3804SOL    HW123048   1.479   2.876   2.392  0.5134  0.3574  0.2886
 3804SOL    HW223049   1.520   2.911   2.530  0.7908  2.0395  1.2650
 3805SOL     OW23050   4.129   0.700   3.242  0.3817 -0.2279 -0.0352
 3805SOL    HW123051   4.221   0.685   3.224  0.7529  0.0292  1.6447
 3805SOL    HW223052   4.121   0.794   3.231  1.2722 -0.3672 -1.8551
 3806SOL     OW23053   3.341   4.427   4.156 -0.2370  0.1881 -0.5145
 3806SOL    HW123054   3.340   4.521   4.141 -0.0532  0.0653 -1.2899
 3806SOL    HW223055   3.373   4.390   4.073  1.7704  0.9885 -0.1032
 3807SOL     OW23056   2.540   2.818   3.019 -0.0919 -0.8851 -0.0425
 3807SOL    HW123057   2.584   2.864   3.090  0.6111 -0.4404 -0.7676
 3807SOL    HW223058   2.615   2.787   2.968  0.3954  2.0478 -1.0663
 3808SOL     OW23059   2.622   2.456  17.357  0.0907 -0.5968 -0.4347
 3808SOL    HW123060   2.575   2.505  17.289  0.6611 -1.2205 -1.2800
 3808SOL    HW223061   2.596   2.499  17.438 -0.1255 -1.0684 -0.2551
 3809SOL     OW23062   0.856   1.485   5.884 -0.1951  0.2896  0.4360
 3809SOL    HW123063   0.829   1.394   5.896 -0.2685  0.5692  2.4767
 3809SOL    HW223064   0.786   1.524   5.831 -1.8125  0.1327  2.4707
 3810SOL     OW23065   0.741   3.181  10.640 -0.1060  0.4714 -0.1077
 3810SOL    HW123066   0.780   3.096  10.659 -2.4736 -0.3483  1.1393
 3810SOL    HW223067   0.738   3.218  10.728 -0.9649 -0.5528  0.3095
 3811SOL     OW23068   0.075   1.760   3.719 -0.1450  0.1222 -0.0330
 3811SOL    HW123069   0.128   1.715   3.784  0.7041 -0.6044 -1.2209
 3811SOL    HW223070   4.727   1.771   3.759  0.5706 -0.1114  1.5477
 3812SOL     OW23071   3.205   4.585   9.815 -0.0777 -0.1041  0.0749
 3812SOL    HW123072   3.127   4.630   9.846  1.0893  1.7394  0.3525
 3812SOL    HW223073   3.263   4.600   9.889  1.4701 -0.1085 -1.1321
 3813SOL     OW23074   2.410   3.900   7.619  0.1441 -0.3957  0.1546
 3813SOL    HW123075   2.381   3.980   7.663  0.6793  0.7774 -1.6081
 3813SOL    HW223076   2.345   3.884   7.550 -0.5703 -1.3536  1.0473
 3814SOL     OW23077   2.447   1.217   4.641  0.2888 -0.5269 -0.1587
 3814SOL    HW123078   2.473   1.244   4.729 -2.3479 -2.2673  1.1997
 3814SOL    HW223079   2.506   1.254   4.576  1.0885  1.6360  1.7873
 3815SOL     OW23080   3.706   2.119  11.938 -0.2720  0.5914 -0.2709
 3815SOL    HW123081   3.711   2.190  11.875  0.8575  2.3724  1.8195
 3815SOL    HW223082   3.735   2.170  12.014 -0.6253  0.4005 -0.0079
 3816SOL     OW23083   3.694   0.081   2.462 -0.6389  0.3396 -0.0853
 3816SOL    HW123084   3.782   0.045   2.452 -0.0793  1.6260  0.1766
 3816SOL    HW223085   3.692   0.150   2.395 -0.1675  1.5110  1.1069
 3817SOL     OW23086   1.368   0.077   5.114  0.3617 -0.4483  0.1084
 3817SOL    HW123087   1.379   0.134   5.038  1.7733 -0.6400  0.1680
 3817SOL    HW223088   1.299   0.020   5.080 -1.4499 -0.1773  3.3191
 3818SOL     OW23089   0.819   2.284   6.891  0.3539  0.3908 -0.8087
 3818SOL    HW123090   0.733   2.279   6.933  0.4377  1.8310 -0.4874
 3818SOL    HW223091   0.834   2.194   6.859  2.1030  0.5350 -0.3959
 3819SOL     OW23092   0.822   0.290   2.118 -0.4218  0.0331  0.3223
 3819SOL    HW123093   0.894   0.227   2.106  1.0932  1.8212  0.0474
 3819SOL    HW223094   0.775   0.261   2.040  2.3622 -1.1692 -0.9216
 3820SOL     OW23095   0.043   2.288   4.796  0.1031  0.5537  0.4983
 3820SOL    HW123096   0.084   2.375   4.790 -0.2978  0.7627  0.7746
 3820SOL    HW223097   0.109   2.246   4.851  2.0373 -2.3128 -4.0205
 3821SOL     OW23098   1.165   1.046  13.027 -0.5168  0.1373  0.3446
 3821SOL    HW123099   1.181   1.059  12.933 -1.7143 -1.4878 -0.0907
 3821SOL    HW223100   1.071   1.031  13.032 -0.7620  0.8969 -1.9455
 3822SOL     OW23101   3.538   2.025  11.309 -0.2494  0.6499 -0.3089
 3822SOL    HW123102   3.565   1.968  11.381  3.0138 -0.8352 -2.6927
 3822SOL    HW223103   3.534   2.111  11.352 -1.7506  0.1052  0.6309
 3823SOL     OW23104   0.398   0.434   5.058  0.0529 -0.2539 -0.3072
 3823SOL    HW123105   0.335   0.443   5.130 -0.7363  1.6011 -1.2347
 3823SOL    HW223106   0.424   0.343   5.074 -1.1255 -0.5675 -0.1556
 3824SOL     OW23107   3.296   0.225   3.301  0.2068  0.1628 -0.1209
 3824SOL    HW123108   3.267   0.157   3.361 -1.5667  1.3377  0.3768
 3824SOL    HW223109   3.211   0.265   3.282  0.7167  1.3627  0.0796
 3825SOL     OW23110   1.065   1.795   2.496  0.0468 -0.5905 -0.3378
 3825SOL    HW123111   1.155   1.795   2.529  0.7250 -2.8311 -2.2003
 3825SOL    HW223112   1.060   1.879   2.451  2.9492 -0.1719  0.1551
 3826SOL     OW23113   3.639   4.355   5.695  0.1862 -0.1237 -0.1528
 3826SOL    HW123114   3.628   4.369   5.601 -1.8310  0.7475  0.2157
 3826SOL    HW223115   3.547   4.342   5.720  0.0766  0.1293 -0.4244
 3827SOL     OW23116   3.738   3.732   4.361 -0.0891  0.4896  0.0400
 3827SOL    HW123117   3.730   3.827   4.354 -1.8555  0.3468  0.3244
 3827SOL    HW223118   3.828   3.719   4.393 -0.1456 -0.3651 -0.1447
 3828SOL     OW23119   1.714   1.604   1.359  0.2136  0.6170 -0.5792
 3828SOL    HW123120   1.708   1.680   1.301  1.6132  0.6180 -0.7173
 3828SOL    HW223121   1.789   1.550   1.333 -1.2065 -2.2082  1.1304
 3829SOL     OW23122   2.186   2.939   6.408 -0.0260 -0.4329 -0.5155
 3829SOL    HW123123   2.161   2.849   6.383  0.7321 -0.5522 -0.8505
 3829SOL    HW223124   2.255   2.959   6.344  1.4043 -2.2128  0.4533
 3830SOL     OW23125   2.487   2.005   7.904 -0.3006  0.4772  0.2613
 3830SOL    HW123126   2.414   2.010   7.966 -0.4434  1.2629  0.0220
 3830SOL    HW223127   2.505   2.098   7.892  0.5259  0.4062  0.9344
 3831SOL     OW23128   1.217   0.009   2.654 -0.4756  0.3168 -0.4187
 3831SOL    HW123129   1.176   0.090   2.623 -2.0879  0.2979  1.6148
 3831SOL    HW223130   1.159   4.733   2.729  0.8153 -0.3517  0.4673
 3832SOL     OW23131   4.683   1.464   7.820 -0.3497  0.2024  0.1475
 3832SOL    HW123132   4.604   1.465   7.766  0.5986  0.1375 -1.2592
 3832SOL    HW223133   0.013   1.510   7.770 -0.5607  0.5242  0.1545
 3833SOL     OW23134   0.052   2.780  15.052  0.0327  0.0261  0.3194
 3833SOL    HW123135   0.046   2.720  15.127 -0.2323 -1.5055 -0.9220
 3833SOL    HW223136   0.028   2.861  15.096  0.7755 -0.3365  1.4104
 3834SOL     OW23137   1.420   4.666   5.833 -0.1516 -0.3386  0.2768
 3834SOL    HW123138   1.464   4.634   5.755 -1.5604 -1.2135 -0.1703
 3834SOL    HW223139   1.464   4.604   5.892  0.7272 -0.4140 -0.4595
 3835SOL     OW23140   3.754   3.524   8.851 -0.0797  0.9352 -0.2959
 3835SOL    HW123141   3.817   3.534   8.922  1.3142 -0.0657 -1.4155
 3835SOL    HW223142   3.762   3.435   8.820 -2.1696  0.2466  1.1181
 3836SOL     OW23143   0.240   2.363   6.179  0.4566 -0.5543  0.0139
 3836SOL    HW123144   0.247   2.286   6.235  1.4132  0.0974  0.7808
 3836SOL    HW223145   0.216   2.315   6.100 -1.8059 -0.0277  0.3505
 3837SOL     OW23146   0.212   2.203   5.014  0.5372  0.4476  0.4689
 3837SOL    HW123147   0.175   2.129   5.063 -1.7361  1.0491 -0.3396
 3837SOL    HW223148   0.183   2.282   5.060  0.7597 -0.1512  1.6571
 3838SOL     OW23149   4.637   0.617   7.517  0.0234  0.3137 -0.1461
 3838SOL    HW123150   4.616   0.696   7.468 -0.0657 -0.6803 -1.7024
 3838SOL    HW223151   4.603   0.649   7.601 -2.0054 -1.0129 -0.4624
 3839SOL     OW23152   4.290   0.904   3.509  0.0965  0.0457 -0.6564
 3839SOL    HW123153   4.256   0.917   3.420 -0.4983 -0.8529 -0.5565
 3839SOL    HW223154   4.374   0.863   3.492 -0.5505 -2.0999  1.4218
 3840SOL     OW23155   3.909   0.672   3.054 -0.1482 -0.1785 -0.5027
 3840SOL    HW123156   3.976   0.665   3.121  0.0631 -2.8059 -1.0049
 3840SOL    HW223157   3.843   0.625   3.105  1.0277  0.8451  1.9199
 3841SOL     OW23158   0.376   2.457   7.780  0.8131  0.1416  0.0376
 3841SOL    HW123159   0.358   2.493   7.693 -0.4559 -1.6329 -0.4350
 3841SOL    HW223160   0.471   2.459   7.790  0.9140 -1.6400 -0.5605
 3842SOL     OW23161   1.004   4.550  16.096 -0.0341 -0.3300 -0.2626
 3842SOL    HW123162   1.066   4.525  16.165  0.8840 -0.7163 -1.2387
 3842SOL    HW223163   0.929   4.500  16.129  1.1385 -0.9342  1.5189
 3843SOL     OW23164   2.519   1.682   0.335  0.2918  0.6344 -0.0974
 3843SOL    HW123165   2.561   1.745   0.276  1.4002 -0.1977 -0.1807
 3843SOL    HW223166   2.512   1.602   0.284  1.0766  2.8811 -3.7457
 3844SOL     OW23167   2.503   0.736  13.524  0.2194  0.4277 -0.1520
 3844SOL    HW123168   2.491   0.642  13.513  2.9314  0.2274 -1.4650
 3844SOL    HW223169   2.486   0.770  13.436 -1.7801  1.6864  0.7420
 3845SOL     OW23170   3.157   3.198  10.919  0.1867  0.6271  0.2364
 3845SOL    HW123171   3.102   3.213  10.997 -1.4920  0.8226 -0.9761
 3845SOL    HW223172   3.244   3.212  10.956  0.1178  0.5031  0.4461
 3846SOL     OW23173   2.866   0.746   6.946  0.4279 -0.2596 -0.1969
 3846SOL    HW123174   2.920   0.720   6.871  1.7368  0.4525  0.5059
 3846SOL    HW223175   2.860   0.662   6.993  0.6098 -0.9276 -1.3678
 3847SOL     OW23176   0.794   3.782   3.264 -0.0561 -0.0984 -0.1087
 3847SOL    HW123177   0.848   3.731   3.325 -0.4093 -1.4041 -0.8687
 3847SOL    HW223178   0.829   3.871   3.267  0.5891 -0.2759 -2.4090
 3848SOL     OW23179   0.036   0.717  13.162 -0.3693  0.0783  0.5062
 3848SOL    HW123180   0.115   0.732  13.109 -0.7915 -0.7454 -0.3614
 3848SOL    HW223181   0.019   0.804  13.197 -1.4327 -0.0826  0.3946
 3849SOL     OW23182   4.372   2.868   5.798  0.7207  0.2357  0.3677
 3849SOL    HW123183   4.466   2.860   5.779  0.3665 -0.7810 -0.9617
 3849SOL    HW223184   4.368   2.808   5.872  3.7310 -0.6714 -0.2077
 3850SOL     OW23185   4.046   0.591   0.297 -0.0578 -0.3097 -0.0049
 3850SOL    HW123186   3.958   0.569   0.266 -0.2547  0.0821  0.2843
 3850SOL    HW223187   4.033   0.575   0.391 -0.1758  0.6951  0.1443
 3851SOL     OW23188   2.313   0.972   8.426  0.1553  0.8654  0.5000
 3851SOL    HW123189   2.218   0.981   8.422  0.1988  1.6124  1.0932
 3851SOL    HW223190   2.329   0.967   8.521  2.3884  3.2159  0.2538
 3852SOL     OW23191   2.389   0.995   4.920  0.8795  0.2076  0.0642
 3852SOL    HW123192   2.333   1.048   4.977  1.9023 -0.1857  1.4452
 3852SOL    HW223193   2.359   0.906   4.935  2.0383 -0.6893 -2.9065
 3853SOL     OW23194   0.327   2.542   5.285  0.1986 -0.6368  0.0416
 3853SOL    HW123195   0.403   2.593   5.312 -0.1823 -0.1270  0.1533
 3853SOL    HW223196   0.367   2.464   5.247  1.8605  0.8842 -1.3205
 3854SOL     OW23197   1.032   1.153   1.875  0.2387  0.0596 -0.1713
 3854SOL    HW123198   1.119   1.116   1.889  0.8774  1.4828 -0.4642
 3854SOL    HW223199   1.021   1.194   1.961 -1.5746  1.6878 -1.1817
 3855SOL     OW23200   3.552   2.725  15.914  0.2293 -0.0013 -0.5140
 3855SOL    HW123201   3.513   2.807  15.944 -1.5123 -0.9377 -0.2033
 3855SOL    HW223202   3.536   2.727  15.820  2.0276  0.9570 -0.7977
 3856SOL     OW23203   4.252   1.022   6.651 -0.4027  0.0030 -0.3752
 3856SOL    HW123204   4.233   1.097   6.707  0.9285  0.8287 -1.0285
 3856SOL    HW223205   4.296   0.966   6.715 -0.5729  1.3524  0.9117
 3857SOL     OW23206   1.156   3.424   6.770  0.2296 -0.1036 -0.3715
 3857SOL    HW123207   1.139   3.486   6.840 -0.8627  0.0181 -0.7465
 3857SOL    HW223208   1.203   3.353   6.816  2.0889  1.0788 -0.4416
 3858SOL     OW23209   3.607   0.293   8.150 -0.3181  0.2263 -0.0128
 3858SOL    HW123210   3.538   0.358   8.165 -0.7178 -0.3038  0.4368
 3858SOL    HW223211   3.561   0.218   8.110 -1.4113  1.0110 -0.2209
 3859SOL     OW23212   0.273   2.442   4.146  0.4203  0.2978  0.0220
 3859SOL    HW123213   0.353   2.407   4.109  0.2334 -1.6590  1.4404
 3859SOL    HW223214   0.214   2.450   4.071 -1.2011 -0.9739  1.1603
 3860SOL     OW23215   4.262   3.789   8.175  0.6726  0.1695  0.0703
 3860SOL    HW123216   4.233   3.825   8.259  1.5365 -1.0472  0.8819
 3860SOL    HW223217   4.350   3.827   8.177  0.9935 -0.5009 -1.1552
 3861SOL     OW23218   4.082   3.500   7.825  0.4857 -0.4113  0.1590
 3861SOL    HW123219   4.161   3.549   7.802 -0.6549  0.5712 -1.5911
 3861SOL    HW223220   4.018   3.571   7.831  1.4727  0.5289 -0.5236
 3862SOL     OW23221   3.442   4.014   8.197  0.1471 -0.1948 -0.0982
 3862SOL    HW123222   3.389   3.978   8.268  1.2408 -0.1274  0.7639
 3862SOL    HW223223   3.503   4.063   8.253 -0.5589 -0.6780  1.1057
 3863SOL     OW23224   4.333   4.389   0.492  0.1207  0.4418  0.4013
 3863SOL    HW123225   4.262   4.369   0.553 -0.1984 -0.9649 -0.4222
 3863SOL    HW223226   4.287   4.459   0.446 -0.1527  0.0206  0.0366
 3864SOL     OW23227   3.126   3.167   4.754 -0.2087  0.2272  0.3254
 3864SOL    HW123228   3.061   3.235   4.733  1.9336  1.7196 -1.5644
 3864SOL    HW223229   3.087   3.116   4.824  0.3661  1.6018  1.6490
 3865SOL     OW23230   1.125   1.942  12.294 -0.4397 -0.0940 -0.5305
 3865SOL    HW123231   1.085   1.863  12.329 -2.2190  0.7895 -0.6137
 3865SOL    HW223232   1.155   1.976  12.379 -0.7034 -2.1593  0.3642
 3866SOL     OW23233   3.827   1.440   1.012 -0.7484 -0.1863 -0.4442
 3866SOL    HW123234   3.882   1.436   0.933  0.4993 -1.0496  0.4602
 3866SOL    HW223235   3.871   1.504   1.069 -0.5148  0.3163 -1.1840
 3867SOL     OW23236   3.509   3.778   1.409  0.3793 -0.3129  0.6895
 3867SOL    HW123237   3.500   3.849   1.346  0.2378 -1.6466 -0.8120
 3867SOL    HW223238   3.515   3.705   1.347 -1.2144  0.2729 -0.1740
 3868SOL     OW23239   4.491   2.325   6.572  0.0763  0.3415  0.2963
 3868SOL    HW123240   4.577   2.367   6.578 -0.6992  1.8349  1.1429
 3868SOL    HW223241   4.531   2.239   6.585 -3.2179 -0.9904  1.6329
 3869SOL     OW23242   2.881   2.972   3.059 -0.3868  0.4121 -0.0196
 3869SOL    HW123243   2.902   2.997   2.969 -1.8098  0.7016 -0.2684
 3869SOL    HW223244   2.852   3.052   3.101 -1.1876 -0.4619  1.0878
 3870SOL     OW23245   0.037   0.669   8.229  0.1445 -0.7372 -0.3508
 3870SOL    HW123246   0.023   0.708   8.315 -0.0809  0.4133 -0.9208
 3870SOL    HW223247   0.133   0.665   8.230  0.2200  1.1529 -0.4126
 3871SOL     OW23248   4.090   1.690   4.690 -0.6191  0.2344  0.2827
 3871SOL    HW123249   4.109   1.733   4.773 -2.0932  0.4458  0.5136
 3871SOL    HW223250   3.997   1.714   4.685 -0.4511  0.1740 -3.5750
 3872SOL     OW23251   1.312   1.760   1.413  0.4756 -0.0495 -0.3062
 3872SOL    HW123252   1.356   1.730   1.493 -0.1278  0.4457  0.2213
 3872SOL    HW223253   1.378   1.826   1.391  0.3153 -0.6872 -2.6084
 3873SOL     OW23254   2.907   4.003  10.581 -0.8897  0.1130  0.1659
 3873SOL    HW123255   2.958   4.025  10.659  1.7780  0.0747 -1.5282
 3873SOL    HW223256   2.893   3.910  10.600  1.2337 -0.3060 -0.2343
 3874SOL     OW23257   2.145   4.254  12.289  0.6028 -0.4419 -0.2063
 3874SOL    HW123258   2.225   4.271  12.239  1.0858 -0.3689  0.5800
 3874SOL    HW223259   2.175   4.277  12.377 -1.5329  1.0359  0.1414
 3875SOL     OW23260   1.565   2.983   9.333 -0.2258 -0.6934 -0.1916
 3875SOL    HW123261   1.520   2.900   9.319  1.4068 -1.4906 -0.7926
 3875SOL    HW223262   1.655   2.951   9.321  0.4940  2.2779 -2.6755
 3876SOL     OW23263   0.091   4.264   7.271 -0.3202 -0.1798 -0.2949
 3876SOL    HW123264   0.143   4.303   7.341  1.3884  0.1324 -1.7248
 3876SOL    HW223265   0.168   4.233   7.222  0.6689  3.1657 -0.8601
 3877SOL     OW23266   4.284   1.426   2.265 -0.3473 -0.1181 -0.1373
 3877SOL    HW123267   4.192   1.451   2.260 -0.1440  0.7977  0.5569
 3877SOL    HW223268   4.338   1.487   2.213  0.5129 -0.3063  0.5352
 3878SOL     OW23269   0.870   0.322   2.756  0.2623  0.7396 -0.1198
 3878SOL    HW123270   0.863   0.400   2.702  1.0293  2.2342  1.9679
 3878SOL    HW223271   0.814   0.258   2.711 -2.0211  3.1278 -0.6376
 3879SOL     OW23272   2.390   3.624   3.948 -0.2508 -0.2157 -0.3215
 3879SOL    HW123273   2.411   3.613   4.041 -0.2876  1.8444 -0.0839
 3879SOL    HW223274   2.454   3.565   3.908  0.7705  1.7772 -1.6218
 3880SOL     OW23275   2.003   0.084   2.729 -0.2503  0.3974 -0.7076
 3880SOL    HW123276   2.037   0.121   2.810 -0.6234  2.3666 -1.4526
 3880SOL    HW223277   1.910   0.067   2.742  0.0176 -0.6482 -0.2174
 3881SOL     OW23278   3.619   2.322   2.020  0.2659 -0.2171 -1.0384
 3881SOL    HW123279   3.646   2.394   2.077 -0.3916 -1.8272  1.3313
 3881SOL    HW223280   3.700   2.300   1.974  1.5830  1.0048  0.7004
 3882SOL     OW23281   2.791   1.914   5.421  0.5382  0.2682  0.7072
 3882SOL    HW123282   2.734   1.963   5.481  1.5433  2.8772 -0.5132
 3882SOL    HW223283   2.845   1.861   5.480 -1.3059 -0.7152  1.5181
 3883SOL     OW23284   3.039   2.144   5.783 -0.3755  0.1667 -0.1199
 3883SOL    HW123285   3.080   2.118   5.701  1.5155  0.7260  0.6420
 3883SOL    HW223286   3.077   2.070   5.829 -3.4194 -0.2854  1.7010
 3884SOL     OW23287   3.150   0.761  16.625 -0.2407 -0.3140 -0.1017
 3884SOL    HW123288   3.131   0.835  16.567  0.0894 -0.4111 -0.3308
 3884SOL    HW223289   3.229   0.797  16.665 -0.1377  1.2036 -1.6330
 3885SOL     OW23290   2.734   2.787  12.966 -0.1093 -0.5143 -0.2847
 3885SOL    HW123291   2.707   2.816  12.879 -1.8931 -1.3649 -0.0139
 3885SOL    HW223292   2.689   2.853  13.018 -1.8149 -2.3326  0.5564
 3886SOL     OW23293   4.246   0.978   8.304  0.1753 -0.6113  0.2186
 3886SOL    HW123294   4.306   1.048   8.277 -0.8891  0.9812  1.9237
 3886SOL    HW223295   4.192   1.023   8.370 -0.1853 -0.1274 -0.4055
 3887SOL     OW23296   3.985   3.155   5.492  0.0061  0.1991  0.3412
 3887SOL    HW123297   4.004   3.097   5.418  0.0278 -0.1811  0.6421
 3887SOL    HW223298   3.891   3.153   5.474 -0.1299 -0.0980  1.0489
 3888SOL     OW23299   3.029   2.167  10.365 -0.4493  0.4793  0.0977
 3888SOL    HW123300   3.125   2.171  10.357 -0.4105  0.4772  0.5491
 3888SOL    HW223301   3.012   2.081  10.402 -0.4049  0.3702 -0.1361
 3889SOL     OW23302   2.935   1.573  14.991  0.3383 -0.0374  0.0723
 3889SOL    HW123303   2.911   1.480  14.990  1.1728 -0.2553  0.5928
 3889SOL    HW223304   2.909   1.602  14.903 -0.1754 -0.5821  0.0410
 3890SOL     OW23305   1.061   3.926   2.735  0.4217 -0.0214  0.5223
 3890SOL    HW123306   1.107   4.010   2.743 -1.0432  0.6478  1.8075
 3890SOL    HW223307   0.977   3.972   2.736  1.3817  1.7750 -0.1358
 3891SOL     OW23308   0.113   1.948   5.164 -0.0973 -0.0644  0.2885
 3891SOL    HW123309   0.080   1.860   5.182 -0.6381 -0.1417 -1.0718
 3891SOL    HW223310   0.028   1.993   5.160  0.4577  0.7102 -2.8512
 3892SOL     OW23311   4.122   4.285   3.992  0.1684  0.0413 -0.1289
 3892SOL    HW123312   4.197   4.325   3.949 -0.7244  0.4380 -1.2992
 3892SOL    HW223313   4.130   4.195   3.959  0.0142 -0.2312  0.5739
 3893SOL     OW23314   3.542   2.025  10.532  0.4601  0.1310 -1.0661
 3893SOL    HW123315   3.597   2.080  10.476  1.3811 -0.1094 -0.3951
 3893SOL    HW223316   3.585   2.050  10.613  2.1154  2.8087 -2.7562
 3894SOL     OW23317   2.079   3.667   5.343 -0.0971 -0.1573 -0.0742
 3894SOL    HW123318   2.149   3.699   5.401 -0.1605 -1.0288  0.4787
 3894SOL    HW223319   2.023   3.742   5.364  0.6593  1.1622 -2.7492
 3895SOL     OW23320   0.927   0.780   7.093  0.5993  0.0264 -0.0151
 3895SOL    HW123321   1.012   0.737   7.089  0.9100  0.8055 -2.1202
 3895SOL    HW223322   0.945   0.861   7.141 -0.1220  1.6008 -2.3607
 3896SOL     OW23323   1.473   4.099   4.462  0.0377  0.2794 -0.4900
 3896SOL    HW123324   1.415   4.125   4.391 -0.4085 -0.6420 -0.4693
 3896SOL    HW223325   1.464   4.004   4.459 -1.9872  0.4266  0.9575
 3897SOL     OW23326   4.271   1.889   4.173  0.1022  0.0165 -0.1746
 3897SOL    HW123327   4.190   1.925   4.210 -0.8531 -1.6610 -0.5747
 3897SOL    HW223328   4.237   1.817   4.119  1.0172  0.2636 -1.0682
 3898SOL     OW23329   3.351   3.188   4.604  0.1486  0.0320  0.1087
 3898SOL    HW123330   3.287   3.196   4.675 -0.7324 -0.9654 -0.5721
 3898SOL    HW223331   3.295   3.175   4.528  0.4531 -1.2852  0.1009
 3899SOL     OW23332   0.542   2.120   5.159 -0.2567 -0.1539  0.3384
 3899SOL    HW123333   0.553   2.086   5.247 -0.3029  0.6817  0.6692
 3899SOL    HW223334   0.497   2.204   5.174  2.6122  1.2865  0.8357
 3900SOL     OW23335   1.147   0.811  11.768 -0.1613 -0.3038  0.4551
 3900SOL    HW123336   1.077   0.746  11.765 -0.4237  0.0448 -0.7918
 3900SOL    HW223337   1.189   0.784  11.687 -0.7980  1.3722 -0.4249
 3901SOL     OW23338   1.596   0.741   3.387 -0.4555  0.1412 -0.0639
 3901SOL    HW123339   1.628   0.820   3.429 -0.9467  1.0833 -1.4302
 3901SOL    HW223340   1.668   0.681   3.406  0.6804  1.3544 -0.5138
 3902SOL     OW23341   2.258   1.840   8.641  0.1742 -0.0535  0.0145
 3902SOL    HW123342   2.276   1.751   8.672 -0.7406 -0.0220  0.6566
 3902SOL    HW223343   2.187   1.861   8.702  0.3788  2.4827 -0.6319
 3903SOL     OW23344   1.029   1.437   7.304  0.2155  0.4413  0.3087
 3903SOL    HW123345   1.124   1.429   7.294 -0.0752  1.4436 -3.2113
 3903SOL    HW223346   1.014   1.478   7.219  2.8808  1.8744  0.5191
 3904SOL     OW23347   1.905   4.448   4.044 -0.9346 -0.2083 -0.4106
 3904SOL    HW123348   1.884   4.529   4.090 -0.5365  0.3234 -1.1573
 3904SOL    HW223349   1.957   4.473   3.968  0.8883 -0.0119  0.8924
 3905SOL     OW23350   2.930   1.079   5.409  0.3908  0.6761 -0.5328
 3905SOL    HW123351   2.988   1.005   5.430 -0.7914  0.2031  1.1007
 3905SOL    HW223352   2.915   1.062   5.317 -1.4477 -0.2879 -0.0467
 3906SOL     OW23353   1.167   4.326   6.635  0.1143 -0.1395 -0.2809
 3906SOL    HW123354   1.183   4.285   6.720 -1.9290  0.8630  0.5870
 3906SOL    HW223355   1.220   4.405   6.638  0.9602 -0.7382  0.4955
 3907SOL     OW23356   0.394   3.369   2.508  0.3576  0.1640  0.7400
 3907SOL    HW123357   0.446   3.299   2.468  0.7061  0.5766  0.4799
 3907SOL    HW223358   0.312   3.362   2.458  0.8540  0.6160 -0.1300
 3908SOL     OW23359   2.506   0.006   7.374  0.0273  0.4705 -0.2444
 3908SOL    HW123360   2.592   0.009   7.331 -0.5637 -3.1529 -1.7021
 3908SOL    HW223361   2.532   0.026   7.464 -0.5286  1.1312 -0.2387
 3909SOL     OW23362   2.056   0.614   8.292  0.0443 -0.2558 -0.0514
 3909SOL    HW123363   2.117   0.572   8.353  0.9975  1.9224  0.4864
 3909SOL    HW223364   1.989   0.645   8.353  0.5791  1.7170 -0.4695
 3910SOL     OW23365   0.511   3.420   6.714 -0.2752  0.0741 -0.5744
 3910SOL    HW123366   0.528   3.474   6.638 -0.2875  0.6965 -0.1308
 3910SOL    HW223367   0.463   3.485   6.765 -1.8407 -0.6630 -1.0785
 3911SOL     OW23368   4.210   2.522   7.398  0.1290 -0.2556 -0.0353
 3911SOL    HW123369   4.249   2.474   7.470 -1.6265  0.5186  1.4286
 3911SOL    HW223370   4.152   2.456   7.361 -0.5538 -0.5910  1.6458
 3912SOL     OW23371   4.330   0.400   3.950 -0.4833 -0.4129  0.1282
 3912SOL    HW123372   4.324   0.460   4.024  0.0510 -0.8130  0.4959
 3912SOL    HW223373   4.336   0.461   3.876 -0.3657  0.9606  1.2642
 3913SOL     OW23374   2.759   3.215   4.004  0.1333 -0.2048  0.1917
 3913SOL    HW123375   2.663   3.212   4.008  0.0364 -0.8281 -2.5814
 3913SOL    HW223376   2.776   3.198   4.096  1.8504  0.2169 -0.0529
 3914SOL     OW23377   1.844   1.075   2.782  0.2838  0.2883  0.2530
 3914SOL    HW123378   1.862   1.155   2.732 -0.2819  1.0963  1.3391
 3914SOL    HW223379   1.858   1.114   2.868 -1.6028  0.7188  0.3744
 3915SOL     OW23380   1.043   2.278   0.398 -0.0067  0.2324 -0.4943
 3915SOL    HW123381   1.122   2.331   0.396 -0.0466  0.2762 -0.8199
 3915SOL    HW223382   1.006   2.298   0.312 -1.6899 -0.1359  0.1350
 3916SOL     OW23383   3.160   2.734   6.271 -0.1783 -0.1105  0.3675
 3916SOL    HW123384   3.156   2.715   6.365  1.3916 -1.3958  0.1757
 3916SOL    HW223385   3.126   2.649   6.242  1.6470 -0.0081 -2.0202
 3917SOL     OW23386   2.834   1.790   0.604 -0.8871 -0.3757  0.2830
 3917SOL    HW123387   2.862   1.723   0.666  2.0161  1.3181  0.7879
 3917SOL    HW223388   2.836   1.870   0.657  2.8350 -0.0148 -0.4037
 3918SOL     OW23389   2.965   1.522  10.699 -0.0016  0.2173  0.1665
 3918SOL    HW123390   2.918   1.536  10.617  1.6201  0.2634 -0.7638
 3918SOL    HW223391   3.019   1.601  10.702 -0.5578  0.6030  0.0519
 3919SOL     OW23392   3.170   4.619   6.674  0.6078 -0.1749  0.0869
 3919SOL    HW123393   3.254   4.643   6.634  0.2796  0.0172 -0.4801
 3919SOL    HW223394   3.164   4.525   6.663 -1.1550  0.1236 -1.3664
 3920SOL     OW23395   1.503   4.140   4.041  0.2296 -0.0646  0.4309
 3920SOL    HW123396   1.519   4.053   4.003  1.3945 -0.3229  1.5084
 3920SOL    HW223397   1.581   4.189   4.016  0.5632 -1.1456 -0.6903
 3921SOL     OW23398   1.095   0.511   8.351  0.1869 -0.1210 -0.0786
 3921SOL    HW123399   1.021   0.452   8.334 -0.4904  1.0299 -1.1317
 3921SOL    HW223400   1.045   0.566   8.412  1.9311 -1.7318  2.8010
 3922SOL     OW23401   1.591   2.598   2.607 -0.1780 -0.3460  0.3144
 3922SOL    HW123402   1.507   2.597   2.652  0.2208 -0.0570  1.0608
 3922SOL    HW223403   1.627   2.681   2.637  0.1565 -1.5206  3.0774
 3923SOL     OW23404   2.676   4.353  15.453 -0.3283  0.5452  0.3628
 3923SOL    HW123405   2.718   4.405  15.384  0.6695  0.8536  1.1965
 3923SOL    HW223406   2.744   4.354  15.521 -1.6996 -2.0513  1.7499
 3924SOL     OW23407   4.586   1.414   7.542 -0.6406 -0.1359  0.0837
 3924SOL    HW123408   4.557   1.434   7.453 -2.1328 -0.8592  0.3921
 3924SOL    HW223409   4.509   1.441   7.593 -0.3524  0.0712  0.4053
 3925SOL     OW23410   3.207   1.988  10.642 -0.2188 -0.0415  0.3100
 3925SOL    HW123411   3.260   2.025  10.571 -2.8196  1.4737 -0.8169
 3925SOL    HW223412   3.247   2.029  10.719  1.3521 -1.6084  0.3446
 3926SOL     OW23413   3.105   0.122  13.762  0.0777  0.7185  0.5189
 3926SOL    HW123414   3.183   0.157  13.717  1.0258  1.0887  2.4711
 3926SOL    HW223415   3.037   0.172  13.716  2.6293  4.8744  1.2054
 3927SOL     OW23416   1.594   4.208   7.841  0.2370 -0.4288 -0.0983
 3927SOL    HW123417   1.643   4.180   7.919 -3.1838 -0.3623  2.0416
 3927SOL    HW223418   1.521   4.241   7.892  0.6514  0.0823  0.1656
 3928SOL     OW23419   1.389   2.448  13.711 -0.5080  0.0633 -0.2632
 3928SOL    HW123420   1.479   2.478  13.721 -0.0382 -1.1738 -0.6839
 3928SOL    HW223421   1.393   2.412  13.622  0.7632  1.1523 -0.6424
 3929SOL     OW23422   4.390   3.558   4.167 -0.2369  0.1128 -0.3685
 3929SOL    HW123423   4.423   3.538   4.255 -0.4444  0.7940 -0.1396
 3929SOL    HW223424   4.382   3.653   4.178 -0.6210  0.1089 -0.6261
 3930SOL     OW23425   0.479   3.420   5.036 -0.6283 -0.3069  0.2797
 3930SOL    HW123426   0.402   3.461   4.996 -0.2666  1.3895  1.3387
 3930SOL    HW223427   0.532   3.414   4.956  1.4671  1.7583  1.5318
 3931SOL     OW23428   4.479   0.297   2.155 -0.3288  0.2475  0.0291
 3931SOL    HW123429   4.388   0.275   2.134 -0.5874  1.5720 -0.1958
 3931SOL    HW223430   4.529   0.222   2.122  0.4867  1.1284 -0.7262
 3932SOL     OW23431   3.249   2.775   2.899 -0.1222  0.0380 -0.4011
 3932SOL    HW123432   3.315   2.710   2.924  0.0649  0.3628 -0.0516
 3932SOL    HW223433   3.266   2.786   2.805  0.7943 -0.9269 -0.3536
 3933SOL     OW23434   4.359   1.232   4.004  0.1434  0.4757 -0.4058
 3933SOL    HW123435   4.424   1.184   3.954 -0.5919 -0.0445 -0.8677
 3933SOL    HW223436   4.288   1.169   3.992 -1.9090  2.7005  0.0374
 3934SOL     OW23437   2.856   1.252   3.949  0.0388 -0.0046 -0.5786
 3934SOL    HW123438   2.948   1.227   3.951  0.2691  0.8182 -0.8277
 3934SOL    HW223439   2.857   1.300   4.031 -0.2207  0.6533 -0.9577
 3935SOL     OW23440   3.257   2.183   7.983 -0.1287 -0.1648  0.3919
 3935SOL    HW123441   3.284   2.102   7.939 -2.3105 -0.5063 -0.3008
 3935SOL    HW223442   3.197   2.160   8.054  0.2801  0.1599  0.8430
 3936SOL     OW23443   0.144   2.333  15.638 -0.0570  0.3310  0.0360
 3936SOL    HW123444   0.072   2.337  15.701  0.6458 -0.4982  0.9012
 3936SOL    HW223445   0.213   2.290  15.689  0.5465  2.6076  1.1499
 3937SOL     OW23446   4.347   3.240   6.538  0.8135  0.3131 -0.3939
 3937SOL    HW123447   4.403   3.270   6.610 -1.1658  3.9293 -0.3736
 3937SOL    HW223448   4.274   3.228   6.598  1.2727 -0.3577  0.0302
 3938SOL     OW23449   4.725   1.733  10.234  0.5984 -0.2651  0.0631
 3938SOL    HW123450   4.704   1.722  10.141  0.3425 -1.4005  0.2528
 3938SOL    HW223451   4.719   1.828  10.243 -2.8908 -0.6902  1.9657
 3939SOL     OW23452   0.529   1.117  14.792  0.4863 -0.3231  0.5563
 3939SOL    HW123453   0.480   1.186  14.750  0.4922 -0.6720 -0.0230
 3939SOL    HW223454   0.519   1.043  14.732  0.0930  1.2092 -1.2236
 3940SOL     OW23455   0.974   2.719   9.831 -0.3689 -0.2347  0.0227
 3940SOL    HW123456   1.026   2.749   9.756 -0.4369 -2.6882 -1.0231
 3940SOL    HW223457   0.883   2.719   9.803 -0.6846 -0.7421  1.0581
 3941SOL     OW23458   3.635   2.311  13.555 -0.5837 -0.1373 -0.1221
 3941SOL    HW123459   3.553   2.267  13.534 -0.1531 -1.4053  0.8901
 3941SOL    HW223460   3.679   2.317  13.470 -1.2345 -0.3018 -0.4727
 3942SOL     OW23461   1.372   3.884   5.876 -0.0242 -0.3400  0.0523
 3942SOL    HW123462   1.295   3.862   5.823 -1.0227 -0.4923  1.5532
 3942SOL    HW223463   1.391   3.802   5.922 -0.4686 -0.1180  0.6325
 3943SOL     OW23464   1.524   3.177   8.105  0.1270 -0.1471 -0.9059
 3943SOL    HW123465   1.560   3.105   8.157  1.7055  0.8481 -0.6020
 3943SOL    HW223466   1.446   3.192   8.158  1.7136 -0.5181  1.5433
 3944SOL     OW23467   2.988   2.108   5.334 -0.1355  0.2727  0.3044
 3944SOL    HW123468   2.925   2.036   5.327  0.9043 -0.6374  0.2793
 3944SOL    HW223469   2.927   2.181   5.342 -1.9033 -1.2432  0.5528
 3945SOL     OW23470   3.636   1.090  11.235 -0.5433  0.2681 -0.2379
 3945SOL    HW123471   3.708   1.043  11.192 -0.2373  0.7228 -0.2245
 3945SOL    HW223472   3.636   1.170  11.181  0.5583 -0.3589 -1.1588
 3946SOL     OW23473   4.589   0.226  11.063 -0.1956 -0.1849  0.2139
 3946SOL    HW123474   4.556   0.265  10.981 -0.6924  0.7413  0.8513
 3946SOL    HW223475   4.684   0.237  11.058  0.2054 -3.4759  1.1653
 3947SOL     OW23476   2.927   2.774   3.316  0.7549 -0.4591 -1.3174
 3947SOL    HW123477   2.931   2.680   3.333 -0.9164 -0.0083  1.5990
 3947SOL    HW223478   2.982   2.782   3.238  0.0093  1.4699 -1.6491
 3948SOL     OW23479   4.556   3.365   3.594 -0.3320  0.6569  0.0245
 3948SOL    HW123480   4.504   3.441   3.619  1.0847  1.6426 -0.0700
 3948SOL    HW223481   4.548   3.380   3.500  2.1670  1.7756  0.0032
 3949SOL     OW23482   1.206   2.573   3.761 -0.5986  0.0331 -0.1797
 3949SOL    HW123483   1.256   2.643   3.719 -0.9324  0.1759 -0.3401
 3949SOL    HW223484   1.188   2.520   3.684 -0.0829 -1.3170  0.6143
 3950SOL     OW23485   3.302   2.541   3.759  0.4716  0.3065  0.2815
 3950SOL    HW123486   3.258   2.551   3.674 -1.4226  0.7858  1.3321
 3950SOL    HW223487   3.291   2.624   3.804  3.1881  0.9531 -0.2584
 3951SOL     OW23488   3.122   1.740   0.649  0.3519 -0.6339  0.0684
 3951SOL    HW123489   3.074   1.802   0.595 -3.0160 -1.8078  1.6892
 3951SOL    HW223490   3.181   1.800   0.695 -1.8916  0.2427  1.8807
 3952SOL     OW23491   2.627   2.839   9.158 -0.4926 -0.0210 -0.2209
 3952SOL    HW123492   2.685   2.810   9.229 -1.3304 -0.0854  0.4306
 3952SOL    HW223493   2.687   2.885   9.100  0.3590  0.2786  0.8892
 3953SOL     OW23494   3.795   2.925   1.996 -0.2498 -0.3147 -0.3114
 3953SOL    HW123495   3.814   3.012   1.961  0.0242  0.6250  2.1581
 3953SOL    HW223496   3.702   2.926   1.973 -0.6966 -0.6278  1.4523
 3954SOL     OW23497   0.751   4.647  13.312  0.3159 -0.0804  0.5146
 3954SOL    HW123498   0.658   4.654  13.334  0.8069 -0.2558  2.6258
 3954SOL    HW223499   0.742   4.644  13.216  0.3297 -1.7503  0.5665
 3955SOL     OW23500   3.282   2.464   2.525  0.3211  0.4284 -0.8885
 3955SOL    HW123501   3.332   2.417   2.592 -0.4580  1.1051  0.1774
 3955SOL    HW223502   3.197   2.420   2.533  1.0979 -1.2685 -2.0454
 3956SOL     OW23503   3.418   4.362   6.323  0.3748  0.0703 -0.1336
 3956SOL    HW123504   3.465   4.376   6.405 -1.6310  0.9907  0.8535
 3956SOL    HW223505   3.416   4.267   6.309 -1.2304  0.3197 -1.6636
 3957SOL     OW23506   2.977   4.172  14.063  0.4386  0.1367  0.2182
 3957SOL    HW123507   3.031   4.201  13.990 -1.2954 -0.2004 -1.1948
 3957SOL    HW223508   2.900   4.228  14.064  0.0556 -0.3460 -2.0280
 3958SOL     OW23509   2.697   1.891   4.440 -0.1783 -0.0264  0.2067
 3958SOL    HW123510   2.642   1.878   4.362 -2.0627 -0.5036  1.6277
 3958SOL    HW223511   2.661   1.975   4.470 -0.4585  0.0627 -0.3739
 3959SOL     OW23512   1.483   2.530   1.701 -0.0859  0.0750 -0.0320
 3959SOL    HW123513   1.522   2.541   1.788  1.1084  0.6437 -0.6456
 3959SOL    HW223514   1.526   2.600   1.652  0.3343 -1.3780 -1.7567
 3960SOL     OW23515   3.347   2.917  14.850 -0.4633 -0.1980 -0.2731
 3960SOL    HW123516   3.398   2.993  14.821 -1.5110 -0.1876 -2.1104
 3960SOL    HW223517   3.259   2.948  14.831 -1.1316 -0.5850  2.2831
 3961SOL     OW23518   0.921   4.338   0.652 -0.5917  0.3634 -1.0617
 3961SOL    HW123519   1.000   4.286   0.669  0.0247  2.0072  1.0095
 3961SOL    HW223520   0.940   4.428   0.679 -1.7664  0.0722  0.7274
 3962SOL     OW23521   4.269   2.500   5.509 -0.3612 -0.3437 -0.2284
 3962SOL    HW123522   4.217   2.581   5.512 -2.2151 -1.4447 -2.3328
 3962SOL    HW223523   4.207   2.438   5.548  0.1472  0.6951  2.2860
 3963SOL     OW23524   0.685   0.248  15.095  0.0888  0.1393 -0.5151
 3963SOL    HW123525   0.666   0.155  15.109 -1.1597  0.3745 -0.6420
 3963SOL    HW223526   0.631   0.262  15.017 -2.5142 -1.9387  0.9243
 3964SOL     OW23527   2.238   0.862   2.270  0.6326  0.4676 -0.2209
 3964SOL    HW123528   2.203   0.783   2.310 -2.4747  1.7315 -0.4093
 3964SOL    HW223529   2.327   0.849   2.301  0.0793 -2.5119  0.0810
 3965SOL     OW23530   1.764   1.690  12.504 -0.2331 -0.3255  0.0055
 3965SOL    HW123531   1.705   1.615  12.507 -0.0033 -0.4672  1.0554
 3965SOL    HW223532   1.753   1.728  12.592  1.6952  2.9818 -1.1896
 3966SOL     OW23533   2.022   2.319  16.597 -0.5222 -0.4552  0.4123
 3966SOL    HW123534   2.009   2.410  16.572  0.7225 -0.1375  0.8743
 3966SOL    HW223535   2.104   2.299  16.551 -1.0156  1.7360 -1.3538
 3967SOL     OW23536   0.779   3.348   7.566  0.5666  0.0373  0.0813
 3967SOL    HW123537   0.714   3.398   7.616  1.6329 -0.6461  2.1244
 3967SOL    HW223538   0.788   3.390   7.480 -1.2498  1.0663  0.3934
 3968SOL     OW23539   0.662   1.998  14.262  0.1537  0.3433 -0.1313
 3968SOL    HW123540   0.729   1.950  14.310 -0.9036  1.0190  2.0121
 3968SOL    HW223541   0.590   1.936  14.269  0.8246 -0.0580  3.0718
 3969SOL     OW23542   2.766   2.358  15.204  0.1884  0.3507 -0.0493
 3969SOL    HW123543   2.682   2.397  15.180 -0.4781 -0.1351  1.5163
 3969SOL    HW223544   2.799   2.430  15.258  0.4041 -1.6216  2.4267
 3970SOL     OW23545   3.019   2.927   7.727  0.7867 -0.2960 -0.3721
 3970SOL    HW123546   2.979   2.917   7.813  2.1553 -0.9510  0.1798
 3970SOL    HW223547   3.076   3.001   7.748  1.2867 -0.4780 -1.0723
 3971SOL     OW23548   1.811   4.656   1.743 -0.2083 -0.2823  0.1874
 3971SOL    HW123549   1.797   4.583   1.804 -0.1842 -0.1897  0.3051
 3971SOL    HW223550   1.906   4.664   1.747 -0.2366 -1.1482  2.8525
 3972SOL     OW23551   1.931   3.744  14.334  0.2528 -0.3508  0.0849
 3972SOL    HW123552   1.852   3.754  14.387  1.9034  0.8894  2.3045
 3972SOL    HW223553   1.974   3.829  14.343 -1.5569  0.6172 -0.2070
 3973SOL     OW23554   4.430   3.817   4.217 -0.1866  0.7127  0.3983
 3973SOL    HW123555   4.467   3.852   4.298 -2.0160  2.6631  0.3786
 3973SOL    HW223556   4.389   3.896   4.183 -1.8751 -1.1334 -1.8934
 3974SOL     OW23557   0.941   4.496   6.607 -0.0158 -1.1615  0.4510
 3974SOL    HW123558   1.024   4.449   6.620 -0.5400 -2.0411  0.5923
 3974SOL    HW223559   0.921   4.488   6.514  2.2623  1.0529 -0.2248
 3975SOL     OW23560   3.688   2.006   6.446 -0.6363  0.2752 -0.0566
 3975SOL    HW123561   3.725   1.936   6.500  0.4043  0.1678 -0.9022
 3975SOL    HW223562   3.670   1.977   6.357 -0.6386 -0.6244  0.2383
 3976SOL     OW23563   2.746   2.784   5.088  0.1090 -0.8327 -0.2324
 3976SOL    HW123564   2.717   2.854   5.030  1.3875  1.3521  1.7751
 3976SOL    HW223565   2.806   2.831   5.146 -0.3020  1.4549 -1.6745
 3977SOL     OW23566   2.871   4.145   4.351  0.2212  0.1956 -0.2088
 3977SOL    HW123567   2.967   4.149   4.351  0.2136  0.3593  0.6145
 3977SOL    HW223568   2.857   4.125   4.443  0.8930  0.7247  0.0076
 3978SOL     OW23569   4.187   0.266   2.166 -0.3740  0.2035  0.2725
 3978SOL    HW123570   4.238   0.277   2.246 -1.2923  0.8550  0.7715
 3978SOL    HW223571   4.125   0.336   2.186 -1.4532 -0.6667 -0.0445
 3979SOL     OW23572   3.886   1.185   9.034  0.0375 -0.3840  0.2148
 3979SOL    HW123573   3.792   1.167   9.040 -0.4948  1.6665 -2.2012
 3979SOL    HW223574   3.879   1.281   9.030  0.7676 -0.3827 -1.0564
 3980SOL     OW23575   1.353   0.127  13.196 -0.0405 -0.3218  0.4173
 3980SOL    HW123576   1.259   0.120  13.211  0.0889 -2.4622  0.2606
 3980SOL    HW223577   1.355   0.159  13.106  0.0648 -2.0403 -0.2091
 3981SOL     OW23578   3.637   4.655   6.153 -1.0627  0.0230 -0.3488
 3981SOL    HW123579   3.580   4.729   6.134 -1.0856  0.7858  2.6643
 3981SOL    HW223580   3.656   4.668   6.246 -2.8556  2.3611 -0.3415
 3982SOL     OW23581   0.303   0.106   5.305 -0.2370 -0.2012 -0.4578
 3982SOL    HW123582   0.215   0.070   5.291  0.0062 -0.7706 -0.5268
 3982SOL    HW223583   0.331   0.051   5.378 -0.8353 -0.3469 -0.3336
 3983SOL     OW23584   3.434   4.288  16.193 -0.1097  0.2289 -0.4234
 3983SOL    HW123585   3.368   4.305  16.261 -0.4748 -2.4567 -0.0951
 3983SOL    HW223586   3.509   4.261  16.246 -0.9731 -0.9402  0.2030
 3984SOL     OW23587   0.709   4.579   5.108  0.2998 -0.6269  0.5868
 3984SOL    HW123588   0.715   4.541   5.196  1.3773 -0.1269  0.7226
 3984SOL    HW223589   0.795   4.619   5.099  0.9998 -1.9784  1.2656
 3985SOL     OW23590   3.195   3.579   3.967 -0.1005 -0.4288  0.3387
 3985SOL    HW123591   3.265   3.609   3.910 -1.3384  0.9771 -0.4512
 3985SOL    HW223592   3.182   3.664   4.010 -1.3344  0.6389 -2.1170
 3986SOL     OW23593   3.556   4.440   9.446  0.2697  0.1312  0.0181
 3986SOL    HW123594   3.502   4.380   9.498 -0.6453 -0.1750 -1.2994
 3986SOL    HW223595   3.602   4.376   9.391  1.8017 -0.4353  1.9397
 3987SOL     OW23596   4.048   1.309   3.642 -0.0822  0.2700 -0.3035
 3987SOL    HW123597   4.086   1.396   3.629 -0.0509  0.3255  0.1530
 3987SOL    HW223598   4.106   1.256   3.587 -0.8387  1.0892 -1.8733
 3988SOL     OW23599   0.543   4.512   5.952  0.4416  0.2064  0.4210
 3988SOL    HW123600   0.499   4.427   5.950  0.7502  0.0259  1.1910
 3988SOL    HW223601   0.617   4.493   6.010  2.5291  1.0499 -1.9916
 3989SOL     OW23602   3.277   1.809   5.462 -0.0226  0.3084  0.2123
 3989SOL    HW123603   3.327   1.823   5.383 -0.6736  0.0056 -0.2550
 3989SOL    HW223604   3.195   1.778   5.423 -0.6422  1.0542  0.9138
 3990SOL     OW23605   0.349   0.046   8.461 -0.6621 -0.0809 -0.3600
 3990SOL    HW123606   0.389   0.023   8.377 -1.4480 -0.0371 -0.7481
 3990SOL    HW223607   0.424   0.067   8.517  0.3831 -1.8113 -1.1339
 3991SOL     OW23608   1.823   0.581   3.843  0.3429  0.2582  0.2803
 3991SOL    HW123609   1.836   0.531   3.762  1.2214 -0.5106  0.8931
 3991SOL    HW223610   1.766   0.645   3.800  1.8610  0.8199 -0.9302
 3992SOL     OW23611   2.321   2.405   2.082  0.2350 -0.0447  0.3413
 3992SOL    HW123612   2.242   2.405   2.029  0.4940 -1.3497 -0.0490
 3992SOL    HW223613   2.388   2.431   2.019 -1.7793  0.0317 -1.7406
 3993SOL     OW23614   0.840   0.433  10.007  0.2939 -0.6711  0.3510
 3993SOL    HW123615   0.789   0.453   9.928 -0.0566 -0.8082  0.5426
 3993SOL    HW223616   0.931   0.450   9.983  0.7764  1.2309  3.5261
 3994SOL     OW23617   4.558   3.277   1.280 -0.7407  0.5265 -0.1222
 3994SOL    HW123618   4.480   3.225   1.301 -0.6060 -0.2592 -1.5457
 3994SOL    HW223619   4.520   3.317   1.203  0.8099 -2.5516 -2.5150
 3995SOL     OW23620   1.634   3.026   4.678  0.0600 -0.2147 -0.0695
 3995SOL    HW123621   1.612   2.933   4.681 -2.1807  0.2946 -0.2678
 3995SOL    HW223622   1.590   3.071   4.750 -1.0899  0.1896 -1.0147
 3996SOL     OW23623   3.278   3.397   1.905  0.5650 -0.1417  0.4236
 3996SOL    HW123624   3.323   3.400   1.821 -0.1507  1.7555  0.1075
 3996SOL    HW223625   3.183   3.397   1.896  0.4850 -1.4374  1.2198
 3997SOL     OW23626   0.214   0.756   9.163 -0.0199 -0.1669  0.6150
 3997SOL    HW123627   0.271   0.806   9.222 -0.1828  1.5340 -0.6573
 3997SOL    HW223628   0.134   0.779   9.211  0.6611  1.6953  0.8611
 3998SOL     OW23629   2.658   3.772  10.290  0.6861  0.0941 -0.1316
 3998SOL    HW123630   2.677   3.858  10.326 -1.4406  0.5510 -0.1226
 3998SOL    HW223631   2.670   3.717  10.367 -1.0263  0.3431  0.2977
 3999SOL     OW23632   0.424   3.694  13.203  0.7555  0.8390  0.4440
 3999SOL    HW123633   0.483   3.695  13.278  1.2840 -3.4578  0.1197
 3999SOL    HW223634   0.457   3.623  13.148  0.8925  0.9441  0.3942
 4000SOL     OW23635   3.423   0.211   7.089 -0.1308 -0.6475 -0.3176
 4000SOL    HW123636   3.418   0.134   7.032  0.3368 -0.9212  0.0146
 4000SOL    HW223637   3.506   0.251   7.062 -0.4904 -0.7734 -1.6479
 4001SOL     OW23638   4.347   4.521   4.918  0.6516 -0.2996 -0.5426
 4001SOL    HW123639   4.299   4.443   4.888 -1.5181  1.1875 -0.9003
 4001SOL    HW223640   4.279   4.569   4.966 -1.4273 -0.2376 -3.5920
 4002SOL     OW23641   0.241   2.858  14.543  0.2215  0.6014  0.5521
 4002SOL    HW123642   0.225   2.785  14.484 -0.4488  0.5420  0.8049
 4002SOL    HW223643   0.300   2.813  14.603  0.5599 -1.1602 -1.1500
 4003SOL     OW23644   4.700   3.109   2.860 -0.3663  0.5245 -0.0442
 4003SOL    HW123645   4.679   3.202   2.874  0.5821  0.4550  1.8646
 4003SOL    HW223646   4.646   3.077   2.931  2.3288 -0.7437  1.4180
 4004SOL     OW23647   1.119   4.402   4.680 -0.6846 -0.5260 -0.2586
 4004SOL    HW123648   1.194   4.353   4.713 -0.6257 -1.5153 -1.8552
 4004SOL    HW223649   1.074   4.351   4.612 -1.5751 -3.3357  2.4421
 4005SOL     OW23650   3.562   0.925   0.539 -0.3371  0.0075 -0.5707
 4005SOL    HW123651   3.506   0.971   0.601  1.9828  0.6718  1.0518
 4005SOL    HW223652   3.646   0.961   0.569  0.3331 -0.8638 -1.3898
 4006SOL     OW23653   0.181   2.215  15.324  0.1466 -0.1469  0.2543
 4006SOL    HW123654   0.165   2.298  15.368 -0.1270  0.2772 -0.6323
 4006SOL    HW223655   0.263   2.232  15.277 -0.5521  2.5106 -0.0388
 4007SOL     OW23656   3.905   0.788   8.325 -0.4734  0.1290  0.2600
 4007SOL    HW123657   3.996   0.759   8.333 -0.1144  0.8047 -1.5157
 4007SOL    HW223658   3.871   0.748   8.405 -3.1023  0.4812 -0.7029
 4008SOL     OW23659   1.791   3.195   4.518 -0.5180 -0.0299 -0.2164
 4008SOL    HW123660   1.707   3.239   4.499  0.5040  1.9858 -0.0234
 4008SOL    HW223661   1.765   3.135   4.588 -2.2247  0.2498 -0.6101
 4009SOL     OW23662   2.628   1.688   7.473  0.4640 -0.0002 -0.1029
 4009SOL    HW123663   2.647   1.761   7.415  2.5221 -0.6432 -0.2375
 4009SOL    HW223664   2.635   1.722   7.562 -0.6306  0.7182 -0.2923
 4010SOL     OW23665   2.808   0.477   6.433 -0.2932  0.1551  0.6491
 4010SOL    HW123666   2.869   0.535   6.478 -0.6417 -0.6960  2.2227
 4010SOL    HW223667   2.859   0.429   6.368  0.4219  2.3457 -0.4069
 4011SOL     OW23668   1.672   3.165   5.796 -0.1201  0.3925  0.2181
 4011SOL    HW123669   1.611   3.176   5.724  0.5606  0.6017 -0.3270
 4011SOL    HW223670   1.633   3.234   5.849  0.8832  2.3103 -1.5627
 4012SOL     OW23671   0.862   2.504   3.621 -0.0010 -0.1824 -0.0265
 4012SOL    HW123672   0.866   2.556   3.540 -2.4400 -0.9695 -0.6685
 4012SOL    HW223673   0.833   2.420   3.586  0.9601 -0.6415  0.3186
 4013SOL     OW23674   0.502   2.456  14.617 -0.5096 -0.2131  0.6204
 4013SOL    HW123675   0.503   2.467  14.521 -1.1351  0.3965  0.6780
 4013SOL    HW223676   0.478   2.364  14.626  1.2471 -0.7165  0.1122
 4014SOL     OW23677   1.927   2.799  14.900 -0.1788  0.8087 -0.1574
 4014SOL    HW123678   1.851   2.743  14.917 -1.0286  1.6370 -1.2408
 4014SOL    HW223679   1.996   2.742  14.868 -1.8846 -1.4816  0.2459
 4015SOL     OW23680   0.903   4.278   2.161  0.0542  0.6457  0.1228
 4015SOL    HW123681   0.821   4.325   2.171  0.2640  1.1466 -0.5039
 4015SOL    HW223682   0.898   4.239   2.074  1.5195  4.3254 -1.6286
 4016SOL     OW23683   4.195   1.962   7.431 -0.4057  0.3367  0.4704
 4016SOL    HW123684   4.144   2.042   7.444 -0.0432  0.2662  2.3206
 4016SOL    HW223685   4.250   2.001   7.363 -1.4624 -1.0528 -1.1721
 4017SOL     OW23686   1.250   0.796   5.330 -0.4406 -0.4880  0.3666
 4017SOL    HW123687   1.232   0.807   5.237 -0.2462 -1.4344  0.2131
 4017SOL    HW223688   1.325   0.853   5.350 -0.9068  0.8967 -1.8364
 4018SOL     OW23689   2.814   1.699   1.779 -0.1191 -0.4887  0.1865
 4018SOL    HW123690   2.869   1.640   1.830 -0.8615 -0.4582  1.0162
 4018SOL    HW223691   2.887   1.750   1.744 -0.9769  2.5668  2.8698
 4019SOL     OW23692   4.098   4.602  12.255  0.1664 -0.1078 -1.0229
 4019SOL    HW123693   4.098   4.615  12.350  0.7799  0.3952 -1.0888
 4019SOL    HW223694   4.133   4.514  12.262  2.1683  0.9827  2.6961
 4020SOL     OW23695   4.445   2.831   7.767  0.6923  0.7415 -0.1217
 4020SOL    HW123696   4.445   2.754   7.824  0.5738  0.6709 -0.2165
 4020SOL    HW223697   4.362   2.872   7.791  0.4556 -0.7538  1.6317
 4021SOL     OW23698   1.363   0.714   7.560  0.1788  0.1637 -0.0526
 4021SOL    HW123699   1.340   0.807   7.557 -2.5552 -0.5663 -2.6081
 4021SOL    HW223700   1.457   0.721   7.547  0.3445  0.9965  1.5265
 4022SOL     OW23701   1.071   0.676   9.454 -0.2409  0.0210  0.3055
 4022SOL    HW123702   1.040   0.600   9.502  1.4185 -1.7565 -1.4539
 4022SOL    HW223703   1.105   0.736   9.521  2.5358  1.0033 -1.9856
 4023SOL     OW23704   3.519   0.412   3.074  0.0032 -0.5459 -0.1899
 4023SOL    HW123705   3.457   0.475   3.037  2.9570 -0.2075 -4.6217
 4023SOL    HW223706   3.497   0.335   3.023 -1.1698 -0.7527  0.6252
 4024SOL     OW23707   1.057   0.230   2.939  0.7330 -0.1581  0.4831
 4024SOL    HW123708   1.149   0.252   2.926  0.0847  3.0948  1.3452
 4024SOL    HW223709   1.017   0.288   2.874 -1.5672 -1.8755  0.3364
 4025SOL     OW23710   3.235   4.522   8.247  0.3894 -0.3282  0.0928
 4025SOL    HW123711   3.256   4.579   8.321 -0.9430 -0.4582  0.5736
 4025SOL    HW223712   3.250   4.434   8.283  3.2547 -0.7944 -2.3145
 4026SOL     OW23713   2.331   1.875   4.379 -0.7045 -0.4892  0.1506
 4026SOL    HW123714   2.347   1.962   4.415  1.1871 -0.6247 -0.3683
 4026SOL    HW223715   2.323   1.891   4.285 -2.7013  1.4398  0.6497
 4027SOL     OW23716   1.562   1.883  14.303  0.5031 -0.1579 -0.2417
 4027SOL    HW123717   1.608   1.911  14.382  0.5355 -0.2863 -0.2137
 4027SOL    HW223718   1.493   1.949  14.296 -0.6506 -1.3999 -0.5927
 4028SOL     OW23719   4.438   1.754  12.072  0.2958  0.1143 -0.1847
 4028SOL    HW123720   4.477   1.773  11.987 -2.2281 -1.2011 -1.6479
 4028SOL    HW223721   4.348   1.740  12.042  0.8383 -1.3683 -1.1219
 4029SOL     OW23722   1.304   2.422  17.041  0.6963  0.3563 -0.0640
 4029SOL    HW123723   1.379   2.377  17.003  0.7575 -0.0179  0.5110
 4029SOL    HW223724   1.350   2.498  17.077  2.0636 -0.7815  0.5635
 4030SOL     OW23725   3.039   2.123   0.131  0.5890  0.1485  0.2725
 4030SOL    HW123726   3.027   2.185   0.059  1.8747  0.1829  0.0857
 4030SOL    HW223727   2.950   2.109   0.162 -0.1187  2.9102 -0.5364
 4031SOL     OW23728   0.081   4.232  11.850  0.2995  0.0639 -0.3258
 4031SOL    HW123729   0.052   4.322  11.837  0.1777  0.0637 -0.0654
 4031SOL    HW223730   0.176   4.229  11.860  0.3160  3.5013  0.6962
 4032SOL     OW23731   0.656   3.098   5.553  0.2084 -0.3676 -0.0759
 4032SOL    HW123732   0.657   3.115   5.459  1.0326 -1.7180 -0.3271
 4032SOL    HW223733   0.657   3.002   5.547 -0.7181 -0.3686 -0.1868
 4033SOL     OW23734   0.689   4.378  16.359 -0.3604  0.4340  0.8878
 4033SOL    HW123735   0.734   4.442  16.414 -0.9823  1.0231  0.7195
 4033SOL    HW223736   0.638   4.327  16.422 -0.4130  1.6409  1.8386
 4034SOL     OW23737   0.831   4.450  10.139  0.0563 -0.4817  0.2983
 4034SOL    HW123738   0.771   4.514  10.177 -0.1436 -0.0297 -0.7556
 4034SOL    HW223739   0.919   4.485  10.151  0.4014 -1.0436 -0.5794
 4035SOL     OW23740   3.214   0.472   9.334  0.1028 -0.4640 -0.4472
 4035SOL    HW123741   3.140   0.413   9.326 -0.0635 -0.3927  0.5674
 4035SOL    HW223742   3.207   0.522   9.252 -2.8260  1.6319  1.0984
 4036SOL     OW23743   3.796   2.460   5.971  0.4810  0.4044 -0.1773
 4036SOL    HW123744   3.801   2.540   6.022  2.0901  0.6378 -0.7184
 4036SOL    HW223745   3.796   2.396   6.042  1.2789 -1.2719 -1.6656
 4037SOL     OW23746   0.754   0.283   9.243 -0.0891  0.0613 -0.1067
 4037SOL    HW123747   0.716   0.197   9.223 -1.1989  0.4531  0.2973
 4037SOL    HW223748   0.682   0.341   9.270  0.0070  0.9586 -1.7627
 4038SOL     OW23749   2.864   0.560   4.123  0.1776  0.0028  0.2177
 4038SOL    HW123750   2.823   0.513   4.051  1.7150 -1.4221  0.2645
 4038SOL    HW223751   2.865   0.500   4.198  0.5951  0.2431  0.4052
 4039SOL     OW23752   3.733   1.163   8.306  0.5206  0.1805  0.0682
 4039SOL    HW123753   3.716   1.203   8.392 -1.2364 -0.7666  0.1613
 4039SOL    HW223754   3.681   1.226   8.257 -2.0568 -0.0223  2.5205
 4040SOL     OW23755   0.239   4.516   0.752  0.2413 -0.0688 -0.4019
 4040SOL    HW123756   0.244   4.423   0.775 -0.2651 -0.0439 -0.1714
 4040SOL    HW223757   0.146   4.532   0.767  0.4679  0.8536  0.0313
 4041SOL     OW23758   0.177   2.785   4.021  0.2988  0.3751 -0.4654
 4041SOL    HW123759   0.147   2.712   3.966 -2.7416 -0.5599  2.4305
 4041SOL    HW223760   0.192   2.849   3.951  1.8595 -1.3955 -1.7577
 4042SOL     OW23761   3.734   3.725   3.585 -0.2913  0.2866  0.4580
 4042SOL    HW123762   3.809   3.703   3.530 -1.5472 -3.4119  0.1758
 4042SOL    HW223763   3.683   3.773   3.519  0.1342  2.4201  1.6952
 4043SOL     OW23764   4.292   4.452   5.209 -0.2591  0.3239 -0.3159
 4043SOL    HW123765   4.347   4.437   5.285 -1.8279 -0.4616  0.6512
 4043SOL    HW223766   4.359   4.449   5.141  0.0281 -3.2629  0.1184
 4044SOL     OW23767   1.859   0.804   8.112 -0.0958  0.4095  0.1037
 4044SOL    HW123768   1.894   0.767   8.193  0.2925 -2.6974 -1.4728
 4044SOL    HW223769   1.770   0.771   8.097 -0.3028  0.3346  1.5605
 4045SOL     OW23770   1.927   0.449  11.352 -0.1115 -0.1436 -0.4488
 4045SOL    HW123771   1.973   0.375  11.312 -2.2451 -1.5774 -0.2455
 4045SOL    HW223772   1.974   0.528  11.326  0.1943 -0.2355 -0.1871
 4046SOL     OW23773   4.431   2.231  11.417 -0.3494 -0.4256  0.5752
 4046SOL    HW123774   4.404   2.146  11.453 -0.1347 -0.6982  0.0888
 4046SOL    HW223775   4.413   2.216  11.325  1.1323 -2.4473  0.5982
 4047SOL     OW23776   3.925   4.700   3.135  0.7616  0.4439 -0.2006
 4047SOL    HW123777   3.918   4.659   3.049 -0.0079  0.3948 -0.1134
 4047SOL    HW223778   3.950   0.052   3.117  1.8613  0.1976  0.0635
 4048SOL     OW23779   2.815   2.625   6.476  0.4697 -0.2815 -0.6130
 4048SOL    HW123780   2.721   2.605   6.467  0.5438 -1.2738  0.8626
 4048SOL    HW223781   2.830   2.682   6.401  5.0764 -1.0815 -0.2418
 4049SOL     OW23782   2.916   4.171   1.898  0.5173  0.3923  0.0679
 4049SOL    HW123783   2.834   4.205   1.864  0.8034  0.3985 -0.6199
 4049SOL    HW223784   2.892   4.156   1.989  0.0298  0.8958  0.0269
 4050SOL     OW23785   1.545   1.551  13.740  0.0459 -0.0415 -0.0554
 4050SOL    HW123786   1.597   1.477  13.708 -0.2916  0.1359 -1.0023
 4050SOL    HW223787   1.495   1.506  13.808  0.6514 -3.1528 -1.6418
 4051SOL     OW23788   2.134   0.695   3.568  0.0309  0.5316 -0.0155
 4051SOL    HW123789   2.182   0.693   3.485  0.0393  0.2491 -0.0037
 4051SOL    HW223790   2.111   0.786   3.587  0.2680  0.3014  1.3487
 4052SOL     OW23791   2.757   4.615   4.975  0.4666  0.1825  0.2691
 4052SOL    HW123792   2.837   4.567   4.994  0.5684 -0.1861 -1.0770
 4052SOL    HW223793   2.768   4.611   4.880  0.0795  0.2855  0.2178
 4053SOL     OW23794   4.034   3.318   9.915 -0.3270 -0.7584 -0.0756
 4053SOL    HW123795   3.953   3.275   9.944 -0.5840  1.2793  2.3020
 4053SOL    HW223796   4.024   3.294   9.823 -1.4985 -0.9696  0.1024
 4054SOL     OW23797   2.875   2.546  15.340 -0.1923  0.0751 -0.2958
 4054SOL    HW123798   2.861   2.638  15.364 -0.6421 -0.2785  0.7882
 4054SOL    HW223799   2.969   2.546  15.319 -0.6003 -1.2040 -2.1749
 4055SOL     OW23800   4.548   1.911  11.833 -0.6745  0.1606  0.6982
 4055SOL    HW123801   4.520   1.988  11.784 -2.1326 -0.4567  0.5526
 4055SOL    HW223802   4.511   1.840  11.781  1.1484 -0.1984 -0.0833
 4056SOL     OW23803   2.413   2.977   5.031  0.0692 -0.0149  0.1005
 4056SOL    HW123804   2.387   3.054   4.980  1.0341  0.4639  0.3205
 4056SOL    HW223805   2.438   3.028   5.108 -2.2375  0.7941  0.2999
 4057SOL     OW23806   3.548   4.513   5.936 -0.8371  0.7091  0.0725
 4057SOL    HW123807   3.630   4.512   5.887  0.3822 -1.1928  2.1522
 4057SOL    HW223808   3.574   4.531   6.026 -1.2190 -0.7442  0.4745
 4058SOL     OW23809   3.524   2.429   4.041  0.5789  0.1465 -0.6701
 4058SOL    HW123810   3.447   2.485   4.042 -0.2906 -1.0590 -0.2271
 4058SOL    HW223811   3.587   2.502   4.040  0.5288  0.1978 -0.0696
 4059SOL     OW23812   1.364   2.870  10.195  0.5867  0.5823  0.2216
 4059SOL    HW123813   1.354   2.804  10.126  0.7867  1.7271 -0.8970
 4059SOL    HW223814   1.394   2.944  10.143  1.0270 -0.2219 -0.6698
 4060SOL     OW23815   2.570   2.489  12.744 -0.0938 -0.0778  0.1330
 4060SOL    HW123816   2.584   2.405  12.788  3.7713  0.5027 -0.0044
 4060SOL    HW223817   2.652   2.533  12.763 -1.1188  1.0281  2.0465
 4061SOL     OW23818   1.748   2.480   0.913 -0.7321  0.1323  0.3072
 4061SOL    HW123819   1.687   2.484   0.839  0.0953 -1.5447 -0.4430
 4061SOL    HW223820   1.724   2.392   0.942  0.3331 -0.2346  0.0670
 4062SOL     OW23821   3.904   1.157   6.866 -0.2561 -0.2739 -0.3703
 4062SOL    HW123822   3.979   1.186   6.813 -1.8929  2.0783 -1.3945
 4062SOL    HW223823   3.864   1.241   6.890  0.6523 -0.0701  0.4261
 4063SOL     OW23824   4.315   1.240   7.956 -1.0678  0.0688 -0.0430
 4063SOL    HW123825   4.228   1.213   7.985 -1.9444 -0.4799 -3.2332
 4063SOL    HW223826   4.330   1.165   7.899  0.5041 -0.8526  1.5790
 4064SOL     OW23827   1.228   2.581   7.653 -0.2364 -0.2785 -0.1973
 4064SOL    HW123828   1.164   2.651   7.644 -0.2136 -0.3983 -1.3245
 4064SOL    HW223829   1.236   2.554   7.745  0.2144 -2.0230 -0.7399
 4065SOL     OW23830   4.154   1.807  11.335 -0.4066  0.1745  0.7685
 4065SOL    HW123831   4.122   1.872  11.272  2.5645  0.2166 -0.7180
 4065SOL    HW223832   4.226   1.765  11.288 -0.4411  1.3388 -0.3488
 4066SOL     OW23833   1.745   0.551   6.579  0.0352 -0.4173  0.1727
 4066SOL    HW123834   1.656   0.549   6.616 -0.3479 -1.4517 -0.8280
 4066SOL    HW223835   1.786   0.502   6.650 -0.0004 -1.4466 -0.5214
 4067SOL     OW23836   2.765   3.126  11.846  0.3164  0.0491  0.4318
 4067SOL    HW123837   2.706   3.076  11.791  0.2135  0.6619 -0.0169
 4067SOL    HW223838   2.849   3.081  11.833 -0.6357 -1.7075  0.4673
 4068SOL     OW23839   1.992   2.569   4.881 -0.2682 -0.1265 -0.2377
 4068SOL    HW123840   1.928   2.634   4.908  1.5747  0.1847  3.2982
 4068SOL    HW223841   2.027   2.617   4.806  1.1644  0.4155  0.7958
 4069SOL     OW23842   4.653   0.534   5.832  0.2184 -0.2659  0.3087
 4069SOL    HW123843   4.586   0.545   5.899 -0.4391 -1.8640 -0.0891
 4069SOL    HW223844   4.723   0.591   5.865  1.4962 -0.0205 -2.8188
 4070SOL     OW23845   1.570   2.871   3.263 -0.2114 -0.3574 -0.1445
 4070SOL    HW123846   1.658   2.899   3.286  0.0082  0.2714 -1.7744
 4070SOL    HW223847   1.580   2.781   3.293  1.2289 -0.3076 -0.4897
 4071SOL     OW23848   1.331   0.824   8.033  0.0608 -0.2656  0.0127
 4071SOL    HW123849   1.295   0.877   7.962  0.4773 -0.2002 -0.1488
 4071SOL    HW223850   1.345   0.885   8.105 -1.0348  0.5560 -0.4623
 4072SOL     OW23851   0.019   4.150  12.124 -0.2282 -0.0105 -0.0312
 4072SOL    HW123852   0.025   4.244  12.135 -1.0885  0.1965 -1.3565
 4072SOL    HW223853   0.032   4.145  12.030 -0.2821  0.5207 -0.0633
 4073SOL     OW23854   0.907   1.928   3.811  0.2301  0.2113  0.0039
 4073SOL    HW123855   0.983   1.983   3.831  0.1292 -0.3986  2.0549
 4073SOL    HW223856   0.836   1.991   3.823 -1.8045 -2.1231  0.1933
 4074SOL     OW23857   0.371   3.090   7.232 -0.0917 -0.1584 -0.1696
 4074SOL    HW123858   0.338   3.039   7.306 -0.4517 -1.0042 -0.9203
 4074SOL    HW223859   0.289   3.101   7.185 -0.3878 -0.2191  0.3338
 4075SOL     OW23860   0.358   3.423   2.809  0.1480  0.4502 -0.0683
 4075SOL    HW123861   0.265   3.418   2.785  0.7468  0.9148 -2.4965
 4075SOL    HW223862   0.394   3.378   2.732  1.1362  1.4174 -0.1742
 4076SOL     OW23863   4.548   0.512   8.250 -0.1991  0.1464  0.5559
 4076SOL    HW123864   4.618   0.574   8.234 -0.0404  0.5256  2.6663
 4076SOL    HW223865   4.474   0.562   8.215 -0.8899 -2.0144 -1.0762
 4077SOL     OW23866   4.262   4.603   9.817  0.5683 -0.2210  0.4108
 4077SOL    HW123867   4.197   4.666   9.785  0.6332 -1.3386 -1.9873
 4077SOL    HW223868   4.345   4.650   9.823 -0.2795  1.3034  0.3223
 4078SOL     OW23869   2.941   3.818   4.726 -0.2146 -0.1278 -0.3688
 4078SOL    HW123870   2.883   3.757   4.771  1.4361  0.2997  2.2968
 4078SOL    HW223871   3.008   3.760   4.691  0.9671  0.5930  0.7290
 4079SOL     OW23872   1.064   0.608   4.100 -0.4362  0.3684  0.0098
 4079SOL    HW123873   0.988   0.575   4.052 -1.1650  1.1324  0.6323
 4079SOL    HW223874   1.134   0.551   4.070 -1.2321 -1.3997  1.5082
 4080SOL     OW23875   4.206   0.523  10.632  0.2490 -0.3070 -0.0142
 4080SOL    HW123876   4.247   0.605  10.659 -1.8669  0.6510  0.2676
 4080SOL    HW223877   4.125   0.521  10.683 -1.2080  1.0113 -2.2819
 4081SOL     OW23878   3.309   2.763   2.619 -0.2133 -0.3056  0.2331
 4081SOL    HW123879   3.225   2.807   2.605 -0.3747 -0.7275 -0.1373
 4081SOL    HW223880   3.273   2.679   2.593  0.3963 -0.8562  1.1706
 4082SOL     OW23881   1.895   0.403   9.950  0.1282 -0.2143 -0.0622
 4082SOL    HW123882   1.931   0.464  10.014 -1.4264 -0.0224  0.6188
 4082SOL    HW223883   1.899   0.320   9.997 -2.0340 -0.8398 -1.0145
 4083SOL     OW23884   4.580   2.434   2.240  0.1309  0.5443  0.2446
 4083SOL    HW123885   4.545   2.368   2.180  1.1853 -0.1428  0.4053
 4083SOL    HW223886   4.664   2.394   2.258 -0.1482  0.6953  1.9268
 4084SOL     OW23887   3.770   1.022   0.682 -0.0966  0.3431 -0.0012
 4084SOL    HW123888   3.832   1.064   0.622 -0.6976  1.4916  0.1963
 4084SOL    HW223889   3.785   1.066   0.766 -0.4630  2.8198 -1.2219
 4085SOL     OW23890   0.849   1.158  12.678 -0.4930 -0.3991 -0.1411
 4085SOL    HW123891   0.758   1.156  12.707  0.2953  0.7497  2.4796
 4085SOL    HW223892   0.860   1.253  12.665  2.4648 -0.9762 -1.9345
 4086SOL     OW23893   1.877   4.103   7.706  0.0529 -0.8124  0.2810
 4086SOL    HW123894   1.788   4.077   7.685  0.3474 -0.8355 -0.9467
 4086SOL    HW223895   1.938   4.078   7.637  1.9926 -0.5778  1.8848
 4087SOL     OW23896   3.012   4.383  13.890 -0.0482  0.4961 -0.2348
 4087SOL    HW123897   2.927   4.409  13.925 -0.0869 -0.7545  0.5778
 4087SOL    HW223898   3.036   4.444  13.819 -1.7605  1.4935  0.0462
 4088SOL     OW23899   2.892   4.110  16.361  0.8339  0.4408  0.6724
 4088SOL    HW123900   2.861   4.188  16.406  2.1167  1.0408  0.5299
 4088SOL    HW223901   2.840   4.102  16.282  0.3909  0.3857  0.9699
 4089SOL     OW23902   1.978   0.727   7.889  0.1897  0.0397 -0.3160
 4089SOL    HW123903   2.009   0.658   7.948  1.3850  1.1545  0.3516
 4089SOL    HW223904   1.924   0.769   7.956 -0.3967  0.3989 -1.0153
 4090SOL     OW23905   0.826   0.340   5.538 -0.3541  0.2745  0.9658
 4090SOL    HW123906   0.921   0.345   5.549 -0.0153  0.2577 -2.0853
 4090SOL    HW223907   0.808   0.290   5.618  0.7899 -0.1376  0.9576
 4091SOL     OW23908   3.190   0.456  15.521 -0.3397 -0.0331  0.0077
 4091SOL    HW123909   3.209   0.476  15.613  0.6012  1.5426 -0.5343
 4091SOL    HW223910   3.271   0.412  15.495 -1.4619 -2.5776  0.7657
 4092SOL     OW23911   0.226   0.426   6.961  0.3764 -0.3617  0.2116
 4092SOL    HW123912   0.218   0.493   6.893  0.4042 -2.5602 -1.9885
 4092SOL    HW223913   0.321   0.414   6.963  0.4841  0.4943  0.0895
 4093SOL     OW23914   3.288   1.097   2.169 -0.4350  0.8564  0.2537
 4093SOL    HW123915   3.249   1.010   2.180  1.4817 -0.2779 -1.8496
 4093SOL    HW223916   3.277   1.120   2.077 -1.2902 -0.7706 -0.0401
 4094SOL     OW23917   1.859   2.434   6.215  0.2556 -0.6751  1.1060
 4094SOL    HW123918   1.833   2.364   6.155 -0.8893  0.6296  0.0571
 4094SOL    HW223919   1.807   2.500   6.168 -1.5511 -1.9765  1.2827
 4095SOL     OW23920   4.643   1.786  12.599  0.1679  0.2997 -0.3848
 4095SOL    HW123921   4.714   1.845  12.573  0.2701  1.1062  1.7035
 4095SOL    HW223922   4.602   1.780  12.513 -1.2568  2.2670  0.1746
 4096SOL     OW23923   2.067   4.218   8.858  0.1361  0.3180  0.4112
 4096SOL    HW123924   2.151   4.185   8.827 -2.1718 -2.6453 -2.7584
 4096SOL    HW223925   2.095   4.305   8.885 -1.5341  1.0095 -0.1141
 4097SOL     OW23926   4.292   1.924   0.616  0.1820  0.3854  0.7543
 4097SOL    HW123927   4.357   1.935   0.686  0.2896  0.3814  0.6554
 4097SOL    HW223928   4.347   1.895   0.543 -1.2785  0.5715 -0.4157
 4098SOL     OW23929   1.173   1.236   1.158  0.7508  0.0678 -0.0638
 4098SOL    HW123930   1.212   1.218   1.073 -2.5253  2.1524 -2.0184
 4098SOL    HW223931   1.246   1.193   1.203  1.7968 -0.3145 -2.1228
 4099SOL     OW23932   2.722   3.014   9.446 -0.4750 -0.1846  0.6175
 4099SOL    HW123933   2.774   2.984   9.372 -0.7118 -0.7978  0.6961
 4099SOL    HW223934   2.647   3.059   9.409 -0.2698 -0.7022 -0.4189
 4100SOL     OW23935   2.613   1.869   2.352  0.5104  0.0543  0.0012
 4100SOL    HW123936   2.538   1.923   2.378 -0.2652 -0.4898 -1.0933
 4100SOL    HW223937   2.681   1.937   2.354  0.0368  0.5920 -2.9698
 4101SOL     OW23938   1.649   2.294  13.809 -0.2393 -0.3019  0.1539
 4101SOL    HW123939   1.654   2.348  13.730  0.2737 -0.7736 -0.1361
 4101SOL    HW223940   1.705   2.218  13.796  0.0297  0.2718 -2.0031
 4102SOL     OW23941   1.841   3.990   6.608 -0.3498  0.1130  0.0786
 4102SOL    HW123942   1.765   3.980   6.666 -0.8163 -2.0476 -0.9056
 4102SOL    HW223943   1.807   3.945   6.531  1.9992 -1.8930  0.2005
 4103SOL     OW23944   3.343   0.187  15.353 -0.5320 -0.1040  0.6882
 4103SOL    HW123945   3.424   0.136  15.351 -1.1977 -1.1218 -0.5558
 4103SOL    HW223946   3.309   0.186  15.443  0.1310  0.0357  0.9417
 4104SOL     OW23947   2.406   0.681   6.313 -0.0893 -0.5477 -0.5497
 4104SOL    HW123948   2.321   0.719   6.293 -0.4227 -0.5333  0.9394
 4104SOL    HW223949   2.449   0.760   6.345 -1.5241 -1.1367  2.7828
 4105SOL     OW23950   4.008   3.429   5.480  0.2014 -0.0683  0.2312
 4105SOL    HW123951   4.036   3.341   5.503 -1.4724 -0.4386  0.9178
 4105SOL    HW223952   3.915   3.415   5.461  0.2339  0.7116 -0.5092
 4106SOL     OW23953   0.576   0.600   4.632  0.3366 -0.1788  0.0275
 4106SOL    HW123954   0.513   0.670   4.650 -0.7514 -0.9556 -0.7458
 4106SOL    HW223955   0.604   0.578   4.721 -1.3421 -1.1821  0.3021
 4107SOL     OW23956   0.040   2.950   4.446 -0.0150 -0.7688  0.0472
 4107SOL    HW123957   4.708   2.954   4.510 -0.2135  2.6180 -0.3764
 4107SOL    HW223958   0.039   3.033   4.398 -1.8022 -0.8011  0.0277
 4108SOL     OW23959   2.152   2.427  17.232 -0.9447 -0.3097 -0.0318
 4108SOL    HW123960   2.169   2.426  17.326 -0.5818 -0.3305 -0.0995
 4108SOL    HW223961   2.159   2.521  17.211 -0.4710 -0.1470  0.8833
 4109SOL     OW23962   3.509   1.882   9.921 -0.0457 -0.2679  0.2558
 4109SOL    HW123963   3.423   1.924   9.918 -0.1236 -0.3441  1.4214
 4109SOL    HW223964   3.544   1.887   9.832  1.8439 -0.7368  0.9688
 4110SOL     OW23965   0.202   3.654   3.421 -0.0699 -0.1443  0.1715
 4110SOL    HW123966   0.297   3.648   3.422  0.0998  2.7318  1.0501
 4110SOL    HW223967   0.187   3.636   3.514  1.5829 -0.9003  0.2881
 4111SOL     OW23968   1.153   1.003  11.966 -0.0378 -0.5592 -0.3500
 4111SOL    HW123969   1.150   0.954  11.884  1.5308 -0.1175 -0.6598
 4111SOL    HW223970   1.247   1.000  11.985 -0.0488  2.7149  0.2725
 4112SOL     OW23971   3.452   0.829   8.708  0.0791  0.1129 -0.6426
 4112SOL    HW123972   3.397   0.906   8.699  0.1074  0.2397  0.3294
 4112SOL    HW223973   3.512   0.854   8.638  0.5875  0.4903 -0.0682
 4113SOL     OW23974   0.435   4.554   9.431  0.2534 -0.0320 -0.0391
 4113SOL    HW123975   0.361   4.496   9.412 -1.1247  1.1629  1.6659
 4113SOL    HW223976   0.415   4.621   9.366  2.3300  0.9853  0.3653
 4114SOL     OW23977   0.302   2.419   4.415  0.1833 -0.0241 -0.0684
 4114SOL    HW123978   0.283   2.447   4.326 -0.5016  1.4978  0.5730
 4114SOL    HW223979   0.398   2.417   4.407  0.2815 -0.7843  1.2776
 4115SOL     OW23980   3.935   2.763   1.699 -0.2788 -0.1560 -0.0466
 4115SOL    HW123981   3.936   2.714   1.617  0.6505 -0.0878 -0.0816
 4115SOL    HW223982   3.857   2.721   1.734 -0.5716  0.3163 -0.1399
 4116SOL     OW23983   4.077   0.338   7.194 -0.4666 -0.3311 -0.4578
 4116SOL    HW123984   4.160   0.339   7.148 -0.3329  0.1591 -0.2099
 4116SOL    HW223985   4.063   0.247   7.218 -2.3157 -0.0593 -0.5008
 4117SOL     OW23986   3.942   2.488   1.002 -0.2715  0.2513 -0.8520
 4117SOL    HW123987   3.970   2.400   1.029 -1.1111  0.2583 -0.0022
 4117SOL    HW223988   3.993   2.546   1.058  0.6955 -0.1292 -1.3166
 4118SOL     OW23989   0.318   2.104   7.441 -0.1507 -0.3016  0.3432
 4118SOL    HW123990   0.337   2.191   7.406  1.9158 -1.2099 -0.8128
 4118SOL    HW223991   0.276   2.128   7.523 -1.0318 -1.1161  0.1320
 4119SOL     OW23992   1.196   3.977   5.189 -0.4105 -0.4553  0.1377
 4119SOL    HW123993   1.234   3.938   5.110 -1.0434 -2.3255  0.7411
 4119SOL    HW223994   1.144   4.044   5.145 -0.3817 -1.4754 -1.4637
 4120SOL     OW23995   3.276   2.211   3.541 -0.1425 -0.4718 -0.0114
 4120SOL    HW123996   3.230   2.192   3.459  0.2519 -0.1199 -0.3114
 4120SOL    HW223997   3.206   2.233   3.602  1.8034  0.3543  1.9163
 4121SOL     OW23998   4.730   0.447   1.990 -0.2373  0.3027  0.2927
 4121SOL    HW123999   4.702   0.363   1.954  0.2464  0.6641 -0.9450
 4121SOL    HW224000   4.653   0.467   2.043 -1.8914 -2.2955 -1.1507
 4122SOL     OW24001   0.247   2.171   6.366  0.1315 -0.0297  0.3410
 4122SOL    HW124002   0.245   2.210   6.453 -1.5925 -0.5078  0.5292
 4122SOL    HW224003   0.174   2.108   6.367  0.6138 -0.5801  0.8724
 4123SOL     OW24004   3.824   3.925  15.679 -0.2874  0.6392 -0.4338
 4123SOL    HW124005   3.865   3.863  15.739 -0.4679  0.0806 -0.8964
 4123SOL    HW224006   3.888   3.911  15.610 -1.3202  0.5601 -1.3783
 4124SOL     OW24007   3.104   2.846   5.030 -0.7337 -0.0507 -0.7445
 4124SOL    HW124008   3.089   2.843   5.124 -1.7259 -1.6762 -0.9621
 4124SOL    HW224009   3.095   2.938   5.005 -1.5262 -0.6157 -2.5484
 4125SOL     OW24010   0.390   1.062   5.141 -0.5724 -0.4464 -1.0636
 4125SOL    HW124011   0.459   1.123   5.116  0.2499 -1.7994 -2.1149
 4125SOL    HW224012   0.434   1.031   5.220 -2.6693 -1.3485 -0.2547
 4126SOL     OW24013   3.210   2.069   8.667  0.0484  0.1368 -0.2627
 4126SOL    HW124014   3.302   2.088   8.684  0.4779  0.0201 -2.4676
 4126SOL    HW224015   3.174   2.039   8.751  0.3660  0.9448  0.1617
 4127SOL     OW24016   4.368   4.635   8.098 -0.0758 -0.0431 -0.0972
 4127SOL    HW124017   4.336   4.702   8.159  1.8157  0.0399  0.7932
 4127SOL    HW224018   4.437   4.678   8.049 -0.6457  2.8153  1.6411
 4128SOL     OW24019   3.970   1.803  17.352 -0.4058 -0.1195 -0.3922
 4128SOL    HW124020   4.052   1.753  17.350 -1.6661 -2.0993 -2.2205
 4128SOL    HW224021   3.946   1.823  17.262  2.4719  1.4969 -0.7912
 4129SOL     OW24022   4.624   1.750   1.621  0.1181  0.2802  0.1908
 4129SOL    HW124023   4.600   1.826   1.569 -1.5363  0.6455  1.4947
 4129SOL    HW224024   4.628   1.791   1.707  0.8767  3.5001 -1.4007
 4130SOL     OW24025   0.871   3.652   7.504 -0.5402 -0.3010 -0.4474
 4130SOL    HW124026   0.917   3.631   7.424  0.3797  0.6994 -0.1848
 4130SOL    HW224027   0.943   3.648   7.567  0.4817 -1.3777 -1.7058
 4131SOL     OW24028   2.567   0.619  13.962 -0.0370 -0.5965 -0.0676
 4131SOL    HW124029   2.648   0.659  13.995 -0.9397  0.9044  0.3060
 4131SOL    HW224030   2.535   0.567  14.036  0.1258 -0.2776  0.2291
 4132SOL     OW24031   1.194   2.549   6.810 -0.0647 -0.6951  0.6969
 4132SOL    HW124032   1.137   2.483   6.849 -1.2131  0.5155  1.0429
 4132SOL    HW224033   1.161   2.629   6.849  0.2118  0.4101 -1.3297
 4133SOL     OW24034   3.602   3.659   2.007  0.1033 -0.2304 -0.0442
 4133SOL    HW124035   3.516   3.700   2.019 -0.0468 -0.7670  0.6553
 4133SOL    HW224036   3.661   3.730   2.031  1.3139 -1.1620 -0.2632
 4134SOL     OW24037   1.493   4.495   7.450 -0.4162 -0.1113  0.5967
 4134SOL    HW124038   1.544   4.450   7.517 -0.5958  2.0749  2.2080
 4134SOL    HW224039   1.501   4.587   7.475 -2.7767  0.1607  0.3471
 4135SOL     OW24040   0.753   4.387   8.018  0.1306 -0.3619  0.7947
 4135SOL    HW124041   0.838   4.382   7.974 -0.1042  0.1826  0.2806
 4135SOL    HW224042   0.772   4.332   8.094  3.2322 -0.7796 -0.2745
 4136SOL     OW24043   3.817   2.806   4.013 -0.4454  0.0221  0.1540
 4136SOL    HW124044   3.764   2.883   4.033 -0.6807 -0.5877  1.8052
 4136SOL    HW224045   3.879   2.844   3.950 -0.4717  0.0201  0.1272
 4137SOL     OW24046   0.270   1.497   8.894  0.0256 -0.5041 -0.5768
 4137SOL    HW124047   0.204   1.566   8.894  0.8917  0.3271 -1.2581
 4137SOL    HW224048   0.305   1.502   8.983 -0.7574  0.9955 -0.3463
 4138SOL     OW24049   1.925   0.637   2.235 -0.0117  0.1462 -0.5200
 4138SOL    HW124050   1.944   0.683   2.154 -2.1696  0.2180 -0.9904
 4138SOL    HW224051   1.893   0.554   2.198 -0.4957  1.2713 -2.6172
 4139SOL     OW24052   2.972   3.592  14.491 -0.2485 -0.4076  0.3971
 4139SOL    HW124053   3.025   3.638  14.557 -0.8074 -0.2226  0.7191
 4139SOL    HW224054   3.027   3.585  14.413 -0.6952  0.5191  0.0084
 4140SOL     OW24055   3.854   0.524   5.323  0.1419 -0.4295  0.9744
 4140SOL    HW124056   3.810   0.609   5.313  0.8570 -0.3373 -1.3709
 4140SOL    HW224057   3.776   0.471   5.309  0.2705 -0.3390 -0.1238
 4141SOL     OW24058   2.953   2.469   5.810  0.5759  0.3842 -0.3949
 4141SOL    HW124059   2.900   2.408   5.860  1.1234  0.5777  0.4176
 4141SOL    HW224060   2.911   2.554   5.820 -1.0917 -0.5006  0.0344
 4142SOL     OW24061   4.387   2.516   5.808 -0.5194  0.3655  0.6878
 4142SOL    HW124062   4.295   2.504   5.785  0.1091  1.6257 -2.4255
 4142SOL    HW224063   4.380   2.590   5.869  0.2392  1.8909 -1.0682
 4143SOL     OW24064   4.494   1.659  13.565  0.7757 -0.3563 -0.0110
 4143SOL    HW124065   4.452   1.727  13.618  1.4796  0.7194 -0.8389
 4143SOL    HW224066   4.437   1.674  13.490  0.2444 -0.4544  0.3700
 4144SOL     OW24067   3.555   1.011   4.419 -0.2075 -0.8212  0.2565
 4144SOL    HW124068   3.563   1.048   4.331  1.0299  0.9240  1.0986
 4144SOL    HW224069   3.610   1.072   4.469 -0.4113  0.2793 -0.8662
 4145SOL     OW24070   1.531   2.868   2.741  0.3957  0.2596 -0.1692
 4145SOL    HW124071   1.592   2.874   2.815  0.5253  1.3900 -0.3652
 4145SOL    HW224072   1.452   2.846   2.791  0.3336 -0.2876 -0.5071
 4146SOL     OW24073   1.567   1.422   9.248  0.0500  0.1119  0.0260
 4146SOL    HW124074   1.575   1.517   9.240 -1.2766  0.0138 -2.2653
 4146SOL    HW224075   1.657   1.395   9.270  1.0174  1.9766 -1.5797
 4147SOL     OW24076   4.468   1.639   5.150 -0.1627 -0.0906  0.1776
 4147SOL    HW124077   4.492   1.569   5.210 -1.2243  0.0259  0.7422
 4147SOL    HW224078   4.383   1.665   5.185  1.2490  2.0004  2.0978
 4148SOL     OW24079   1.289   1.130   1.944  0.8157 -0.2206 -0.5073
 4148SOL    HW124080   1.380   1.102   1.942  1.2012  0.9701  0.2208
 4148SOL    HW224081   1.293   1.212   1.994  0.0556  0.2768 -1.2374
 4149SOL     OW24082   4.506   4.491   5.872 -0.6315 -0.4669  0.5224
 4149SOL    HW124083   4.478   4.400   5.871  2.6008 -1.4559 -0.1744
 4149SOL    HW224084   4.589   4.477   5.916 -0.2182  0.8551  0.1864
 4150SOL     OW24085   0.602   1.876   0.273  0.3005 -0.2954 -0.3932
 4150SOL    HW124086   0.551   1.890   0.193 -0.4119 -1.0690 -0.0781
 4150SOL    HW224087   0.666   1.947   0.275 -0.2725  0.2040  0.2929
 4151SOL     OW24088   0.105   0.900   3.735 -0.2449 -0.3512 -0.5291
 4151SOL    HW124089   0.011   0.887   3.740 -0.4567  1.0159 -0.8669
 4151SOL    HW224090   0.116   0.958   3.659 -0.3558  0.8025  0.3332
 4152SOL     OW24091   1.874   4.213   0.233 -0.2263 -0.0853  0.0851
 4152SOL    HW124092   1.868   4.181   0.323 -0.8567  2.6341  0.9916
 4152SOL    HW224093   1.947   4.157   0.207  1.3578  1.8036  0.5370
 4153SOL     OW24094   3.114   4.516  15.507 -0.1399 -0.6130  0.5815
 4153SOL    HW124095   3.149   4.448  15.566 -0.6765 -1.7891 -0.4551
 4153SOL    HW224096   3.184   4.515  15.441 -0.8684  1.1570 -0.2055
 4154SOL     OW24097   2.516   1.261   2.301 -0.1586  0.0929 -0.3044
 4154SOL    HW124098   2.535   1.325   2.232  1.0720  1.1226  1.0110
 4154SOL    HW224099   2.442   1.311   2.335  1.4174  0.8742  1.8945
 4155SOL     OW24100   2.807   2.114   9.111 -0.2696 -0.7812  0.3786
 4155SOL    HW124101   2.812   2.209   9.111 -0.6802 -0.7507  2.2131
 4155SOL    HW224102   2.855   2.098   9.030 -1.1959 -2.0844  0.0974
 4156SOL     OW24103   0.324   3.535   4.386  0.3770 -0.1462 -0.8004
 4156SOL    HW124104   0.331   3.444   4.357 -0.5104 -0.1967 -0.8475
 4156SOL    HW224105   0.316   3.579   4.301 -1.8106 -1.4815 -1.2857
 4157SOL     OW24106   2.374   0.553   9.604 -0.5141 -0.0328 -0.0679
 4157SOL    HW124107   2.375   0.511   9.518  0.5409  0.5820 -0.3577
 4157SOL    HW224108   2.388   0.479   9.662 -0.4055 -1.0562 -1.4135
 4158SOL     OW24109   3.456   2.146  17.667 -0.3719 -0.1920  0.3019
 4158SOL    HW124110   3.414   2.073  17.620 -0.5596  0.9323 -1.2607
 4158SOL    HW224111   3.482   2.101  17.748  1.3203 -2.1690 -1.3456
 4159SOL     OW24112   2.848   3.905   8.903  0.2800  0.9546 -0.4765
 4159SOL    HW124113   2.880   3.973   8.843  1.3507  0.3599 -0.5798
 4159SOL    HW224114   2.911   3.840   8.873  1.4889  1.3690  1.2039
 4160SOL     OW24115   2.626   2.521   8.572  0.0851  0.1735 -0.0375
 4160SOL    HW124116   2.553   2.583   8.576  0.1931  0.2891  0.1851
 4160SOL    HW224117   2.676   2.565   8.503 -0.9640  0.6392 -0.4924
 4161SOL     OW24118   2.102   3.604   9.586  0.2184 -0.4182  0.0694
 4161SOL    HW124119   2.008   3.589   9.579  0.1908 -1.2405  2.0391
 4161SOL    HW224120   2.135   3.518   9.614 -1.2868 -0.9946  0.0744
 4162SOL     OW24121   1.888   2.948   6.425  1.1079 -0.0296  0.2160
 4162SOL    HW124122   1.897   2.865   6.471  0.8978 -0.3436 -0.3100
 4162SOL    HW224123   1.980   2.966   6.407  0.7322  1.9021  0.1991
 4163SOL     OW24124   0.200   3.935   0.138 -0.7060  0.0773  0.5693
 4163SOL    HW124125   0.152   3.959   0.217 -1.2808  1.2713 -0.1448
 4163SOL    HW224126   0.136   3.871   0.106  1.4569 -1.2316 -1.1608
 4164SOL     OW24127   0.802   2.738   5.011 -0.1927  0.1269 -0.7346
 4164SOL    HW124128   0.860   2.662   5.023  0.8082  0.5517 -2.8764
 4164SOL    HW224129   0.822   2.778   4.927  0.4385 -0.6715 -0.9682
 4165SOL     OW24130   0.751   3.348   2.366  0.4285  1.0593 -0.2531
 4165SOL    HW124131   0.840   3.370   2.392 -0.4785  0.8135  3.1489
 4165SOL    HW224132   0.694   3.390   2.430 -1.5672 -0.8577 -0.7597
 4166SOL     OW24133   0.407   3.381   3.072 -0.0606  0.4327  0.1514
 4166SOL    HW124134   0.388   3.462   3.120  1.5880  1.1702 -0.4331
 4166SOL    HW224135   0.391   3.414   2.984  0.6230  1.4169  0.3907
 4167SOL     OW24136   3.426   2.016   1.865  0.2253  0.6801  0.1864
 4167SOL    HW124137   3.331   2.002   1.861  0.4987 -1.1315  0.0807
 4167SOL    HW224138   3.428   2.071   1.943  2.8105 -0.8647  1.2068
 4168SOL     OW24139   1.146   1.598  13.707  0.4941  0.3150  0.0558
 4168SOL    HW124140   1.197   1.614  13.628 -1.1388  1.2006 -0.8280
 4168SOL    HW224141   1.098   1.679  13.725  1.4149  0.4258  1.9442
 4169SOL     OW24142   1.833   0.132   4.366 -0.4544 -0.4542 -0.3514
 4169SOL    HW124143   1.883   0.101   4.440 -0.4967  4.9951  1.9806
 4169SOL    HW224144   1.743   0.113   4.392 -0.4497  0.0920  0.0760
 4170SOL     OW24145   4.260   2.015   4.767 -0.0829 -0.3087  0.1971
 4170SOL    HW124146   4.193   2.052   4.824  0.2630 -1.2067  1.1940
 4170SOL    HW224147   4.300   1.955   4.830 -0.7711  0.5118  1.4265
 4171SOL     OW24148   2.585   1.067   7.654  0.1488 -0.3335  0.3779
 4171SOL    HW124149   2.502   1.048   7.611 -0.4294 -0.4677  1.5306
 4171SOL    HW224150   2.588   1.158   7.624  1.7251  0.1763  2.1260
 4172SOL     OW24151   1.806   2.424   5.012  0.3543  0.3168  1.0880
 4172SOL    HW124152   1.880   2.468   4.969 -0.3242  0.2997 -0.0802
 4172SOL    HW224153   1.803   2.477   5.092 -0.5869  0.7868  0.7347
 4173SOL     OW24154   4.695   2.517   6.605 -0.3617 -0.3583 -0.0450
 4173SOL    HW124155   4.686   2.576   6.680  0.8271 -1.5957  1.0728
 4173SOL    HW224156   0.020   2.552   6.542 -0.7296 -0.4828 -0.4783
 4174SOL     OW24157   0.605   1.579  17.751  0.3380 -0.3953 -0.3114
 4174SOL    HW124158   0.642   1.575   0.087 -0.1723  0.3808 -0.0608
 4174SOL    HW224159   0.521   1.537   0.020 -0.6690  1.0461 -1.4791
 4175SOL     OW24160   0.196   0.269   8.511 -0.0255  0.0570 -0.2495
 4175SOL    HW124161   0.255   0.195   8.502  0.0542  0.5458 -3.7820
 4175SOL    HW224162   0.181   0.301   8.422 -2.5129 -2.5114 -0.7315
 4176SOL     OW24163   3.763   0.928  11.441 -0.1582 -0.0996  0.7330
 4176SOL    HW124164   3.851   0.926  11.403 -0.5201  0.2987 -0.1363
 4176SOL    HW224165   3.732   0.991  11.376  0.4254 -1.7388 -1.1483
 4177SOL     OW24166   3.154   2.602   7.947  0.2734  0.2217 -0.5064
 4177SOL    HW124167   3.161   2.696   7.963  0.6601  0.1609 -0.3400
 4177SOL    HW224168   3.198   2.571   8.026  0.0185 -2.7318 -1.5252
 4178SOL     OW24169   2.979   2.374   4.259  0.4167 -0.0434  0.3414
 4178SOL    HW124170   2.936   2.327   4.188  2.9813 -1.1354 -0.4903
 4178SOL    HW224171   3.032   2.307   4.301  0.8730 -0.3916 -0.7813
 4179SOL     OW24172   3.951   0.813   5.899  0.4927 -0.2502  0.1274
 4179SOL    HW124173   3.873   0.828   5.953  0.0269 -1.8053 -0.1145
 4179SOL    HW224174   3.996   0.885   5.944  0.7903 -1.1435  1.2665
 4180SOL     OW24175   0.427   1.106   5.935 -0.3280  0.2871 -0.6152
 4180SOL    HW124176   0.374   1.054   5.996 -0.4336 -1.4028 -2.1190
 4180SOL    HW224177   0.474   1.163   5.995 -0.9473  0.2882 -0.1314
 4181SOL     OW24178   4.330   2.442  11.635 -0.2318  0.0013 -0.6771
 4181SOL    HW124179   4.310   2.444  11.541 -2.2371  1.2077 -0.2202
 4181SOL    HW224180   4.241   2.461  11.665  0.2461 -1.4443  1.6144
 4182SOL     OW24181   2.228   2.326  11.233  0.4743  0.9608 -0.8141
 4182SOL    HW124182   2.240   2.309  11.326  0.4361  0.2507 -0.9430
 4182SOL    HW224183   2.265   2.243  11.202  2.2187  1.8276 -1.0523
 4183SOL     OW24184   3.232   0.299   7.906 -0.5439  0.2191  0.5877
 4183SOL    HW124185   3.297   0.368   7.915 -2.9459  2.4169  1.0919
 4183SOL    HW224186   3.154   0.353   7.916 -0.1238  0.5773  1.8790
 4184SOL     OW24187   3.614   0.500  11.824  0.9334  0.2021 -0.4874
 4184SOL    HW124188   3.674   0.426  11.828  0.4809 -0.0084  2.8745
 4184SOL    HW224189   3.528   0.458  11.828  0.8907  0.3094 -0.2375
 4185SOL     OW24190   3.015   1.823   2.016  0.5792  0.5480 -0.5927
 4185SOL    HW124191   3.102   1.784   2.003  0.1129 -0.0470 -1.9139
 4185SOL    HW224192   2.992   1.835   1.924  0.7579  0.3625 -0.6607
 4186SOL     OW24193   3.046   2.095   4.593  0.2778 -0.0538 -0.0596
 4186SOL    HW124194   3.128   2.051   4.613  0.0240 -0.5417 -0.0980
 4186SOL    HW224195   3.003   2.034   4.534  1.2636 -1.8132  1.0577
 4187SOL     OW24196   0.867   1.117   5.289  0.3359  0.5204 -0.0660
 4187SOL    HW124197   0.850   1.196   5.341 -0.0310  0.3537  0.0710
 4187SOL    HW224198   0.906   1.065   5.359 -2.8904 -0.5554  0.9394
 4188SOL     OW24199   2.091   0.836   8.554  0.4813 -1.0879  0.4463
 4188SOL    HW124200   2.054   0.797   8.633  0.5156  0.7168  1.3567
 4188SOL    HW224201   2.020   0.883   8.510  3.5602  2.7388 -0.4662
 4189SOL     OW24202   4.515   0.433   9.486 -0.5959 -0.1730 -0.3136
 4189SOL    HW124203   4.540   0.525   9.497 -3.1898  0.4339  0.4959
 4189SOL    HW224204   4.441   0.414   9.544 -1.2182 -1.5958 -1.5876
 4190SOL     OW24205   1.618   4.073   7.027 -0.1515  0.4439 -0.1011
 4190SOL    HW124206   1.527   4.081   7.054  0.3299  1.8476  1.1243
 4190SOL    HW224207   1.631   4.163   6.999  0.5204  0.3670 -0.0525
 4191SOL     OW24208   3.764   2.391   7.996 -0.5285 -0.0222 -0.0549
 4191SOL    HW124209   3.752   2.301   8.026  0.9057 -0.6029 -1.1923
 4191SOL    HW224210   3.843   2.410   8.045 -0.9278 -1.1522  1.0201
 4192SOL     OW24211   3.562   1.605   6.023 -0.7001 -0.1504  0.6587
 4192SOL    HW124212   3.625   1.656   5.973 -0.1663 -1.4528 -0.0052
 4192SOL    HW224213   3.558   1.640   6.112  0.9644  1.4499  0.0781
 4193SOL     OW24214   1.194   0.056   7.486  0.0638 -0.1708 -0.4203
 4193SOL    HW124215   1.277   0.029   7.448  0.3880 -1.3810  1.1555
 4193SOL    HW224216   1.230   0.104   7.561 -1.1572  0.0966  0.0049
 4194SOL     OW24217   0.155   0.233   9.366  0.4783  0.1657 -0.6300
 4194SOL    HW124218   0.163   0.160   9.426 -0.0580 -0.6207 -1.5141
 4194SOL    HW224219   0.154   0.309   9.425  0.4223  0.0124 -0.4358
 4195SOL     OW24220   1.497   2.274   8.105  0.5088 -0.4398 -0.6991
 4195SOL    HW124221   1.567   2.226   8.061 -0.2448 -1.0728 -1.1968
 4195SOL    HW224222   1.528   2.364   8.089  1.2379 -0.6136 -0.2586
 4196SOL     OW24223   3.802   3.645   9.157 -0.4931  0.1420 -0.4532
 4196SOL    HW124224   3.884   3.676   9.119  1.0849 -2.6549  0.6515
 4196SOL    HW224225   3.750   3.725   9.154 -0.3200  0.1317 -3.4876
 4197SOL     OW24226   2.489   3.668  11.336 -0.6056 -0.1842  0.1082
 4197SOL    HW124227   2.488   3.597  11.273 -1.4213 -0.8776  0.8964
 4197SOL    HW224228   2.524   3.618  11.410 -0.2193  1.2468  0.9072
 4198SOL     OW24229   3.584   1.553   0.704 -0.8376 -0.0418 -0.0943
 4198SOL    HW124230   3.560   1.496   0.776 -1.5515  0.6111  0.1895
 4198SOL    HW224231   3.555   1.513   0.622 -3.5592  0.4815  0.6277
 4199SOL     OW24232   4.233   3.588  13.398 -0.3709 -0.3832 -0.3627
 4199SOL    HW124233   4.152   3.600  13.349 -1.0269  0.9124  1.0333
 4199SOL    HW224234   4.204   3.619  13.484  0.6697 -0.8486  0.1580
 4200SOL     OW24235   0.530   3.108   3.497 -0.2371  0.2119  0.0050
 4200SOL    HW124236   0.476   3.040   3.537 -1.8729  1.4503 -0.0965
 4200SOL    HW224237   0.585   3.053   3.440  1.8277  2.7677 -0.4501
 4201SOL     OW24238   1.342   3.364   7.336 -0.2190 -0.6515 -0.4000
 4201SOL    HW124239   1.420   3.418   7.344 -0.0385 -1.3683  2.6238
 4201SOL    HW224240   1.321   3.366   7.430 -0.4631  0.2083 -0.4761
 4202SOL     OW24241   2.352   2.188  14.824  0.1105  0.0369  0.1778
 4202SOL    HW124242   2.403   2.249  14.772 -1.0213  1.2677  0.5015
 4202SOL    HW224243   2.275   2.178  14.768  0.3434  0.4708 -0.2183
 4203SOL     OW24244   4.156   4.044   5.549 -0.4784 -0.2553  0.4624
 4203SOL    HW124245   4.228   3.986   5.524 -0.0173  1.3061 -1.7767
 4203SOL    HW224246   4.144   4.074   5.459 -1.6032  1.3919  1.1666
 4204SOL     OW24247   2.604   3.204   2.999 -0.0857 -0.0424  0.3846
 4204SOL    HW124248   2.650   3.200   3.083  1.1722  1.4570 -0.2290
 4204SOL    HW224249   2.585   3.297   3.005  1.6884  0.2734  1.1591
 4205SOL     OW24250   0.511   3.855   0.107  0.1556  0.2868  0.3085
 4205SOL    HW124251   0.416   3.869   0.108 -0.0051 -0.7983  2.5629
 4205SOL    HW224252   0.540   3.934   0.152 -0.4391  1.2305 -0.9879
 4206SOL     OW24253   4.317   3.275   5.556 -0.0436 -0.2256  0.7837
 4206SOL    HW124254   4.341   3.348   5.499  0.7660 -0.7811  0.4022
 4206SOL    HW224255   4.245   3.237   5.505  3.6708 -4.6080 -1.3208
 4207SOL     OW24256   4.643   2.348   0.317 -0.2792 -0.0358 -0.1705
 4207SOL    HW124257   4.576   2.284   0.342 -0.4525  0.4638  0.6808
 4207SOL    HW224258   4.596   2.382   0.241  0.9977  1.9740 -0.0642
 4208SOL     OW24259   0.944   3.095   4.924 -0.2881 -0.8765 -0.3883
 4208SOL    HW124260   0.866   3.042   4.907 -0.1856 -0.8340 -1.0027
 4208SOL    HW224261   0.990   3.044   4.992 -0.5311  0.0237  0.4445
 4209SOL     OW24262   3.663   2.535  17.230  0.2320 -0.1264  0.5364
 4209SOL    HW124263   3.596   2.569  17.290 -0.3954 -2.0224  0.9078
 4209SOL    HW224264   3.610   2.494  17.162 -0.3270  2.7206 -0.7184
 4210SOL     OW24265   3.954   2.686   1.978  0.4069 -0.4016  0.0312
 4210SOL    HW124266   4.023   2.670   1.915  1.8903 -0.8323  1.7683
 4210SOL    HW224267   3.924   2.777   1.968  0.3404 -0.5648 -1.1989
 4211SOL     OW24268   0.799   0.705   6.505 -0.3400  0.3912  0.2430
 4211SOL    HW124269   0.781   0.798   6.517  2.2194  1.0741 -1.3506
 4211SOL    HW224270   0.859   0.690   6.578  1.2525 -1.0532 -1.3590
 4212SOL     OW24271   4.439   3.509   0.377 -0.2806 -0.3799  0.3117
 4212SOL    HW124272   4.517   3.546   0.335 -0.1985  0.3798  1.1190
 4212SOL    HW224273   4.437   3.424   0.334 -1.7476 -0.6315  0.8959
 4213SOL     OW24274   3.580   2.785   7.040 -0.6538 -0.2858 -0.4682
 4213SOL    HW124275   3.668   2.749   7.028 -0.6381 -0.4617  0.1893
 4213SOL    HW224276   3.534   2.735   7.106 -0.0046 -0.5713 -0.2337
 4214SOL     OW24277   3.938   0.997   2.178 -0.5178 -0.3187  0.2760
 4214SOL    HW124278   3.968   0.968   2.092 -1.5517 -1.3131  0.2542
 4214SOL    HW224279   4.013   0.962   2.226 -1.6060 -1.7668  0.8896
 4215SOL     OW24280   2.453   0.442  17.568  0.3517  0.7915 -0.0703
 4215SOL    HW124281   2.533   0.494  17.561  0.8117  0.2657  1.2338
 4215SOL    HW224282   2.435   0.461  17.660  1.0209  1.4530 -0.0764
 4216SOL     OW24283   3.349   2.604  12.854 -0.2110 -0.3254  0.1028
 4216SOL    HW124284   3.366   2.532  12.915  0.1186 -0.3192  0.0194
 4216SOL    HW224285   3.432   2.601  12.805 -1.0241 -1.0958 -1.2217
 4217SOL     OW24286   3.259   2.803   3.848  0.3388  0.1215 -0.5095
 4217SOL    HW124287   3.335   2.860   3.836  0.3513  0.6048  1.9342
 4217SOL    HW224288   3.217   2.830   3.766 -2.7069 -2.0434  0.3465
 4218SOL     OW24289   1.539   3.572   8.209 -0.4178  0.0770  0.2975
 4218SOL    HW124290   1.624   3.529   8.217  0.0940  0.5797 -2.3604
 4218SOL    HW224291   1.494   3.545   8.289  2.3899  0.1022  1.8566
 4219SOL     OW24292   1.041   0.699   4.644 -0.2162  0.1011  0.0683
 4219SOL    HW124293   0.983   0.727   4.715  0.7199 -1.1636  1.3347
 4219SOL    HW224294   1.098   0.635   4.686  1.3806 -0.5625 -3.1821
 4220SOL     OW24295   1.878   1.343   8.319  0.6384 -0.7461 -0.5233
 4220SOL    HW124296   1.844   1.375   8.402  1.0031 -2.2897  0.2209
 4220SOL    HW224297   1.797   1.307   8.282 -0.0162 -1.9027  2.0743
 4221SOL     OW24298   3.226   0.162   4.719 -0.0446  0.0270  0.1855
 4221SOL    HW124299   3.142   0.171   4.764 -0.3141  0.5405 -0.4102
 4221SOL    HW224300   3.195   0.138   4.632  1.8065 -0.0729 -0.4409
 4222SOL     OW24301   3.906   1.620   1.934 -0.0929  0.3082 -0.3724
 4222SOL    HW124302   3.913   1.655   1.846 -0.8619 -0.6241 -0.8080
 4222SOL    HW224303   3.820   1.581   1.922  0.8031 -1.6559 -0.3937
 4223SOL     OW24304   2.641   4.702   5.846 -0.4065  0.3869  0.0097
 4223SOL    HW124305   2.710   0.008   5.796 -1.3784  1.9501  0.0800
 4223SOL    HW224306   2.676   4.695   5.935  0.8235  1.0131 -0.4242
 4224SOL     OW24307   4.082   4.472  15.759  0.0786  0.0173 -0.0324
 4224SOL    HW124308   4.171   4.454  15.788 -0.5790 -1.1718  1.2508
 4224SOL    HW224309   4.041   4.385  15.763  1.4974 -0.6456  0.0045
 4225SOL     OW24310   2.836   1.288  12.872 -0.1337  0.1501  0.3018
 4225SOL    HW124311   2.837   1.235  12.952 -2.7824  2.0763  1.6057
 4225SOL    HW224312   2.876   1.224  12.813  1.1072  0.5157  0.7497
 4226SOL     OW24313   2.130   4.386   2.391 -0.0888 -0.4238 -0.6769
 4226SOL    HW124314   2.063   4.319   2.400  1.6276 -2.1347 -0.5844
 4226SOL    HW224315   2.099   4.452   2.453  0.2307 -0.7561 -0.1654
 4227SOL     OW24316   4.309   2.978   7.557  0.5225 -0.3426  0.6424
 4227SOL    HW124317   4.278   2.890   7.578 -0.4666 -0.2620 -0.4497
 4227SOL    HW224318   4.282   3.036   7.629 -0.0747 -1.5602  1.4028
 4228SOL     OW24319   3.423   2.145  13.793  0.5261 -0.0166 -0.4615
 4228SOL    HW124320   3.376   2.203  13.733  1.1306 -1.6317 -2.4655
 4228SOL    HW224321   3.452   2.077  13.733  0.9205 -0.0042 -0.2832
 4229SOL     OW24322   0.201   4.522   9.810 -0.5423  0.5667 -0.5232
 4229SOL    HW124323   0.164   4.491   9.727 -0.4433  2.2469 -1.2057
 4229SOL    HW224324   0.161   4.464   9.875  0.7978 -0.5040 -0.6595
 4230SOL     OW24325   0.859   3.267   4.745 -0.8929  0.1464  0.3087
 4230SOL    HW124326   0.898   3.229   4.824 -0.8533 -0.6990 -0.1180
 4230SOL    HW224327   0.819   3.344   4.786 -1.4294  0.1844 -0.2884
 4231SOL     OW24328   0.391   2.130  15.512  0.1833 -0.8914 -0.2844
 4231SOL    HW124329   0.436   2.210  15.538 -0.4291 -0.3717 -0.8081
 4231SOL    HW224330   0.319   2.154  15.452  1.7729 -0.0426 -1.8423
 4232SOL     OW24331   1.443   1.555   2.363 -0.5790  0.4639 -0.2945
 4232SOL    HW124332   1.427   1.467   2.400 -0.0627  1.8337  3.2421
 4232SOL    HW224333   1.539   1.559   2.365 -0.6228  1.9158 -1.6483
 4233SOL     OW24334   0.720   2.587   1.344  0.6640  0.1700 -0.8013
 4233SOL    HW124335   0.793   2.592   1.406  0.6996 -0.7058 -0.7751
 4233SOL    HW224336   0.695   2.679   1.351 -0.6289 -0.4480  2.7342
 4234SOL     OW24337   3.128   2.663   6.534 -0.2636 -0.0404 -0.2029
 4234SOL    HW124338   3.119   2.572   6.563  2.5826  0.0478  0.9551
 4234SOL    HW224339   3.219   2.680   6.556 -0.3849 -1.4708  1.4966
 4235SOL     OW24340   3.569   2.957  17.247  0.2002 -0.1460  0.2092
 4235SOL    HW124341   3.607   3.045  17.256  0.3190 -0.2916  1.1062
 4235SOL    HW224342   3.573   2.929  17.338 -0.4222  2.3044  1.0001
 4236SOL     OW24343   1.311   3.959  15.608 -0.1869  0.0198 -0.3471
 4236SOL    HW124344   1.283   3.986  15.696 -1.3139 -3.3976  0.3435
 4236SOL    HW224345   1.240   3.981  15.547 -0.7003  0.8169  0.5242
 4237SOL     OW24346   3.131   3.542   7.442 -0.0653  0.7523 -0.3768
 4237SOL    HW124347   3.088   3.471   7.394 -0.1651  0.2766  0.4100
 4237SOL    HW224348   3.060   3.564   7.502 -1.0368 -1.9063 -0.5482
 4238SOL     OW24349   0.604   0.198  12.709  0.0489  0.2795 -0.6210
 4238SOL    HW124350   0.575   0.193  12.800  0.2650  0.0024 -0.5701
 4238SOL    HW224351   0.565   0.282  12.686  0.5972  0.4383 -0.9678
 4239SOL     OW24352   1.160   0.245   8.168 -0.0265 -0.0402 -0.8919
 4239SOL    HW124353   1.101   0.171   8.154 -1.4352  1.1153 -1.1498
 4239SOL    HW224354   1.119   0.301   8.234  2.6789  1.1948 -0.2651
 4240SOL     OW24355   3.673   1.937   1.357 -0.0257 -0.1006 -0.5162
 4240SOL    HW124356   3.592   1.979   1.385  0.9206  1.3022  0.1178
 4240SOL    HW224357   3.659   1.844   1.369  1.5267 -0.0596  1.5570
 4241SOL     OW24358   3.036   3.902   9.528 -0.1846 -0.8795 -0.4772
 4241SOL    HW124359   3.038   3.968   9.598  0.0632 -1.9275  0.4939
 4241SOL    HW224360   3.128   3.876   9.525  0.3272  0.4908  2.6150
 4242SOL     OW24361   0.025   1.949   6.379 -0.4533  0.0694  0.6073
 4242SOL    HW124362   0.041   1.972   6.287 -2.1513 -1.0327  0.0265
 4242SOL    HW224363   0.069   1.864   6.382 -0.1803  0.1481 -1.1370
 4243SOL     OW24364   2.947   2.083   8.871 -0.1061  0.3970 -0.9275
 4243SOL    HW124365   3.006   2.158   8.862  0.3362 -0.0253 -1.5557
 4243SOL    HW224366   2.925   2.069   8.779  0.1474 -0.6074 -0.8264
 4244SOL     OW24367   2.403   4.679   4.824 -0.0613  0.1622 -0.4770
 4244SOL    HW124368   2.318   4.711   4.854 -0.9415 -2.8097  0.3027
 4244SOL    HW224369   2.393   4.676   4.729 -1.5075  1.1257 -0.3550
 4245SOL     OW24370   0.961   1.148   2.403 -0.0187  0.6890  0.6257
 4245SOL    HW124371   1.041   1.190   2.434 -0.8798  2.4774  0.4075
 4245SOL    HW224372   0.893   1.193   2.451  0.7349  0.4484  1.9289
 4246SOL     OW24373   4.695   1.169   1.312 -0.9526  0.4071  0.9340
 4246SOL    HW124374   4.695   1.230   1.386 -0.4150  0.7438  0.6558
 4246SOL    HW224375   0.019   1.213   1.255  0.0982  0.6786  2.2720
 4247SOL     OW24376   1.035   2.001   0.285 -0.0512 -0.4751  0.5960
 4247SOL    HW124377   1.102   1.956   0.233  1.5259 -0.4686  2.6157
 4247SOL    HW224378   0.987   2.049   0.218 -2.6891 -1.0800  2.0514
 4248SOL     OW24379   0.942   3.612   5.792  0.0787  0.0259  0.1760
 4248SOL    HW124380   0.917   3.528   5.752  1.9564 -1.5571  2.3222
 4248SOL    HW224381   0.855   3.650   5.785  0.3480  0.5642 -0.2348
 4249SOL     OW24382   4.241   2.970   7.906 -0.2139  0.5448 -0.1055
 4249SOL    HW124383   4.164   3.005   7.862 -1.7842  1.2415  3.2315
 4249SOL    HW224384   4.204   2.893   7.950  1.2730  0.3608  0.8430
 4250SOL     OW24385   0.780   1.809   5.876 -0.2709  0.0188  0.2998
 4250SOL    HW124386   0.813   1.896   5.854  3.1388 -1.2798  0.3104
 4250SOL    HW224387   0.808   1.805   5.967 -0.8203  0.2488  0.4802
 4251SOL     OW24388   1.187   1.551  17.099  0.4589 -0.3615 -0.6197
 4251SOL    HW124389   1.092   1.563  17.107  0.5443 -0.7778  1.0075
 4251SOL    HW224390   1.192   1.471  17.047  2.5045 -2.3929  2.6997
 4252SOL     OW24391   2.197   2.486   5.381  0.5834  0.1551  0.1287
 4252SOL    HW124392   2.205   2.471   5.475 -1.0375 -1.5297 -0.0048
 4252SOL    HW224393   2.260   2.422   5.350  0.3484 -0.0472  0.0746
 4253SOL     OW24394   4.227   1.751   5.497 -0.4014  0.0877 -0.0893
 4253SOL    HW124395   4.154   1.716   5.549 -0.1759  0.0322  0.1960
 4253SOL    HW224396   4.264   1.821   5.551 -1.0207 -0.1502  0.6534
 4254SOL     OW24397   2.968   0.101   0.873  0.0551 -0.2850 -0.0731
 4254SOL    HW124398   2.954   0.191   0.843  0.3377 -0.4535 -0.7106
 4254SOL    HW224399   3.014   0.124   0.954  0.3002 -2.4231  0.4018
 4255SOL     OW24400   3.112   3.492   1.648  0.2247 -0.0733 -0.3367
 4255SOL    HW124401   3.054   3.556   1.606 -0.2869  0.1906  0.7547
 4255SOL    HW224402   3.186   3.494   1.588  0.0098 -0.5793 -0.6219
 4256SOL     OW24403   2.065   1.339   0.739  0.0804  1.1644 -0.1180
 4256SOL    HW124404   1.996   1.273   0.753  1.5492 -0.5080 -0.7907
 4256SOL    HW224405   2.045   1.368   0.650  1.6822 -0.7425 -1.1001
 4257SOL     OW24406   3.285   1.048   8.748 -0.1203  0.2081  0.0898
 4257SOL    HW124407   3.219   1.074   8.683 -0.1545  1.5843  0.6698
 4257SOL    HW224408   3.281   1.120   8.811 -0.1901 -0.6389  1.0346
 4258SOL     OW24409   2.582   1.903   0.517 -0.1734  0.2462  0.2463
 4258SOL    HW124410   2.665   1.868   0.548  0.1796  1.3066  0.5210
 4258SOL    HW224411   2.534   1.828   0.482  0.9735  0.2942 -1.4315
 4259SOL     OW24412   1.243   2.633  12.714 -0.0573 -0.3624 -0.0539
 4259SOL    HW124413   1.212   2.558  12.766 -0.1270 -0.7524 -0.6556
 4259SOL    HW224414   1.306   2.594  12.654 -1.3571 -1.7110 -0.5517
 4260SOL     OW24415   2.476   2.954   8.565  0.0208 -0.2129  0.3474
 4260SOL    HW124416   2.549   3.015   8.552  0.8918 -0.9986  1.5143
 4260SOL    HW224417   2.508   2.870   8.534 -2.1155 -0.4160 -1.2830
 4261SOL     OW24418   0.499   3.565   7.681  0.0312  0.3607 -0.1530
 4261SOL    HW124419   0.451   3.551   7.763 -1.3321 -0.5132 -1.1072
 4261SOL    HW224420   0.427   3.606   7.633 -0.6787 -2.2627 -1.3120
 4262SOL     OW24421   0.176   1.988   8.118 -0.4180 -0.7041  0.6808
 4262SOL    HW124422   0.215   2.041   8.188  0.4789 -0.2890 -0.1338
 4262SOL    HW224423   0.219   1.905   8.140 -2.2716 -2.1659 -1.2694
 4263SOL     OW24424   3.480   0.692   4.199  0.4676 -0.3131  0.0201
 4263SOL    HW124425   3.453   0.692   4.107  2.2423 -1.2248 -0.5047
 4263SOL    HW224426   3.572   0.722   4.199  0.5140 -0.4544 -2.0823
 4264SOL     OW24427   1.422   1.300   2.697 -0.0883  0.0340 -0.8023
 4264SOL    HW124428   1.488   1.342   2.752 -1.5651 -0.2695  1.2021
 4264SOL    HW224429   1.421   1.205   2.710  0.8070  0.1264 -0.0741
 4265SOL     OW24430   0.528   0.804  13.560 -0.0678 -0.4386 -0.4109
 4265SOL    HW124431   0.583   0.862  13.612 -0.3741  1.3927 -2.1481
 4265SOL    HW224432   0.446   0.829  13.603  0.4739  1.9360 -0.8041
 4266SOL     OW24433   3.704   3.919   9.284  0.0633 -0.5797 -0.2970
 4266SOL    HW124434   3.696   3.862   9.361 -0.5058  0.6791  0.5828
 4266SOL    HW224435   3.785   3.968   9.303 -1.3859  2.3738 -1.7766
 4267SOL     OW24436   4.349   4.725  13.325  0.0238 -0.8272  0.1263
 4267SOL    HW124437   4.420   0.013  13.384  0.4507 -0.2172 -0.6466
 4267SOL    HW224438   4.396   4.687  13.251  1.2262 -0.2892  0.6041
 4268SOL     OW24439   3.197   1.860   4.268  0.0505  0.2636 -0.0376
 4268SOL    HW124440   3.238   1.947   4.266 -0.3055  0.3435 -3.2273
 4268SOL    HW224441   3.124   1.876   4.329 -0.5840 -2.2814 -0.1205
 4269SOL     OW24442   4.596   4.251   7.517  0.1504 -0.4168  0.0268
 4269SOL    HW124443   4.660   4.241   7.587 -0.4252 -0.0091  0.6054
 4269SOL    HW224444   4.569   4.162   7.493  0.0236  0.3837 -2.8201
 4270SOL     OW24445   4.409   2.414   3.706  0.4773 -0.2629 -0.2750
 4270SOL    HW124446   4.496   2.373   3.709  0.7498  0.4636  1.9442
 4270SOL    HW224447   4.378   2.391   3.619  2.1572 -1.5104 -0.5520
 4271SOL     OW24448   3.082   2.010   3.389  0.3027 -0.0963 -0.2740
 4271SOL    HW124449   2.999   2.019   3.435  1.3840  0.7319  1.5243
 4271SOL    HW224450   3.120   1.934   3.433  1.8592 -0.1005 -1.6022
 4272SOL     OW24451   0.001   0.888   1.347 -0.2421 -0.3581 -0.5588
 4272SOL    HW124452   0.045   0.867   1.430  0.3089 -2.3060 -1.3378
 4272SOL    HW224453   4.724   0.981   1.363  3.0810  0.1509 -0.3086
 4273SOL     OW24454   3.857   2.915   9.347  0.2872 -0.2288  0.7229
 4273SOL    HW124455   3.764   2.892   9.342  0.2853  0.0856 -0.9594
 4273SOL    HW224456   3.867   2.953   9.434  2.5057  0.0321  0.3534
 4274SOL     OW24457   0.585   1.109   7.579 -0.6587 -0.1519 -0.1642
 4274SOL    HW124458   0.534   1.031   7.603 -0.6592 -0.7440 -2.0679
 4274SOL    HW224459   0.513   1.157   7.537 -0.6789  0.5817  0.7030
 4275SOL     OW24460   2.729   4.254   8.522  0.1543 -0.3584 -0.0754
 4275SOL    HW124461   2.635   4.260   8.539  0.2152 -0.0179  0.1313
 4275SOL    HW224462   2.740   4.303   8.440 -0.6898  0.2266  0.1561
 4276SOL     OW24463   2.455   3.729  16.006 -0.9675  0.2997 -0.3363
 4276SOL    HW124464   2.481   3.788  15.935 -0.9799 -1.6584 -1.9586
 4276SOL    HW224465   2.537   3.733  16.054 -0.4460 -1.5435 -1.1008
 4277SOL     OW24466   2.288   2.235   4.843 -0.1860  0.0641 -1.2656
 4277SOL    HW124467   2.248   2.308   4.891  3.4003  0.4647  1.0647
 4277SOL    HW224468   2.223   2.222   4.773 -0.1303 -0.8203 -1.1542
 4278SOL     OW24469   0.895   1.148   3.360 -0.1880  0.1707 -0.4332
 4278SOL    HW124470   0.969   1.120   3.306 -0.1002  1.1589 -0.8158
 4278SOL    HW224471   0.925   1.220   3.415  1.0129  0.1497 -1.0695
 4279SOL     OW24472   1.576   2.297   3.825  0.5664  0.3026 -0.4147
 4279SOL    HW124473   1.481   2.285   3.819  0.4395  0.8603  0.3420
 4279SOL    HW224474   1.589   2.352   3.749  0.6392 -0.5667 -1.0301
 4280SOL     OW24475   1.660   4.704  12.902  0.0640 -0.1497 -0.2611
 4280SOL    HW124476   1.650   4.653  12.983 -2.8941 -0.8296 -1.0660
 4280SOL    HW224477   1.663   0.053  12.942 -1.4190  0.3986 -1.3779
 4281SOL     OW24478   3.775   4.391   3.710 -0.4416  0.0202  0.4042
 4281SOL    HW124479   3.845   4.393   3.775 -0.3865 -1.5534  0.3971
 4281SOL    HW224480   3.822   4.360   3.632 -2.1183  1.2063 -1.0851
 4282SOL     OW24481   0.290   3.568   8.598  0.1711 -0.4658 -0.3445
 4282SOL    HW124482   0.212   3.575   8.542  0.6248 -1.8780 -1.1564
 4282SOL    HW224483   0.268   3.498   8.658  0.0469 -0.9269 -0.9235
 4283SOL     OW24484   3.479   0.506  16.787 -0.0680 -0.0175  0.0909
 4283SOL    HW124485   3.504   0.597  16.805 -1.3309  0.4609 -0.6107
 4283SOL    HW224486   3.394   0.506  16.830  1.4816 -1.8935  3.2198
 4284SOL     OW24487   0.902   3.652  17.623  0.6686  0.1764 -0.0638
 4284SOL    HW124488   0.968   3.674  17.688  1.1980 -0.0112 -0.5349
 4284SOL    HW224489   0.826   3.649  17.681  0.3914 -1.9231 -0.5152
 4285SOL     OW24490   2.031   0.004   9.191 -0.6877 -0.1757  0.5876
 4285SOL    HW124491   2.100   0.010   9.125  0.6276  2.0562  2.1917
 4285SOL    HW224492   1.980   4.680   9.139  1.0585 -0.2433 -1.0159
 4286SOL     OW24493   3.796   2.504  12.272 -0.0429 -0.1724 -0.4661
 4286SOL    HW124494   3.877   2.518  12.320 -0.1082  1.1954 -0.7446
 4286SOL    HW224495   3.801   2.583  12.218 -1.3806  0.3808  0.2099
 4287SOL     OW24496   2.773   3.567   4.514  0.4506 -0.1632  0.0016
 4287SOL    HW124497   2.748   3.658   4.495  0.7205  0.7514  3.9874
 4287SOL    HW224498   2.757   3.562   4.608 -2.6393 -3.0239 -0.7249
 4288SOL     OW24499   3.507   1.892   4.386 -0.1653 -0.6308 -0.1104
 4288SOL    HW124500   3.454   1.966   4.358 -0.4232  0.3429  2.9398
 4288SOL    HW224501   3.596   1.927   4.379 -0.1593 -0.8513 -1.1362
 4289SOL     OW24502   0.690   2.025   3.536 -0.1880  0.1262 -0.8575
 4289SOL    HW124503   0.693   1.956   3.602  0.1077  1.8271  0.9193
 4289SOL    HW224504   0.616   1.982   3.492 -1.9263  1.3058  0.9030
 4290SOL     OW24505   0.830   1.055   1.696 -0.1657  0.2221  0.3313
 4290SOL    HW124506   0.792   1.099   1.620  1.4638  0.5212 -0.3070
 4290SOL    HW224507   0.910   1.097   1.726 -1.0217  0.3173  2.5045
 4291SOL     OW24508   2.760   0.023   3.952 -0.3606  0.2211  0.3532
 4291SOL    HW124509   2.700   0.069   3.893  1.8545  0.7732 -1.4615
 4291SOL    HW224510   2.732   4.673   3.927  0.1216 -0.1506  1.1128
 4292SOL     OW24511   1.384   0.270  10.635  0.0490 -0.0910 -0.1357
 4292SOL    HW124512   1.345   0.183  10.630  1.3952 -0.7158  0.3802
 4292SOL    HW224513   1.475   0.239  10.630  0.0006 -0.5145  1.6776
 4293SOL     OW24514   2.103   3.023   1.986  0.0731 -0.6939 -0.2093
 4293SOL    HW124515   2.162   3.088   2.025 -0.6654 -1.0821  1.5237
 4293SOL    HW224516   2.067   2.981   2.063  0.8553  3.7323  2.5588
 4294SOL     OW24517   0.636   0.719   2.948  0.0063 -0.1843 -0.3433
 4294SOL    HW124518   0.653   0.645   3.006  1.4464 -1.1066 -1.9386
 4294SOL    HW224519   0.726   0.737   2.920  0.2615 -1.1222 -0.1515
 4295SOL     OW24520   3.431   2.159   2.590 -0.2033  0.3234  0.2192
 4295SOL    HW124521   3.439   2.086   2.651 -0.8934 -0.8103 -1.0436
 4295SOL    HW224522   3.493   2.206   2.646  0.6390 -1.7100  0.9936
 4296SOL     OW24523   2.826   3.870   7.638  0.2765  0.0724  0.8276
 4296SOL    HW124524   2.782   3.908   7.715 -1.2034  0.5760 -0.2654
 4296SOL    HW224525   2.897   3.932   7.620  1.7420 -1.5693  0.9592
 4297SOL     OW24526   4.548   4.471  14.548 -0.0322 -0.3407  0.3059
 4297SOL    HW124527   4.565   4.439  14.459 -1.0644 -0.3347  0.1147
 4297SOL    HW224528   4.470   4.526  14.547  1.3303  1.6289  1.5966
 4298SOL     OW24529   0.399   0.788   6.434  0.3028  0.1687 -0.3690
 4298SOL    HW124530   0.444   0.703   6.439  1.8577  0.9569 -0.9261
 4298SOL    HW224531   0.318   0.769   6.388 -0.2475  1.1774  0.1885
 4299SOL     OW24532   0.810   3.296  17.465 -0.1941 -0.3635 -0.1055
 4299SOL    HW124533   0.775   3.214  17.500  0.2350 -0.3818  0.2880
 4299SOL    HW224534   0.726   3.341  17.467 -0.4820 -1.0216  2.1969
 4300SOL     OW24535   0.164   0.993   7.855 -0.5780 -0.1507  0.3076
 4300SOL    HW124536   0.091   0.951   7.901 -0.3093 -1.7396 -0.7154
 4300SOL    HW224537   0.173   0.940   7.776 -0.3524  0.4451 -0.0565
 4301SOL     OW24538   0.744   4.331   4.975  0.7707  0.0744  0.2933
 4301SOL    HW124539   0.711   4.411   5.015  0.2826  0.2562 -0.4801
 4301SOL    HW224540   0.800   4.300   5.046 -0.6203  0.8668  1.7278
 4302SOL     OW24541   1.647   2.480   6.398  0.5689 -0.6178  0.0102
 4302SOL    HW124542   1.729   2.470   6.349  1.2005  1.3212  0.6629
 4302SOL    HW224543   1.602   2.559   6.366 -0.0583 -0.9259  0.1349
 4303SOL     OW24544   1.169   0.355   3.976  0.4417 -0.3578  0.4822
 4303SOL    HW124545   1.102   0.288   3.964  0.8528 -0.4300 -1.4596
 4303SOL    HW224546   1.145   0.418   3.909  1.1612  1.1677  1.6613
 4304SOL     OW24547   4.257   0.985  13.089  0.3345  0.1710  0.6082
 4304SOL    HW124548   4.234   1.012  13.000  1.2049 -0.0661  0.3151
 4304SOL    HW224549   4.171   0.980  13.132  0.6923 -0.3626  1.2476
 4305SOL     OW24550   2.284   4.048   6.236 -0.3746 -0.5742 -0.2728
 4305SOL    HW124551   2.205   4.091   6.267  0.9382  0.5830  1.5134
 4305SOL    HW224552   2.245   3.992   6.169 -1.2746  0.1633 -0.3672
 4306SOL     OW24553   0.968   1.852  12.775 -0.3410 -0.5478 -0.1724
 4306SOL    HW124554   0.968   1.797  12.697 -1.1583  0.8952 -1.1884
 4306SOL    HW224555   1.003   1.933  12.738 -0.8492  0.1630  0.9116
 4307SOL     OW24556   3.816   4.229   7.767 -0.0472  0.1071 -0.1022
 4307SOL    HW124557   3.755   4.200   7.835  0.3669 -0.5928 -0.0243
 4307SOL    HW224558   3.899   4.216   7.814  0.0669  1.7395  0.1341
 4308SOL     OW24559   0.045   1.996   0.933 -0.3670 -0.0167  0.0296
 4308SOL    HW124560   0.040   1.993   1.028  0.8595 -0.0809  0.0987
 4308SOL    HW224561   4.702   1.950   0.911 -1.8503  2.2021  0.9092
 4309SOL     OW24562   2.421   2.650   9.612  0.1759  0.6263 -0.1845
 4309SOL    HW124563   2.470   2.732   9.608  2.1971 -0.6290 -0.8723
 4309SOL    HW224564   2.479   2.602   9.671  0.0565 -1.3530 -1.6760
 4310SOL     OW24565   1.713   2.166   4.249 -0.2703 -1.1012  0.1926
 4310SOL    HW124566   1.766   2.094   4.215  0.9089 -1.4491  2.8022
 4310SOL    HW224567   1.762   2.188   4.328 -1.8470 -1.4987  1.2871
 4311SOL     OW24568   1.888   1.035   5.717  0.6675 -0.4690 -0.3193
 4311SOL    HW124569   1.796   1.030   5.741  1.0446  0.2690  1.2280
 4311SOL    HW224570   1.890   1.096   5.643  2.7177 -1.9823 -1.5077
 4312SOL     OW24571   0.862   3.925  14.042 -0.1835 -0.0866 -0.4295
 4312SOL    HW124572   0.811   4.005  14.034 -1.4664 -1.0816 -2.1023
 4312SOL    HW224573   0.833   3.886  13.960  1.3402 -0.2579 -0.8914
 4313SOL     OW24574   3.853   4.220  14.677  0.0765  0.0737  0.1185
 4313SOL    HW124575   3.775   4.192  14.629  0.7101  1.1240 -1.5413
 4313SOL    HW224576   3.879   4.142  14.725  0.2961 -0.0318 -0.1706
 4314SOL     OW24577   4.648   2.393  11.468  0.3784  0.2134 -0.3556
 4314SOL    HW124578   4.589   2.321  11.446  1.6850 -0.8434 -0.3867
 4314SOL    HW224579   4.665   2.398  11.562 -0.6595  0.2597 -0.1749
 4315SOL     OW24580   0.009   1.026   4.145  0.8080 -0.0255  0.3059
 4315SOL    HW124581   0.050   0.939   4.153  0.9471  0.0083 -0.0594
 4315SOL    HW224582   0.061   1.056   4.071  0.4968 -1.7410 -0.6002
 4316SOL     OW24583   3.291   3.581   7.972 -0.5640  0.8767 -0.0129
 4316SOL    HW124584   3.325   3.534   8.048  2.7090 -0.1074 -2.1021
 4316SOL    HW224585   3.354   3.653   7.973 -0.6216  0.8553  5.2239
 4317SOL     OW24586   1.837   4.462   0.786 -0.1604  0.0761 -0.0733
 4317SOL    HW124587   1.753   4.430   0.753 -0.1383 -1.8247  1.7471
 4317SOL    HW224588   1.829   4.440   0.879 -1.1144  2.6660  0.4668
 4318SOL     OW24589   3.473   2.117   8.670  0.1618 -0.2478 -0.5381
 4318SOL    HW124590   3.550   2.082   8.624  0.8195 -0.7540  0.9393
 4318SOL    HW224591   3.486   2.210   8.685  5.2698 -0.9165 -0.8331
 4319SOL     OW24592   1.619   2.652  16.092  0.2649  0.2255 -0.1438
 4319SOL    HW124593   1.693   2.607  16.134 -1.0441 -1.2677  0.5947
 4319SOL    HW224594   1.657   2.668  16.006  2.7194 -0.3263  0.8313
 4320SOL     OW24595   2.057   2.503   8.583  0.4968 -0.5311  0.1603
 4320SOL    HW124596   2.031   2.432   8.642  0.6325 -0.7444 -0.0381
 4320SOL    HW224597   2.014   2.473   8.503 -1.4544 -1.3415  1.5060
 4321SOL     OW24598   1.965   2.955  14.631 -0.2705 -0.5545  0.2788
 4321SOL    HW124599   2.004   2.869  14.650 -0.7648 -0.7440  0.4360
 4321SOL    HW224600   2.025   2.991  14.566 -0.7587 -2.3726 -1.1827
 4322SOL     OW24601   0.981   2.550   5.085 -0.0432 -0.3119  0.4650
 4322SOL    HW124602   1.018   2.553   5.173 -1.8710 -1.3881  1.2611
 4322SOL    HW224603   1.057   2.525   5.032 -1.3139 -1.5323 -0.7798
 4323SOL     OW24604   2.844   2.578  12.864 -0.7849  0.3335  0.2473
 4323SOL    HW124605   2.813   2.658  12.908  0.9637 -0.6786  3.3042
 4323SOL    HW224606   2.931   2.606  12.835 -0.2486 -2.1908 -0.5382
 4324SOL     OW24607   4.211   0.273   3.344  0.0084  0.1098  0.3436
 4324SOL    HW124608   4.297   0.302   3.374  0.2034  0.6645 -0.7725
 4324SOL    HW224609   4.231   0.234   3.259  0.0574 -0.9822  0.8512
 4325SOL     OW24610   0.367   2.105   4.068  0.1357 -0.2882 -0.4597
 4325SOL    HW124611   0.323   2.113   4.152  0.6882  1.3951 -0.3340
 4325SOL    HW224612   0.370   2.191   4.026 -0.8872 -0.4217 -0.8021
 4326SOL     OW24613   4.448   2.166   3.211 -0.2216  0.3249 -0.0718
 4326SOL    HW124614   4.540   2.169   3.184  0.3499 -1.6786  1.7455
 4326SOL    HW224615   4.401   2.157   3.128  0.3416  2.9480 -0.6842
 4327SOL     OW24616   3.511   0.558   6.240  0.1165 -0.1087 -0.2734
 4327SOL    HW124617   3.569   0.504   6.186 -0.2775 -0.4231 -0.3793
 4327SOL    HW224618   3.572   0.619   6.282 -0.0039 -0.4143  0.3474
 4328SOL     OW24619   0.234   4.001   6.168 -0.4217 -0.7557  0.5299
 4328SOL    HW124620   0.301   3.955   6.218 -0.7624 -3.4402 -1.4516
 4328SOL    HW224621   0.179   4.035   6.239 -0.8611  0.6186 -0.4562
 4329SOL     OW24622   2.928   3.109   8.734 -0.3436 -0.0166  0.1271
 4329SOL    HW124623   2.843   3.149   8.714  0.4925  0.8582 -1.6431
 4329SOL    HW224624   2.949   3.089   8.643 -0.0906 -0.4383  0.2800
 4330SOL     OW24625   3.089   0.083   7.252  0.6837  0.1498 -0.3795
 4330SOL    HW124626   3.003   0.117   7.278  0.3985 -0.0779 -1.0156
 4330SOL    HW224627   3.128   0.154   7.201  1.5123 -0.3854 -0.4882
 4331SOL     OW24628   2.884   1.510   4.953 -0.4628  0.1808  0.8170
 4331SOL    HW124629   2.791   1.530   4.946 -0.7990 -1.4535  0.6056
 4331SOL    HW224630   2.926   1.595   4.940  0.0809 -0.0035  1.3714
 4332SOL     OW24631   1.923   1.446   2.284 -0.6017  0.2550  0.0927
 4332SOL    HW124632   1.996   1.508   2.285  2.1601 -3.0015  1.3496
 4332SOL    HW224633   1.926   1.414   2.194 -2.9303  1.2104 -0.2969
 4333SOL     OW24634   3.523   1.548  10.532  0.1951  0.4718  0.4617
 4333SOL    HW124635   3.433   1.516  10.524  1.1725 -2.0096 -0.6727
 4333SOL    HW224636   3.570   1.465  10.536  1.4223  1.0659 -1.7532
 4334SOL     OW24637   1.492   3.756   8.426  0.8843 -0.0571  0.4179
 4334SOL    HW124638   1.524   3.707   8.351  0.8705  0.8097 -0.1474
 4334SOL    HW224639   1.416   3.799   8.389  0.2378 -1.4628  0.1148
 4335SOL     OW24640   4.663   1.710   0.352  0.0422  0.5998  0.0976
 4335SOL    HW124641   4.682   1.672   0.266 -0.6788 -0.2898  0.3348
 4335SOL    HW224642   4.568   1.724   0.349 -0.1184 -0.2238  1.2432
 4336SOL     OW24643   1.338   1.249   0.527  0.2181 -0.5178 -0.1889
 4336SOL    HW124644   1.323   1.174   0.584 -2.3513 -0.3226 -0.6295
 4336SOL    HW224645   1.282   1.314   0.570  0.0485 -0.8732  0.1227
 4337SOL     OW24646   4.020   0.503  12.746  0.6054 -0.1070 -0.2541
 4337SOL    HW124647   3.987   0.478  12.832  1.7560  0.7764  0.4450
 4337SOL    HW224648   4.081   0.432  12.724  1.6508  0.2761  1.3891
 4338SOL     OW24649   1.916   0.275  14.183  0.5054 -0.6762 -0.1592
 4338SOL    HW124650   1.924   0.305  14.093 -0.6325  1.5462  0.4715
 4338SOL    HW224651   1.994   0.310  14.227  1.5781 -0.7809 -1.9983
 4339SOL     OW24652   2.855   3.247   0.495  0.0623 -0.2933 -0.3081
 4339SOL    HW124653   2.820   3.161   0.517  1.4682 -1.3052 -2.0745
 4339SOL    HW224654   2.777   3.300   0.513  0.7349  0.3977  0.5459
 4340SOL     OW24655   0.272   0.149   6.240  0.4333 -0.8195 -0.4023
 4340SOL    HW124656   0.242   0.067   6.277  0.7752 -1.2483 -1.0653
 4340SOL    HW224657   0.354   0.116   6.203  0.1454 -0.2997 -1.5337
 4341SOL     OW24658   2.314   2.523   2.969 -0.1778 -0.3217 -0.1855
 4341SOL    HW124659   2.295   2.480   3.053  1.7849 -0.3265  0.2608
 4341SOL    HW224660   2.310   2.614   2.997 -0.3141  0.7762 -3.8416
 4342SOL     OW24661   3.779   4.257   9.395  0.2432 -0.8682  0.1174
 4342SOL    HW124662   3.840   4.330   9.381 -1.0964  0.2069 -0.1405
 4342SOL    HW224663   3.826   4.194   9.450 -0.9110 -0.6699  1.3246
 4343SOL     OW24664   4.322   2.621   4.534  0.1275 -0.4345 -0.8068
 4343SOL    HW124665   4.258   2.559   4.568 -0.6055  0.9315  0.3138
 4343SOL    HW224666   4.263   2.695   4.519 -0.2941 -0.6091  0.0122
 4344SOL     OW24667   1.071   1.930   3.199  1.0300 -0.1169  0.5092
 4344SOL    HW124668   1.030   2.009   3.164 -0.4305 -0.8831  0.5032
 4344SOL    HW224669   1.021   1.922   3.281  1.5508  0.0112  0.8367
 4345SOL     OW24670   4.301   3.704   2.124 -0.3342  0.5893 -0.1179
 4345SOL    HW124671   4.316   3.611   2.141  0.4732  0.8264  0.4595
 4345SOL    HW224672   4.209   3.706   2.152  0.4011 -0.9880  2.3817
 4346SOL     OW24673   1.026   4.053  16.379 -0.2250  0.2824  0.0208
 4346SOL    HW124674   1.095   4.118  16.366 -0.1671  0.3951  0.9492
 4346SOL    HW224675   1.078   3.973  16.372 -3.0901 -1.6147  0.6035
 4347SOL     OW24676   3.242   0.108   8.975 -0.0880 -0.0152  0.3006
 4347SOL    HW124677   3.229   0.103   9.070  1.3781  1.2437  0.5759
 4347SOL    HW224678   3.192   0.181   8.938  0.3587 -0.4252 -1.1088
 4348SOL     OW24679   2.368   1.000  14.009  0.5650  0.0686  0.3719
 4348SOL    HW124680   2.399   0.981  13.920  0.9498 -2.0647  0.9580
 4348SOL    HW224681   2.294   0.939  14.012 -0.6440  1.6644  2.5427
 4349SOL     OW24682   2.995   0.920   9.029  0.0948  0.4243  0.0871
 4349SOL    HW124683   2.923   0.873   8.986 -0.2790  2.1827 -1.1987
 4349SOL    HW224684   3.065   0.864   8.997  0.1940 -1.2169  3.1269
 4350SOL     OW24685   4.384   3.376   5.269 -0.5717 -0.5425  0.2868
 4350SOL    HW124686   4.323   3.306   5.246  0.1087 -0.9661 -0.2370
 4350SOL    HW224687   4.343   3.444   5.216  1.0856 -1.1709 -1.7860
 4351SOL     OW24688   2.261   0.589  11.072 -0.5761  0.3170 -0.2520
 4351SOL    HW124689   2.196   0.654  11.048  1.0060  2.4214  1.2131
 4351SOL    HW224690   2.296   0.565  10.986  1.7222  3.3233 -0.1375
 4352SOL     OW24691   1.967   1.530   8.727  0.0524 -0.3389 -0.2582
 4352SOL    HW124692   2.063   1.524   8.734  0.1009 -1.5852 -1.9356
 4352SOL    HW224693   1.947   1.550   8.818  1.2014 -2.8268  0.5440
 4353SOL     OW24694   1.572   1.108   5.148 -0.1437  0.0410  0.4513
 4353SOL    HW124695   1.486   1.118   5.106 -0.0534 -0.0185  0.2531
 4353SOL    HW224696   1.610   1.195   5.153 -0.8967  0.3918  0.1065
 4354SOL     OW24697   3.312   2.472   7.583  0.1549  0.4976 -0.2265
 4354SOL    HW124698   3.369   2.538   7.623 -0.6641  0.4896  0.9644
 4354SOL    HW224699   3.351   2.398   7.629 -3.2042 -1.1990 -0.0794
 4355SOL     OW24700   0.581   4.478  15.039  0.3562 -0.1059  0.3773
 4355SOL    HW124701   0.588   4.527  14.957 -0.1504 -1.8587 -0.6972
 4355SOL    HW224702   0.648   4.413  15.022  2.5515  2.6572 -1.5937
 4356SOL     OW24703   2.329   3.045   2.267 -0.1760 -0.0341  0.1960
 4356SOL    HW124704   2.391   3.073   2.334 -1.0143  1.1395  0.4884
 4356SOL    HW224705   2.367   2.965   2.232 -1.4726 -0.2208 -0.8024
 4357SOL     OW24706   0.246   0.988   8.380 -0.2724 -0.3469 -0.2388
 4357SOL    HW124707   0.276   1.035   8.303  1.2977  0.7279  1.0370
 4357SOL    HW224708   0.316   0.990   8.445 -0.1384 -2.9313 -0.3142
 4358SOL     OW24709   2.764   2.744   2.905 -0.2430  0.5851  0.3879
 4358SOL    HW124710   2.802   2.663   2.871 -0.8536 -1.0578  3.6465
 4358SOL    HW224711   2.834   2.772   2.963 -0.7672  0.7370  0.9420
 4359SOL     OW24712   1.887   1.252   5.951 -0.3353  0.3792 -0.7170
 4359SOL    HW124713   1.808   1.229   6.000 -0.1760 -0.4876 -0.8628
 4359SOL    HW224714   1.953   1.192   5.985 -1.2148 -0.3941 -0.3804
 4360SOL     OW24715   1.250   2.412   8.161  0.0657  0.1996 -0.2323
 4360SOL    HW124716   1.338   2.377   8.174 -0.8081 -2.3308 -1.1291
 4360SOL    HW224717   1.236   2.463   8.241 -0.7652  3.3388 -2.3771
 4361SOL     OW24718   0.851   1.224   7.631  0.7805 -0.4039 -0.3747
 4361SOL    HW124719   0.827   1.204   7.541  2.1158  0.6980 -0.9690
 4361SOL    HW224720   0.760   1.222   7.661  1.1557 -0.3353  0.7814
 4362SOL     OW24721   3.183   2.195   0.710  0.4551 -0.5670 -0.2521
 4362SOL    HW124722   3.197   2.269   0.769 -1.1263 -2.2411  2.2318
 4362SOL    HW224723   3.255   2.200   0.648  0.1718 -0.4813 -0.5720
 4363SOL     OW24724   0.195   0.021   7.537  0.5756 -0.3370  0.3378
 4363SOL    HW124725   0.163   4.730   7.451 -0.2970  0.7668  0.2905
 4363SOL    HW224726   0.189   4.686   7.598  0.7149 -1.3956 -0.9094
 4364SOL     OW24727   4.192   2.684   7.609 -0.7206 -0.4348 -0.0319
 4364SOL    HW124728   4.104   2.722   7.614 -0.2549  0.7579 -1.1505
 4364SOL    HW224729   4.182   2.617   7.541 -2.2728  1.6602 -1.8904
 4365SOL     OW24730   0.329   0.383   0.019  0.0934  0.4087 -0.4900
 4365SOL    HW124731   0.403   0.358  17.716 -0.0879 -0.1263 -0.4946
 4365SOL    HW224732   0.278   0.440  17.714 -0.0257 -0.5063 -1.2991
 4366SOL     OW24733   1.578   3.552   6.664  0.9969  0.3234 -0.0408
 4366SOL    HW124734   1.525   3.473   6.654  0.1367  1.0575 -1.2674
 4366SOL    HW224735   1.652   3.514   6.712  0.6446  0.0689  0.3014
 4367SOL     OW24736   3.221   3.428   5.587  1.0496 -0.2414  0.0472
 4367SOL    HW124737   3.249   3.518   5.603  0.9574 -0.2071  0.0172
 4367SOL    HW224738   3.187   3.416   5.676  0.6379 -0.0551 -0.0850
 4368SOL     OW24739   3.271   4.081   2.986 -0.2629 -0.0584 -0.4744
 4368SOL    HW124740   3.263   4.043   2.898  1.0576  1.5622 -1.2917
 4368SOL    HW224741   3.186   4.124   2.993  0.2672  1.2260 -2.0260
 4369SOL     OW24742   3.358   2.488  11.336 -0.2951  0.5642  0.2063
 4369SOL    HW124743   3.439   2.507  11.289 -0.2963 -1.2966 -0.5798
 4369SOL    HW224744   3.317   2.443  11.262 -0.9952  3.1945 -0.9779
 4370SOL     OW24745   1.204   4.044   0.854 -0.0128  0.5009 -0.2875
 4370SOL    HW124746   1.239   4.106   0.917 -1.2231 -0.4370  1.2912
 4370SOL    HW224747   1.172   3.975   0.911  2.1872  0.6210  1.0627
 4371SOL     OW24748   3.820   2.633   7.281  0.2953 -0.1593 -0.4769
 4371SOL    HW124749   3.826   2.647   7.186  1.9893  2.7107  0.0687
 4371SOL    HW224750   3.851   2.720   7.305  1.0361  0.3352 -3.2467
 4372SOL     OW24751   3.078   1.042   6.613  0.2662  0.0237 -0.2724
 4372SOL    HW124752   3.033   1.012   6.534 -0.9622 -0.2178  0.5153
 4372SOL    HW224753   3.112   1.126   6.584 -1.6102  0.4739 -1.1563
 4373SOL     OW24754   2.572   2.098   4.524 -1.0196  0.3409 -0.4733
 4373SOL    HW124755   2.489   2.142   4.507 -0.4458  1.4853 -0.3264
 4373SOL    HW224756   2.641   2.160   4.500 -0.0138 -1.2063 -1.5443
 4374SOL     OW24757   0.713   1.333   3.666  0.2079  0.8535  0.6949
 4374SOL    HW124758   0.684   1.424   3.667 -2.1586  0.1053  0.6156
 4374SOL    HW224759   0.679   1.298   3.749 -2.0912  0.8974 -0.2338
 4375SOL     OW24760   0.951   3.982   7.556  0.1970  0.6480 -0.0440
 4375SOL    HW124761   0.980   3.901   7.599  1.3271  1.9666  1.6836
 4375SOL    HW224762   0.921   4.025   7.636 -1.0922  0.5660 -0.4948
 4376SOL     OW24763   4.468   1.401   3.793  0.6136  0.1095  0.0515
 4376SOL    HW124764   4.411   1.324   3.799 -2.8421  2.6522 -0.5414
 4376SOL    HW224765   4.474   1.410   3.698  0.8262 -1.1484 -0.0524
 4377SOL     OW24766   3.312   2.459   6.354  0.6620  0.0270  0.6212
 4377SOL    HW124767   3.255   2.426   6.424 -1.1242 -1.0119 -1.3461
 4377SOL    HW224768   3.248   2.452   6.284  0.5263  2.5183  0.5044
 4378SOL     OW24769   2.327   2.602   7.155 -0.2143  0.3165  0.1398
 4378SOL    HW124770   2.351   2.563   7.071  2.9775 -3.1622  2.6308
 4378SOL    HW224771   2.399   2.664   7.165 -0.5394  0.6033  0.7354
 4379SOL     OW24772   3.287   2.261  13.589  0.3316  0.1802  0.2773
 4379SOL    HW124773   3.237   2.301  13.660 -0.7782 -0.2424 -0.2638
 4379SOL    HW224774   3.235   2.185  13.563 -0.9821  1.3029 -0.4133
 4380SOL     OW24775   1.282   0.062   9.575 -0.5408  0.5096 -0.5841
 4380SOL    HW124776   1.216   0.131   9.579 -0.5197  0.4786  0.2810
 4380SOL    HW224777   1.249   0.010   9.649  3.2724  1.1870  1.6087
 4381SOL     OW24778   0.222   2.067   3.273  0.0248  0.4000  0.0058
 4381SOL    HW124779   0.195   2.020   3.351  0.8288  0.1781  0.1470
 4381SOL    HW224780   0.260   1.992   3.228  0.1433  0.7934 -0.5625
 4382SOL     OW24781   1.204   3.211   5.354  0.3561  0.8834  0.5907
 4382SOL    HW124782   1.265   3.193   5.282 -2.0678 -1.0950 -1.0010
 4382SOL    HW224783   1.258   3.175   5.424  2.0379 -0.1527 -1.2351
 4383SOL     OW24784   1.758   0.448   2.125 -0.3577  0.1711  0.4364
 4383SOL    HW124785   1.709   0.401   2.058 -0.0810 -0.1916  0.4880
 4383SOL    HW224786   1.811   0.389   2.178  0.2154  1.2549  1.0656
 4384SOL     OW24787   3.833   0.724   1.283 -0.0807  0.4455  0.8899
 4384SOL    HW124788   3.913   0.748   1.236 -0.6347 -0.5055 -0.5396
 4384SOL    HW224789   3.824   0.630   1.264 -1.5704  0.6174  0.7307
 4385SOL     OW24790   0.716   2.947   9.812  0.6095 -0.0920  0.5134
 4385SOL    HW124791   0.792   2.992   9.849  1.8636 -0.4393 -1.6160
 4385SOL    HW224792   0.651   2.961   9.881  1.2166 -1.9624  1.4575
 4386SOL     OW24793   4.374   0.022   1.931 -0.4509  0.0795  0.0287
 4386SOL    HW124794   4.435   0.007   2.003 -2.0872 -2.6937  0.8422
 4386SOL    HW224795   4.337   4.672   1.927 -1.4252  0.5513 -1.2990
 4387SOL     OW24796   1.112   0.143   1.902 -0.1706 -0.1106 -0.6799
 4387SOL    HW124797   1.089   0.234   1.880  1.6601  0.5263  0.0489
 4387SOL    HW224798   1.206   0.134   1.887 -0.2230  0.1016 -1.1413
 4388SOL     OW24799   0.349   3.531   5.654 -0.4773 -0.1242 -0.5148
 4388SOL    HW124800   0.389   3.457   5.699  0.8059  0.8560 -0.0179
 4388SOL    HW224801   0.266   3.489   5.633 -0.6770 -0.8113  1.6947
 4389SOL     OW24802   0.532   2.944   7.915  0.3218  0.2241  0.6445
 4389SOL    HW124803   0.604   2.995   7.952 -1.0291  2.5608 -0.0123
 4389SOL    HW224804   0.583   2.868   7.885  0.2877 -0.8551  3.2899
 4390SOL     OW24805   0.673   2.834   5.615 -0.6680 -0.4770  0.1652
 4390SOL    HW124806   0.652   2.863   5.703 -0.5163  0.6189 -0.1599
 4390SOL    HW224807   0.671   2.741   5.637  1.8614  0.1880  3.1328
 4391SOL     OW24808   2.182   3.700   3.061 -0.1302  0.1241 -0.0995
 4391SOL    HW124809   2.176   3.787   3.101 -1.8390  0.9085 -2.0007
 4391SOL    HW224810   2.095   3.684   3.023 -0.5031 -0.2484  0.9073
 4392SOL     OW24811   1.385   0.893  10.828  0.0547  0.0114 -0.8997
 4392SOL    HW124812   1.385   0.959  10.759 -0.9365  1.2018  0.2419
 4392SOL    HW224813   1.425   0.818  10.785  2.1570  1.4870 -1.5041
 4393SOL     OW24814   1.817   4.307   2.663 -0.2700  0.1805  0.6158
 4393SOL    HW124815   1.900   4.316   2.709  0.8928  0.1538 -1.5039
 4393SOL    HW224816   1.829   4.215   2.639 -0.0965 -0.6070  3.6776
 4394SOL     OW24817   2.632   2.846   9.625 -0.3359  0.5589 -0.1028
 4394SOL    HW124818   2.674   2.881   9.703 -2.3511  0.3829  1.0631
 4394SOL    HW224819   2.657   2.906   9.554  0.4345  0.2463 -0.0923
 4395SOL     OW24820   1.838   2.032   9.521  0.7769  0.0823  0.2901
 4395SOL    HW124821   1.869   1.963   9.462 -0.5642 -0.4317  0.1981
 4395SOL    HW224822   1.924   2.054   9.559  1.6441  0.5503 -1.9428
 4396SOL     OW24823   4.261   0.445   1.335 -0.3533  0.0562  0.0907
 4396SOL    HW124824   4.260   0.388   1.411  2.6306 -0.9847 -0.6660
 4396SOL    HW224825   4.322   0.391   1.285 -0.3266  2.3711 -2.4186
 4397SOL     OW24826   1.060   4.136   9.660 -0.2599 -0.1685 -0.0859
 4397SOL    HW124827   1.123   4.161   9.592 -0.5723 -0.6907 -0.5663
 4397SOL    HW224828   1.000   4.209   9.646 -0.2216 -0.1004  0.0948
 4398SOL     OW24829   3.473   1.289   7.350  0.2128 -0.9644  0.2743
 4398SOL    HW124830   3.542   1.335   7.302  1.4270 -1.6556  1.3810
 4398SOL    HW224831   3.542   1.252   7.404  1.4688 -0.2068 -0.8266
 4399SOL     OW24832   4.665   0.630   3.084  0.0251 -0.0515 -0.6045
 4399SOL    HW124833   4.644   0.686   3.010 -2.4134 -0.5852 -0.3402
 4399SOL    HW224834   0.019   0.651   3.078  0.0444 -0.0908 -0.4496
 4400SOL     OW24835   2.721   0.318   8.327  0.0590 -0.1841 -0.5057
 4400SOL    HW124836   2.791   0.277   8.378 -0.0798 -0.6326 -0.6723
 4400SOL    HW224837   2.680   0.372   8.395  1.3932  0.4464 -0.1925
 4401SOL     OW24838   3.734   1.101   3.788  0.1249  0.3649  0.3566
 4401SOL    HW124839   3.747   1.117   3.881  4.6992  0.7733 -0.3568
 4401SOL    HW224840   3.802   1.037   3.768 -0.4706  0.7251 -2.8831
 4402SOL     OW24841   2.305   2.040   6.866 -0.3158  1.1330  1.0591
 4402SOL    HW124842   2.313   2.102   6.794  2.9773 -0.1287  0.3107
 4402SOL    HW224843   2.237   2.083   6.918 -0.0316  1.8633  0.8223
 4403SOL     OW24844   3.348   3.673   3.753  0.1541  0.3117 -0.5659
 4403SOL    HW124845   3.401   3.604   3.714  1.0385  0.5750  0.1707
 4403SOL    HW224846   3.388   3.747   3.707 -0.9284  0.9486 -0.4992
 4404SOL     OW24847   1.468   0.633   2.738 -0.0312 -0.0629 -0.5330
 4404SOL    HW124848   1.469   0.693   2.663  3.9390  2.9259  1.8924
 4404SOL    HW224849   1.434   0.557   2.691 -2.7153  0.5592  0.4109
 4405SOL     OW24850   4.378   3.623  14.446 -0.7684 -0.3098 -0.1383
 4405SOL    HW124851   4.446   3.562  14.419 -1.1754  0.0716 -2.0670
 4405SOL    HW224852   4.299   3.577  14.418  0.5490 -0.4403 -3.6274
 4406SOL     OW24853   1.888   4.277   1.332 -0.1996  0.5491 -0.2138
 4406SOL    HW124854   1.874   4.182   1.326 -3.6345  1.1215 -1.0702
 4406SOL    HW224855   1.983   4.285   1.342 -0.5196  4.0687  0.1175
 4407SOL     OW24856   0.791   2.209   9.397  0.2011 -0.2505 -0.0837
 4407SOL    HW124857   0.708   2.245   9.365 -0.4833 -3.3788 -1.7784
 4407SOL    HW224858   0.814   2.276   9.462 -3.6924  1.6076 -0.5944
 4408SOL     OW24859   2.621   0.146   2.963  0.5969  0.1300 -0.4369
 4408SOL    HW124860   2.584   0.092   3.034  0.7721  0.6510  0.0487
 4408SOL    HW224861   2.583   0.104   2.886 -0.0488  0.9393 -0.5620
 4409SOL     OW24862   4.005   3.295   3.986 -0.1965  0.0235  0.2929
 4409SOL    HW124863   3.929   3.314   4.041 -1.1512 -0.6110 -0.7935
 4409SOL    HW224864   3.979   3.339   3.905  1.9452 -0.8606 -0.8838
 4410SOL     OW24865   3.515   1.751  12.589  0.3206 -0.2583  0.5398
 4410SOL    HW124866   3.506   1.719  12.499 -0.7756 -1.2160  0.9952
 4410SOL    HW224867   3.610   1.763  12.592  0.3406 -0.4139  0.5110
 4411SOL     OW24868   3.330   2.675   0.876  0.3071  0.1944  0.5708
 4411SOL    HW124869   3.329   2.721   0.960  0.8623 -0.3427  0.8705
 4411SOL    HW224870   3.329   2.751   0.818  0.3897  0.1770  0.5469
 4412SOL     OW24871   1.799   3.189   6.260  0.2139 -0.0804  0.0180
 4412SOL    HW124872   1.828   3.123   6.198  0.5539  0.4994 -0.4460
 4412SOL    HW224873   1.834   3.158   6.343  0.8531  0.3721 -0.0842
 4413SOL     OW24874   4.678   3.921   2.378  0.0191  0.0064 -0.1457
 4413SOL    HW124875   4.680   3.835   2.421 -0.6297 -0.8304 -1.8014
 4413SOL    HW224876   4.586   3.921   2.354  0.3551  1.9309 -1.4096
 4414SOL     OW24877   2.121   0.669   9.278 -0.5781  0.3963 -0.2416
 4414SOL    HW124878   2.077   0.740   9.323  1.1335  1.2837  0.0222
 4414SOL    HW224879   2.110   0.602   9.346  3.6500 -1.5593 -1.4577
 4415SOL     OW24880   4.582   3.790   9.885  0.4216  0.1071 -0.1664
 4415SOL    HW124881   4.665   3.770   9.928  0.0298 -0.9736  0.0772
 4415SOL    HW224882   4.541   3.704   9.899 -1.0217  0.5648 -1.4786
 4416SOL     OW24883   4.696   0.553   3.338 -0.2441 -0.3125  0.4553
 4416SOL    HW124884   0.053   0.545   3.346 -0.1929 -1.2290 -1.2548
 4416SOL    HW224885   4.679   0.557   3.244 -0.3449  1.9433  0.5843
 4417SOL     OW24886   0.092   4.686  14.962  0.1633 -0.1777 -0.7651
 4417SOL    HW124887   0.173   4.639  14.976 -0.6469 -0.9386  1.3132
 4417SOL    HW224888   0.034   4.610  14.955  0.3444 -0.4395  0.5926
 4418SOL     OW24889   2.499   0.055  16.532  0.0767 -0.1410 -0.5000
 4418SOL    HW124890   2.578   0.059  16.479 -0.6589  1.9005 -1.4134
 4418SOL    HW224891   2.438   0.091  16.468 -1.3090 -2.5773 -0.5824
 4419SOL     OW24892   0.170   1.708  16.886  0.2900  0.4347 -0.0606
 4419SOL    HW124893   0.135   1.704  16.797 -0.6502 -0.0925  0.3286
 4419SOL    HW224894   0.262   1.731  16.878  0.2852  2.0499  4.3551
 4420SOL     OW24895   3.436   4.605   7.574  0.3490  0.0998  0.3870
 4420SOL    HW124896   3.478   4.644   7.498 -0.3182 -1.4416 -0.7691
 4420SOL    HW224897   3.345   4.632   7.558  0.0323 -1.8313 -1.0769
 4421SOL     OW24898   1.800   3.019   8.738  0.1959 -0.1810 -0.1698
 4421SOL    HW124899   1.880   3.016   8.791  0.1099  1.8180  0.0893
 4421SOL    HW224900   1.744   3.067   8.800 -1.3805 -0.5853 -1.2961
 4422SOL     OW24901   2.412   0.228   6.692 -0.5117 -0.2417 -0.0040
 4422SOL    HW124902   2.454   0.142   6.684  0.2621  0.0584  0.8377
 4422SOL    HW224903   2.488   0.285   6.699  0.6366 -1.6147 -1.1894
 4423SOL     OW24904   1.639   0.088   5.617 -0.2270 -0.6607 -0.4058
 4423SOL    HW124905   1.607   4.737   5.604  0.6928 -0.9891 -0.3778
 4423SOL    HW224906   1.560   0.120   5.661  0.1785 -0.1679 -0.0421
 4424SOL     OW24907   0.420   2.546   1.187 -0.0389 -0.4282 -0.0183
 4424SOL    HW124908   0.465   2.475   1.141 -1.3472 -0.1211 -1.7833
 4424SOL    HW224909   0.459   2.552   1.274 -1.8462  0.5117  0.7191
 4425SOL     OW24910   0.533   1.097   3.779 -0.3091 -0.2476  0.7095
 4425SOL    HW124911   0.449   1.119   3.738  1.5215  0.2101 -2.7526
 4425SOL    HW224912   0.536   1.145   3.862  2.1291  0.5564  0.1574
 4426SOL     OW24913   4.186   3.079   6.102 -0.1193  0.1461 -0.3595
 4426SOL    HW124914   4.186   3.169   6.068  1.2469  0.4640  0.4821
 4426SOL    HW224915   4.245   3.087   6.177  0.8079  0.7955 -1.1581
 4427SOL     OW24916   4.719   2.005  10.284  0.0575 -0.5240  0.4461
 4427SOL    HW124917   0.042   2.038  10.219 -1.3080  0.1155 -0.5382
 4427SOL    HW224918   0.018   2.036  10.366  0.2186 -1.3950  0.7004
 4428SOL     OW24919   1.539   3.536  11.759  0.0436 -0.1639 -0.6251
 4428SOL    HW124920   1.539   3.446  11.726 -0.1127 -1.0035  1.6496
 4428SOL    HW224921   1.575   3.587  11.686  0.4820  0.7036  0.2082
 4429SOL     OW24922   0.524   2.325   1.078  0.1777 -0.0756 -0.0172
 4429SOL    HW124923   0.560   2.241   1.104  1.3108  0.4340  0.0782
 4429SOL    HW224924   0.562   2.322   0.990  2.5833 -2.7596  1.1422
 4430SOL     OW24925   0.345   0.530   2.501  0.4711 -0.0961  0.6555
 4430SOL    HW124926   0.273   0.495   2.555 -2.0107  2.6600 -0.8589
 4430SOL    HW224927   0.421   0.507   2.554  1.1922  1.6174  0.3620
 4431SOL     OW24928   3.238   1.323   8.367 -0.1094  0.1258  0.3129
 4431SOL    HW124929   3.256   1.269   8.444 -0.2909 -1.3827 -0.7116
 4431SOL    HW224930   3.222   1.408   8.410  1.2051 -0.3474  1.7650
 4432SOL     OW24931   2.767   0.680  13.699 -0.8985 -0.1604 -0.2237
 4432SOL    HW124932   2.835   0.748  13.691  1.6918 -2.4731  2.0108
 4432SOL    HW224933   2.813   0.596  13.698 -0.3038  0.1273  2.2549
 4433SOL     OW24934   3.006   0.750  16.930 -0.0207 -0.3382 -0.4707
 4433SOL    HW124935   2.974   0.708  17.010 -1.1462 -0.4614 -0.9873
 4433SOL    HW224936   3.069   0.684  16.898 -1.2788 -0.8962 -1.8262
 4434SOL     OW24937   1.577   1.819   4.676 -0.1948 -0.1893  0.5090
 4434SOL    HW124938   1.498   1.765   4.669 -0.5380  0.0602  2.6296
 4434SOL    HW224939   1.612   1.784   4.758 -1.2466 -0.1361  0.9881
 4435SOL     OW24940   0.952   0.927  14.081 -0.1207 -0.1601 -0.1687
 4435SOL    HW124941   0.875   0.914  14.026 -1.2949 -0.8265  1.6163
 4435SOL    HW224942   0.967   1.020  14.066 -1.7195  0.3147  1.2064
 4436SOL     OW24943   2.176   2.051   1.697  0.2958  0.3819 -0.4692
 4436SOL    HW124944   2.221   1.967   1.696  2.5111  1.5178  2.3823
 4436SOL    HW224945   2.111   2.041   1.767  0.1047  1.7124 -0.4427
 4437SOL     OW24946   3.826   2.239   5.774  0.1223  0.8573 -0.2799
 4437SOL    HW124947   3.736   2.245   5.805 -0.2821  2.1819 -1.6528
 4437SOL    HW224948   3.821   2.249   5.678 -0.7473 -2.0984 -0.5275
 4438SOL     OW24949   2.419   2.704  10.970 -0.3327  0.4400  0.5372
 4438SOL    HW124950   2.355   2.655  10.918 -0.4981  1.6823 -0.4370
 4438SOL    HW224951   2.485   2.640  10.994 -2.5407 -2.9435 -2.3788
 4439SOL     OW24952   3.266   3.303   5.188  0.1530 -0.3852 -0.0585
 4439SOL    HW124953   3.274   3.251   5.107 -2.9850 -2.2003  0.7912
 4439SOL    HW224954   3.273   3.233   5.253 -0.3637 -0.5756 -0.2063
 4440SOL     OW24955   2.614   1.569   0.587  0.0193  0.1447 -0.5536
 4440SOL    HW124956   2.596   1.595   0.497 -0.7716  0.5193 -0.2928
 4440SOL    HW224957   2.621   1.653   0.633  0.8785 -0.3024  0.1227
 4441SOL     OW24958   3.005   2.709   7.048  0.4281 -0.0755  0.1875
 4441SOL    HW124959   3.000   2.671   7.135 -0.9574  0.3641  0.3082
 4441SOL    HW224960   3.092   2.674   7.027  0.7878  0.7720  0.3044
 4442SOL     OW24961   2.380   4.150   3.055  0.1619 -0.8386  0.3729
 4442SOL    HW124962   2.430   4.190   3.126 -0.1993 -0.4752  0.4152
 4442SOL    HW224963   2.450   4.124   2.994  2.1907  0.6009  2.0931
 4443SOL     OW24964   1.665   0.602  13.789 -0.2035  0.1043  0.2917
 4443SOL    HW124965   1.671   0.543  13.865  1.0268 -1.2237 -0.8504
 4443SOL    HW224966   1.757   0.608  13.765 -0.2627 -0.1556 -0.0020
 4444SOL     OW24967   2.492   3.606   8.090 -0.0534 -0.3039 -0.1567
 4444SOL    HW124968   2.443   3.688   8.102  1.8177  0.6793  0.8871
 4444SOL    HW224969   2.493   3.593   7.995 -1.1022  0.7757 -0.3109
 4445SOL     OW24970   0.235   0.916   2.209 -0.0963  0.1715  0.2924
 4445SOL    HW124971   0.233   1.003   2.168  1.9968 -0.6314 -1.4904
 4445SOL    HW224972   0.140   0.902   2.220  0.3379 -2.0579  1.1461
 4446SOL     OW24973   3.029   0.395  15.324  0.4498  0.2526  0.0192
 4446SOL    HW124974   3.108   0.383  15.378  1.6390  1.2835 -1.4951
 4446SOL    HW224975   3.003   0.475  15.369  0.4846  0.7541 -0.8661
 4447SOL     OW24976   3.022   3.161   2.016  0.1814 -0.1351  0.3254
 4447SOL    HW124977   2.981   3.196   2.095 -0.0666  0.0717  0.1051
 4447SOL    HW224978   3.010   3.229   1.950  0.3500 -1.4506 -1.0606
 4448SOL     OW24979   0.542   0.642   1.773  0.0071  0.5435 -0.4606
 4448SOL    HW124980   0.476   0.688   1.825  1.3693  1.2187  0.6863
 4448SOL    HW224981   0.592   0.717   1.739  2.3669 -0.6132  0.4067
 4449SOL     OW24982   1.459   3.413   7.604  0.3480  0.4102 -0.3689
 4449SOL    HW124983   1.468   3.377   7.692  0.4871  0.0760 -0.5163
 4449SOL    HW224984   1.447   3.504   7.631  1.2592  0.6634 -0.8083
 4450SOL     OW24985   3.877   3.023   9.607 -0.0278  0.1625  0.4690
 4450SOL    HW124986   3.793   2.983   9.629  0.5022 -1.9163 -1.3016
 4450SOL    HW224987   3.922   3.004   9.689  2.0477 -0.1301 -0.7410
 4451SOL     OW24988   1.696   4.555  10.538 -0.1825 -0.0858 -0.3693
 4451SOL    HW124989   1.677   4.465  10.512  0.4431 -1.2927  3.2850
 4451SOL    HW224990   1.615   4.593  10.505 -0.4331  0.5722  0.9816
 4452SOL     OW24991   3.260   0.627  15.045  0.2033  0.4485 -0.5819
 4452SOL    HW124992   3.341   0.659  15.004  0.5496  0.3488  0.0320
 4452SOL    HW224993   3.303   0.579  15.116  1.8174  1.4160 -0.9048
 4453SOL     OW24994   4.377   3.351   5.855  0.2502 -0.1552 -0.4731
 4453SOL    HW124995   4.334   3.319   5.934  1.8686 -2.9008 -0.6804
 4453SOL    HW224996   4.332   3.300   5.787 -1.2362 -0.9680  1.1059
 4454SOL     OW24997   2.955   1.882   4.444 -0.0576 -0.3360 -0.2643
 4454SOL    HW124998   2.968   1.802   4.497  1.5148  1.2388  1.7250
 4454SOL    HW224999   2.860   1.889   4.440  0.0431  0.8438 -0.4261
 4455SOL     OW25000   3.267   4.584   3.603 -0.1466 -0.6622  0.8273
 4455SOL    HW125001   3.309   4.546   3.525  0.1829  1.6547 -0.1296
 4455SOL    HW225002   3.225   4.506   3.640 -1.8086 -0.0976  0.1515
 4456SOL     OW25003   1.348   2.007   9.077  0.2985 -0.0016  0.5059
 4456SOL    HW125004   1.336   1.936   9.140  0.6204 -0.3335  0.1935
 4456SOL    HW225005   1.311   1.968   8.998  0.3308  0.5884  0.2044
 4457SOL     OW25006   4.186   2.949   7.306 -0.2976 -0.6442 -0.5003
 4457SOL    HW125007   4.185   3.042   7.282 -1.7763 -0.7652 -0.9700
 4457SOL    HW225008   4.210   2.950   7.398 -1.1848 -0.9568 -0.2601
 4458SOL     OW25009   2.411   0.333   9.762  0.0113 -0.3913  0.2565
 4458SOL    HW125010   2.384   0.275   9.691  0.6612 -1.0929  0.5832
 4458SOL    HW225011   2.403   0.277   9.840 -2.9025 -1.2188 -0.6144
 4459SOL     OW25012   3.684   2.540  12.015  0.0073 -0.3110  0.2503
 4459SOL    HW125013   3.623   2.606  12.049 -0.5754 -0.9068  0.3593
 4459SOL    HW225014   3.626   2.472  11.982  0.1483 -0.4006  0.1882
 4460SOL     OW25015   2.544   4.212  15.663 -0.1383 -0.1845  0.1407
 4460SOL    HW125016   2.477   4.280  15.666  0.0372 -0.0090  0.1402
 4460SOL    HW225017   2.597   4.246  15.591  0.8704  0.9496  1.4068
 4461SOL     OW25018   0.898   3.883   9.642 -0.4345  0.1164 -0.5321
 4461SOL    HW125019   0.888   3.791   9.617  2.7590  0.1830 -1.9713
 4461SOL    HW225020   0.817   3.929   9.621  0.1245  1.1360 -0.4300
 4462SOL     OW25021   3.038   0.855  17.707  0.2620 -0.1700  0.1309
 4462SOL    HW125022   2.993   0.908   0.021  0.3439 -0.5849  0.5196
 4462SOL    HW225023   3.031   0.766  17.740  1.2754  0.1425  1.2124
 4463SOL     OW25024   1.478   2.613   8.275  0.0017 -0.1656 -0.3976
 4463SOL    HW125025   1.387   2.642   8.278 -0.3809 -1.1168 -2.6244
 4463SOL    HW225026   1.491   2.602   8.181 -0.1150  0.4497 -0.4838
 4464SOL     OW25027   2.517   0.011   8.894  0.4671 -0.1996  0.0286
 4464SOL    HW125028   2.564   4.709   8.821 -0.5544 -1.9473  0.3408
 4464SOL    HW225029   2.560   4.708   8.969  0.4141  1.8653  1.2068
 4465SOL     OW25030   3.943   0.909   2.460 -0.4420 -0.2290  0.3106
 4465SOL    HW125031   4.019   0.879   2.411  0.2388  2.7393 -0.4643
 4465SOL    HW225032   3.894   0.829   2.478 -1.0754 -0.0207 -0.4929
 4466SOL     OW25033   2.635   3.582  10.502  0.4687  0.0647  0.4629
 4466SOL    HW125034   2.695   3.511  10.524 -0.9376 -0.7786  1.5611
 4466SOL    HW225035   2.554   3.545  10.535 -0.2525 -1.5181 -3.0189
 4467SOL     OW25036   1.454   1.357   9.497  0.0378 -0.3367 -0.1799
 4467SOL    HW125037   1.402   1.435   9.517  1.0100 -0.0863  1.3573
 4467SOL    HW225038   1.477   1.356   9.404 -1.1430 -0.8984 -0.4656
 4468SOL     OW25039   4.675   2.902  17.535  0.3118  0.2252 -0.0073
 4468SOL    HW125040   4.695   2.906  17.441 -1.0655 -0.3472 -0.3182
 4468SOL    HW225041   4.650   2.993  17.551  2.6879  1.2056 -1.7252
 4469SOL     OW25042   2.082   3.863  12.057 -0.5458  0.3213  0.7260
 4469SOL    HW125043   2.103   3.770  12.065  1.8866  0.6076 -2.2739
 4469SOL    HW225044   2.165   3.893  12.021 -1.7516 -0.3860 -2.6341
 4470SOL     OW25045   2.711   4.592   2.638  0.1044 -0.0461 -0.6142
 4470SOL    HW125046   2.714   4.674   2.689 -1.0748  0.7869 -1.8795
 4470SOL    HW225047   2.708   4.613   2.545 -0.0662 -0.9574 -0.8140
 4471SOL     OW25048   3.646   2.515   5.093 -0.3605  0.2135  0.8826
 4471SOL    HW125049   3.701   2.547   5.164  1.3027  1.0588 -0.7923
 4471SOL    HW225050   3.703   2.449   5.053  1.1381  0.0595  3.3167
 4472SOL     OW25051   0.881   1.042  11.926 -0.5390 -0.1483  0.2294
 4472SOL    HW125052   0.894   0.957  11.966 -2.7669 -0.8005 -0.3906
 4472SOL    HW225053   0.972   1.070  11.932 -0.9076  1.6012 -2.3107
 4473SOL     OW25054   2.327   2.566   9.154  0.4237 -0.2030 -0.6771
 4473SOL    HW125055   2.260   2.577   9.087 -0.6153 -1.6801  0.1198
 4473SOL    HW225056   2.396   2.561   9.088  0.3924 -0.3717 -0.6953
 4474SOL     OW25057   3.639   2.315   8.789 -0.2660  0.2514  0.4955
 4474SOL    HW125058   3.711   2.254   8.809 -1.4458 -2.0761 -2.3880
 4474SOL    HW225059   3.688   2.395   8.810  0.1627  0.1511 -0.1350
 4475SOL     OW25060   3.523   3.267   7.486  0.3002 -0.4782 -0.1077
 4475SOL    HW125061   3.434   3.291   7.463 -0.8529 -1.3096  3.5009
 4475SOL    HW225062   3.518   3.172   7.488 -1.2308 -0.3234  3.5125
 4476SOL     OW25063   1.677   1.885   3.780 -0.3863 -0.9870 -0.3112
 4476SOL    HW125064   1.760   1.896   3.733  1.6321  1.1276  3.7194
 4476SOL    HW225065   1.678   1.790   3.790 -0.5228 -1.1068 -1.5322
 4477SOL     OW25066   0.819   2.639   7.011 -0.2470  0.5114 -0.0933
 4477SOL    HW125067   0.777   2.692   7.079  2.9096 -0.8690  2.9228
 4477SOL    HW225068   0.796   2.553   7.047 -0.3815  1.1492  1.3258
 4478SOL     OW25069   1.584   2.629  17.325 -0.0122 -0.4080 -0.6548
 4478SOL    HW125070   1.530   2.657  17.398  1.4317 -0.8993  0.5867
 4478SOL    HW225071   1.538   2.659  17.246 -0.5207 -0.7995 -0.5085
 4479SOL     OW25072   2.989   1.143   8.199 -0.2337  0.3871  0.2600
 4479SOL    HW125073   3.075   1.102   8.196 -0.0195  0.7471  1.3679
 4479SOL    HW225074   2.955   1.113   8.115 -1.8966  0.0898  1.0281
 4480SOL     OW25075   4.702   0.156   4.758  0.4956  0.3303 -0.2006
 4480SOL    HW125076   4.647   0.087   4.721 -0.5380  1.8094 -1.4012
 4480SOL    HW225077   0.016   0.111   4.824 -0.3696  0.4685  0.5875
 4481SOL     OW25078   2.214   2.656  15.638 -0.3024  0.4871  1.0587
 4481SOL    HW125079   2.196   2.750  15.630  1.7612  0.9306  1.4448
 4481SOL    HW225080   2.196   2.621  15.551  1.3812 -0.6221  1.1567
 4482SOL     OW25081   1.470   3.723   6.853  0.0315 -1.1095  0.2180
 4482SOL    HW125082   1.489   3.677   6.935  1.2733 -0.8885  0.0565
 4482SOL    HW225083   1.512   3.660   6.795 -0.1122 -1.1901  0.2002
 4483SOL     OW25084   3.664   0.922  11.811 -0.5318 -0.6513  0.5596
 4483SOL    HW125085   3.744   0.964  11.780  0.2813 -2.1036  0.6754
 4483SOL    HW225086   3.634   0.881  11.730 -0.2220 -0.2978  0.2683
 4484SOL     OW25087   0.916   1.867   7.452  0.8299 -0.1161  0.4760
 4484SOL    HW125088   0.969   1.832   7.523  1.1598 -1.4321 -0.3992
 4484SOL    HW225089   0.923   1.961   7.469  1.4228 -0.4374  1.9940
 4485SOL     OW25090   1.326   2.415   6.491  0.5291 -0.1090 -0.5249
 4485SOL    HW125091   1.285   2.501   6.485  0.5078  0.0273  1.5872
 4485SOL    HW225092   1.415   2.450   6.493 -0.1258  1.4515  1.0831
 4486SOL     OW25093   3.459   0.624   3.885  0.7275  0.4186  0.7792
 4486SOL    HW125094   3.380   0.583   3.922 -0.0526 -0.7866 -2.2440
 4486SOL    HW225095   3.516   0.550   3.867  0.4991  0.7433 -1.2602
 4487SOL     OW25096   4.451   0.228   3.513 -0.0814 -0.3703 -0.4865
 4487SOL    HW125097   4.380   0.213   3.575 -1.1766 -0.5123 -1.7767
 4487SOL    HW225098   4.511   0.200   3.582 -0.1147 -1.6130 -0.9577
 4488SOL     OW25099   4.500   1.127  12.519 -0.4549  0.2085 -0.2340
 4488SOL    HW125100   4.463   1.146  12.432  2.1388  1.0025 -1.1552
 4488SOL    HW225101   4.588   1.112  12.485 -0.2182  0.7774  0.1399
 4489SOL     OW25102   2.657   4.493   7.988  0.1075 -0.1372  0.0310
 4489SOL    HW125103   2.635   4.542   7.908 -1.4650  1.3210  1.3718
 4489SOL    HW225104   2.752   4.496   7.977 -0.0690 -1.0337 -1.7686
 4490SOL     OW25105   2.928   1.190   0.338 -0.4332 -0.0675  0.3199
 4490SOL    HW125106   2.855   1.235   0.296  1.3458 -0.1757 -2.8781
 4490SOL    HW225107   2.990   1.220   0.271 -0.6485  1.0150  0.5949
 4491SOL     OW25108   0.322   3.525   6.467  0.1541  0.4398  0.6075
 4491SOL    HW125109   0.410   3.514   6.431 -0.1425 -0.8821  0.2966
 4491SOL    HW225110   0.298   3.590   6.401  2.4308  0.8015  0.1302
 4492SOL     OW25111   3.243   4.628   7.125  0.6913  0.2269  0.3356
 4492SOL    HW125112   3.185   4.701   7.148  1.3715  1.0395 -0.5224
 4492SOL    HW225113   3.319   4.634   7.184  0.1338 -0.6978  1.1583
 4493SOL     OW25114   2.679   2.762   5.438 -0.0514 -0.4878  0.4210
 4493SOL    HW125115   2.596   2.718   5.420 -0.1033 -0.1650 -0.1240
 4493SOL    HW225116   2.674   2.834   5.375  0.3289  0.5368  1.5590
 4494SOL     OW25117   2.403   0.808   5.995  0.2310  0.3131 -0.1007
 4494SOL    HW125118   2.386   0.887   6.047 -1.6465 -1.3775  1.8422
 4494SOL    HW225119   2.334   0.749   6.024  0.7366 -0.0838  0.2897
 4495SOL     OW25120   1.782   1.583   1.625 -0.4745  0.1955  0.5472
 4495SOL    HW125121   1.733   1.572   1.543 -0.1683  1.0217  0.2490
 4495SOL    HW225122   1.734   1.661   1.656  0.2501  0.6713  0.4657
 4496SOL     OW25123   3.477   1.011   7.897 -0.2908 -0.4705  0.6870
 4496SOL    HW125124   3.447   0.961   7.821  1.6964  0.1318 -0.4879
 4496SOL    HW225125   3.535   0.946   7.937 -1.1034 -2.7888 -1.8657
 4497SOL     OW25126   4.454   4.234   2.599  1.3024 -0.3810  0.1170
 4497SOL    HW125127   4.480   4.158   2.650 -1.4891  0.8055  3.2547
 4497SOL    HW225128   4.435   4.306   2.658 -1.1067  1.5507 -3.0195
 4498SOL     OW25129   2.566   4.376   1.107 -0.0322  0.7328 -0.4765
 4498SOL    HW125130   2.531   4.457   1.069 -0.1464  0.2521 -1.3993
 4498SOL    HW225131   2.579   4.402   1.198  1.2797  2.5197 -1.1722
 4499SOL     OW25132   3.254   3.901   8.977  0.1770 -0.5535 -0.0256
 4499SOL    HW125133   3.284   3.883   9.066 -0.8276  1.4820  0.7226
 4499SOL    HW225134   3.194   3.826   8.969 -0.7722  0.5264 -3.0804
 4500SOL     OW25135   0.568   2.569   4.112 -0.1949  0.4691 -0.4520
 4500SOL    HW125136   0.535   2.526   4.191  0.1612  0.8085 -0.1191
 4500SOL    HW225137   0.652   2.522   4.118 -0.8890 -0.6094  0.7844
 4501SOL     OW25138   1.072   3.848   3.832 -0.0306  0.6730 -1.0322
 4501SOL    HW125139   1.162   3.876   3.847  1.0006 -3.7805  1.0818
 4501SOL    HW225140   1.031   3.841   3.918 -2.3181  0.9484 -2.0832
 4502SOL     OW25141   2.418   3.707   8.763  0.2895  0.3864 -0.3483
 4502SOL    HW125142   2.371   3.666   8.690 -0.0033 -1.9786  1.1535
 4502SOL    HW225143   2.477   3.769   8.721  0.4675 -0.0234 -0.7026
 4503SOL     OW25144   0.920   1.463   6.315 -0.7223  0.3659  0.3408
 4503SOL    HW125145   0.992   1.431   6.260  0.4108  0.6331  1.6707
 4503SOL    HW225146   0.910   1.396   6.383  2.1808 -2.9988 -2.5403
 4504SOL     OW25147   2.240   2.742  10.640  0.2973  0.3597 -0.2654
 4504SOL    HW125148   2.236   2.834  10.616 -2.7466  0.7456  1.6604
 4504SOL    HW225149   2.334   2.729  10.628 -0.0761 -0.5124 -2.3197
 4505SOL     OW25150   3.354   1.571   7.888  0.6072  0.0986 -0.3546
 4505SOL    HW125151   3.329   1.478   7.890  0.2494  0.2663  2.2792
 4505SOL    HW225152   3.279   1.608   7.842  0.1183 -0.7173 -0.2187
 4506SOL     OW25153   3.785   0.989   5.495  0.0365  0.1876 -0.0230
 4506SOL    HW125154   3.776   0.994   5.590 -1.1534  1.1384 -0.1912
 4506SOL    HW225155   3.868   0.943   5.485  0.6824  0.8081  2.3685
 4507SOL     OW25156   0.274   1.611   6.028  0.0919  0.2506  0.0448
 4507SOL    HW125157   0.369   1.607   6.043  0.3419  2.0362 -1.0509
 4507SOL    HW225158   0.255   1.529   6.073 -0.6248  1.9805  2.8750
 4508SOL     OW25159   1.327   4.137   2.260  0.0326  0.1524  0.5295
 4508SOL    HW125160   1.356   4.198   2.328 -1.9362  2.4985 -0.7241
 4508SOL    HW225161   1.296   4.068   2.318 -1.1447 -2.0108 -2.7250
 4509SOL     OW25162   4.616   3.843   6.424 -0.9323 -0.2586 -0.4163
 4509SOL    HW125163   4.613   3.751   6.398  0.2702 -0.7413  1.1303
 4509SOL    HW225164   4.529   3.849   6.462 -0.2120 -0.6043  1.3002
 4510SOL     OW25165   4.552   3.976   4.412 -0.3278 -0.1864 -0.0484
 4510SOL    HW125166   4.499   4.037   4.463  1.1269 -0.3387  1.6637
 4510SOL    HW225167   4.579   3.906   4.471  0.3664  1.0375  1.0883
 4511SOL     OW25168   0.297   1.535   4.855  0.6098 -0.3528 -0.1484
 4511SOL    HW125169   0.299   1.600   4.925  0.3007  1.1196 -1.5213
 4511SOL    HW225170   0.204   1.509   4.852  0.3143  0.7349 -0.2079
 4512SOL     OW25171   3.562   1.138   4.202  0.1220  0.1023  0.4529
 4512SOL    HW125172   3.499   1.206   4.177 -0.0072  0.4609  1.7510
 4512SOL    HW225173   3.629   1.170   4.140  2.1925  1.1164  3.2077
 4513SOL     OW25174   2.280   0.983   9.635 -0.0136 -0.2266  0.3232
 4513SOL    HW125175   2.244   0.895   9.652 -1.0213 -0.1812 -1.6110
 4513SOL    HW225176   2.362   0.975   9.684 -1.2398 -3.1788  1.9342
 4514SOL     OW25177   0.198   4.186  12.456 -0.7656 -0.0040  0.6771
 4514SOL    HW125178   0.277   4.176  12.402 -0.8674  0.2241  0.4895
 4514SOL    HW225179   0.173   4.278  12.450 -0.7961 -0.2034 -2.2878
 4515SOL     OW25180   1.234   3.896   4.894 -0.3837  0.2785  0.0405
 4515SOL    HW125181   1.141   3.916   4.884 -0.2562  0.8064 -0.1090
 4515SOL    HW225182   1.279   3.966   4.845  0.8683 -0.3302  0.3079
 4516SOL     OW25183   2.738   4.631  11.479  0.0516  0.1024 -0.4023
 4516SOL    HW125184   2.706   4.721  11.483  0.4002  0.3040 -1.8781
 4516SOL    HW225185   2.831   4.646  11.496 -0.8993  3.5874  1.7972
 4517SOL     OW25186   4.708   4.477   8.772 -0.1767  0.3117 -0.1200
 4517SOL    HW125187   4.649   4.406   8.796 -1.2619  0.6978 -1.6897
 4517SOL    HW225188   4.695   4.537   8.846  1.6777  0.1334  0.3453
 4518SOL     OW25189   1.683   2.933   6.159  0.2176 -0.0399 -0.3826
 4518SOL    HW125190   1.731   2.866   6.208 -1.3867 -0.5125  0.5469
 4518SOL    HW225191   1.737   2.943   6.081 -0.5647  2.7461 -0.5617
 4519SOL     OW25192   4.486   0.708   5.670 -0.6853 -0.4653 -0.3585
 4519SOL    HW125193   4.507   0.691   5.579  1.1747  1.7386 -0.3436
 4519SOL    HW225194   4.547   0.654   5.719 -0.0467 -0.4925 -1.1968
 4520SOL     OW25195   4.427   0.710   6.177 -0.0860  0.4933 -0.0839
 4520SOL    HW125196   4.337   0.717   6.145 -1.2796 -1.3036  2.8705
 4520SOL    HW225197   4.447   0.624   6.139  0.9707  1.3865 -1.5324
 4521SOL     OW25198   3.939   2.744   7.613  0.0237 -0.1365  0.1401
 4521SOL    HW125199   3.879   2.673   7.636  0.5482 -0.0323  1.8418
 4521SOL    HW225200   3.932   2.746   7.518 -0.3419 -0.8171  0.1537
 4522SOL     OW25201   4.301   1.515   1.552  0.0865  0.9220 -0.5577
 4522SOL    HW125202   4.310   1.601   1.593  1.9766  0.4760 -0.0574
 4522SOL    HW225203   4.389   1.481   1.539  0.7085  3.0836 -1.9541
 4523SOL     OW25204   3.517   2.064   7.879  0.6430 -0.2969 -0.5295
 4523SOL    HW125205   3.491   1.972   7.886 -2.2136  0.5147 -0.7227
 4523SOL    HW225206   3.523   2.054   7.784 -0.0027 -0.6138 -0.5349
 4524SOL     OW25207   0.615   2.750  16.411 -0.2157 -0.2496  0.5363
 4524SOL    HW125208   0.632   2.702  16.330  1.2696 -0.6959  1.1187
 4524SOL    HW225209   0.618   2.841  16.382 -0.7628 -1.1055 -2.2451
 4525SOL     OW25210   3.233   2.259  12.411 -0.2694  0.7700 -0.1697
 4525SOL    HW125211   3.238   2.347  12.447  2.0570 -0.0128  1.3975
 4525SOL    HW225212   3.144   2.266  12.377 -0.8377 -1.9290  0.7284
 4526SOL     OW25213   1.489   1.081  16.645  0.0077 -0.1411 -0.0346
 4526SOL    HW125214   1.558   1.089  16.711  1.3673  2.8665 -1.8166
 4526SOL    HW225215   1.513   1.003  16.594 -0.7286 -0.9817  0.8996
 4527SOL     OW25216   0.513   1.720   8.597  0.1752 -0.2536  0.4726
 4527SOL    HW125217   0.463   1.640   8.612 -1.4173  0.7342  0.4094
 4527SOL    HW225218   0.584   1.689   8.541 -1.2487 -0.5838 -1.1447
 4528SOL     OW25219   4.127   2.269   9.557 -0.6107 -0.1960  0.3464
 4528SOL    HW125220   4.044   2.314   9.575 -0.6470  0.7922 -2.3090
 4528SOL    HW225221   4.153   2.301   9.471 -1.9049 -0.9742 -0.3263
 4529SOL     OW25222   1.370   3.638   9.833 -0.4161  0.2782  0.0956
 4529SOL    HW125223   1.281   3.671   9.824 -0.9109 -0.8329  0.9731
 4529SOL    HW225224   1.426   3.707   9.796 -0.4619  0.1342 -0.2459
 4530SOL     OW25225   2.784   4.355   5.473 -0.1853 -0.0174 -0.0470
 4530SOL    HW125226   2.785   4.434   5.419 -0.1118  0.1622  0.2162
 4530SOL    HW225227   2.811   4.291   5.407  1.6761 -1.1978  1.8565
 4531SOL     OW25228   1.675   3.340  12.394  0.1469  0.3056  0.5429
 4531SOL    HW125229   1.662   3.434  12.392  2.3239  0.5994  0.0748
 4531SOL    HW225230   1.687   3.330  12.300  0.1159  1.9824  0.3696
 4532SOL     OW25231   1.303   0.122   3.471 -0.0197  0.6553 -0.2051
 4532SOL    HW125232   1.307   0.063   3.546 -0.0868  1.5489  0.5004
 4532SOL    HW225233   1.241   0.186   3.507  2.6372  2.4467  1.2057
 4533SOL     OW25234   2.195   1.064   3.892 -0.4205 -0.2923 -0.2806
 4533SOL    HW125235   2.196   1.097   3.981  1.7835 -0.4438 -0.2478
 4533SOL    HW225236   2.283   1.087   3.860  0.8329 -1.2571  2.5403
 4534SOL     OW25237   3.643   1.290  10.541  0.2162 -0.1590  0.4440
 4534SOL    HW125238   3.717   1.236  10.568  0.8057  0.8642  0.8603
 4534SOL    HW225239   3.572   1.257  10.596  0.6512 -1.2905  0.3208
 4535SOL     OW25240   1.431   3.617   4.185 -0.4857 -0.1867  0.6811
 4535SOL    HW125241   1.434   3.579   4.097  1.1175 -1.8865  1.4656
 4535SOL    HW225242   1.406   3.545   4.242 -0.1478 -1.1689 -0.4125
 4536SOL     OW25243   2.234   3.740   2.177  0.4301 -0.2725 -0.4111
 4536SOL    HW125244   2.243   3.651   2.144  0.1247  0.0409 -1.3188
 4536SOL    HW225245   2.172   3.726   2.249  0.2098  1.5199 -0.2643
 4537SOL     OW25246   0.655   1.715  17.028  0.2984 -0.5202  0.0446
 4537SOL    HW125247   0.718   1.786  17.031  1.2667 -1.3271 -1.6041
 4537SOL    HW225248   0.713   1.641  17.011 -0.4691 -0.5779 -2.2432
 4538SOL     OW25249   1.889   1.545  16.759 -0.1211 -0.3736 -0.0298
 4538SOL    HW125250   1.982   1.567  16.764 -0.0220 -0.9948  0.9048
 4538SOL    HW225251   1.872   1.587  16.675 -0.9801  0.3745  0.5173
 4539SOL     OW25252   4.694   4.469   7.056 -0.7846  0.4425 -0.0113
 4539SOL    HW125253   0.043   4.468   7.016 -1.3060 -0.6214 -1.1276
 4539SOL    HW225254   4.688   4.392   7.112  1.6320  0.0776 -0.2873
 4540SOL     OW25255   4.172   4.397  12.742  0.0754  0.1365  0.7334
 4540SOL    HW125256   4.235   4.344  12.791 -1.0105 -2.9195 -1.2056
 4540SOL    HW225257   4.102   4.333  12.728  0.3365  0.0046  0.0358
 4541SOL     OW25258   0.417   0.323   5.479  0.0635 -0.2755 -0.0549
 4541SOL    HW125259   0.376   0.258   5.421 -3.5208  0.5696  1.5118
 4541SOL    HW225260   0.480   0.366   5.421  0.0244  1.8797  1.5303
 4542SOL     OW25261   0.416   2.237   2.924  0.2366  0.3840  0.1369
 4542SOL    HW125262   0.358   2.312   2.931  1.3324  1.1394  1.2451
 4542SOL    HW225263   0.370   2.153   2.923 -0.4024  0.7218  1.2692
 4543SOL     OW25264   1.287   4.228   6.855  0.7966 -0.3537 -0.1062
 4543SOL    HW125265   1.237   4.262   6.929  0.4602 -1.2825  0.0947
 4543SOL    HW225266   1.330   4.156   6.903 -1.9521 -2.9137 -1.5313
 4544SOL     OW25267   3.356   2.469   1.279 -0.1728  0.0011 -0.8699
 4544SOL    HW125268   3.379   2.387   1.235  0.3500 -0.7799  0.8666
 4544SOL    HW225269   3.425   2.529   1.252 -0.8650  1.5442  0.7956
 4545SOL     OW25270   0.672   1.382   3.254  0.4261  0.3501  0.3391
 4545SOL    HW125271   0.715   1.313   3.204 -1.6055 -0.2017 -0.6363
 4545SOL    HW225272   0.622   1.328   3.315 -0.0715  0.4050 -0.0287
 4546SOL     OW25273   4.477   3.327   0.164 -0.4278  0.5988 -0.3552
 4546SOL    HW125274   4.523   3.298   0.242  1.7499 -3.2941 -3.0853
 4546SOL    HW225275   4.424   3.247   0.158  1.1200 -0.6882  3.2656
 4547SOL     OW25276   3.613   4.216   1.614 -0.7600  0.4175 -0.4075
 4547SOL    HW125277   3.671   4.266   1.672 -0.6107  0.6505 -0.7539
 4547SOL    HW225278   3.660   4.232   1.532 -1.2877  1.6847 -0.4730
 4548SOL     OW25279   3.960   0.066   7.172 -0.0590  0.0904 -0.4992
 4548SOL    HW125280   3.961   4.714   7.201 -0.1543  0.5364  0.8882
 4548SOL    HW225281   3.992   0.053   7.083  1.1925 -0.9362  0.1061
 4549SOL     OW25282   3.630   4.274  11.619  0.5769 -0.4940 -0.3868
 4549SOL    HW125283   3.663   4.363  11.633  1.8247 -0.5429 -3.0249
 4549SOL    HW225284   3.570   4.290  11.546 -0.3764  0.9359  0.7119
 4550SOL     OW25285   2.467   2.363   6.061 -0.0249 -0.3256 -0.0069
 4550SOL    HW125286   2.489   2.271   6.044  1.0865 -0.3019  1.4091
 4550SOL    HW225287   2.408   2.389   5.990  1.0436  2.4466  0.1551
 4551SOL     OW25288   0.065   4.532  11.763  0.5197 -1.0498  0.0975
 4551SOL    HW125289   0.085   4.597  11.830 -1.3898  1.4709 -1.7585
 4551SOL    HW225290   0.083   4.580  11.682  2.0379 -2.0212 -0.1408
 4552SOL     OW25291   4.370   0.117  11.137  0.4045  0.2860  0.4650
 4552SOL    HW125292   4.395   0.063  11.062 -1.3996  0.4896 -0.2862
 4552SOL    HW225293   4.452   0.165  11.126  1.1934 -1.6764 -2.3190
 4553SOL     OW25294   1.573   1.330   8.461 -0.6198  0.7008 -0.3855
 4553SOL    HW125295   1.557   1.304   8.370  0.0343  0.8488 -0.5484
 4553SOL    HW225296   1.594   1.245   8.501 -0.0758  1.1536  0.2844
 4554SOL     OW25297   2.784   0.543   4.505 -0.3911  0.2178 -0.1204
 4554SOL    HW125298   2.725   0.617   4.492 -1.1940 -0.3466  0.2993
 4554SOL    HW225299   2.747   0.507   4.586 -2.2473  1.1803 -0.5486
 4555SOL     OW25300   2.447   2.943  10.772  0.0930  0.3448  0.0297
 4555SOL    HW125301   2.420   2.890  10.848 -3.4310  3.2409  0.7817
 4555SOL    HW225302   2.518   2.887  10.741  0.6481  0.4426  1.1099
 4556SOL     OW25303   3.155   1.014  16.970  0.2376  0.7825  0.3105
 4556SOL    HW125304   3.120   1.028  17.058  0.1522 -0.7591  0.5106
 4556SOL    HW225305   3.115   0.931  16.944  1.6935 -0.2476  1.3286
 4557SOL     OW25306   0.614   0.573  11.858 -0.5780 -0.2597 -0.9305
 4557SOL    HW125307   0.589   0.629  11.785 -1.2745 -1.2664 -1.4553
 4557SOL    HW225308   0.667   0.635  11.908  0.1168 -1.0061 -0.7295
 4558SOL     OW25309   1.290   0.611  11.969 -0.1382  0.6477 -0.0075
 4558SOL    HW125310   1.235   0.652  11.902  0.2128 -0.5568 -1.0376
 4558SOL    HW225311   1.377   0.642  11.943  1.1821 -2.3502  0.8582
 4559SOL     OW25312   1.007   3.386   2.642 -0.2505  0.1367 -0.0251
 4559SOL    HW125313   1.038   3.331   2.714  0.0503 -0.4797 -0.6267
 4559SOL    HW225314   0.974   3.467   2.681 -0.5507 -0.5804  1.1857
 4560SOL     OW25315   1.612   0.672   8.224 -0.5458  0.1809  0.7765
 4560SOL    HW125316   1.576   0.655   8.137 -2.2576 -0.9192  1.7125
 4560SOL    HW225317   1.537   0.695   8.278  0.8025  0.0574  2.7244
 4561SOL     OW25318   3.333   3.754  10.932  0.6699 -0.1155 -0.3197
 4561SOL    HW125319   3.389   3.824  10.965  0.6944 -0.0527 -0.4921
 4561SOL    HW225320   3.287   3.794  10.858  0.0745  2.2790  1.3484
 4562SOL     OW25321   3.773   3.363   7.965  0.2259 -0.1333  0.2783
 4562SOL    HW125322   3.769   3.278   7.921  0.5056  1.2738 -2.4899
 4562SOL    HW225323   3.845   3.345   8.026 -0.9471 -1.2552  1.3343
 4563SOL     OW25324   4.537   3.864   6.730 -0.3130 -0.8129 -0.0893
 4563SOL    HW125325   4.520   3.910   6.648 -0.0980 -2.6815 -1.1942
 4563SOL    HW225326   4.624   3.893   6.758 -0.2685  0.3494 -1.4082
 4564SOL     OW25327   4.310   2.231  11.162  0.0984  0.2719  0.6195
 4564SOL    HW125328   4.363   2.253  11.085 -1.6263  1.2393 -0.2714
 4564SOL    HW225329   4.288   2.142  11.137 -0.4254  0.9138 -1.2015
 4565SOL     OW25330   1.424   2.081  16.703  0.1074 -0.2331 -0.3095
 4565SOL    HW125331   1.345   2.132  16.685  0.2465  0.4075  0.9281
 4565SOL    HW225332   1.411   2.079  16.798 -0.5258 -2.6204 -0.4471
 4566SOL     OW25333   4.290   2.481  14.216  0.0554  0.0788 -0.1755
 4566SOL    HW125334   4.359   2.433  14.263 -1.4953  1.0756  3.1566
 4566SOL    HW225335   4.336   2.564  14.204  1.4687 -0.9529 -1.9824
 4567SOL     OW25336   3.904   4.686   7.873  0.8312 -0.5949  0.8168
 4567SOL    HW125337   3.934   4.642   7.952  1.2955  0.7418  1.3778
 4567SOL    HW225338   3.979   4.708   7.817  0.0199  0.7385  0.2443
 4568SOL     OW25339   1.989   1.244   2.434 -0.7765  0.4000 -0.0110
 4568SOL    HW125340   2.022   1.192   2.361 -1.3679  1.3684 -0.9771
 4568SOL    HW225341   1.959   1.322   2.387  1.8351  2.0882  1.1395
 4569SOL     OW25342   3.014   2.890   8.968  1.0094  0.4546 -0.0892
 4569SOL    HW125343   3.101   2.867   9.000  0.7383  0.7417  0.8644
 4569SOL    HW225344   3.031   2.951   8.897 -1.7267 -0.6347 -1.6694
 4570SOL     OW25345   0.717   2.653  13.281  0.5255 -0.3506 -0.5199
 4570SOL    HW125346   0.724   2.737  13.236 -0.9574  0.9459  1.7241
 4570SOL    HW225347   0.774   2.610  13.217 -1.5050 -1.0272 -1.9016
 4571SOL     OW25348   0.420   3.742   6.814 -0.2896 -0.0716  0.2023
 4571SOL    HW125349   0.491   3.695   6.858 -2.3865 -3.3971  0.0083
 4571SOL    HW225350   0.475   3.811   6.776  0.4755 -0.1899  1.0775
 4572SOL     OW25351   3.360   4.705   5.845  0.1093 -0.3497  0.5163
 4572SOL    HW125352   3.429   0.026   5.816 -1.4546  1.0216 -0.4457
 4572SOL    HW225353   3.405   4.621   5.856 -0.7017 -0.9376 -0.5485
 4573SOL     OW25354   0.543   4.441   7.280  0.1902  0.3145 -0.1491
 4573SOL    HW125355   0.537   4.518   7.337  0.9932  1.0628 -1.0735
 4573SOL    HW225356   0.565   4.477   7.194 -0.6361 -1.8215 -1.2749
 4574SOL     OW25357   1.320   2.634  15.433  0.0847  0.1105 -0.5748
 4574SOL    HW125358   1.403   2.683  15.433 -0.0202  0.2645 -4.0247
 4574SOL    HW225359   1.327   2.591  15.518  2.3691 -2.6128 -2.1563
 4575SOL     OW25360   0.066   4.444   6.529  0.0869  0.0201 -0.1214
 4575SOL    HW125361   0.127   4.503   6.485  0.7750  0.0031  0.8313
 4575SOL    HW225362   0.124   4.402   6.592 -1.7162  1.7655  2.6903
 4576SOL     OW25363   4.520   0.697  14.732 -0.4505 -0.5988  0.1588
 4576SOL    HW125364   4.425   0.690  14.742 -0.5818  2.0645  0.6195
 4576SOL    HW225365   4.558   0.669  14.815 -1.6325 -0.5287  0.7295
 4577SOL     OW25366   3.204   4.262  10.094 -0.0203 -0.2673  0.1504
 4577SOL    HW125367   3.213   4.338  10.151 -0.3329  0.0102 -0.1689
 4577SOL    HW225368   3.254   4.291  10.018 -0.2079 -3.1676 -1.0933
 4578SOL     OW25369   1.521   2.356  17.578  1.2731 -0.4191 -0.5738
 4578SOL    HW125370   1.476   2.369  17.662  0.4893  0.1850 -1.0913
 4578SOL    HW225371   1.450   2.360  17.514 -1.0534  0.3391  2.0547
 4579SOL     OW25372   1.334   1.894   5.020  0.2720  0.1418 -0.2192
 4579SOL    HW125373   1.318   1.922   4.929 -1.5253  1.4042  0.5033
 4579SOL    HW225374   1.261   1.834   5.029 -0.4108  0.7097 -1.9830
 4580SOL     OW25375   2.014   3.099   8.879  0.5698 -0.2610 -0.5763
 4580SOL    HW125376   2.105   3.120   8.897 -0.0609  1.4604  0.6100
 4580SOL    HW225377   2.007   3.014   8.923  1.7898  0.0966  0.3065
 4581SOL     OW25378   3.117   2.201   7.523 -0.1928  0.0136 -0.1766
 4581SOL    HW125379   3.073   2.169   7.444 -0.0863 -1.0584  0.1877
 4581SOL    HW225380   3.071   2.284   7.530  1.7032  1.0253  0.2266
 4582SOL     OW25381   1.730   0.426   3.598 -0.1254 -0.6657  0.1090
 4582SOL    HW125382   1.796   0.417   3.529  0.4112  1.4728  0.3109
 4582SOL    HW225383   1.720   0.335   3.625  0.0014 -0.6921  0.0699
 4583SOL     OW25384   2.128   0.789  10.612  0.5326  0.2078  0.1670
 4583SOL    HW125385   2.081   0.706  10.621 -0.7701  0.6840 -2.1138
 4583SOL    HW225386   2.213   0.776  10.653  1.4595  2.8918 -0.9104
 4584SOL     OW25387   3.474   2.564   7.217  0.0650 -0.2722 -0.2358
 4584SOL    HW125388   3.528   2.486   7.219 -0.3972 -0.5545  1.7291
 4584SOL    HW225389   3.394   2.524   7.251  0.7355 -0.1756  1.4499
 4585SOL     OW25390   0.625   2.268   8.623 -0.1953  0.7317  0.2819
 4585SOL    HW125391   0.650   2.266   8.531 -1.0208  0.1581  0.0706
 4585SOL    HW225392   0.608   2.174   8.625  2.0305  0.3118 -0.8396
 4586SOL     OW25393   3.096   2.573   1.245 -0.0501 -0.3492  0.5031
 4586SOL    HW125394   3.177   2.523   1.247  1.2867  1.8667  1.9380
 4586SOL    HW225395   3.132   2.657   1.273  0.0367 -0.3497  0.3929
 4587SOL     OW25396   2.568   0.743   4.545  0.3203  0.0128  0.2779
 4587SOL    HW125397   2.493   0.687   4.567  1.6709 -1.4157  1.2010
 4587SOL    HW225398   2.535   0.821   4.591 -0.0021  0.7468 -1.1945
 4588SOL     OW25399   3.209   2.878   3.578 -0.0286 -0.1251  0.0619
 4588SOL    HW125400   3.197   2.814   3.508  1.7758 -1.6473  1.1581
 4588SOL    HW225401   3.155   2.954   3.557  0.1147  1.0886  4.0454
 4589SOL     OW25402   2.681   4.412   3.131 -0.1414 -0.2591  0.6172
 4589SOL    HW125403   2.751   4.455   3.081 -2.2992  1.1694 -1.2163
 4589SOL    HW225404   2.730   4.377   3.205 -0.1765 -1.3841  0.1170
 4590SOL     OW25405   0.799   0.057   9.520  0.4486 -0.6092  0.2643
 4590SOL    HW125406   0.763   0.013   9.597 -1.0052  1.7078  0.9090
 4590SOL    HW225407   0.884   0.087   9.553  1.1943  0.0903 -2.2793
 4591SOL     OW25408   0.555   2.999   5.840 -0.1128 -0.4049 -0.3573
 4591SOL    HW125409   0.476   2.961   5.879 -2.0141  2.1718 -1.7199
 4591SOL    HW225410   0.539   3.093   5.840 -1.8212 -0.6821 -2.5594
 4592SOL     OW25411   3.304   3.400   8.577  0.4929  0.0683  0.4154
 4592SOL    HW125412   3.271   3.336   8.640  2.5524  0.6321  2.0986
 4592SOL    HW225413   3.381   3.434   8.624  0.0684 -1.3929  2.1913
 4593SOL     OW25414   4.516   2.753   6.263  0.0827 -0.1228  0.7874
 4593SOL    HW125415   4.551   2.819   6.202  0.5720 -2.1513 -1.1070
 4593SOL    HW225416   4.541   2.794   6.346 -0.9549  3.4922 -0.6976
 4594SOL     OW25417   2.783   3.841   2.169  0.2837  0.2272  0.3981
 4594SOL    HW125418   2.702   3.816   2.212 -0.0575  0.4334 -0.1343
 4594SOL    HW225419   2.802   3.758   2.124  2.3893  1.9257 -1.8160
 4595SOL     OW25420   1.328   0.505   9.654 -0.2732 -0.2135 -0.0476
 4595SOL    HW125421   1.396   0.449   9.690  2.0182  1.6567 -1.4821
 4595SOL    HW225422   1.356   0.528   9.566 -0.9764 -2.3657 -0.8088
 4596SOL     OW25423   0.805   2.084   4.250  0.3581  0.2242 -0.3629
 4596SOL    HW125424   0.741   2.080   4.179 -0.1367 -3.4273  0.2949
 4596SOL    HW225425   0.749   2.091   4.328  1.5303  1.2872  0.3707
 4597SOL     OW25426   3.032   4.504   8.620  0.9781 -0.6606  0.0990
 4597SOL    HW125427   3.026   4.592   8.585  3.0873 -0.2611  0.7520
 4597SOL    HW225428   2.966   4.460   8.565 -0.4333  2.9718 -1.1165
 4598SOL     OW25429   3.485   1.176   3.726  0.5989  0.5382 -0.3874
 4598SOL    HW125430   3.567   1.130   3.743  0.3193  0.7062  1.5068
 4598SOL    HW225431   3.423   1.107   3.745  2.3632 -0.9590 -0.0505
 4599SOL     OW25432   2.621   3.867   3.779 -0.2616 -0.5660 -0.2162
 4599SOL    HW125433   2.649   3.794   3.835 -0.4780 -0.3102  0.2300
 4599SOL    HW225434   2.540   3.827   3.747 -0.5871 -0.7021  0.7630
 4600SOL     OW25435   3.655   1.344   6.243  0.1730 -0.2199  0.7333
 4600SOL    HW125436   3.706   1.425   6.255  1.1085 -0.9635  1.8537
 4600SOL    HW225437   3.726   1.291   6.207 -0.8440 -2.0620  1.4265
 4601SOL     OW25438   3.793   0.897   7.685  0.0314 -0.3026  0.3900
 4601SOL    HW125439   3.850   0.854   7.621 -1.3689 -2.0669  0.3083
 4601SOL    HW225440   3.779   0.825   7.747 -1.0969  0.1660  0.6685
 4602SOL     OW25441   2.817   2.749   3.977  0.0646 -0.2009  0.1227
 4602SOL    HW125442   2.777   2.663   3.961 -5.9320  2.7203 -0.5036
 4602SOL    HW225443   2.743   2.792   4.020 -0.5177  0.4943 -1.5588
 4603SOL     OW25444   1.422   4.440   5.059 -0.9959  0.1530  0.2817
 4603SOL    HW125445   1.507   4.483   5.048 -0.9332  0.7822  3.0397
 4603SOL    HW225446   1.433   4.428   5.154 -0.8306 -0.5159  0.1786
 4604SOL     OW25447   0.268   1.646   4.582 -0.0607 -0.1612 -0.3890
 4604SOL    HW125448   0.291   1.572   4.638  2.8371  0.0536 -1.3231
 4604SOL    HW225449   0.259   1.713   4.650 -0.8657  1.8012 -2.4281
 4605SOL     OW25450   4.002   1.368   3.892  0.3931 -0.5058  0.5596
 4605SOL    HW125451   3.995   1.463   3.884  1.1717 -0.5018 -0.0265
 4605SOL    HW225452   4.013   1.348   3.799 -1.5032 -0.2732  0.2816
 4606SOL     OW25453   1.957   1.209   5.031  0.0147  0.1027  0.0442
 4606SOL    HW125454   1.905   1.235   4.955 -0.5147  0.6802  0.6033
 4606SOL    HW225455   2.042   1.251   5.014 -1.8885  3.5702 -0.9657
 4607SOL     OW25456   3.049   2.251   3.714  0.2960 -0.1477  0.3133
 4607SOL    HW125457   3.086   2.308   3.782  1.5881 -0.6050  0.0049
 4607SOL    HW225458   2.960   2.283   3.701  0.7561  0.5370 -1.0489
 4608SOL     OW25459   3.871   0.539  16.552  0.0335  0.5848  0.0792
 4608SOL    HW125460   3.890   0.550  16.458  0.6916  0.0417  0.1524
 4608SOL    HW225461   3.851   0.446  16.559  3.0205 -0.0044  0.6259
 4609SOL     OW25462   1.966   3.068   3.905 -0.1312  0.7194 -0.1155
 4609SOL    HW125463   1.913   3.028   3.975  1.8659 -1.1439  0.3416
 4609SOL    HW225464   1.925   3.014   3.838 -1.3887  0.2521  1.0078
 4610SOL     OW25465   0.040   0.313   8.922 -0.0410  0.5547 -0.6886
 4610SOL    HW125466   4.686   0.287   8.930  0.3306 -0.6563 -0.3929
 4610SOL    HW225467   0.032   0.362   8.840  1.5729  0.1262 -1.0902
 4611SOL     OW25468   2.336   2.364  15.032  0.5353 -0.6601 -0.0412
 4611SOL    HW125469   2.369   2.289  14.983 -1.4212 -0.2875 -1.9122
 4611SOL    HW225470   2.243   2.349  15.048  0.5338 -1.5482 -0.9186
 4612SOL     OW25471   2.323   4.286   8.222 -0.0413 -0.2747  0.0197
 4612SOL    HW125472   2.390   4.326   8.277  0.3054 -1.3449  0.3712
 4612SOL    HW225473   2.339   4.192   8.235  1.6792 -0.1701 -1.3335
 4613SOL     OW25474   4.253   1.310   8.530 -0.1583 -0.4436 -0.3881
 4613SOL    HW125475   4.295   1.230   8.499  0.9813  0.0488 -0.1163
 4613SOL    HW225476   4.169   1.301   8.485 -0.2757 -2.9789  0.3233
 4614SOL     OW25477   3.833   4.481  12.608  0.4773  0.2657 -0.0904
 4614SOL    HW125478   3.862   4.401  12.653 -2.6747  0.0540  1.5414
 4614SOL    HW225479   3.792   4.527  12.680 -0.6717  0.1348 -0.6604
 4615SOL     OW25480   2.631   2.969  17.300  0.3382  0.0160 -0.1093
 4615SOL    HW125481   2.676   3.053  17.297 -0.6899  0.5561 -0.4649
 4615SOL    HW225482   2.701   2.911  17.329 -0.4600 -0.0417  1.7022
 4616SOL     OW25483   0.959   1.758   3.474  0.2109 -0.0429 -0.1316
 4616SOL    HW125484   0.895   1.702   3.429  0.3382  0.8354 -1.4150
 4616SOL    HW225485   0.956   1.716   3.560 -3.3272 -0.2043 -0.3327
 4617SOL     OW25486   1.267   4.629   3.068 -0.2987  0.2249  0.4749
 4617SOL    HW125487   1.302   4.602   3.153  0.6596  1.5538  0.4926
 4617SOL    HW225488   1.340   4.607   3.010 -2.1637  1.1132 -2.1716
 4618SOL     OW25489   4.236   4.299  14.717  0.5451  0.5217  0.4742
 4618SOL    HW125490   4.329   4.282  14.703  0.9180  1.1238  2.2538
 4618SOL    HW225491   4.224   4.378  14.664  1.0399  0.9179  0.9591
 4619SOL     OW25492   0.370   0.736  10.424  0.2737  0.4087 -0.2641
 4619SOL    HW125493   0.343   0.741  10.515 -0.0078  2.1036 -0.4426
 4619SOL    HW225494   0.281   0.751  10.392 -0.3565  0.2825  1.4813
 4620SOL     OW25495   2.884   2.283   1.650 -0.3679  0.0042 -0.2494
 4620SOL    HW125496   2.894   2.328   1.566  0.3637 -1.5888 -1.0202
 4620SOL    HW225497   2.789   2.270   1.647 -0.6990  2.8289 -1.3987
 4621SOL     OW25498   3.231   2.627  11.979  0.0385  0.6213 -0.4974
 4621SOL    HW125499   3.178   2.690  11.930 -2.5574 -0.3110  1.0618
 4621SOL    HW225500   3.160   2.581  12.024 -0.0910  0.1083 -1.2202
 4622SOL     OW25501   2.292   4.578  14.720  0.2325 -0.1483  0.3264
 4622SOL    HW125502   2.317   4.669  14.704  0.9105 -0.9201 -2.9246
 4622SOL    HW225503   2.234   4.586  14.796 -1.7652 -2.4242 -0.9340
 4623SOL     OW25504   2.475   0.036  15.005 -0.3401  0.5517 -0.3031
 4623SOL    HW125505   2.426   0.113  15.035 -1.3605 -0.1990 -0.0222
 4623SOL    HW225506   2.542   0.034  15.072 -0.1500  0.0170 -0.5047
 4624SOL     OW25507   0.522   0.689   2.136 -0.6289  0.7494  0.3739
 4624SOL    HW125508   0.574   0.761   2.171 -0.9368  1.1118  0.0776
 4624SOL    HW225509   0.484   0.718   2.053  1.8939  1.1288 -0.6595
 4625SOL     OW25510   1.401   1.760   8.497 -0.2418  0.1612 -0.2088
 4625SOL    HW125511   1.411   1.699   8.424  0.3284 -0.7581  0.6406
 4625SOL    HW225512   1.372   1.708   8.572 -1.9130 -0.5624 -1.3628
 4626SOL     OW25513   4.667   3.509   8.782 -0.3352 -0.6634 -0.8653
 4626SOL    HW125514   4.652   3.559   8.701  0.9668  1.3514  0.1357
 4626SOL    HW225515   4.724   3.438   8.753  1.2620  0.3257 -0.1950
 4627SOL     OW25516   1.467   3.359   9.041  0.1247 -0.4978 -0.1543
 4627SOL    HW125517   1.411   3.394   9.111  1.1901 -1.0485  0.9787
 4627SOL    HW225518   1.410   3.382   8.967 -0.0422 -1.3483 -0.2963
 4628SOL     OW25519   4.270   0.291   2.427  0.2835  0.0784 -0.1284
 4628SOL    HW125520   4.235   0.284   2.516 -3.9519 -1.6689 -1.9110
 4628SOL    HW225521   4.350   0.341   2.444  0.6552 -0.7255  0.4830
 4629SOL     OW25522   1.974   4.537   8.991  0.0330  0.0814 -0.1628
 4629SOL    HW125523   2.044   4.510   8.931  1.7227  1.9409  0.9490
 4629SOL    HW225524   1.918   4.594   8.939 -0.9695 -0.3258  0.4752
 4630SOL     OW25525   1.873   1.320   6.384 -0.4352 -0.0759  0.1192
 4630SOL    HW125526   1.943   1.385   6.387 -0.2759 -0.1954 -0.9500
 4630SOL    HW225527   1.910   1.240   6.423 -1.4617 -0.3103  0.6071
 4631SOL     OW25528   3.831   3.705   2.408 -0.5799  0.5075  0.6326
 4631SOL    HW125529   3.771   3.779   2.416 -1.7690 -0.3828 -0.0662
 4631SOL    HW225530   3.769   3.641   2.375 -1.5135  0.4051  2.5762
 4632SOL     OW25531   4.637   0.574  10.951  0.6400  0.1506  0.3125
 4632SOL    HW125532   4.627   0.571  11.046 -0.0653  1.3002  0.2665
 4632SOL    HW225533   4.659   0.483  10.929  0.9118  0.0897  0.8540
 4633SOL     OW25534   0.761   4.575   1.489  0.3612 -0.4748  0.5716
 4633SOL    HW125535   0.819   4.652   1.485 -0.4469  0.1533  0.9556
 4633SOL    HW225536   0.702   4.587   1.563  1.0569 -0.6065  1.1426
 4634SOL     OW25537   2.928   3.562   8.433 -0.1486  0.2045  0.0282
 4634SOL    HW125538   2.901   3.551   8.341  0.0228  0.9241 -0.1137
 4634SOL    HW225539   2.899   3.482   8.475 -1.7016 -0.0059 -1.4339
 4635SOL     OW25540   0.205   4.082  16.232  0.4209 -0.7277  0.0916
 4635SOL    HW125541   0.225   4.166  16.190  1.5453 -0.8127  0.4739
 4635SOL    HW225542   0.198   4.028  16.153  1.0997 -1.2412  0.3792
 4636SOL     OW25543   1.607   3.516   5.691  0.4460 -0.6999 -0.9019
 4636SOL    HW125544   1.526   3.491   5.734  1.3852 -2.0022  0.1269
 4636SOL    HW225545   1.579   3.523   5.600 -1.9780 -0.9798 -0.1704
 4637SOL     OW25546   0.900   4.353   9.645  0.0388 -0.4563  0.5623
 4637SOL    HW125547   0.829   4.405   9.606  0.9355  0.5428  0.2452
 4637SOL    HW225548   0.868   4.351   9.735  2.4420 -3.1802  1.3471
 4638SOL     OW25549   3.689   2.465  15.863  0.4218 -0.4116 -0.1062
 4638SOL    HW125550   3.720   2.455  15.953 -0.0326  1.0901  0.2244
 4638SOL    HW225551   3.632   2.541  15.873 -0.9835 -1.6303  1.2418
 4639SOL     OW25552   2.040   1.599   7.353 -0.5571 -0.5903 -0.2117
 4639SOL    HW125553   2.028   1.655   7.430 -0.0968 -0.1536 -0.4483
 4639SOL    HW225554   2.130   1.567   7.354 -0.0721  0.7314 -1.2641
 4640SOL     OW25555   3.038   2.450   7.615 -0.2336 -0.3447 -0.3246
 4640SOL    HW125556   3.052   2.402   7.697  0.0356 -0.6498 -0.5540
 4640SOL    HW225557   3.117   2.504   7.616 -1.1638  1.0340 -0.4600
 4641SOL     OW25558   3.219   0.035   1.174  0.2433 -0.1477  0.4827
 4641SOL    HW125559   3.289   4.723   1.133 -0.4558 -0.2034 -0.6239
 4641SOL    HW225560   3.263   0.073   1.250  0.5686 -0.6202  0.5276
 4642SOL     OW25561   1.534   4.667   1.683 -0.3046 -0.1404  0.3858
 4642SOL    HW125562   1.629   4.669   1.696 -0.7432  0.7117  3.2845
 4642SOL    HW225563   1.527   4.617   1.602 -0.1567  0.4789 -0.0069
 4643SOL     OW25564   0.654   1.906   7.421 -0.0430 -0.0522  0.0835
 4643SOL    HW125565   0.675   1.942   7.335  2.0774 -0.0356  0.6281
 4643SOL    HW225566   0.734   1.856   7.436 -0.7836 -0.5969  2.2048
 4644SOL     OW25567   2.003   3.767  13.174 -0.1132 -0.0266  0.1097
 4644SOL    HW125568   2.076   3.821  13.143  0.5447 -1.1185 -0.2146
 4644SOL    HW225569   1.980   3.825  13.247 -1.5726 -0.9298  0.3656
 4645SOL     OW25570   2.533   1.422  16.026 -0.5831  0.3554 -0.0297
 4645SOL    HW125571   2.466   1.426  16.095  1.1075  3.3297  1.4508
 4645SOL    HW225572   2.478   1.438  15.950 -0.1075  2.0314 -0.0330
 4646SOL     OW25573   3.418   2.107   6.491 -0.1581  0.7942 -0.2241
 4646SOL    HW125574   3.427   2.194   6.454 -3.0988  1.0604 -0.3317
 4646SOL    HW225575   3.507   2.078   6.511 -0.9537 -2.1277 -0.7981
 4647SOL     OW25576   3.912   1.656   5.323 -0.2450 -0.0526 -0.7316
 4647SOL    HW125577   3.867   1.652   5.407 -1.1539  3.9243 -1.0266
 4647SOL    HW225578   3.867   1.584   5.280 -2.7323  0.0961  1.5986
 4648SOL     OW25579   2.389   1.050   1.829  0.0044  0.1436  0.1073
 4648SOL    HW125580   2.396   0.958   1.804  0.7087  0.3101 -0.3046
 4648SOL    HW225581   2.459   1.088   1.776  0.9963 -2.3063 -0.3125
 4649SOL     OW25582   2.661   1.898   7.253 -0.4328  0.5166 -0.1534
 4649SOL    HW125583   2.650   1.841   7.177 -0.7658 -0.1600  0.3982
 4649SOL    HW225584   2.752   1.870   7.267 -0.4978  0.3067 -0.1442
 4650SOL     OW25585   3.920   0.444   4.653  0.3994 -0.2330 -0.0652
 4650SOL    HW125586   3.894   0.486   4.735  1.8446  0.4307  0.0656
 4650SOL    HW225587   3.967   0.522   4.621 -2.6144  0.8500 -1.8902
 4651SOL     OW25588   3.073   4.523   7.708  0.2494 -0.1990  0.5095
 4651SOL    HW125589   3.082   4.430   7.690  1.5531  0.3052 -1.5242
 4651SOL    HW225590   3.128   4.561   7.639  2.2012 -2.4294  0.8635
 4652SOL     OW25591   3.980   1.870   2.525 -0.3514 -0.1382 -0.0716
 4652SOL    HW125592   3.938   1.949   2.559  2.2137  1.1846  0.0109
 4652SOL    HW225593   3.982   1.895   2.433 -0.1455 -0.0712 -0.0492
 4653SOL     OW25594   0.854   2.833   3.187  0.1249 -0.2802  0.4692
 4653SOL    HW125595   0.901   2.916   3.197 -0.0233 -0.4981  2.9148
 4653SOL    HW225596   0.860   2.819   3.093  0.4824  2.2313  0.1165
 4654SOL     OW25597   2.259   0.969   6.165 -0.4039 -0.0815 -0.6165
 4654SOL    HW125598   2.256   0.960   6.260  2.1605 -2.2835 -0.7539
 4654SOL    HW225599   2.166   0.946   6.165  0.5185 -3.8406  2.8672
 4655SOL     OW25600   0.535   3.382   3.500  0.3445  0.2602  0.0862
 4655SOL    HW125601   0.595   3.387   3.575  1.1781 -0.7443 -0.5046
 4655SOL    HW225602   0.552   3.290   3.479 -2.2894 -0.5773  1.6149
 4656SOL     OW25603   1.235   0.109  13.754 -0.0520  0.4101 -0.0043
 4656SOL    HW125604   1.156   0.162  13.748 -0.8032 -0.6020  1.1050
 4656SOL    HW225605   1.241   0.091  13.660  0.7448 -0.3407  0.1851
 4657SOL     OW25606   1.725   2.013   5.657 -0.3783 -0.2481  0.3471
 4657SOL    HW125607   1.642   1.989   5.698  0.7896 -2.2426  1.5375
 4657SOL    HW225608   1.696   2.048   5.573  1.7761 -1.1210 -0.7652
 4658SOL     OW25609   0.557   4.081   8.463 -0.1624  0.0745 -0.0266
 4658SOL    HW125610   0.516   4.074   8.377  2.2092  0.4038 -1.1821
 4658SOL    HW225611   0.481   4.081   8.521  2.3207 -0.2391  3.2575
 4659SOL     OW25612   0.023   4.637   1.823  0.6011  0.2051 -0.6489
 4659SOL    HW125613   0.035   4.630   1.917  2.4699 -3.3177 -1.1307
 4659SOL    HW225614   4.679   4.588   1.822  1.4138 -1.2158  1.5916
 4660SOL     OW25615   3.586   2.888   1.481  0.4901  0.4941 -0.1130
 4660SOL    HW125616   3.648   2.926   1.543  1.2951 -0.5341 -0.2796
 4660SOL    HW225617   3.645   2.816   1.456 -0.2671  0.7351 -2.5984
 4661SOL     OW25618   2.239   3.883   1.474  0.6006  0.0556 -0.2160
 4661SOL    HW125619   2.181   3.823   1.427 -0.8405  0.3616  1.1832
 4661SOL    HW225620   2.185   3.923   1.542 -0.6440 -1.1457 -0.4892
 4662SOL     OW25621   2.118   2.953   3.179  0.0751  0.3498 -0.2807
 4662SOL    HW125622   2.148   3.025   3.235  0.2791 -0.4107  0.5850
 4662SOL    HW225623   2.178   2.879   3.192  0.2099  0.5645  0.3397
 4663SOL     OW25624   0.212   0.973   3.964 -0.8104 -0.2333  0.2116
 4663SOL    HW125625   0.158   0.942   3.891 -2.8075  0.4226  1.4078
 4663SOL    HW225626   0.212   1.061   3.926  1.0186 -1.1989 -2.0749
 4664SOL     OW25627   0.456   4.126   9.357 -0.2832  0.7943  0.4085
 4664SOL    HW125628   0.538   4.175   9.348  0.5432 -0.7091 -0.1706
 4664SOL    HW225629   0.415   4.155   9.276 -0.4862 -0.2471  0.1445
 4665SOL     OW25630   3.728   2.020   0.606 -0.0215 -0.2114 -0.0944
 4665SOL    HW125631   3.793   1.950   0.604 -0.7733 -0.8161 -2.6695
 4665SOL    HW225632   3.772   2.092   0.560 -1.4823  1.6494  1.3930
 4666SOL     OW25633   1.086   3.423  13.098  0.7286 -0.0116  0.1051
 4666SOL    HW125634   1.080   3.331  13.070 -2.6337  0.3464 -0.3613
 4666SOL    HW225635   1.147   3.459  13.033  2.7050 -0.6991  1.5846
 4667SOL     OW25636   3.458   0.389  15.556  0.2908  0.1255  0.1202
 4667SOL    HW125637   3.505   0.412  15.636 -0.1378  2.3231 -0.2636
 4667SOL    HW225638   3.440   0.301  15.589  1.8356 -0.1799  0.1394
 4668SOL     OW25639   1.274   0.862   6.958  0.0204  0.1475 -0.7031
 4668SOL    HW125640   1.346   0.866   7.020  0.1346  0.2492 -0.8440
 4668SOL    HW225641   1.227   0.779   6.966  0.3674  0.2523  2.2491
 4669SOL     OW25642   2.250   2.898   6.106  0.1590  0.0681  0.5126
 4669SOL    HW125643   2.338   2.868   6.082  0.1370  0.9972 -0.7203
 4669SOL    HW225644   2.196   2.829   6.067  2.5961 -1.8851  0.5477
 4670SOL     OW25645   2.810   2.087   6.485 -0.5409  0.5880  0.1484
 4670SOL    HW125646   2.871   2.154   6.516  1.2807  0.2488 -2.7584
 4670SOL    HW225647   2.837   2.014   6.540 -0.2521 -1.4711 -2.7244
 4671SOL     OW25648   0.154   0.458   8.698  0.0078  0.4525  0.7867
 4671SOL    HW125649   0.247   0.466   8.718  0.5098 -0.0793 -1.2710
 4671SOL    HW225650   0.161   0.410   8.616 -0.3465  0.9353  0.4723
 4672SOL     OW25651   1.764   4.443   8.018 -0.6923 -0.1673 -0.8322
 4672SOL    HW125652   1.794   4.531   8.040 -2.0734  0.6187 -2.1560
 4672SOL    HW225653   1.671   4.454   8.036 -0.3342  1.6362 -0.0659
 4673SOL     OW25654   1.672   4.689   4.718  0.0374  0.0156 -0.7311
 4673SOL    HW125655   1.613   4.656   4.650  1.2153 -1.6446 -0.9616
 4673SOL    HW225656   1.654   0.044   4.721 -0.6241 -0.1537  0.6060
 4674SOL     OW25657   4.480   1.176   2.086  0.1593  0.0445 -0.0131
 4674SOL    HW125658   4.494   1.082   2.088  1.7559  0.2482 -1.3536
 4674SOL    HW225659   4.407   1.183   2.024 -0.5588  0.6074  0.8988
 4675SOL     OW25660   0.944   2.726  13.431 -0.0879 -0.8442 -0.5720
 4675SOL    HW125661   0.855   2.699  13.411 -0.2790 -2.2130  2.1133
 4675SOL    HW225662   0.950   2.775  13.349  0.9632 -0.3389 -0.1956
 4676SOL     OW25663   0.333   1.555   5.224  0.1469 -0.7815 -0.3070
 4676SOL    HW125664   0.302   1.476   5.268 -2.1174  1.5097  2.2031
 4676SOL    HW225665   0.370   1.612   5.291 -1.2619 -1.8982  1.4293
 4677SOL     OW25666   0.569   2.932   2.908 -0.2261  0.5483 -0.5958
 4677SOL    HW125667   0.514   3.010   2.921 -0.6505  0.3058 -0.9192
 4677SOL    HW225668   0.585   2.950   2.816 -1.2061 -2.7610 -1.4021
 4678SOL     OW25669   2.582   0.207  13.119 -0.1693 -0.1303 -0.1963
 4678SOL    HW125670   2.670   0.221  13.154 -0.8595  0.7836  1.1651
 4678SOL    HW225671   2.562   0.135  13.178  1.5500 -1.4475 -1.2058
 4679SOL     OW25672   1.426   1.792   4.340  0.1660  0.3443  0.0974
 4679SOL    HW125673   1.404   1.705   4.374 -0.7707  1.2126  1.7500
 4679SOL    HW225674   1.367   1.847   4.393  0.4325  0.8150 -0.0885
 4680SOL     OW25675   1.590   0.029  16.694 -0.0388 -0.0197 -0.0505
 4680SOL    HW125676   1.565   4.675  16.701  0.2387 -0.1509 -0.7074
 4680SOL    HW225677   1.683   0.034  16.714 -0.3267 -1.4851  1.5985
 4681SOL     OW25678   2.863   4.053  17.162 -0.4843  0.5447 -0.0251
 4681SOL    HW125679   2.951   4.017  17.150 -0.2018  0.9388  0.8431
 4681SOL    HW225680   2.883   4.145  17.176  1.8643  0.2204 -1.4268
 4682SOL     OW25681   3.711   1.679  17.422 -0.0286  0.5940  0.3148
 4682SOL    HW125682   3.781   1.727  17.377  0.1461 -0.2002 -0.2554
 4682SOL    HW225683   3.646   1.749  17.437  0.5105  1.4535 -1.4028
 4683SOL     OW25684   3.102   0.269   6.426  0.2552  0.0604 -0.1782
 4683SOL    HW125685   3.136   0.353   6.458  1.0029 -0.4149  0.2690
 4683SOL    HW225686   3.031   0.298   6.369  0.3468  1.1296  0.2485
 4684SOL     OW25687   1.292   4.378   0.603  0.0713 -0.4268  0.0502
 4684SOL    HW125688   1.367   4.354   0.657 -0.3927  0.2797  1.0038
 4684SOL    HW225689   1.250   4.294   0.588  0.9068 -0.9262  0.4885
 4685SOL     OW25690   2.261   0.187   7.703  0.1921 -0.1779 -0.1717
 4685SOL    HW125691   2.294   0.251   7.766 -0.6080  1.6394 -1.5765
 4685SOL    HW225692   2.238   0.244   7.629 -3.1535  1.4644  2.1451
 4686SOL     OW25693   1.776   0.580   6.313  0.3762  0.5207  0.0315
 4686SOL    HW125694   1.751   0.573   6.405  0.0967  0.5306 -0.0444
 4686SOL    HW225695   1.853   0.523   6.312 -0.1260 -0.1812  2.6964
 4687SOL     OW25696   3.686   2.807   6.049  0.3806  0.1441  0.0916
 4687SOL    HW125697   3.763   2.798   6.105 -0.8099  3.4909  2.2941
 4687SOL    HW225698   3.722   2.803   5.960 -0.7748 -3.3531 -0.2134
 4688SOL     OW25699   2.558   2.235   8.503  0.0472 -0.2027 -0.6872
 4688SOL    HW125700   2.577   2.296   8.575  1.7258 -0.4427 -0.9228
 4688SOL    HW225701   2.607   2.270   8.429 -1.2277 -1.1743 -1.9954
 4689SOL     OW25702   3.049   1.173   5.712  0.0839 -0.3237 -0.1884
 4689SOL    HW125703   2.979   1.133   5.764 -1.4634  1.0148 -1.2382
 4689SOL    HW225704   3.020   1.146   5.625  0.7345  0.4218 -0.6387
 4690SOL     OW25705   4.377   3.575   3.026  0.2272 -0.1210  0.0329
 4690SOL    HW125706   4.310   3.536   3.082  0.4433 -1.0983 -0.3968
 4690SOL    HW225707   4.325   3.652   3.001  1.9563  1.0813  0.0987
 4691SOL     OW25708   3.874   2.670   3.056  0.3328  0.0670  0.0791
 4691SOL    HW125709   3.909   2.589   3.092  2.1004  0.2133 -1.2700
 4691SOL    HW225710   3.875   2.723   3.136 -1.5839 -0.6524  0.5776
 4692SOL     OW25711   3.276   3.371   7.640 -0.5491 -0.0805  0.5836
 4692SOL    HW125712   3.252   3.412   7.557  1.5663 -1.3533 -0.6923
 4692SOL    HW225713   3.339   3.437   7.668 -0.2790 -0.6296  1.2947
 4693SOL     OW25714   3.744   1.981   4.056  0.3171 -0.0257  0.5132
 4693SOL    HW125715   3.731   2.053   4.118 -0.1437  0.5851 -0.2950
 4693SOL    HW225716   3.743   2.029   3.973  2.7131 -0.1000  0.4339
 4694SOL     OW25717   0.107   2.730   7.361 -0.2838 -0.1241  0.1203
 4694SOL    HW125718   0.029   2.774   7.396  0.8874  0.1356  2.4290
 4694SOL    HW225719   0.086   2.638   7.373 -2.1442 -0.1035 -2.9929
 4695SOL     OW25720   2.633   1.133   1.758 -0.6543 -0.1047 -0.1622
 4695SOL    HW125721   2.675   1.219   1.761 -0.7891  0.0682 -3.1834
 4695SOL    HW225722   2.647   1.102   1.847 -0.9453  0.4232  0.0656
 4696SOL     OW25723   2.230   2.664   4.261  0.3014  0.4094  0.0242
 4696SOL    HW125724   2.318   2.630   4.271 -0.0672 -0.5761 -0.0474
 4696SOL    HW225725   2.247   2.751   4.224  2.3283  0.0254  0.0894
 4697SOL     OW25726   2.642   3.297   5.656 -0.0787 -0.0780  0.0498
 4697SOL    HW125727   2.651   3.207   5.625 -1.0894 -0.5475  1.1237
 4697SOL    HW225728   2.642   3.285   5.751 -1.8437 -0.3163  0.0156
 4698SOL     OW25729   0.087   0.327   3.175  0.1405  0.4909  0.0670
 4698SOL    HW125730   0.014   0.335   3.236  0.5460 -0.6829  0.7001
 4698SOL    HW225731   0.046   0.344   3.090  0.6391 -1.2965 -0.5205
 4699SOL     OW25732   2.906   3.611   7.680  0.4250  0.3534 -0.6201
 4699SOL    HW125733   2.981   3.629   7.737 -0.6038  0.6394  0.6385
 4699SOL    HW225734   2.860   3.694   7.676  0.3854  0.3234 -0.7708
 4700SOL     OW25735   3.783   3.615   0.459  0.0085 -0.0073  0.2154
 4700SOL    HW125736   3.784   3.617   0.363 -0.7847  0.5947  0.2170
 4700SOL    HW225737   3.733   3.534   0.471 -2.9222  1.5701 -1.2970
 4701SOL     OW25738   0.714   1.829  17.692  0.5687 -0.3764 -0.0802
 4701SOL    HW125739   0.657   1.863  17.623  0.2766  1.1049  0.8842
 4701SOL    HW225740   0.677   1.742  17.705 -1.9370  0.4216 -1.8351
 4702SOL     OW25741   2.608   1.983   8.890  0.3521  0.4109  1.2019
 4702SOL    HW125742   2.575   1.977   8.801  2.6782  0.1705  0.3670
 4702SOL    HW225743   2.690   1.933   8.889  0.0858 -0.0302  1.5562
 4703SOL     OW25744   1.809   2.537  16.614 -0.3102  0.1270 -0.4698
 4703SOL    HW125745   1.891   2.569  16.577 -0.4005  0.7754 -0.1108
 4703SOL    HW225746   1.830   2.564  16.704 -0.1651  1.1831 -0.8144
 4704SOL     OW25747   1.872   2.662   1.761 -0.2336  0.1708 -0.1083
 4704SOL    HW125748   1.816   2.643   1.837 -0.3467 -3.5097 -1.0978
 4704SOL    HW225749   1.849   2.752   1.740  2.2096  0.9415  0.6011
 4705SOL     OW25750   4.725   3.292   9.209 -0.4323 -0.0308 -0.6124
 4705SOL    HW125751   0.064   3.292   9.265  0.2521 -0.4767 -1.5666
 4705SOL    HW225752   4.737   3.215   9.154 -0.9620 -0.1302 -0.5839
 4706SOL     OW25753   0.323   3.821   8.500  0.1912 -0.0976 -0.2297
 4706SOL    HW125754   0.315   3.733   8.536 -1.3925 -0.0052 -0.3617
 4706SOL    HW225755   0.390   3.857   8.559 -1.0624  1.3101  0.3206
 4707SOL     OW25756   0.168   4.542  16.592  0.3797  0.0775 -0.2737
 4707SOL    HW125757   0.240   4.484  16.618 -0.3422 -1.1069 -0.9707
 4707SOL    HW225758   0.193   4.574  16.505  0.8202 -0.1013 -0.2143
 4708SOL     OW25759   2.492   0.912  11.094 -0.1339 -0.3235  0.0723
 4708SOL    HW125760   2.436   0.967  11.040  0.7325  0.1861 -0.3040
 4708SOL    HW225761   2.490   0.970  11.170 -0.8354 -0.6506  0.3008
 4709SOL     OW25762   4.434   1.395  17.607 -0.9373 -0.4638  0.2300
 4709SOL    HW125763   4.408   1.357  17.692 -0.8574 -1.0925 -0.0263
 4709SOL    HW225764   4.496   1.329  17.575  0.2581  1.7210 -1.9155
 4710SOL     OW25765   4.388   4.737   8.467 -0.2553 -0.0399  0.2032
 4710SOL    HW125766   4.311   4.680   8.478 -1.1444  1.0740 -0.2834
 4710SOL    HW225767   4.369   0.048   8.388  2.0339  0.8762  0.2437
 4711SOL     OW25768   2.831   1.826   3.292 -0.2585 -0.8241  0.2530
 4711SOL    HW125769   2.838   1.731   3.303  0.6897 -1.0073 -2.1001
 4711SOL    HW225770   2.890   1.866   3.356  0.1632 -3.4752  1.5273
 4712SOL     OW25771   4.148   1.048   9.214 -0.2177  0.3643  0.8257
 4712SOL    HW125772   4.075   1.101   9.181 -0.9815  0.2788  2.3559
 4712SOL    HW225773   4.087   0.983   9.250 -1.3789  0.8616 -0.2448
 4713SOL     OW25774   2.555   2.539  12.445  0.4459 -0.0139 -0.0291
 4713SOL    HW125775   2.511   2.513  12.525  0.1188  1.3111  0.2276
 4713SOL    HW225776   2.634   2.491  12.467 -0.0223 -1.3846 -1.3855
 4714SOL     OW25777   2.446   4.091   6.852  0.5927 -0.4998 -0.5740
 4714SOL    HW125778   2.400   4.052   6.779 -0.2749  0.3213 -0.4627
 4714SOL    HW225779   2.533   4.051   6.858  0.5597 -0.7399 -1.7071
 4715SOL     OW25780   3.581   2.640   5.825  0.1002  0.3512  0.1545
 4715SOL    HW125781   3.613   2.630   5.914  0.1922 -1.0129 -0.0359
 4715SOL    HW225782   3.488   2.626   5.845 -0.1389  1.2790 -0.3163
 4716SOL     OW25783   1.700   0.668   1.948 -0.8747 -0.0945  0.0128
 4716SOL    HW125784   1.726   0.595   2.004  1.2992  2.5573  2.4573
 4716SOL    HW225785   1.618   0.635   1.912 -1.3677  0.1524  0.9044
 4717SOL     OW25786   4.225   0.126   9.334  0.4005  0.0381 -0.1269
 4717SOL    HW125787   4.179   0.043   9.326  0.0772  0.2248 -0.1916
 4717SOL    HW225788   4.249   0.129   9.242 -0.6560 -1.3829 -0.4395
 4718SOL     OW25789   4.590   3.135   5.941  0.4727  0.3744  0.0710
 4718SOL    HW125790   4.526   3.108   5.875 -0.4560  2.2355  0.2059
 4718SOL    HW225791   4.649   3.177   5.879 -0.4415  0.2909 -0.8542
 4719SOL     OW25792   0.704   2.042   2.785 -0.0532  0.0383  0.1773
 4719SOL    HW125793   0.700   2.057   2.880  0.5850  0.7171  0.1032
 4719SOL    HW225794   0.781   1.985   2.784 -0.4043 -0.3112 -3.9928
 4720SOL     OW25795   2.447   2.803  11.678 -0.3903 -0.2339  0.5464
 4720SOL    HW125796   2.381   2.828  11.613 -0.2895 -1.5351 -0.0509
 4720SOL    HW225797   2.517   2.866  11.662  1.2253 -1.9230  1.0551
 4721SOL     OW25798   4.431   3.089  12.632  0.1510 -0.1179  0.3275
 4721SOL    HW125799   4.516   3.103  12.675 -0.0278 -0.1476  0.6907
 4721SOL    HW225800   4.419   2.998  12.660 -1.3679 -0.3794 -1.1615
 4722SOL     OW25801   0.547   0.403   2.007  0.3783  0.2891  0.0142
 4722SOL    HW125802   0.557   0.479   2.063  0.6191  0.1201  0.2007
 4722SOL    HW225803   0.453   0.392   1.994  0.3728  0.4948 -0.1196
 4723SOL     OW25804   3.491   2.089   6.025 -0.1730  0.1561 -0.5783
 4723SOL    HW125805   3.438   2.050   5.955  0.7035 -1.3097 -0.4223
 4723SOL    HW225806   3.505   2.180   5.999  1.7137  0.5832  1.9192
 4724SOL     OW25807   3.930   0.313   6.982 -0.3284 -0.5979  0.4702
 4724SOL    HW125808   4.012   0.343   6.945 -1.6880  0.3417 -1.7733
 4724SOL    HW225809   3.959   0.301   7.072  2.8660  0.0273 -0.4930
 4725SOL     OW25810   0.316   3.826   4.916  0.7548  0.1695  0.1845
 4725SOL    HW125811   0.254   3.794   4.850 -0.3175  1.5854  0.4980
 4725SOL    HW225812   0.279   3.793   4.998  0.8022  1.4696  0.7320
 4726SOL     OW25813   3.759   1.856   5.240  0.4049 -0.6436  0.0267
 4726SOL    HW125814   3.815   1.781   5.261  0.7679  0.2789  2.4078
 4726SOL    HW225815   3.759   1.860   5.144 -0.4267  2.0930  0.1485
 4727SOL     OW25816   0.628   4.289   1.651  0.3766  0.2813  0.4705
 4727SOL    HW125817   0.646   4.379   1.624  0.5732  0.0534 -0.1572
 4727SOL    HW225818   0.536   4.291   1.678 -0.0809 -0.2565 -1.0545
 4728SOL     OW25819   0.827   0.513   3.634 -0.2881 -0.1369 -0.1125
 4728SOL    HW125820   0.746   0.474   3.601  0.4263 -3.1854  1.7713
 4728SOL    HW225821   0.884   0.470   3.571  0.3160  0.7349 -0.1574
 4729SOL     OW25822   3.337   1.059   5.246  0.3910  0.0204  0.4035
 4729SOL    HW125823   3.366   1.150   5.257 -1.1497  0.5996 -0.2731
 4729SOL    HW225824   3.260   1.060   5.303  1.0201 -1.7532  1.2485
 4730SOL     OW25825   3.250   2.296  16.968  0.1465  0.4431  0.2147
 4730SOL    HW125826   3.226   2.333  16.883 -1.3826  0.0887  0.4813
 4730SOL    HW225827   3.193   2.342  17.029 -0.5630 -1.2584  0.8330
 4731SOL     OW25828   3.001   0.393   0.876  0.3335  0.1905 -0.3736
 4731SOL    HW125829   2.943   0.469   0.885  2.3050  1.7713 -0.9139
 4731SOL    HW225830   3.005   0.365   0.967 -0.4477  2.0224  0.2274
 4732SOL     OW25831   0.563   2.871  13.107  0.4391  0.0718 -0.4603
 4732SOL    HW125832   0.606   2.902  13.027 -0.1261 -1.8083 -1.4930
 4732SOL    HW225833   0.580   2.941  13.170 -2.9953 -1.6626  2.4099
 4733SOL     OW25834   2.106   1.328   3.599 -0.1986 -0.0636 -0.3252
 4733SOL    HW125835   2.066   1.307   3.683 -0.2663  2.2294  0.2133
 4733SOL    HW225836   2.090   1.422   3.602 -1.6429 -0.3711  2.0464
 4734SOL     OW25837   1.032   0.159   6.985 -0.2501  0.4595 -0.0356
 4734SOL    HW125838   1.009   0.076   7.026  0.6667  0.1906 -0.0506
 4734SOL    HW225839   0.998   0.227   7.044  0.5229  1.0143 -0.2239
 4735SOL     OW25840   1.229   4.127   8.140 -0.0398 -0.3889  0.8619
 4735SOL    HW125841   1.300   4.064   8.152  0.9968  0.2436 -2.1892
 4735SOL    HW225842   1.281   4.205   8.156 -0.5738  0.4054 -1.3733
 4736SOL     OW25843   4.483   1.046   8.837 -0.3224  0.3178 -0.0137
 4736SOL    HW125844   4.488   1.033   8.932 -1.8909 -0.1971  0.0131
 4736SOL    HW225845   4.567   1.087   8.819 -1.1718  2.1480  0.1799
 4737SOL     OW25846   2.393   2.301   3.185 -0.0989 -0.0187  0.2375
 4737SOL    HW125847   2.407   2.338   3.273  1.2602 -0.9011  0.3972
 4737SOL    HW225848   2.455   2.229   3.190 -0.9120 -0.8590 -2.1549
 4738SOL     OW25849   4.550   0.199   6.495  0.6663  0.4004 -0.2015
 4738SOL    HW125850   4.459   0.173   6.507  0.0164  2.2353 -1.0992
 4738SOL    HW225851   4.595   0.116   6.479 -2.0544 -0.5010 -3.0856
 4739SOL     OW25852   2.881   2.626   8.662  0.3507  0.0639  0.6530
 4739SOL    HW125853   2.937   2.638   8.739  1.2552 -0.7761  0.1325
 4739SOL    HW225854   2.911   2.689   8.596 -1.8506 -0.6878 -1.0474
 4740SOL     OW25855   4.162   1.240   2.522  0.4407 -0.5686  0.2488
 4740SOL    HW125856   4.084   1.294   2.505 -0.6208 -2.5015 -1.0368
 4740SOL    HW225857   4.141   1.210   2.611 -2.3826 -1.2090 -0.6449
 4741SOL     OW25858   0.777   2.175   6.092 -0.5981  0.2416  0.8520
 4741SOL    HW125859   0.790   2.196   6.185  1.4358 -1.1300  0.8643
 4741SOL    HW225860   0.697   2.226   6.076 -0.7184 -0.4774 -0.8136
 4742SOL     OW25861   1.462   1.036   2.723 -0.0762  0.7341 -0.1604
 4742SOL    HW125862   1.394   1.001   2.781  1.3368 -0.3351  0.8613
 4742SOL    HW225863   1.468   0.955   2.672  1.8725  0.7489  0.0508
 4743SOL     OW25864   2.757   0.283   5.339  0.3790  0.1715 -0.3907
 4743SOL    HW125865   2.716   0.216   5.394  1.0696 -1.3540 -1.7492
 4743SOL    HW225866   2.727   0.366   5.377  0.7529 -0.6069  1.5948
 4744SOL     OW25867   2.379   2.208   5.128  0.4921 -0.3731  0.3800
 4744SOL    HW125868   2.423   2.188   5.045  1.9028  0.2210  0.9910
 4744SOL    HW225869   2.313   2.272   5.100  1.3476  0.6854  0.8126
 4745SOL     OW25870   1.719   1.944   4.898 -0.2615 -0.5390 -0.2992
 4745SOL    HW125871   1.770   2.009   4.945 -0.3557  0.1131 -1.0837
 4745SOL    HW225872   1.766   1.929   4.816  0.8477  3.4811 -0.3537
 4746SOL     OW25873   2.636   1.324   2.694 -0.1344 -0.2523 -0.1108
 4746SOL    HW125874   2.547   1.351   2.670  0.2930  1.3582  0.0967
 4746SOL    HW225875   2.684   1.340   2.613  2.1912  2.0856  1.7088
 4747SOL     OW25876   4.084   2.925   4.760 -0.2622 -0.2494 -0.5331
 4747SOL    HW125877   4.114   2.838   4.788 -2.4962 -0.0556  2.4294
 4747SOL    HW225878   4.128   2.933   4.675  3.4952  1.2945  1.5603
 4748SOL     OW25879   3.077   2.582  13.689  0.0071  0.0897 -0.0828
 4748SOL    HW125880   2.994   2.540  13.666 -0.3027  0.5716  0.1461
 4748SOL    HW225881   3.113   2.514  13.746  0.3967 -0.4113 -0.9101
 4749SOL     OW25882   2.554   1.560   6.607  0.8961 -0.3180  0.0129
 4749SOL    HW125883   2.487   1.624   6.630  2.1651  1.1352 -0.2963
 4749SOL    HW225884   2.542   1.542   6.514  0.6389  0.9610 -0.1913
 4750SOL     OW25885   3.989   4.447  16.392 -0.3533  0.5501 -0.6758
 4750SOL    HW125886   3.988   4.391  16.315  0.1095 -0.6386  0.1974
 4750SOL    HW225887   4.032   4.528  16.366  1.1746  0.4651  1.5792
 4751SOL     OW25888   1.908   4.354   9.941  0.6525  0.0354  0.5062
 4751SOL    HW125889   1.946   4.422   9.885  2.6169 -1.2677  0.2469
 4751SOL    HW225890   1.828   4.325   9.897  0.8389  1.6708 -0.9347
 4752SOL     OW25891   2.033   0.159   8.745 -0.2156  0.6856 -0.4181
 4752SOL    HW125892   2.011   0.195   8.660 -0.8894 -0.2745 -0.6519
 4752SOL    HW225893   2.092   0.090   8.713 -1.1360  0.3912 -1.4781
 4753SOL     OW25894   0.171   0.812   6.882  0.0525 -0.3849 -0.8932
 4753SOL    HW125895   0.251   0.853   6.914  1.3470 -0.5585 -3.8992
 4753SOL    HW225896   0.216   0.733   6.852  1.5869  0.5421 -1.0391
 4754SOL     OW25897   1.126   4.069   2.042  0.0396 -0.8672 -0.0365
 4754SOL    HW125898   1.068   4.139   2.011 -0.9484 -2.8414 -2.6295
 4754SOL    HW225899   1.204   4.120   2.063 -0.0996  0.0544 -1.7737
 4755SOL     OW25900   1.158   3.377  14.428 -0.0706 -0.4891  0.3770
 4755SOL    HW125901   1.225   3.442  14.449 -0.0211 -0.7255  0.9319
 4755SOL    HW225902   1.195   3.332  14.352 -0.5094 -1.7298  0.9017
 4756SOL     OW25903   0.585   1.509   4.798  0.1536  0.4144 -0.6016
 4756SOL    HW125904   0.497   1.481   4.823  0.2374  1.6958  1.1759
 4756SOL    HW225905   0.570   1.601   4.777  0.8407  0.8857  1.0052
 4757SOL     OW25906   1.225   2.552   7.932  0.0385 -0.2779 -1.0340
 4757SOL    HW125907   1.133   2.532   7.917  0.0588  1.0183 -2.8423
 4757SOL    HW225908   1.238   2.519   8.021  0.8002 -0.2936 -1.1499
 4758SOL     OW25909   2.343   0.314   8.653  0.1303 -0.5926 -0.6069
 4758SOL    HW125910   2.326   0.220   8.639  0.4109 -0.8519  0.8448
 4758SOL    HW225911   2.287   0.334   8.727  1.0428  0.8369 -0.3134
 4759SOL     OW25912   2.524   0.965   7.304  0.2120  0.4400 -0.1445
 4759SOL    HW125913   2.449   0.954   7.362  1.0175  0.8930  0.9956
 4759SOL    HW225914   2.478   1.012   7.235  1.7707  0.0717 -1.4458
 4760SOL     OW25915   4.321   2.384   6.784  0.2469 -0.4390  0.2058
 4760SOL    HW125916   4.360   2.382   6.696 -0.4284 -0.8266 -0.0916
 4760SOL    HW225917   4.346   2.475   6.800  2.4569 -0.7086 -1.6840
 4761SOL     OW25918   2.956   2.870   6.671  0.5314 -0.1659  0.2401
 4761SOL    HW125919   2.998   2.789   6.642  0.7380  1.3761 -3.8931
 4761SOL    HW225920   3.005   2.889   6.750 -0.4646  2.5445  0.2149
 4762SOL     OW25921   2.940   3.088   6.515 -0.4325  0.0036  0.6015
 4762SOL    HW125922   2.944   3.020   6.582  0.5989  0.0703  0.6195
 4762SOL    HW225923   2.860   3.127   6.549 -0.1792 -0.2531  1.4860
 4763SOL     OW25924   2.796   1.213   8.934 -0.0996  0.0714 -0.3015
 4763SOL    HW125925   2.854   1.198   9.009 -2.3823 -0.0763  1.4403
 4763SOL    HW225926   2.787   1.125   8.896 -1.0700  1.1748 -2.5670
 4764SOL     OW25927   2.087   1.599   5.934  0.1871  0.4857 -0.4546
 4764SOL    HW125928   2.037   1.580   6.013  1.7437 -1.0782  0.1732
 4764SOL    HW225929   2.016   1.604   5.869 -1.3972  0.5131  1.2925
 4765SOL     OW25930   0.447   2.790  16.941 -0.8007 -0.2021 -0.9066
 4765SOL    HW125931   0.466   2.771  16.850 -0.7207 -2.4569 -0.4248
 4765SOL    HW225932   0.510   2.728  16.979  0.7469  1.1528 -1.2200
 4766SOL     OW25933   0.286   2.819   2.551 -0.5123 -0.3052  0.2940
 4766SOL    HW125934   0.285   2.851   2.641 -0.7368 -1.0304  0.5527
 4766SOL    HW225935   0.365   2.766   2.545  0.3264  1.0070 -0.0716
 4767SOL     OW25936   1.440   3.461   8.440 -0.0165  0.2697 -0.1544
 4767SOL    HW125937   1.385   3.384   8.433  1.8545 -1.2344  1.5773
 4767SOL    HW225938   1.391   3.499   8.514 -0.8324  0.0112 -0.5641
 4768SOL     OW25939   4.554   3.255   4.666  0.3750 -0.2771  0.4267
 4768SOL    HW125940   4.570   3.168   4.629  2.6576  0.5428 -0.4945
 4768SOL    HW225941   4.464   3.238   4.695  0.6448 -0.6273  1.0722
 4769SOL     OW25942   0.817   2.149   1.915 -0.4938 -0.1567 -0.5903
 4769SOL    HW125943   0.850   2.064   1.889  0.3280  0.5876 -1.9669
 4769SOL    HW225944   0.845   2.161   2.006 -1.5045 -1.7401 -0.0767
 4770SOL     OW25945   0.766   1.950   9.483 -1.2048  0.2695 -0.0319
 4770SOL    HW125946   0.785   2.032   9.438  1.5046 -0.9875 -1.1838
 4770SOL    HW225947   0.673   1.969   9.499 -0.9018  0.2548  1.7469
 4771SOL     OW25948   2.929   2.088   9.955 -0.1432 -0.4675 -0.1854
 4771SOL    HW125949   3.007   2.117   9.908 -0.5136  0.9297  0.0538
 4771SOL    HW225950   2.869   2.061   9.885  1.2912  1.3073 -2.1189
 4772SOL     OW25951   3.628   4.587   4.160 -0.2444 -1.0220 -0.0933
 4772SOL    HW125952   3.674   4.592   4.076 -1.7509 -0.4041 -0.8616
 4772SOL    HW225953   3.547   4.626   4.131 -0.1435 -0.4873  0.3466
 4773SOL     OW25954   0.469   2.148   2.673 -0.2118  0.3227  0.6000
 4773SOL    HW125955   0.466   2.217   2.740  0.4291 -0.2122  1.1896
 4773SOL    HW225956   0.552   2.109   2.703  0.3321  0.4165 -0.7904
 4774SOL     OW25957   0.474   1.062   9.760 -0.8632 -0.4608 -0.2908
 4774SOL    HW125958   0.388   1.059   9.718 -0.1134  0.0771 -1.8457
 4774SOL    HW225959   0.453   1.013   9.840 -1.1652  1.1138  0.5955
 4775SOL     OW25960   2.465   3.955   1.301 -0.4506  0.2522  0.1776
 4775SOL    HW125961   2.384   3.948   1.350 -0.1022 -0.0077  0.7118
 4775SOL    HW225962   2.514   4.018   1.354 -0.0707 -0.5207  0.7451
 4776SOL     OW25963   4.227   0.201   3.098 -0.1956 -0.5989 -0.1988
 4776SOL    HW125964   4.307   0.252   3.088  0.5739 -1.7265  0.2161
 4776SOL    HW225965   4.257   0.111   3.115  0.3053 -0.5421 -0.8132
 4777SOL     OW25966   0.331   3.103   3.004  0.2433  0.0887  0.0676
 4777SOL    HW125967   0.322   3.124   3.097  0.6565  0.9404 -0.0882
 4777SOL    HW225968   0.316   3.190   2.968 -0.2870 -0.1774 -0.3641
 4778SOL     OW25969   0.274   2.095  13.615 -0.2235  0.2425 -0.9685
 4778SOL    HW125970   0.354   2.050  13.588 -0.0447 -0.5416  0.8002
 4778SOL    HW225971   0.213   2.022  13.600  0.1443 -0.2004 -0.3386
 4779SOL     OW25972   3.323   0.428  16.548  0.3876 -0.0922  0.3999
 4779SOL    HW125973   3.370   0.354  16.510  0.9394 -0.7393  2.3460
 4779SOL    HW225974   3.384   0.468  16.609  3.0074 -2.7890 -0.4770
 4780SOL     OW25975   2.289   2.941   3.900 -0.0168  0.8272 -0.1476
 4780SOL    HW125976   2.205   2.895   3.894  0.2941  0.2374  0.0316
 4780SOL    HW225977   2.298   2.929   3.994 -0.9848  0.6274 -0.0801
 4781SOL     OW25978   0.889   0.670   8.466 -0.2540 -0.0854  0.7461
 4781SOL    HW125979   0.877   0.740   8.402  0.1199 -1.0994 -0.4235
 4781SOL    HW225980   0.841   0.703   8.542  1.3911  1.2307  1.2143
 4782SOL     OW25981   0.732   2.465   6.658  0.6087  0.2579  0.0847
 4782SOL    HW125982   0.660   2.501   6.709 -1.2909  0.4030 -2.6645
 4782SOL    HW225983   0.747   2.379   6.698 -0.6370  0.0172  0.0372
 4783SOL     OW25984   0.570   1.901   6.128 -0.3177  0.4326 -0.6581
 4783SOL    HW125985   0.636   1.969   6.125  0.1785 -0.0307 -0.1816
 4783SOL    HW225986   0.551   1.886   6.221  1.1640  1.5143 -0.1878
 4784SOL     OW25987   4.294   4.363   9.232  0.1881 -0.0958  0.4082
 4784SOL    HW125988   4.320   4.454   9.245  0.1727  0.4201 -3.1497
 4784SOL    HW225989   4.199   4.368   9.218  0.0957 -2.2020  0.3382
 4785SOL     OW25990   1.248   1.776   6.435 -0.5779 -0.2763 -0.1218
 4785SOL    HW125991   1.154   1.761   6.445 -0.8829  1.9799  0.3201
 4785SOL    HW225992   1.249   1.842   6.366  1.2430 -0.8103 -0.6077
 4786SOL     OW25993   3.017   3.648   7.046 -0.9996  0.4056  0.2591
 4786SOL    HW125994   3.101   3.651   7.092 -1.2115 -0.2140  0.6887
 4786SOL    HW225995   2.974   3.574   7.088  0.2224 -0.8007 -0.6398
 4787SOL     OW25996   2.102   4.100   8.336  0.2647  0.1221  0.1074
 4787SOL    HW125997   2.130   4.093   8.244 -1.1887 -0.7991 -0.2650
 4787SOL    HW225998   2.170   4.156   8.374 -0.9481  1.1684  0.7587
 4788SOL     OW25999   2.687   4.405  17.524 -0.6381  0.7948  0.2791
 4788SOL    HW126000   2.738   4.370  17.597 -1.4216 -1.1296 -0.0933
 4788SOL    HW226001   2.621   4.336  17.527  0.1152  0.0471 -0.1340
 4789SOL     OW26002   0.486   1.669  11.280  0.6420 -0.6423 -0.2586
 4789SOL    HW126003   0.509   1.589  11.327  0.0501  0.2396  1.4884
 4789SOL    HW226004   0.395   1.678  11.306  1.1790 -0.5532  1.5708
 4790SOL     OW26005   2.797   2.310  10.350 -0.0324 -0.5491 -0.4926
 4790SOL    HW126006   2.815   2.397  10.387 -1.5260 -0.3406 -0.2569
 4790SOL    HW226007   2.883   2.272  10.365  1.4860  2.2102 -2.1787
 4791SOL     OW26008   3.568   0.062   1.642  0.3994 -0.6039  0.1097
 4791SOL    HW126009   3.507   0.005   1.596 -2.1815  1.2768  1.1785
 4791SOL    HW226010   3.594   4.733   1.705  0.0309  0.6594  1.6423
 4792SOL     OW26011   0.340   4.182   7.183 -0.4713  0.3972  0.3022
 4792SOL    HW126012   0.419   4.236   7.191  0.1346 -0.0933 -2.2673
 4792SOL    HW226013   0.356   4.108   7.241 -1.1957 -1.1096 -1.4443
 4793SOL     OW26014   2.839   2.499   4.454  0.1178  0.3952  0.5903
 4793SOL    HW126015   2.890   2.484   4.374 -0.9192 -1.3571  0.2774
 4793SOL    HW226016   2.865   2.582   4.495 -0.4397  0.3633  1.0016
 4794SOL     OW26017   0.103   1.287   3.485 -0.4362 -0.3380  0.2639
 4794SOL    HW126018   0.064   1.290   3.398  1.6694 -0.2242 -0.6612
 4794SOL    HW226019   0.102   1.380   3.507 -0.7179 -0.0838 -0.8148
 4795SOL     OW26020   1.422   3.494   8.796  0.1587  0.2099 -0.3662
 4795SOL    HW126021   1.514   3.514   8.814 -0.0417  1.1858 -0.4519
 4795SOL    HW226022   1.392   3.585   8.793  0.7431  0.3436 -2.4932
 4796SOL     OW26023   1.653   2.055   7.486  0.1534  0.1184 -0.1887
 4796SOL    HW126024   1.578   1.998   7.503  0.2776 -0.1144 -0.4168
 4796SOL    HW226025   1.628   2.138   7.527 -0.5109  0.1666 -0.6968
 4797SOL     OW26026   2.528   1.549   4.727 -0.0177 -0.3864 -0.0751
 4797SOL    HW126027   2.575   1.570   4.646  0.4138  0.0490  0.2904
 4797SOL    HW226028   2.445   1.594   4.714 -0.1806 -0.4650  0.7292
 4798SOL     OW26029   1.926   3.977  16.229  0.6287  0.7467 -1.0435
 4798SOL    HW126030   2.019   4.002  16.224  0.4939  2.2033  3.6083
 4798SOL    HW226031   1.879   4.050  16.188  1.3403  1.5822 -0.3599
 4799SOL     OW26032   3.562   0.806   8.123 -0.8308 -0.6102  0.5203
 4799SOL    HW126033   3.615   0.862   8.179  2.0986 -1.1640 -1.6965
 4799SOL    HW226034   3.539   0.732   8.180  2.2750 -0.8537  1.4459
 4800SOL     OW26035   3.438   2.923  11.784  0.1765 -0.2084  0.2392
 4800SOL    HW126036   3.526   2.884  11.779  1.0023  1.7448 -0.5961
 4800SOL    HW226037   3.400   2.885  11.705  0.0829 -0.0378  0.2037
 4801SOL     OW26038   3.377   1.789   5.204  0.3438 -0.0933  0.4637
 4801SOL    HW126039   3.457   1.748   5.170 -1.1089 -2.3828 -0.1799
 4801SOL    HW226040   3.318   1.725   5.164 -0.7800  1.5360 -0.4597
 4802SOL     OW26041   0.650   0.744   3.998  0.2153 -0.6582 -0.5966
 4802SOL    HW126042   0.699   0.662   4.005 -0.6266 -0.8398  3.1554
 4802SOL    HW226043   0.689   0.777   3.917  0.4744 -1.4117 -0.7761
 4803SOL     OW26044   1.941   0.644  10.171  0.1838 -0.2942 -0.1582
 4803SOL    HW126045   2.033   0.647  10.199 -0.3160  2.2044  1.1766
 4803SOL    HW226046   1.924   0.727  10.126  2.5118 -0.3123 -1.1219
 4804SOL     OW26047   3.703   2.335  10.611 -0.1346  0.3955  0.2683
 4804SOL    HW126048   3.746   2.273  10.669  1.2522  1.1820  0.0700
 4804SOL    HW226049   3.722   2.307  10.522 -0.3283  0.5647  0.1735
 4805SOL     OW26050   0.557   4.077  16.741 -0.7146 -0.7074 -0.0628
 4805SOL    HW126051   0.651   4.063  16.730 -0.5049  1.1816 -0.6013
 4805SOL    HW226052   0.539   3.985  16.761 -2.7262 -0.6860 -1.8285
 4806SOL     OW26053   1.756   2.837  10.012 -0.2577  0.7066 -0.0259
 4806SOL    HW126054   1.830   2.806  10.064 -1.1392  0.5790  1.1610
 4806SOL    HW226055   1.728   2.775   9.944 -0.2199  0.3585  0.2768
 4807SOL     OW26056   0.528   2.358  15.614  0.1349 -0.4544 -0.0722
 4807SOL    HW126057   0.509   2.452  15.617 -0.5332 -0.6115  0.5898
 4807SOL    HW226058   0.485   2.325  15.693 -1.2033  0.8800 -0.2403
 4808SOL     OW26059   2.614   2.001   5.079  0.0058  0.0123  0.2712
 4808SOL    HW126060   2.694   1.951   5.086 -0.7382 -1.0224  1.3174
 4808SOL    HW226061   2.592   2.027   5.168  0.2539  0.8612  0.0839
 4809SOL     OW26062   0.454   3.845   6.245 -0.2516 -0.2044  0.5609
 4809SOL    HW126063   0.408   3.768   6.212 -0.2964 -0.5019  1.3196
 4809SOL    HW226064   0.546   3.820   6.256 -0.0268  1.1381  1.6475
 4810SOL     OW26065   3.269   4.005  14.042 -0.2704 -0.4157  0.1802
 4810SOL    HW126066   3.212   4.073  14.077 -0.4373  0.0614 -1.0022
 4810SOL    HW226067   3.221   3.949  13.981 -3.0332 -0.2033  2.1388
 4811SOL     OW26068   3.935   0.310  16.182  0.2184 -0.4799 -0.1322
 4811SOL    HW126069   3.891   0.232  16.147  3.3522 -1.5056 -1.7247
 4811SOL    HW226070   3.990   0.273  16.250  0.0729  1.5453  1.0925
 4812SOL     OW26071   1.910   0.502   6.908  0.3252 -0.3627 -0.0288
 4812SOL    HW126072   2.002   0.487   6.887  0.1984 -0.7015 -0.3598
 4812SOL    HW226073   1.908   0.511   7.003  0.0643  0.2082 -0.0857
 4813SOL     OW26074   2.310   1.759   8.355 -0.4333 -0.5199  0.1339
 4813SOL    HW126075   2.294   1.669   8.384  1.9628 -1.4958 -1.6346
 4813SOL    HW226076   2.365   1.799   8.423 -0.4766  1.5695 -1.0585
 4814SOL     OW26077   3.489   0.832   0.187  0.3708  0.2537  0.2046
 4814SOL    HW126078   3.530   0.904   0.139 -0.8021  0.8964  0.1862
 4814SOL    HW226079   3.563   0.771   0.192 -1.1551 -1.9060 -3.1996
 4815SOL     OW26080   4.253   4.104  12.524  0.0862 -0.3969 -0.1854
 4815SOL    HW126081   4.235   4.015  12.551  2.0389 -1.4087 -2.1673
 4815SOL    HW226082   4.336   4.125  12.568 -1.1638 -0.8763  2.3651
 4816SOL     OW26083   0.521   1.736  12.809 -0.0427  0.1453 -0.4628
 4816SOL    HW126084   0.490   1.667  12.867  0.6384 -0.2100 -0.5149
 4816SOL    HW226085   0.613   1.738  12.835 -0.4238  0.2229  0.8929
 4817SOL     OW26086   0.151   4.296  16.406 -0.1798 -0.1987  0.1070
 4817SOL    HW126087   0.225   4.346  16.371  0.2035 -0.5944  0.3531
 4817SOL    HW226088   0.176   4.209  16.376 -0.8732  0.2254 -1.7244
 4818SOL     OW26089   2.744   3.854  12.451 -0.2087 -0.3833  0.4531
 4818SOL    HW126090   2.739   3.821  12.541 -3.1648 -1.4935 -0.1440
 4818SOL    HW226091   2.800   3.929  12.471 -0.0737 -0.2318 -0.4996
 4819SOL     OW26092   1.827   2.531   6.831 -0.1901 -0.3413  0.2861
 4819SOL    HW126093   1.831   2.460   6.767  0.6321 -1.4613  1.6040
 4819SOL    HW226094   1.872   2.488   6.903  2.6263  0.8704 -0.7501
 4820SOL     OW26095   3.940   3.904   5.222 -0.5073  0.4387  0.3261
 4820SOL    HW126096   3.873   3.942   5.279 -1.5565 -0.5135 -0.2816
 4820SOL    HW226097   3.968   3.822   5.265 -2.9535 -0.2908  0.4981
 4821SOL     OW26098   1.097   0.104   6.347  0.2054 -0.2791 -0.1397
 4821SOL    HW126099   1.169   0.126   6.407  1.3917  1.5485 -2.2391
 4821SOL    HW226100   1.132   0.017   6.326  1.3285 -0.6183  3.1458
 4822SOL     OW26101   1.422   3.225   0.688 -0.0399 -0.5644  0.0092
 4822SOL    HW126102   1.406   3.143   0.735 -0.0129 -1.3284 -1.3111
 4822SOL    HW226103   1.333   3.239   0.655 -0.2901  0.0410  0.9215
 4823SOL     OW26104   0.017   0.990   9.034  0.7412  0.3034 -0.1606
 4823SOL    HW126105   4.694   0.975   9.105  0.0715 -0.0852 -0.8176
 4823SOL    HW226106   0.094   1.029   9.075  0.5500  1.3457 -0.7823
 4824SOL     OW26107   0.388   1.275   7.445 -0.0713  0.3979  0.4379
 4824SOL    HW126108   0.423   1.363   7.459  0.1279  0.3525  0.2228
 4824SOL    HW226109   0.310   1.276   7.500 -0.3029  2.1993  0.0481
 4825SOL     OW26110   4.517   4.255   9.074 -0.1914  0.1787  0.2658
 4825SOL    HW126111   4.454   4.327   9.080 -0.0957  0.3521 -0.8387
 4825SOL    HW226112   4.488   4.206   9.151 -0.5966 -0.2057 -0.1332
 4826SOL     OW26113   2.993   3.228   8.235 -0.0782 -0.8357  0.3295
 4826SOL    HW126114   3.010   3.259   8.146 -0.8630 -1.0302  0.1085
 4826SOL    HW226115   3.076   3.263   8.266  0.6891 -2.5830  0.2629
 4827SOL     OW26116   2.736   3.677   6.785 -0.1699  0.8491  0.0735
 4827SOL    HW126117   2.738   3.709   6.875  2.1632  1.1698 -0.1160
 4827SOL    HW226118   2.771   3.743   6.726  1.0716 -0.9491 -1.1928
 4828SOL     OW26119   0.138   4.520   8.585  0.1602  0.1746  0.4276
 4828SOL    HW126120   0.144   4.615   8.597 -1.2511  0.5802 -1.9666
 4828SOL    HW226121   0.084   4.494   8.660 -0.0661  0.1286  0.2478
 4829SOL     OW26122   3.545   2.397   3.745  0.1886  0.0356 -0.1241
 4829SOL    HW126123   3.591   2.431   3.822 -1.2365 -1.4831  1.3879
 4829SOL    HW226124   3.467   2.453   3.745  0.6058  0.6356  1.7132
 4830SOL     OW26125   4.375   1.924   6.525  0.0535  0.3496 -0.3189
 4830SOL    HW126126   4.449   1.935   6.585  1.9723 -2.1605 -2.1820
 4830SOL    HW226127   4.345   1.833   6.533  0.4038  0.4243  1.8413
 4831SOL     OW26128   2.567   4.406   4.821 -0.3775 -0.0963  0.1041
 4831SOL    HW126129   2.651   4.450   4.838 -0.8388  0.2580  1.4668
 4831SOL    HW226130   2.499   4.471   4.836  0.1469  0.5154 -0.1719
 4832SOL     OW26131   0.355   3.382   3.694 -0.1785  0.0495 -0.1649
 4832SOL    HW126132   0.345   3.477   3.696 -1.8412 -0.2009  2.7549
 4832SOL    HW226133   0.433   3.369   3.639  1.2348 -1.0080  2.0542
 4833SOL     OW26134   1.914   3.626   2.232 -0.0290 -0.4417  0.2578
 4833SOL    HW126135   1.887   3.593   2.146 -0.2579 -0.2410  0.2553
 4833SOL    HW226136   1.927   3.541   2.275  1.1819 -0.6968 -0.6100
 4834SOL     OW26137   0.413   0.660   8.015 -0.2917 -0.1282 -0.4392
 4834SOL    HW126138   0.445   0.575   8.046 -1.6807  0.3537  2.3006
 4834SOL    HW226139   0.405   0.642   7.921  3.1890  1.7853 -1.1248
 4835SOL     OW26140   2.524   3.034   2.804  0.1142  0.3803  0.1179
 4835SOL    HW126141   2.564   3.103   2.856 -1.1947  0.2843  1.2431
 4835SOL    HW226142   2.509   2.965   2.868  1.0398  1.5287  1.5554
 4836SOL     OW26143   1.156   0.842   3.381 -0.2176 -0.5669 -0.3125
 4836SOL    HW126144   1.226   0.795   3.335 -1.1352  0.4958 -2.7831
 4836SOL    HW226145   1.151   0.922   3.328  0.8004 -0.9391 -0.9665
 4837SOL     OW26146   1.259   1.479   6.712 -0.3486  0.3989  0.0688
 4837SOL    HW126147   1.350   1.508   6.703 -1.0489  3.4555  2.9457
 4837SOL    HW226148   1.206   1.558   6.701  0.1355  0.5081 -1.5772
 4838SOL     OW26149   4.282   0.717   8.353  0.0997 -0.2233  0.3798
 4838SOL    HW126150   4.262   0.807   8.327  2.0272  0.7406  2.2036
 4838SOL    HW226151   4.200   0.667   8.348  0.5359 -0.8500 -0.4593
 4839SOL     OW26152   4.444   2.631   6.919 -0.5647  0.2844  0.4785
 4839SOL    HW126153   4.382   2.638   6.992 -0.3833 -5.1312  1.2105
 4839SOL    HW226154   4.447   2.721   6.889 -1.7633  0.6967  1.5672
 4840SOL     OW26155   3.114   2.682   0.065  0.1277 -0.3313  0.3146
 4840SOL    HW126156   3.124   2.696   0.159  3.8757 -0.2993 -0.0634
 4840SOL    HW226157   3.191   2.625   0.056  0.0361 -0.4408  0.2317
 4841SOL     OW26158   4.462   1.770   4.518  0.2337 -0.2328 -0.4430
 4841SOL    HW126159   4.395   1.721   4.565 -1.2019  2.0529 -0.1476
 4841SOL    HW226160   4.485   1.705   4.451  0.3325  0.5636 -1.1806
 4842SOL     OW26161   2.650   4.251  16.486 -0.4222  0.2086  1.0734
 4842SOL    HW126162   2.664   4.276  16.577 -2.6133  1.7217  1.0127
 4842SOL    HW226163   2.567   4.294  16.465 -0.8911 -0.7999  0.9024
 4843SOL     OW26164   1.472   3.814   3.133  0.4175  0.1598 -0.6546
 4843SOL    HW126165   1.455   3.729   3.093 -1.2084  0.0604  0.2253
 4843SOL    HW226166   1.403   3.802   3.198  0.5674  0.1112 -0.5064
 4844SOL     OW26167   4.031   1.993   8.013  0.2310  0.7660  0.2934
 4844SOL    HW126168   4.001   1.933   7.945  2.1006 -0.9101  0.9488
 4844SOL    HW226169   4.000   1.951   8.093  1.8519  0.9912  1.0393
 4845SOL     OW26170   1.871   4.293  12.369  0.4034 -0.2674 -0.6155
 4845SOL    HW126171   1.814   4.255  12.302  0.6131 -0.8798 -0.4411
 4845SOL    HW226172   1.950   4.245  12.346 -0.2099 -0.4934 -2.2651
 4846SOL     OW26173   0.948   0.279   7.840 -0.0218  0.3894 -0.5975
 4846SOL    HW126174   0.956   0.344   7.910  3.1128  1.2893 -1.7989
 4846SOL    HW226175   0.949   0.196   7.889 -0.0766  0.6371 -0.1758
 4847SOL     OW26176   1.171   3.723   2.182 -0.3901  0.0160  0.0403
 4847SOL    HW126177   1.126   3.792   2.133 -0.8525 -0.7984 -0.7023
 4847SOL    HW226178   1.103   3.679   2.232  0.2520 -1.4414 -0.3650
 4848SOL     OW26179   4.035   4.235  12.394 -0.4000  0.1309 -0.0390
 4848SOL    HW126180   4.107   4.173  12.384 -0.9307 -0.2862 -1.2187
 4848SOL    HW226181   4.051   4.257  12.486 -2.1631  0.5536  0.1848
 4849SOL     OW26182   0.880   0.946   9.004  0.4106  0.2465  0.8027
 4849SOL    HW126183   0.921   0.863   9.029  1.0637  0.4827  0.5136
 4849SOL    HW226184   0.809   0.942   9.068 -1.4059 -0.3986 -1.2643
 4850SOL     OW26185   0.079   1.166   9.986 -0.2274 -1.2765 -0.0727
 4850SOL    HW126186   0.031   1.187  10.066  0.7341 -0.5896  0.3292
 4850SOL    HW226187   0.006   1.166   9.924 -0.3456 -0.8815  0.0649
 4851SOL     OW26188   0.411   1.841   7.515  0.5573  0.6325 -0.6392
 4851SOL    HW126189   0.376   1.924   7.482  1.1762  0.9670 -0.4556
 4851SOL    HW226190   0.498   1.847   7.476  0.3948  0.9753 -0.9434
 4852SOL     OW26191   3.402   3.634  16.790  0.0776 -0.7099  0.0727
 4852SOL    HW126192   3.423   3.591  16.707  3.1515  1.6663 -0.4331
 4852SOL    HW226193   3.439   3.720  16.767 -1.0095 -0.0535  0.7888
 4853SOL     OW26194   2.976   2.388   9.418  0.2210 -0.4163  0.1346
 4853SOL    HW126195   2.914   2.456   9.392  0.2286 -1.4735 -2.6194
 4853SOL    HW226196   2.997   2.421   9.506 -1.0005 -0.3862  0.4150
 4854SOL     OW26197   3.894   3.097   3.673  0.0108  0.1133 -0.7674
 4854SOL    HW126198   3.966   3.116   3.613  0.8412  0.1224  0.2340
 4854SOL    HW226199   3.942   3.075   3.753 -0.1320 -0.4164 -0.8275
 4855SOL     OW26200   0.586   0.109   6.302  0.5985 -0.1543  0.0410
 4855SOL    HW126201   0.541   0.147   6.377  0.8080 -0.7907  0.4870
 4855SOL    HW226202   0.641   0.044   6.345  0.6898 -0.7651 -0.9970
 4856SOL     OW26203   0.167   1.113   7.125  0.0786 -0.5077 -0.0719
 4856SOL    HW126204   0.227   1.071   7.063  0.3387  0.5360 -0.5217
 4856SOL    HW226205   0.197   1.073   7.207  0.7162  1.0006  0.4271
 4857SOL     OW26206   2.564   4.251  10.453 -0.0137 -0.2109  0.2103
 4857SOL    HW126207   2.476   4.275  10.484  0.6707  1.6972  0.6990
 4857SOL    HW226208   2.614   4.281  10.530  1.5233 -0.6542 -0.6149
 4858SOL     OW26209   1.440   1.146   6.269 -0.6484 -0.0152 -0.0409
 4858SOL    HW126210   1.471   1.227   6.308 -3.3363  1.8950 -1.8168
 4858SOL    HW226211   1.513   1.092   6.297  1.1775  0.8865 -3.1046
 4859SOL     OW26212   1.816   4.350   2.243 -0.0383  0.5045  0.0557
 4859SOL    HW126213   1.741   4.305   2.281  1.0716 -1.2950  0.1303
 4859SOL    HW226214   1.834   4.294   2.167  2.3567  2.2335 -0.6573
 4860SOL     OW26215   0.113   2.548   2.442  0.8017  0.2842 -0.2864
 4860SOL    HW126216   0.030   2.544   2.489  0.5512 -0.9250 -0.8398
 4860SOL    HW226217   0.111   2.468   2.390  0.9852 -1.1956  2.0165
 4861SOL     OW26218   0.549   3.034   4.207 -0.1398 -0.3433 -0.1551
 4861SOL    HW126219   0.509   3.092   4.142  3.0704  1.3781 -0.6523
 4861SOL    HW226220   0.489   2.960   4.202 -0.7357  0.0319  1.8289
 4862SOL     OW26221   3.191   4.551   9.194  0.0814  0.1700  0.8455
 4862SOL    HW126222   3.268   4.580   9.243  0.7377 -1.1094  0.5766
 4862SOL    HW226223   3.237   4.507   9.122  1.1225  1.0834  0.9666
 4863SOL     OW26224   1.051   2.070   3.454 -0.4465 -0.3502 -0.5678
 4863SOL    HW126225   1.005   1.987   3.471 -0.2036 -0.7546 -1.8990
 4863SOL    HW226226   1.125   2.066   3.513 -0.7980  0.1769 -0.0942
 4864SOL     OW26227   4.175   3.093   3.616  0.1668  0.1871 -0.3351
 4864SOL    HW126228   4.253   3.124   3.571  0.9720  1.3175  1.8755
 4864SOL    HW226229   4.202   3.096   3.707  1.3492 -1.4977 -0.6324
 4865SOL     OW26230   2.147   2.171   1.288 -0.1768 -0.5786  0.0368
 4865SOL    HW126231   2.171   2.239   1.351  1.1876 -0.9897 -0.0549
 4865SOL    HW226232   2.065   2.149   1.332 -0.2853  0.8331  0.5197
 4866SOL     OW26233   2.358   1.710  16.338 -0.0730 -0.7242 -0.0944
 4866SOL    HW126234   2.410   1.733  16.261 -0.7534 -0.0403 -0.3508
 4866SOL    HW226235   2.291   1.654  16.300  0.1135 -1.4383  0.6374
 4867SOL     OW26236   2.324   0.883  14.701  0.4860 -0.7174  0.0232
 4867SOL    HW126237   2.316   0.978  14.699 -2.0689 -0.8803  1.2992
 4867SOL    HW226238   2.373   0.862  14.622  1.6432 -2.3842  1.1754
 4868SOL     OW26239   0.097   4.252  12.836  0.2920 -0.0275 -0.2929
 4868SOL    HW126240   0.042   4.231  12.912 -1.0339  0.3083 -1.1645
 4868SOL    HW226241   0.121   4.343  12.850 -0.1793  0.1680 -0.7505
 4869SOL     OW26242   2.617   1.958   2.839  0.2830 -0.1847  0.4058
 4869SOL    HW126243   2.641   2.037   2.887  3.6326 -0.7349 -0.3252
 4869SOL    HW226244   2.634   1.979   2.747  0.4074 -0.8206  0.2785
 4870SOL     OW26245   4.581   1.011   7.037  0.3451  0.3023  0.2016
 4870SOL    HW126246   4.578   1.067   7.114  2.4660 -0.1441  0.6169
 4870SOL    HW226247   4.675   0.991   7.032  0.7535  2.2327  0.0583
 4871SOL     OW26248   1.823   1.767  15.810 -0.1250  0.3882  0.3298
 4871SOL    HW126249   1.881   1.743  15.883  1.5383 -0.1791 -1.1910
 4871SOL    HW226250   1.733   1.746  15.835 -0.0135  0.2769  0.6440
 4872SOL     OW26251   3.793   1.395   9.819 -0.6142 -0.0120  0.4928
 4872SOL    HW126252   3.877   1.437   9.836  0.2766 -1.3985 -0.4986
 4872SOL    HW226253   3.799   1.375   9.726 -0.9337  0.9726  0.2664
 4873SOL     OW26254   4.497   1.373   6.660  0.5440 -0.2559 -0.0073
 4873SOL    HW126255   4.581   1.352   6.699  0.0475  1.5240  2.0394
 4873SOL    HW226256   4.490   1.291   6.611  0.1890  0.3842 -1.0271
 4874SOL     OW26257   0.976   2.274   4.486  0.2250 -0.2954  0.2609
 4874SOL    HW126258   0.972   2.231   4.572 -0.7874 -1.1824 -0.2494
 4874SOL    HW226259   1.038   2.224   4.433  0.2426  1.2580 -1.1765
 4875SOL     OW26260   1.526   2.160   6.194 -0.6761 -0.0924 -0.7132
 4875SOL    HW126261   1.544   2.194   6.282 -0.7331  0.6623 -0.9983
 4875SOL    HW226262   1.547   2.067   6.200 -0.7485  0.0876  2.3344
 4876SOL     OW26263   2.615   3.017   5.636  0.5222  0.2210  0.1414
 4876SOL    HW126264   2.541   2.984   5.687 -2.0749  0.8306 -3.2248
 4876SOL    HW226265   2.683   2.958   5.670 -0.8590 -0.5359  1.5454
 4877SOL     OW26266   1.697   3.548   5.293  0.1471  0.0362 -0.0372
 4877SOL    HW126267   1.615   3.524   5.337  2.3973 -1.1406  3.5322
 4877SOL    HW226268   1.708   3.639   5.322  1.0327 -0.1038  0.0472
 4878SOL     OW26269   1.091   2.111   6.703 -0.2372  0.2004  0.1422
 4878SOL    HW126270   1.003   2.148   6.697 -0.5177 -0.1457  2.1585
 4878SOL    HW226271   1.070   2.070   6.787 -2.0940  0.2277 -0.3058
 4879SOL     OW26272   4.213   2.994   1.162  0.2017  0.2783  0.0359
 4879SOL    HW126273   4.152   2.975   1.234 -1.1559 -1.8731 -1.6590
 4879SOL    HW226274   4.299   3.000   1.203 -0.1250  0.2518  0.7204
 4880SOL     OW26275   1.930   0.471   6.049 -0.6576  0.0800 -0.2420
 4880SOL    HW126276   1.848   0.443   6.007  0.4326 -1.1836 -1.5205
 4880SOL    HW226277   1.919   0.433   6.136 -2.1866  2.6169  0.6867
 4881SOL     OW26278   1.677   1.167   9.100 -0.1671 -0.1467 -0.4201
 4881SOL    HW126279   1.629   1.235   9.146  1.0813 -0.1777  0.9297
 4881SOL    HW226280   1.754   1.212   9.064  0.5396  0.8694  2.3476
 4882SOL     OW26281   0.317   1.385   6.907 -0.3796 -0.1569  0.3728
 4882SOL    HW126282   0.403   1.404   6.944 -0.6700  0.7455  0.5944
 4882SOL    HW226283   0.337   1.369   6.815 -2.3701 -1.7349  0.2107
 4883SOL     OW26284   4.257   4.061   1.225  0.3981 -0.4597  0.1710
 4883SOL    HW126285   4.341   4.106   1.227  1.3631 -2.1349 -3.2490
 4883SOL    HW226286   4.194   4.126   1.257 -1.4632 -2.3441  0.3136
 4884SOL     OW26287   0.387   0.183   7.926  0.1915 -0.2672 -0.9102
 4884SOL    HW126288   0.341   0.099   7.928  0.2819 -0.3034 -0.3814
 4884SOL    HW226289   0.333   0.251   7.965 -1.1486 -1.5024 -0.5909
 4885SOL     OW26290   2.356   3.893   9.865 -0.1067 -0.1338 -0.6931
 4885SOL    HW126291   2.398   3.807   9.863  0.4227  0.1502 -1.8724
 4885SOL    HW226292   2.438   3.941   9.869 -0.1859 -0.0048 -0.6028
 4886SOL     OW26293   1.422   1.525   4.441 -0.1962 -0.3830 -0.1176
 4886SOL    HW126294   1.511   1.508   4.410 -0.5595  0.3439 -1.5712
 4886SOL    HW226295   1.371   1.502   4.363  0.5291  3.3233 -1.7102
 4887SOL     OW26296   1.602   1.914   6.783  0.1522  0.3041 -0.2693
 4887SOL    HW126297   1.535   1.871   6.837  1.0115 -0.1781  0.4224
 4887SOL    HW226298   1.550   1.916   6.703  1.1478  1.1789 -0.8820
 4888SOL     OW26299   4.152   1.193   8.865  0.3261 -0.2887 -0.3218
 4888SOL    HW126300   4.152   1.235   8.952 -1.6152 -0.1688 -0.3874
 4888SOL    HW226301   4.245   1.190   8.844 -0.0430 -1.5600 -1.7392
 4889SOL     OW26302   0.286   0.761   5.823 -0.1283 -0.2890  0.3439
 4889SOL    HW126303   0.240   0.684   5.857 -0.4806 -0.3671 -0.3226
 4889SOL    HW226304   0.219   0.825   5.845  0.6440  0.5264  0.3375
 4890SOL     OW26305   4.130   4.556   5.523  0.6961  0.4482 -0.0747
 4890SOL    HW126306   4.164   4.606   5.449  2.4328  0.1114  0.4934
 4890SOL    HW226307   4.208   4.538   5.575  0.8793 -0.0623 -0.5342
 4891SOL     OW26308   1.487   4.319   3.042 -0.0166 -0.0524  0.3526
 4891SOL    HW126309   1.495   4.240   2.989  0.3636  1.2180 -1.4935
 4891SOL    HW226310   1.474   4.276   3.126  1.0150  0.1652  0.6217
 4892SOL     OW26311   1.005   2.260   4.103  0.2668  0.6334  0.0246
 4892SOL    HW126312   1.097   2.238   4.088 -0.4909 -2.0215 -0.6908
 4892SOL    HW226313   0.984   2.212   4.183  0.5066  2.0002  0.9167
 4893SOL     OW26314   1.083   0.046  13.169  0.6403  0.1620 -0.1873
 4893SOL    HW126315   1.077   4.691  13.147  0.6784  0.5960 -2.0352
 4893SOL    HW226316   1.085   0.088  13.083  0.6554  0.0361 -0.2485
 4894SOL     OW26317   4.352   2.682   6.026  0.0338  0.7625 -0.1169
 4894SOL    HW126318   4.298   2.632   6.087 -0.4268  1.9422  0.4442
 4894SOL    HW226319   4.401   2.722   6.098 -0.1937  0.7314  0.0563
 4895SOL     OW26320   4.159   3.288   1.967 -0.2483 -0.2786 -0.4208
 4895SOL    HW126321   4.131   3.250   2.050  0.6824 -0.3772 -0.1549
 4895SOL    HW226322   4.211   3.212   1.940  1.4126  1.1474 -1.2298
 4896SOL     OW26323   3.040   0.967   3.236 -0.0235 -0.1113  0.1697
 4896SOL    HW126324   3.112   0.959   3.298  0.4740 -0.1940 -0.4093
 4896SOL    HW226325   2.984   0.890   3.239 -1.6514  1.2224  3.8436
 4897SOL     OW26326   0.132   1.559   3.512  0.3704  0.3123 -0.1654
 4897SOL    HW126327   0.095   1.624   3.572 -0.1944  1.0660 -1.3275
 4897SOL    HW226328   0.222   1.588   3.493  0.8066 -0.1373  1.2146
 4898SOL     OW26329   2.673   3.186   8.320  0.3055 -0.4299  0.4661
 4898SOL    HW126330   2.635   3.269   8.349  1.7893  0.2729  0.3976
 4898SOL    HW226331   2.687   3.208   8.228  0.0368  1.9126  0.9620
 4899SOL     OW26332   3.931   1.044  11.778 -0.4622 -0.6886  0.1662
 4899SOL    HW126333   3.940   0.959  11.737  0.4252 -0.8422  0.6980
 4899SOL    HW226334   3.903   1.099  11.704  0.4313 -1.1246 -0.4812
 4900SOL     OW26335   2.674   1.809  13.239  0.1744 -0.0928 -0.3379
 4900SOL    HW126336   2.746   1.871  13.225 -0.0925  0.3856  0.3865
 4900SOL    HW226337   2.711   1.721  13.243 -1.1486 -0.6036  0.7528
 4901SOL     OW26338   0.241   2.720   1.065  0.2745  0.2704 -0.3582
 4901SOL    HW126339   0.298   2.797   1.065 -1.3465  1.4690 -3.7677
 4901SOL    HW226340   0.302   2.668   1.117 -0.9603  1.0147  1.8347
 4902SOL     OW26341   1.426   0.463  10.169 -0.1551 -0.2582 -0.4763
 4902SOL    HW126342   1.409   0.423  10.255  0.9056 -0.0982 -0.1925
 4902SOL    HW226343   1.419   0.557  10.183  1.2288 -0.4032  1.1626
 4903SOL     OW26344   0.506   0.499   6.141 -0.0847 -0.3151 -0.4232
 4903SOL    HW126345   0.584   0.526   6.189  0.9768 -2.3835 -0.9850
 4903SOL    HW226346   0.519   0.551   6.062 -0.0173 -1.0065 -0.8566
 4904SOL     OW26347   1.393   4.737   5.398 -0.0602 -0.1335  0.1595
 4904SOL    HW126348   1.422   0.086   5.423  0.4008  0.0009 -0.8592
 4904SOL    HW226349   1.412   0.010   5.305  1.4423  0.9317  0.6071
 4905SOL     OW26350   1.958   1.810   8.366 -0.4264  0.1393 -0.1650
 4905SOL    HW126351   2.008   1.774   8.292 -0.5755  1.2750 -0.8073
 4905SOL    HW226352   1.873   1.770   8.347 -0.3478 -1.0782  1.9587
 4906SOL     OW26353   3.497   2.975   1.934  0.2537  0.3354  0.0124
 4906SOL    HW126354   3.402   2.977   1.930  0.3709  2.1241 -2.2432
 4906SOL    HW226355   3.506   2.918   1.857  0.0465  0.4900 -0.1267
 4907SOL     OW26356   0.010   3.603  17.547 -0.3412 -0.0259  0.0232
 4907SOL    HW126357   0.097   3.621  17.510 -0.3316 -0.7154 -0.2779
 4907SOL    HW226358   0.022   3.516  17.585  0.4151  0.2526  0.4224
 4908SOL     OW26359   1.257   4.519  13.078  0.0210 -0.0390 -0.0062
 4908SOL    HW126360   1.327   4.458  13.054 -1.4806 -1.3513 -1.1437
 4908SOL    HW226361   1.299   4.604  13.064 -0.3792  0.1104 -0.3019
 4909SOL     OW26362   1.267   3.536   9.566 -0.1905  0.2057 -0.4529
 4909SOL    HW126363   1.295   3.602   9.502 -1.2589  1.2041  0.0960
 4909SOL    HW226364   1.328   3.559   9.635 -1.7964 -0.0110  1.0364
 4910SOL     OW26365   4.577   4.202   8.791 -0.1988  0.3579  0.0991
 4910SOL    HW126366   4.576   4.217   8.885 -1.3809  0.9186 -0.0039
 4910SOL    HW226367   4.665   4.165   8.780  1.1174  3.9577 -1.3298
 4911SOL     OW26368   3.876   2.519   2.392 -0.1454 -0.1833 -0.3400
 4911SOL    HW126369   3.818   2.552   2.323 -1.6567 -1.3098  0.4109
 4911SOL    HW226370   3.863   2.425   2.387 -0.3936 -0.0844 -1.6362
 4912SOL     OW26371   2.575   4.680  16.767  0.1541 -0.0124  0.0472
 4912SOL    HW126372   2.503   4.673  16.829 -0.0166 -2.8232 -0.4469
 4912SOL    HW226373   2.531   4.717  16.690  1.8395 -2.9868 -2.3619
 4913SOL     OW26374   2.115   1.277   9.380  0.1909  0.0787 -0.4661
 4913SOL    HW126375   2.087   1.201   9.329 -0.4410 -0.0428  0.0578
 4913SOL    HW226376   2.033   1.324   9.395 -0.7456 -0.8921 -2.4327
 4914SOL     OW26377   2.818   3.187  12.395 -0.0417  0.3282 -0.4216
 4914SOL    HW126378   2.850   3.120  12.334 -1.3331 -0.1480 -0.5686
 4914SOL    HW226379   2.852   3.159  12.480 -1.4233  1.6559  0.5785
 4915SOL     OW26380   0.050   1.451   4.795 -1.1771  0.9399  0.4530
 4915SOL    HW126381   0.002   1.369   4.805  1.4817 -0.5142  1.4831
 4915SOL    HW226382   4.730   1.509   4.844  2.1425  2.5334  2.5154
 4916SOL     OW26383   4.448   1.645   8.268  0.5776  0.0784 -0.1398
 4916SOL    HW126384   4.415   1.561   8.237 -1.1658  0.9520 -0.6116
 4916SOL    HW226385   4.537   1.622   8.295 -0.0087 -0.8302  0.9966
 4917SOL     OW26386   3.639   0.391   5.490 -0.1822 -0.7453  0.2567
 4917SOL    HW126387   3.546   0.397   5.514 -0.6585 -2.7193 -1.0954
 4917SOL    HW226388   3.671   0.464   5.544 -0.3048 -0.2010 -0.4027
 4918SOL     OW26389   4.640   2.142  15.262  0.1580  0.1024  0.6256
 4918SOL    HW126390   4.733   2.138  15.283  0.5256 -0.8340 -1.1910
 4918SOL    HW226391   4.627   2.067  15.204 -0.3124  0.4450  0.2836
 4919SOL     OW26392   1.682   0.921   2.952 -0.0769  0.2692 -0.5415
 4919SOL    HW126393   1.703   0.993   3.011  0.5666  0.3557 -0.8653
 4919SOL    HW226394   1.708   0.964   2.870 -0.6135  0.7109 -0.4772
 4920SOL     OW26395   1.414   4.299  12.981 -0.1863 -0.0423  0.1539
 4920SOL    HW126396   1.493   4.337  12.942  1.3452 -3.7157 -0.2824
 4920SOL    HW226397   1.458   4.221  13.014  2.4185  1.3779  0.0255
 4921SOL     OW26398   1.418   2.245   8.922 -0.0409  0.0224  0.3783
 4921SOL    HW126399   1.418   2.150   8.936  1.0986 -0.0675 -0.2716
 4921SOL    HW226400   1.512   2.260   8.931 -0.0797 -0.0500  0.9231
 4922SOL     OW26401   4.214   0.892   1.728  0.8651  0.1508 -0.2588
 4922SOL    HW126402   4.294   0.888   1.675  0.3786  0.5113 -1.0252
 4922SOL    HW226403   4.169   0.815   1.694  0.2732  0.2931  0.2203
 4923SOL     OW26404   0.197   0.111   2.358 -0.7480  0.2268  0.0261
 4923SOL    HW126405   0.166   0.026   2.326  2.1002 -0.6842 -0.3042
 4923SOL    HW226406   0.281   0.083   2.394 -2.2233 -1.9405  1.8248
 4924SOL     OW26407   1.979   0.336   2.270  0.0165  0.5687 -0.1465
 4924SOL    HW126408   2.015   0.267   2.214 -0.0450 -0.0539  0.5810
 4924SOL    HW226409   2.022   0.304   2.349  2.0351 -0.3652 -1.6313
 4925SOL     OW26410   3.714   0.332   9.074  0.0743 -0.0111  0.5012
 4925SOL    HW126411   3.750   0.392   9.140  0.9287  0.7309 -0.6415
 4925SOL    HW226412   3.664   0.274   9.132  0.7094 -1.3100 -0.2414
 4926SOL     OW26413   2.210   3.155   1.642 -0.4946 -0.5638  0.1426
 4926SOL    HW126414   2.211   3.245   1.610  1.0681 -0.5729  0.1682
 4926SOL    HW226415   2.306   3.148   1.647 -0.5556  0.8632  3.0023
 4927SOL     OW26416   1.724   3.082   6.583  0.0198  0.6869  0.7002
 4927SOL    HW126417   1.645   3.028   6.575 -0.1295  1.5074 -3.4444
 4927SOL    HW226418   1.763   3.027   6.515 -2.9448 -0.5990  0.0365
 4928SOL     OW26419   0.104   0.469   2.681 -0.1518  0.2745  0.5658
 4928SOL    HW126420   0.164   0.431   2.745 -0.1646 -0.1185  0.3422
 4928SOL    HW226421   0.020   0.456   2.725 -1.1033 -0.0412 -1.3337
 4929SOL     OW26422   0.646   2.030   4.017  0.7182  0.6833  0.0326
 4929SOL    HW126423   0.564   2.078   4.026  0.0677 -0.0410 -1.9345
 4929SOL    HW226424   0.617   1.943   4.043  0.4837  0.4947 -0.8666
 4930SOL     OW26425   4.411   2.276  15.354  0.1574  0.8804  0.2133
 4930SOL    HW126426   4.335   2.217  15.353  0.2239  0.7664  2.9234
 4930SOL    HW226427   4.479   2.224  15.312  2.9687  3.1247  1.9586
 4931SOL     OW26428   0.198   2.244   5.935 -0.2965  0.3734  0.3734
 4931SOL    HW126429   0.130   2.286   5.882  0.6054  1.1277 -0.1772
 4931SOL    HW226430   0.266   2.243   5.868  0.8070  0.3078  1.4950
 4932SOL     OW26431   1.552   0.416   5.469  0.1580 -0.5384 -0.1302
 4932SOL    HW126432   1.537   0.340   5.412 -1.4152  1.1855 -1.9970
 4932SOL    HW226433   1.648   0.417   5.471  0.0829  0.0263  2.2383
 4933SOL     OW26434   0.977   0.982   9.351  0.4386  0.3098  0.1677
 4933SOL    HW126435   1.015   1.067   9.329  1.3135 -0.1096  0.0573
 4933SOL    HW226436   1.060   0.938   9.371 -0.3825 -0.6958  1.2971
 4934SOL     OW26437   4.354   3.415  17.491 -0.0514 -0.6388 -0.8386
 4934SOL    HW126438   4.385   3.430  17.402  0.1939 -1.6775 -0.9233
 4934SOL    HW226439   4.427   3.447  17.545 -0.1823  1.6544 -1.9845
 4935SOL     OW26440   3.801   2.195  10.352  0.0107 -0.1032 -0.0008
 4935SOL    HW126441   3.861   2.121  10.361  0.5797  0.5499  1.5377
 4935SOL    HW226442   3.870   2.259  10.336 -1.7352  1.5367 -0.8594
 4936SOL     OW26443   2.098   2.579  10.791 -0.0306 -0.0814  0.4584
 4936SOL    HW126444   2.169   2.532  10.836  0.0034  0.5018  1.0207
 4936SOL    HW226445   2.152   2.644  10.746 -1.0517  0.0506 -0.5712
 4937SOL     OW26446   4.251   0.921  16.941 -0.1992  0.4659 -0.2884
 4937SOL    HW126447   4.322   0.948  16.882 -0.4830 -0.5320 -1.0920
 4937SOL    HW226448   4.176   0.965  16.901 -1.2444 -0.5904  0.5178
 4938SOL     OW26449   1.463   3.086   4.920  0.1739 -0.3206  0.1978
 4938SOL    HW126450   1.477   3.114   5.010 -0.9583 -2.1346  0.9454
 4938SOL    HW226451   1.396   3.147   4.890  0.0337 -0.7007 -0.2731
 4939SOL     OW26452   1.607   3.321   0.525 -0.4596 -0.0034 -0.1095
 4939SOL    HW126453   1.531   3.309   0.581  0.1088  0.9651  0.8582
 4939SOL    HW226454   1.635   3.229   0.531 -1.0066 -0.1716 -0.1727
 4940SOL     OW26455   1.684   0.919   4.004 -0.0967  0.5542  0.1095
 4940SOL    HW126456   1.620   0.966   4.057 -1.2362 -1.3541  0.4412
 4940SOL    HW226457   1.715   0.860   4.073  1.7977  0.0780 -1.1552
 4941SOL     OW26458   1.540   0.146   6.189 -0.8437 -0.2477  0.1359
 4941SOL    HW126459   1.623   0.098   6.180 -0.4722  0.4831 -0.3288
 4941SOL    HW226460   1.468   0.084   6.191 -2.4373  1.5737 -0.8803
 4942SOL     OW26461   0.673   4.453  10.820  0.0532  0.4261 -0.2405
 4942SOL    HW126462   0.638   4.486  10.903 -1.3795 -0.9703 -0.2938
 4942SOL    HW226463   0.716   4.379  10.861 -0.4613 -0.6947 -1.7471
 4943SOL     OW26464   2.733   2.651   7.233  0.0775 -0.7788 -0.2143
 4943SOL    HW126465   2.713   2.738   7.199  1.3137 -1.1069 -1.8439
 4943SOL    HW226466   2.649   2.639   7.277  0.2058 -2.1466 -0.3540
 4944SOL     OW26467   2.680   0.939  13.475 -0.4948  0.5261 -0.1330
 4944SOL    HW126468   2.706   0.906  13.390  1.6355 -1.9827  1.4861
 4944SOL    HW226469   2.642   0.860  13.515 -1.2291  0.5794 -0.7286
 4945SOL     OW26470   0.828   1.850   2.629  0.1375 -0.5274 -0.5589
 4945SOL    HW126471   0.887   1.796   2.577  0.4232  0.9982 -1.8249
 4945SOL    HW226472   0.844   1.929   2.577 -1.2602  0.5227  0.5803
 4946SOL     OW26473   0.371   2.357   4.688  0.7608  0.8449  0.0776
 4946SOL    HW126474   0.335   2.381   4.602 -1.8170 -2.5913  0.1834
 4946SOL    HW226475   0.418   2.276   4.671 -1.2378 -0.5520  1.2689
 4947SOL     OW26476   1.100   3.326   7.544 -0.2526  0.0917  0.1613
 4947SOL    HW126477   1.011   3.316   7.579  0.1889  3.1294  2.1072
 4947SOL    HW226478   1.099   3.278   7.461 -0.5310  0.2193  0.0926
 4948SOL     OW26479   4.188   0.131   5.973 -0.0706  0.1694 -0.8070
 4948SOL    HW126480   4.159   0.219   5.951  0.1890  0.6719  0.8765
 4948SOL    HW226481   4.105   0.083   5.972  0.8120 -1.3550 -1.4464
 4949SOL     OW26482   0.908   1.788   0.394  0.2803 -0.3929  0.2231
 4949SOL    HW126483   0.958   1.866   0.369  2.4164 -0.8907  2.9411
 4949SOL    HW226484   0.983   1.739   0.427  2.2225  1.7217 -1.0805
 4950SOL     OW26485   1.054   3.028   3.264 -0.5011  0.0206 -0.1243
 4950SOL    HW126486   1.080   3.002   3.175  0.2104  0.1000  0.0614
 4950SOL    HW226487   1.074   2.948   3.313  0.0321  0.3085  0.1349
 4951SOL     OW26488   1.478   3.484  16.545 -0.0364  0.4583  0.2231
 4951SOL    HW126489   1.568   3.494  16.513  0.3838  1.8070  1.7947
 4951SOL    HW226490   1.476   3.516  16.635  1.1552  0.0939  0.3842
 4952SOL     OW26491   1.271   2.287   7.590 -0.1013 -0.2541  0.2570
 4952SOL    HW126492   1.361   2.298   7.558  0.1426  1.8885  1.7203
 4952SOL    HW226493   1.266   2.364   7.647 -0.1227 -0.6442  0.7837
 4953SOL     OW26494   0.699   3.223   7.930 -0.0243  0.6992  0.4063
 4953SOL    HW126495   0.749   3.244   7.851  1.5973  0.1459  1.2840
 4953SOL    HW226496   0.776   3.213   7.986  0.9282 -1.3207 -1.2355
 4954SOL     OW26497   1.153   4.563   6.354  0.0958 -0.0471  0.7976
 4954SOL    HW126498   1.187   4.540   6.440  0.7134 -0.4233  0.4564
 4954SOL    HW226499   1.082   4.500   6.350 -0.3779  0.5754 -0.8240
 4955SOL     OW26500   3.092   2.925   2.581  0.3617  0.1802  0.3411
 4955SOL    HW126501   3.051   2.913   2.496  0.4135 -2.4184  0.6717
 4955SOL    HW226502   3.136   3.010   2.578 -1.5995  1.1802 -0.0884
 4956SOL     OW26503   0.665   3.465   2.055  0.2744 -0.2825 -0.1525
 4956SOL    HW126504   0.571   3.464   2.040  0.4907  2.1136 -1.5969
 4956SOL    HW226505   0.668   3.420   2.140  0.9427  1.8382  0.9346
 4957SOL     OW26506   1.699   2.797  14.690 -0.5439  0.4458  0.1073
 4957SOL    HW126507   1.689   2.795  14.595 -0.8300  2.4499  0.0840
 4957SOL    HW226508   1.776   2.854  14.699 -1.5534  2.1355 -1.8073
 4958SOL     OW26509   1.558   2.506   9.925 -0.3924 -0.5553  0.5021
 4958SOL    HW126510   1.632   2.508   9.987  0.1132  1.7836 -0.1567
 4958SOL    HW226511   1.610   2.495   9.846 -1.1251  1.4165 -0.2680
 4959SOL     OW26512   2.070   2.369   5.585 -0.2385 -0.1210 -0.5666
 4959SOL    HW126513   1.988   2.322   5.600 -1.0146  1.4921  0.2230
 4959SOL    HW226514   2.122   2.302   5.540  0.3785  0.4300 -0.6710
 4960SOL     OW26515   1.730   3.128  12.565 -0.0310  0.3956  0.2926
 4960SOL    HW126516   1.803   3.160  12.511 -2.5564  1.3780 -2.4903
 4960SOL    HW226517   1.656   3.174  12.526  2.4116  3.2808 -1.0478
 4961SOL     OW26518   2.244   3.752   5.573 -0.2823  0.1150  0.5837
 4961SOL    HW126519   2.325   3.703   5.587  1.6055  2.4274 -2.4359
 4961SOL    HW226520   2.279   3.841   5.575 -1.8980  0.7601  0.3021
 4962SOL     OW26521   0.216   3.991   4.553 -0.2229 -0.2149 -0.4670
 4962SOL    HW126522   0.194   3.901   4.530  1.2184 -1.0158  1.3272
 4962SOL    HW226523   0.308   3.993   4.528 -0.2182  0.3095 -0.4197
 4963SOL     OW26524   2.392   2.802   6.591  0.2365  0.3307 -0.0614
 4963SOL    HW126525   2.341   2.747   6.533 -0.5075 -0.3979  1.2796
 4963SOL    HW226526   2.469   2.830   6.542  0.8651 -1.9902 -0.3893
 4964SOL     OW26527   1.973   3.765   5.708  0.5895 -0.5078  0.4022
 4964SOL    HW126528   2.069   3.758   5.707  0.6256  0.2760 -1.0432
 4964SOL    HW226529   1.961   3.797   5.618  0.5113 -0.1152  0.5534
 4965SOL     OW26530   4.540   3.851  14.564  0.6399 -0.6682  0.6341
 4965SOL    HW126531   4.495   3.933  14.539  0.1547 -2.1883 -3.5123
 4965SOL    HW226532   4.486   3.787  14.518  1.7011  0.0447 -1.6093
 4966SOL     OW26533   4.276   2.683  12.292  0.4465  0.3626  0.0514
 4966SOL    HW126534   4.288   2.776  12.312 -1.8637  0.4085  1.1533
 4966SOL    HW226535   4.341   2.684  12.221  0.5378  0.3463  0.1350
 4967SOL     OW26536   4.067   0.851  17.261  0.6721  0.6636 -0.0264
 4967SOL    HW126537   4.041   0.783  17.199  0.5920  0.8429 -0.1905
 4967SOL    HW226538   4.159   0.825  17.273 -0.2417 -2.6555 -0.2410
 4968SOL     OW26539   3.108   0.223  13.290 -0.0823 -0.3354 -0.1796
 4968SOL    HW126540   3.174   0.207  13.223 -0.0560  2.7582 -0.8812
 4968SOL    HW226541   3.144   0.306  13.320  2.2443 -1.1438 -0.7762
 4969SOL     OW26542   0.561   2.436   3.368  0.0474 -0.0530  0.3132
 4969SOL    HW126543   0.550   2.421   3.274  2.3806  1.3516 -0.1818
 4969SOL    HW226544   0.592   2.527   3.373  0.4710 -0.1225 -1.1466
 4970SOL     OW26545   1.526   0.754   0.757 -0.6226 -0.6968 -0.7432
 4970SOL    HW126546   1.542   0.659   0.759  1.4119 -0.3500  0.1170
 4970SOL    HW226547   1.613   0.786   0.731 -0.1297  0.1365  1.9419
 4971SOL     OW26548   0.806   2.445   7.222 -0.0906  0.1314 -0.3214
 4971SOL    HW126549   0.901   2.438   7.213 -0.0342 -0.2922  0.6299
 4971SOL    HW226550   0.799   2.467   7.315  0.0461 -0.8460 -0.0854
 4972SOL     OW26551   1.173   1.029   4.085  0.5112  0.3899  0.2931
 4972SOL    HW126552   1.138   0.974   4.156 -0.4581 -0.8819 -1.1901
 4972SOL    HW226553   1.176   0.963   4.016 -1.9641  1.7215 -1.1014
 4973SOL     OW26554   2.667   0.075  15.268  0.2165  0.0353  0.0534
 4973SOL    HW126555   2.598   0.106  15.326  0.1272  0.5594 -0.3312
 4973SOL    HW226556   2.727   0.149  15.282  1.0086 -0.4206 -0.9829
 4974SOL     OW26557   1.864   3.860   3.671  0.3164  0.0864 -0.0212
 4974SOL    HW126558   1.921   3.834   3.598 -0.6264 -0.6746 -0.4799
 4974SOL    HW226559   1.789   3.877   3.614  1.1055 -4.0732 -2.2735
 4975SOL     OW26560   3.153   2.945   1.630  0.2630 -0.2070  0.1330
 4975SOL    HW126561   3.146   2.941   1.725  1.2133  0.5391  0.2359
 4975SOL    HW226562   3.062   2.961   1.603  0.9662 -1.2358 -2.8083
 4976SOL     OW26563   2.933   1.090   1.644  0.3852 -0.0053 -0.0465
 4976SOL    HW126564   2.937   1.184   1.662 -1.8991  0.0500  0.0917
 4976SOL    HW226565   2.927   1.048   1.730 -0.2676  0.4345  0.1192
 4977SOL     OW26566   3.613   3.174  11.645  0.0897  0.5731 -0.0372
 4977SOL    HW126567   3.544   3.164  11.711  1.5300  0.8058  1.4966
 4977SOL    HW226568   3.689   3.147  11.696 -0.2234 -1.0559 -0.4284
 4978SOL     OW26569   2.961   2.137   6.177 -0.4874  0.1933 -0.7428
 4978SOL    HW126570   3.031   2.098   6.228 -1.0731  0.0446 -0.0410
 4978SOL    HW226571   2.920   2.192   6.245 -0.3851  0.1698 -0.6634
 4979SOL     OW26572   3.705   3.369  11.962 -0.3264  0.1417 -0.1761
 4979SOL    HW126573   3.731   3.430  12.031 -2.4404  1.7054 -0.7695
 4979SOL    HW226574   3.724   3.286  12.006 -2.2538  0.6793  1.6132
 4980SOL     OW26575   4.302   3.149   3.868  0.3488  0.5650 -0.2910
 4980SOL    HW126576   4.277   3.167   3.959  1.0304  1.6099 -0.3003
 4980SOL    HW226577   4.382   3.101   3.886 -1.4231 -1.9221  0.8957
 4981SOL     OW26578   1.518   4.554   8.065 -0.5431 -0.2051 -0.4640
 4981SOL    HW126579   1.487   4.617   8.130 -2.5282 -0.3804 -1.2564
 4981SOL    HW226580   1.502   4.619   7.996  1.8198  0.2863 -0.5604
 4982SOL     OW26581   1.053   3.588   7.311 -0.4507 -0.2564  0.5848
 4982SOL    HW126582   1.137   3.614   7.274 -1.3276 -1.6764 -2.3288
 4982SOL    HW226583   1.078   3.515   7.367  1.4198  0.5941  0.8840
 4983SOL     OW26584   2.366   3.047   3.357 -0.4325 -0.0729 -0.2085
 4983SOL    HW126585   2.372   2.952   3.366  0.1236 -0.0008  0.1518
 4983SOL    HW226586   2.413   3.070   3.437  2.0604 -2.0467 -1.0871
 4984SOL     OW26587   3.127   4.161  15.071 -0.2327  0.0604  0.5782
 4984SOL    HW126588   3.064   4.212  15.122  1.4669  1.2567  1.4682
 4984SOL    HW226589   3.081   4.166  14.987 -0.7000  0.2892  0.8481
 4985SOL     OW26590   3.886   2.747   3.688 -0.3377  0.1029  0.0085
 4985SOL    HW126591   3.927   2.828   3.717  0.0547  0.1923 -0.7760
 4985SOL    HW226592   3.916   2.685   3.754  1.1416  0.1227 -0.6570
 4986SOL     OW26593   1.836   4.728   4.118  0.3572  0.1317  0.5486
 4986SOL    HW126594   1.853   0.024   4.206  2.9335 -3.1154  1.3352
 4986SOL    HW226595   1.741   4.736   4.126  0.3518  0.8534 -0.2878
 4987SOL     OW26596   1.425   4.368   2.420 -0.3722 -0.2855  0.1604
 4987SOL    HW126597   1.465   4.367   2.507  0.0007  1.4210  0.0022
 4987SOL    HW226598   1.395   4.459   2.421  1.2597  0.2729 -3.4007
 4988SOL     OW26599   0.572   3.469   6.358  0.2491 -0.1409 -0.5489
 4988SOL    HW126600   0.653   3.513   6.333  0.5302 -0.5014 -0.2877
 4988SOL    HW226601   0.542   3.428   6.277  2.2054  0.6971 -1.7004
 4989SOL     OW26602   3.892   4.503  10.617  0.3489 -0.1131  0.2648
 4989SOL    HW126603   3.910   4.493  10.710  0.1403 -0.3840  0.2774
 4989SOL    HW226604   3.977   4.480  10.579  0.9904 -0.1566  1.7351
 4990SOL     OW26605   1.095   0.158   4.300 -0.1019 -0.1267  0.0265
 4990SOL    HW126606   1.088   0.253   4.307  1.0818 -0.1649  1.6864
 4990SOL    HW226607   1.149   0.136   4.375  1.3602 -3.5708 -2.0489
 4991SOL     OW26608   1.213   1.518  16.055 -0.3377 -0.6626  0.3280
 4991SOL    HW126609   1.262   1.534  15.974 -2.9402  0.5539 -0.9877
 4991SOL    HW226610   1.280   1.508  16.123  0.1951  2.8739  0.3168
 4992SOL     OW26611   0.596   0.225  10.828  0.2535  1.1553  0.1074
 4992SOL    HW126612   0.543   0.153  10.793  1.2970  0.7284 -0.6281
 4992SOL    HW226613   0.667   0.167  10.855 -2.2737 -2.5783 -1.2516
 4993SOL     OW26614   3.269   1.326   2.914  0.0694 -0.2638 -0.0069
 4993SOL    HW126615   3.216   1.248   2.928 -1.9899  0.9362 -0.9856
 4993SOL    HW226616   3.306   1.335   3.001 -0.5008  1.2676  0.0789
 4994SOL     OW26617   0.473   2.397   8.075  0.8909 -0.0021 -0.7385
 4994SOL    HW126618   0.401   2.441   8.030  1.6254  0.8817 -1.0499
 4994SOL    HW226619   0.452   2.307   8.049 -1.0361  0.2916 -0.2325
 4995SOL     OW26620   3.863   2.881   7.353  0.3118 -0.0808  0.8446
 4995SOL    HW126621   3.892   2.925   7.274  0.3490 -2.4568 -0.4743
 4995SOL    HW226622   3.899   2.944   7.416  1.6145  0.8734 -0.8685
 4996SOL     OW26623   3.178   1.125   1.861  0.0827 -0.9111 -0.0125
 4996SOL    HW126624   3.118   1.066   1.906 -2.5961  2.4548  0.8857
 4996SOL    HW226625   3.216   1.061   1.801  0.0158 -0.1918 -0.8310
 4997SOL     OW26626   2.061   2.055   1.948 -0.0065 -0.4920  0.8044
 4997SOL    HW126627   2.094   2.014   2.028  0.1208 -1.7715  0.1044
 4997SOL    HW226628   2.006   2.126   1.980  0.9443  1.0633 -1.0664
 4998SOL     OW26629   0.340   3.193   5.119  0.9641 -0.0831  0.8318
 4998SOL    HW126630   0.325   3.110   5.073 -0.7863 -0.7034  2.4984
 4998SOL    HW226631   0.397   3.245   5.063 -0.3667 -0.4475 -0.8399
 4999SOL     OW26632   2.101   0.837  12.300 -0.4095  0.3732  0.3613
 4999SOL    HW126633   2.086   0.768  12.366 -0.1409  0.2526  0.2971
 4999SOL    HW226634   2.016   0.843  12.255 -0.9328 -0.1886  1.2663
 5000SOL     OW26635   1.267   2.072   2.659  0.3425  0.0519 -0.0704
 5000SOL    HW126636   1.183   2.033   2.682  1.0720 -1.0464  0.7131
 5000SOL    HW226637   1.236   2.159   2.686 -0.9041 -0.2831 -0.4416
 5001SOL     OW26638   2.894   3.520   8.160 -0.6882  0.6098 -0.4883
 5001SOL    HW126639   2.826   3.466   8.120 -1.1098 -0.3097  1.4735
 5001SOL    HW226640   2.976   3.488   8.123  0.4610  3.2915 -0.2487
 5002SOL     OW26641   2.340   1.851   4.953 -0.2369  0.0414  0.3325
 5002SOL    HW126642   2.408   1.890   5.007  0.0123  2.4517 -1.7019
 5002SOL    HW226643   2.353   1.902   4.873 -0.1607 -0.7671 -0.1703
 5003SOL     OW26644   2.023   4.558   8.535  0.2344 -0.6194  0.6976
 5003SOL    HW126645   1.977   4.475   8.548 -1.0466 -0.0157  0.0552
 5003SOL    HW226646   1.958   4.610   8.488 -0.1359 -1.9608 -0.2895
 5004SOL     OW26647   0.029   2.285   8.019 -0.2779 -0.1436 -0.0303
 5004SOL    HW126648   4.728   2.224   8.081 -1.8227 -0.6271 -1.4883
 5004SOL    HW226649   4.690   2.310   7.969 -0.4541  3.0534  1.8865
 5005SOL     OW26650   3.477   0.320  15.978 -0.0640  0.1666 -0.7628
 5005SOL    HW126651   3.536   0.318  15.902  1.7449  0.6852  0.6371
 5005SOL    HW226652   3.492   0.233  16.015  2.3690  1.1140  0.4566
 5006SOL     OW26653   0.814   2.778  14.897  0.0224 -0.4595 -0.6523
 5006SOL    HW126654   0.755   2.716  14.855 -2.6651  1.5574  0.1936
 5006SOL    HW226655   0.871   2.725  14.953 -1.7800 -1.2335  0.4436
 5007SOL     OW26656   0.912   1.156   0.426 -0.3908 -0.1629  0.6508
 5007SOL    HW126657   0.944   1.211   0.355 -1.3406 -1.2528 -0.6108
 5007SOL    HW226658   0.882   1.219   0.491 -2.5333  1.4171 -1.8972
 5008SOL     OW26659   1.526   1.932   1.342 -0.1510 -0.1732 -0.2017
 5008SOL    HW126660   1.573   1.891   1.270 -0.6053  1.1236 -1.2351
 5008SOL    HW226661   1.595   1.971   1.396  0.4313  2.2794 -2.7530
 5009SOL     OW26662   2.958   4.652   1.227  0.0511 -0.1854  0.2226
 5009SOL    HW126663   2.918   4.641   1.141  0.9131  0.6903 -0.2872
 5009SOL    HW226664   3.049   4.679   1.211  0.9687 -2.7554  1.0936
 5010SOL     OW26665   2.835   2.434   4.892  0.1842 -0.0644 -0.0902
 5010SOL    HW126666   2.771   2.364   4.888  1.0283 -0.8273 -0.3832
 5010SOL    HW226667   2.870   2.426   4.803 -0.6950 -0.5203 -0.3955
 5011SOL     OW26668   0.027   2.618   2.036  0.6691 -0.3312 -0.5341
 5011SOL    HW126669   0.088   2.546   2.047  2.3350  1.2930  0.7848
 5011SOL    HW226670   0.050   2.676   2.108 -0.0689 -0.3445 -0.2886
 5012SOL     OW26671   2.779   4.667   4.704  0.3003 -0.3922 -0.1829
 5012SOL    HW126672   2.740   0.015   4.692 -1.4461 -1.0867  0.4712
 5012SOL    HW226673   2.839   4.659   4.629 -1.6369  1.1769 -1.9276
 5013SOL     OW26674   2.102   3.571  14.187 -0.0008  0.1377  0.1470
 5013SOL    HW126675   2.026   3.626  14.202 -0.5933  0.3388 -3.5557
 5013SOL    HW226676   2.128   3.561  14.278  0.1685 -0.5440  0.0284
 5014SOL     OW26677   0.879   1.381  15.586  0.2353  0.1051  0.3635
 5014SOL    HW126678   0.786   1.390  15.606  0.3534 -0.4655  1.1810
 5014SOL    HW226679   0.917   1.398  15.672 -0.8562 -2.5461  1.3694
 5015SOL     OW26680   3.763   0.314   2.001 -0.3916  0.6728  0.3249
 5015SOL    HW126681   3.829   0.246   2.016 -1.1650 -0.3468 -0.9274
 5015SOL    HW226682   3.766   0.303   1.906  0.0023 -3.3607  0.7773
 5016SOL     OW26683   0.508   4.647   4.943 -0.1119 -0.1739  0.5413
 5016SOL    HW126684   0.579   4.613   4.998  0.4288 -0.3643 -0.2608
 5016SOL    HW226685   0.483   4.721   4.998 -0.7813  1.3237 -1.7609
 5017SOL     OW26686   2.043   1.780   3.081  0.6105 -0.0673  0.1209
 5017SOL    HW126687   2.006   1.868   3.072  1.2421  0.1339 -0.4941
 5017SOL    HW226688   2.105   1.778   3.153  0.5298 -0.0639  0.1905
 5018SOL     OW26689   4.564   3.559  13.638  0.2792  0.5189 -0.2231
 5018SOL    HW126690   4.587   3.477  13.681  1.1954  0.6833 -0.4034
 5018SOL    HW226691   4.474   3.572  13.669  0.2179  0.1117 -0.2295
 5019SOL     OW26692   2.967   3.660  12.417  0.0162 -0.1640  0.6204
 5019SOL    HW126693   3.007   3.744  12.441 -0.0312  0.0101  0.0907
 5019SOL    HW226694   2.881   3.686  12.386  0.5147  0.5354 -0.1850
 5020SOL     OW26695   3.733   4.317   4.065  0.1048  0.2576 -0.3838
 5020SOL    HW126696   3.664   4.254   4.049  0.7622 -1.0830  1.9956
 5020SOL    HW226697   3.684   4.385   4.113  1.2717 -0.9506  2.5481
 5021SOL     OW26698   4.484   0.277   4.607  0.3071  0.5698 -0.8196
 5021SOL    HW126699   4.569   0.254   4.643 -0.2569 -2.0534 -1.1228
 5021SOL    HW226700   4.423   0.250   4.675  1.2540  0.4024 -0.0431
 5022SOL     OW26701   1.793   1.315   4.853  0.0329  0.0350 -0.3080
 5022SOL    HW126702   1.842   1.373   4.795 -0.7270  0.3469 -0.6443
 5022SOL    HW226703   1.771   1.235   4.804 -0.8996  1.5133 -2.2908
 5023SOL     OW26704   4.505   1.886   0.802  0.0077  0.2498  0.1889
 5023SOL    HW126705   4.481   1.811   0.856  1.5547 -0.4458 -0.0864
 5023SOL    HW226706   4.568   1.843   0.744 -0.8523  1.4048 -1.5894
 5024SOL     OW26707   1.785   3.842   9.015  0.3980  0.0499  0.1787
 5024SOL    HW126708   1.767   3.777   9.083 -2.9253 -0.7791 -1.5139
 5024SOL    HW226709   1.855   3.892   9.058 -1.5753  2.3690  0.7125
 5025SOL     OW26710   3.277   2.825   9.024  0.1007 -0.2919 -0.4870
 5025SOL    HW126711   3.274   2.898   9.085 -3.8323  0.6950 -1.8751
 5025SOL    HW226712   3.351   2.853   8.970 -0.9631 -0.8554 -2.2606
 5026SOL     OW26713   4.642   1.442   2.821  0.3618  0.1211  0.3231
 5026SOL    HW126714   4.604   1.529   2.809  0.1746 -0.2600 -1.8436
 5026SOL    HW226715   4.597   1.414   2.901  1.4279 -0.8968  0.5662
 5027SOL     OW26716   2.675   0.421   3.991 -0.3399 -0.3349 -0.0042
 5027SOL    HW126717   2.718   0.337   3.977 -0.4940 -0.1040 -1.9182
 5027SOL    HW226718   2.584   0.393   3.984 -0.6831  1.4613 -2.8344
 5028SOL     OW26719   1.997   3.570  12.812 -0.2166  0.3557  0.7389
 5028SOL    HW126720   1.984   3.602  12.723  0.3082  0.3000  0.6420
 5028SOL    HW226721   1.997   3.476  12.790  1.6688  0.4843  0.1937
 5029SOL     OW26722   3.211   1.907   0.372 -0.2635  0.7006 -0.4421
 5029SOL    HW126723   3.283   1.922   0.433  1.8678 -1.8372 -2.3234
 5029SOL    HW226724   3.144   1.963   0.410 -1.0824  0.7965 -2.0253
 5030SOL     OW26725   0.472   0.824  17.684 -0.2074  0.0856 -0.0904
 5030SOL    HW126726   0.558   0.783  17.672  0.0116  0.5011  0.0357
 5030SOL    HW226727   0.499   0.901  17.736 -0.7738  0.5860 -0.5481
 5031SOL     OW26728   3.870   1.703   4.169  0.2255  0.6024 -0.3194
 5031SOL    HW126729   3.913   1.776   4.212 -1.4158  1.2521  0.2039
 5031SOL    HW226730   3.783   1.720   4.205 -0.2045 -1.8891 -0.1642
 5032SOL     OW26731   1.043   0.438   2.481  0.3238  0.0569 -0.3658
 5032SOL    HW126732   0.975   0.481   2.532  2.0411  2.1905  0.1086
 5032SOL    HW226733   1.033   0.482   2.396  0.6884 -1.9480 -1.4622
 5033SOL     OW26734   1.931   0.260   9.258  0.5385 -0.6488 -0.1216
 5033SOL    HW126735   1.978   0.309   9.326  0.4108  0.5762 -0.9227
 5033SOL    HW226736   1.986   0.182   9.261  1.6951 -0.0097 -4.1262
 5034SOL     OW26737   3.128   3.679   6.249 -0.1631  0.8453  0.7325
 5034SOL    HW126738   3.061   3.686   6.181  1.5519  1.6909 -0.8740
 5034SOL    HW226739   3.072   3.667   6.327 -1.8343 -0.1048 -0.6053
 5035SOL     OW26740   3.697   3.086   3.984  0.5061 -0.8160 -0.2201
 5035SOL    HW126741   3.681   3.075   4.077  1.7446  0.2968  0.1181
 5035SOL    HW226742   3.731   3.175   3.990  0.3161 -0.8152  0.8214
 5036SOL     OW26743   3.581   0.922   8.476  0.6088 -0.1625  0.2982
 5036SOL    HW126744   3.525   1.000   8.477  0.5505 -0.1842 -1.7178
 5036SOL    HW226745   3.667   0.954   8.503 -0.6922  2.6889  1.1257
 5037SOL     OW26746   0.793   0.835  11.433 -0.8188  0.1813 -0.1332
 5037SOL    HW126747   0.758   0.795  11.353 -0.7779 -4.3616  2.1563
 5037SOL    HW226748   0.797   0.769  11.501  0.1922 -0.1437 -0.5064
 5038SOL     OW26749   0.940   2.564   7.837  0.5412  0.3430 -0.3104
 5038SOL    HW126750   0.972   2.645   7.796  0.6045  0.4334 -0.0799
 5038SOL    HW226751   0.848   2.581   7.855  0.5738 -1.8156  1.7604
 5039SOL     OW26752   0.412   3.988   2.899 -0.4005 -0.7589  0.4363
 5039SOL    HW126753   0.423   3.893   2.892 -0.8871 -0.7899  0.0990
 5039SOL    HW226754   0.460   3.997   2.981 -1.6060  2.8518  0.7362
 5040SOL     OW26755   3.670   0.331   5.249  0.5925 -0.2310  0.8248
 5040SOL    HW126756   3.603   0.263   5.256 -0.5372  0.6805 -1.3181
 5040SOL    HW226757   3.661   0.370   5.336  0.6635 -1.8232  1.5645
 5041SOL     OW26758   3.162   0.014   6.387 -0.0155 -0.0611  0.0178
 5041SOL    HW126759   3.215   4.713   6.456 -0.1706  1.6451  1.0941
 5041SOL    HW226760   3.167   0.105   6.414 -0.4516  0.6550 -2.2698
 5042SOL     OW26761   1.995   1.612   9.282 -0.4134  0.1929 -0.5340
 5042SOL    HW126762   2.037   1.666   9.349 -0.7028 -1.1285  0.7078
 5042SOL    HW226763   2.067   1.611   9.219 -0.1330 -1.4919 -0.1893
 5043SOL     OW26764   2.492   0.708   5.745 -0.4670 -0.4618  0.0847
 5043SOL    HW126765   2.581   0.743   5.749 -0.5572 -0.1501 -0.6744
 5043SOL    HW226766   2.453   0.756   5.817  0.9491 -0.6422  0.9860
 5044SOL     OW26767   0.151   2.600   2.956 -0.4030  0.7315 -0.0738
 5044SOL    HW126768   0.100   2.577   2.878 -0.1879  0.9567 -0.2781
 5044SOL    HW226769   0.230   2.552   2.933  0.4229  1.6900  0.7635
 5045SOL     OW26770   0.014   0.490   6.168 -0.0019  0.3597  0.3564
 5045SOL    HW126771   4.723   0.400   6.162  1.5011 -0.0572 -0.7385
 5045SOL    HW226772   0.108   0.480   6.153 -0.1417  0.0573 -0.2747
 5046SOL     OW26773   2.443   0.498   5.455 -0.2996  0.0212  0.2948
 5046SOL    HW126774   2.425   0.553   5.379 -1.2417 -1.0711 -0.2699
 5046SOL    HW226775   2.538   0.511   5.463 -0.4679  0.9921  0.6923
 5047SOL     OW26776   2.629   3.861   8.704  0.4444  0.3787  0.1096
 5047SOL    HW126777   2.597   3.927   8.766 -0.4318 -0.5933  0.6981
 5047SOL    HW226778   2.718   3.866   8.740  0.0483  0.8262  1.0267
 5048SOL     OW26779   1.380   2.360  10.608  0.1658  0.1784 -0.2385
 5048SOL    HW126780   1.409   2.346  10.518 -3.7901  0.8304 -1.6311
 5048SOL    HW226781   1.460   2.348  10.659 -0.2295 -1.0644  0.0847
 5049SOL     OW26782   0.248   1.705   2.785 -0.0152 -0.6098  0.0606
 5049SOL    HW126783   0.254   1.685   2.691 -1.6794  1.6824 -0.5325
 5049SOL    HW226784   0.250   1.619   2.825 -2.5218 -0.9864 -0.6154
 5050SOL     OW26785   1.845   0.662   9.086  0.1318 -0.6653 -0.0209
 5050SOL    HW126786   1.863   0.658   9.180  3.7275  0.6862 -0.6503
 5050SOL    HW226787   1.750   0.657   9.097 -0.0665  2.8438 -0.1005
 5051SOL     OW26788   2.788   1.887   2.614 -0.3705  0.3071  0.0154
 5051SOL    HW126789   2.784   1.947   2.539  1.5541 -0.0634 -0.3849
 5051SOL    HW226790   2.842   1.940   2.673  1.4589  1.4784 -2.7446
 5052SOL     OW26791   2.954   0.697   3.260 -0.2436 -0.0676 -0.4715
 5052SOL    HW126792   3.044   0.685   3.291 -0.4993  1.7645  0.9764
 5052SOL    HW226793   2.913   0.686   3.345 -0.0661 -3.7973 -0.8741
 5053SOL     OW26794   2.572   1.316  11.276 -0.4774  0.0775 -0.4086
 5053SOL    HW126795   2.667   1.325  11.276 -0.6492  1.7700  1.3193
 5053SOL    HW226796   2.546   1.397  11.320  3.1882  1.6628 -1.1297
 5054SOL     OW26797   1.834   0.178   1.891  0.4811 -0.2908  0.1510
 5054SOL    HW126798   1.793   0.092   1.887  2.1472 -1.1661  2.0420
 5054SOL    HW226799   1.896   0.163   1.963  0.1618 -2.8609 -0.1331
 5055SOL     OW26800   4.375   4.426   3.600 -0.5518  0.0881  0.1230
 5055SOL    HW126801   4.360   4.393   3.511  0.0692  0.1645 -0.0071
 5055SOL    HW226802   4.334   4.513   3.600 -2.0955 -0.6434  1.0532
 5056SOL     OW26803   0.258   3.270  17.720 -0.2387 -0.5391 -0.2286
 5056SOL    HW126804   0.328   3.297   0.027  1.1495 -1.5834 -1.3969
 5056SOL    HW226805   0.308   3.260  17.639  0.5720  3.0956 -0.2061
 5057SOL     OW26806   0.071   4.159   6.680 -0.4300  0.2029  0.0632
 5057SOL    HW126807   0.090   4.066   6.678  0.4988  0.3494  2.1501
 5057SOL    HW226808   4.718   4.165   6.709 -0.7284 -1.0666 -0.6271
 5058SOL     OW26809   4.737   1.059   7.408  0.1550  0.0150 -0.4793
 5058SOL    HW126810   0.046   1.142   7.403 -1.2037  0.9004  1.4639
 5058SOL    HW226811   4.661   1.094   7.360  0.9349  1.1695 -0.8661
 5059SOL     OW26812   4.374   3.556   3.845  0.1544  0.1016  0.4437
 5059SOL    HW126813   4.373   3.556   3.941 -1.9660  4.8999  0.3837
 5059SOL    HW226814   4.388   3.647   3.820  0.7559  0.9056  3.7514
 5060SOL     OW26815   1.151   2.173  16.676  0.1734  0.2860  0.0614
 5060SOL    HW126816   1.077   2.216  16.718  0.1329  1.1426 -0.8911
 5060SOL    HW226817   1.131   2.159  16.583  2.8702 -0.9220 -0.3592
 5061SOL     OW26818   2.017   3.160   5.234  0.0796 -0.6090 -0.6906
 5061SOL    HW126819   2.106   3.143   5.265 -0.3571  0.1546  0.9788
 5061SOL    HW226820   2.018   3.254   5.251 -1.0018 -0.9588  1.3808
 5062SOL     OW26821   1.963   2.557   4.519 -0.5949  0.0917 -1.0769
 5062SOL    HW126822   1.946   2.643   4.480  0.4076  0.9984  0.5049
 5062SOL    HW226823   1.901   2.539   4.590  1.6695 -1.1016  0.6120
 5063SOL     OW26824   4.468   3.829  13.858 -0.7693  0.2362  0.0793
 5063SOL    HW126825   4.472   3.871  13.772  0.1719 -0.0799 -0.0210
 5063SOL    HW226826   4.420   3.750  13.833 -1.3000  0.8903 -0.9570
 5064SOL     OW26827   2.401   1.147   3.729 -0.2709 -0.2792 -0.0935
 5064SOL    HW126828   2.380   1.108   3.644  1.7955  0.9376 -1.1564
 5064SOL    HW226829   2.487   1.110   3.746 -0.5891 -0.9098  0.1708
 5065SOL     OW26830   2.769   0.364   6.021  0.0987  0.3605  0.1602
 5065SOL    HW126831   2.701   0.335   6.081  0.3851 -0.1427  0.2355
 5065SOL    HW226832   2.818   0.288   5.991 -1.4774 -0.1963 -1.0408
 5066SOL     OW26833   3.532   3.575   2.835 -0.0906 -0.5859 -0.2180
 5066SOL    HW126834   3.550   3.612   2.921  3.1464  1.4302 -1.7576
 5066SOL    HW226835   3.546   3.481   2.853 -0.5012 -0.4302  0.9254
 5067SOL     OW26836   1.121   4.555   8.050  0.3927 -0.5059 -0.0249
 5067SOL    HW126837   1.163   4.532   8.132 -2.8339  0.0987  1.7832
 5067SOL    HW226838   1.081   4.639   8.072  0.5385 -0.4785  0.1318
 5068SOL     OW26839   2.161   1.390   6.219  0.0998  0.1979 -0.4704
 5068SOL    HW126840   2.231   1.440   6.177 -1.1537  2.4852  0.1512
 5068SOL    HW226841   2.149   1.319   6.157  0.0455 -0.5640  0.4212
 5069SOL     OW26842   4.038   1.298   8.329 -0.0114  0.3276  0.2693
 5069SOL    HW126843   4.064   1.309   8.237 -2.7403  0.5130 -0.4705
 5069SOL    HW226844   3.982   1.222   8.314 -1.6020  1.4909  0.3511
 5070SOL     OW26845   1.123   3.375  11.779  0.8008  0.5816 -0.3784
 5070SOL    HW126846   1.166   3.401  11.861 -0.4492  2.5744 -0.3466
 5070SOL    HW226847   1.105   3.281  11.788 -0.6773  0.7713 -1.4609
 5071SOL     OW26848   0.759   4.307   2.651  0.4506 -0.5920  0.1309
 5071SOL    HW126849   0.814   4.375   2.613 -1.2124 -0.3938 -1.8833
 5071SOL    HW226850   0.712   4.361   2.714  0.1219 -0.6573 -0.0570
 5072SOL     OW26851   3.306   1.452   5.152  0.0344 -0.2861 -0.1468
 5072SOL    HW126852   3.217   1.416   5.155 -0.6848  1.5349 -0.0275
 5072SOL    HW226853   3.307   1.512   5.078 -1.4794  0.0239  0.0762
 5073SOL     OW26854   0.158   0.658   1.855 -0.0757 -0.0743 -0.1738
 5073SOL    HW126855   0.190   0.596   1.790  3.4348  0.3070  1.1772
 5073SOL    HW226856   0.078   0.614   1.884 -0.6220  0.6915 -0.5198
 5074SOL     OW26857   2.212   0.661   2.800 -0.5357 -0.0484  0.7321
 5074SOL    HW126858   2.183   0.724   2.734  2.1408  0.1020 -0.3087
 5074SOL    HW226859   2.218   0.718   2.877  1.4317 -0.6017  0.9931
 5075SOL     OW26860   1.417   2.521   6.049  0.2167 -0.2322  0.0359
 5075SOL    HW126861   1.377   2.450   5.998 -0.7281 -0.2088  0.7434
 5075SOL    HW226862   1.401   2.603   6.001 -0.7062  0.3123  1.2655
 5076SOL     OW26863   0.667   0.764  10.686 -0.0029 -0.2065  0.1464
 5076SOL    HW126864   0.618   0.682  10.696  0.4461 -0.5265 -0.2287
 5076SOL    HW226865   0.705   0.755  10.599  3.2978 -0.4900  1.6132
 5077SOL     OW26866   3.508   1.296   5.186 -0.6394  0.0200  0.8504
 5077SOL    HW126867   3.431   1.350   5.167 -0.5718 -0.2315 -0.1741
 5077SOL    HW226868   3.510   1.237   5.110  0.3328  0.7569  0.2999
 5078SOL     OW26869   3.614   2.269   5.227  0.3032  0.0012  0.2895
 5078SOL    HW126870   3.592   2.352   5.184  1.5877  0.9086  1.4146
 5078SOL    HW226871   3.530   2.229   5.249  0.5222  0.6099  2.1877
 5079SOL     OW26872   4.163   1.347   4.367 -0.5794 -0.4943  0.0557
 5079SOL    HW126873   4.102   1.403   4.320 -0.7948  0.6896  1.7696
 5079SOL    HW226874   4.153   1.263   4.321 -0.3365  0.2562 -1.3721
 5080SOL     OW26875   4.111   0.663   4.577 -0.0508 -0.1641  0.0163
 5080SOL    HW126876   4.201   0.632   4.586 -0.0760 -0.2839 -0.1520
 5080SOL    HW226877   4.111   0.757   4.598 -3.9983  0.0100 -0.8394
 5081SOL     OW26878   2.707   1.611   3.638 -0.0336 -0.4566  0.1107
 5081SOL    HW126879   2.683   1.546   3.704 -0.5748 -1.0807 -0.7182
 5081SOL    HW226880   2.660   1.570   3.566 -0.9494  1.0005 -0.1228
 5082SOL     OW26881   2.920   0.031   4.479  0.6882  0.0190  0.3824
 5082SOL    HW126882   2.885   4.718   4.406  0.7662 -1.5189  1.4244
 5082SOL    HW226883   3.007   0.051   4.445 -0.1492  1.6764 -0.8124
 5083SOL     OW26884   2.655   1.291   5.723  0.1422  0.4631  0.1496
 5083SOL    HW126885   2.652   1.343   5.803  1.3162  2.0455 -0.8647
 5083SOL    HW226886   2.629   1.357   5.659  0.6614 -1.2779 -1.8577
 5084SOL     OW26887   2.686   1.340   3.183 -0.2756 -0.3679  1.0010
 5084SOL    HW126888   2.706   1.423   3.140  0.5983 -1.2916 -0.3632
 5084SOL    HW226889   2.768   1.325   3.230  0.5759 -0.9112 -0.6610
 5085SOL     OW26890   3.144   2.221   1.928 -0.0540  0.0343 -0.1630
 5085SOL    HW126891   3.227   2.215   1.976  0.5486  0.2830 -1.1743
 5085SOL    HW226892   3.122   2.311   1.951 -0.7721 -0.3093  0.4997
 5086SOL     OW26893   1.029   4.614   3.962  0.0450 -0.2085  0.4432
 5086SOL    HW126894   0.936   4.632   3.946 -0.1704 -1.6936  0.0191
 5086SOL    HW226895   1.020   4.545   4.027  1.7233 -1.6373 -0.8396
 5087SOL     OW26896   0.995   1.556  16.774 -0.2862 -0.0144 -0.0573
 5087SOL    HW126897   0.978   1.550  16.680  1.5799 -0.3990 -0.3745
 5087SOL    HW226898   1.046   1.635  16.792 -0.4225 -0.3348  1.8073
 5088SOL     OW26899   2.245   3.960  14.342 -0.3399 -0.0788 -0.4476
 5088SOL    HW126900   2.164   4.001  14.373  0.2460 -0.0141  0.9857
 5088SOL    HW226901   2.285   4.046  14.327  1.1686 -0.8058 -0.5389
 5089SOL     OW26902   0.344   3.224  15.570  0.3303 -0.0886  0.1947
 5089SOL    HW126903   0.430   3.198  15.537  0.4221  0.3363  0.0952
 5089SOL    HW226904   0.326   3.300  15.515 -1.2109  0.9857  2.1448
 5090SOL     OW26905   1.297   4.679   7.034 -0.0498  0.1813  0.2077
 5090SOL    HW126906   1.263   0.015   7.084  2.6190  0.6171  1.3550
 5090SOL    HW226907   1.373   4.648   7.084  0.6623 -0.3607 -1.2372
 5091SOL     OW26908   2.326   0.647   3.787  0.3064 -0.7123 -0.0446
 5091SOL    HW126909   2.269   0.646   3.710  1.1342  0.4522 -0.6749
 5091SOL    HW226910   2.282   0.572   3.826 -0.8978  1.5406  2.9870
 5092SOL     OW26911   3.911   3.720  16.655  0.2695  0.3054 -0.2682
 5092SOL    HW126912   3.920   3.752  16.745 -1.4251 -1.5335  0.5546
 5092SOL    HW226913   3.964   3.787  16.612 -2.0447  1.6024 -1.0963
 5093SOL     OW26914   2.045   3.438  13.953  0.0000  0.0958  0.3119
 5093SOL    HW126915   2.051   3.497  14.028 -1.2286 -1.6200  1.7421
 5093SOL    HW226916   1.965   3.386  13.956 -0.6619  1.0170 -1.6586
 5094SOL     OW26917   2.609   4.536   3.626  0.3857 -0.3220  0.3248
 5094SOL    HW126918   2.593   4.583   3.544  2.6671 -0.1506 -0.0322
 5094SOL    HW226919   2.573   4.449   3.607 -0.0716 -0.1584  0.4465
 5095SOL     OW26920   0.251   4.279   6.142 -0.5311  0.4892 -0.4466
 5095SOL    HW126921   0.237   4.192   6.106 -2.1309 -0.7559  3.1827
 5095SOL    HW226922   0.169   4.277   6.191 -0.4972 -0.4887 -0.4320
 5096SOL     OW26923   0.049   0.765   8.471  0.1999  0.2235  0.2211
 5096SOL    HW126924   0.003   0.842   8.505  2.2655  0.8257  1.5984
 5096SOL    HW226925   0.128   0.806   8.435 -0.0788  0.9035  0.3785
 5097SOL     OW26926   0.196   1.838  14.259  0.3530 -0.1311 -0.1009
 5097SOL    HW126927   0.147   1.898  14.315 -0.7951 -0.0741 -1.1811
 5097SOL    HW226928   0.140   1.761  14.252  1.4567 -0.8599 -0.9077
 5098SOL     OW26929   0.596   1.611   1.910 -0.3660 -0.1527 -0.4405
 5098SOL    HW126930   0.659   1.542   1.930  0.1264 -0.3934 -2.8333
 5098SOL    HW226931   0.545   1.627   1.990 -0.8770  1.2416 -1.0402
 5099SOL     OW26932   0.132   2.071   5.582 -0.1061 -0.2141 -0.1920
 5099SOL    HW126933   0.162   1.983   5.604  1.5859  0.4679  0.1997
 5099SOL    HW226934   0.041   2.059   5.553  0.4851  1.7673 -2.8712
 5100SOL     OW26935   0.289   4.663  14.075 -0.3902 -0.5707 -0.2387
 5100SOL    HW126936   0.275   4.726  14.005  2.2766  2.2634  1.7605
 5100SOL    HW226937   0.251   4.702  14.154  0.2581 -0.3737 -0.0248
 5101SOL     OW26938   2.888   3.924   6.672 -0.2059 -0.3301 -0.4472
 5101SOL    HW126939   2.879   3.905   6.579 -1.3529 -0.9229 -0.2033
 5101SOL    HW226940   2.913   4.017   6.667  1.5320 -0.5901  3.1643
 5102SOL     OW26941   0.283   2.279   3.451 -0.6379 -0.1607 -0.0440
 5102SOL    HW126942   0.275   2.199   3.399  2.5285 -0.7291  0.3385
 5102SOL    HW226943   0.272   2.348   3.386 -0.5120 -0.0903  0.0089
 5103SOL     OW26944   0.602   3.492  15.961 -0.1627  0.1313  0.5784
 5103SOL    HW126945   0.545   3.443  15.902 -0.4417  1.2838 -0.1067
 5103SOL    HW226946   0.544   3.565  15.980 -1.7185 -1.0191  0.2441
 5104SOL     OW26947   2.594   2.136   5.880 -0.4041 -0.7640 -0.0652
 5104SOL    HW126948   2.679   2.178   5.868 -0.3037 -0.7655  0.6235
 5104SOL    HW226949   2.634   2.066   5.932 -0.1586  0.3347  1.2085
 5105SOL     OW26950   3.033   0.379   3.275  0.1912 -0.1786 -0.1773
 5105SOL    HW126951   2.988   0.431   3.209  2.0771  0.4297 -0.9733
 5105SOL    HW226952   2.968   0.378   3.346  0.9128  0.2337  0.4808
 5106SOL     OW26953   3.915   0.580   6.847 -0.1731 -0.0330 -0.4361
 5106SOL    HW126954   4.000   0.541   6.864 -0.0080  0.4252 -0.2056
 5106SOL    HW226955   3.899   0.617   6.934 -0.4642 -0.7961 -0.1641
 5107SOL     OW26956   2.999   2.364   2.483  0.2163 -0.0188  0.4360
 5107SOL    HW126957   3.009   2.273   2.457 -0.0311  0.8657 -2.7446
 5107SOL    HW226958   2.919   2.358   2.536 -0.1527 -0.0620 -0.1317
 5108SOL     OW26959   1.549   4.202   9.459  0.0074 -0.1098  0.3729
 5108SOL    HW126960   1.565   4.292   9.484  1.6864 -0.0399 -0.9456
 5108SOL    HW226961   1.568   4.210   9.366 -1.4816 -0.0756  0.0656
 5109SOL     OW26962   0.710   0.185   7.636  0.4244  0.2476  0.0925
 5109SOL    HW126963   0.766   0.140   7.699 -0.8847 -1.4637  0.0576
 5109SOL    HW226964   0.774   0.245   7.599  1.0145 -0.4823 -0.0776
 5110SOL     OW26965   1.085   3.716   9.824 -0.2828  0.1124 -0.3558
 5110SOL    HW126966   1.099   3.690   9.916 -0.3275  0.9418 -0.1176
 5110SOL    HW226967   1.024   3.646   9.799 -1.0102  0.7145 -0.2823
 5111SOL     OW26968   0.608   1.982   7.872 -0.1796  0.1111 -0.2912
 5111SOL    HW126969   0.541   1.919   7.845 -0.7578  0.2525  0.7863
 5111SOL    HW226970   0.676   1.917   7.857 -0.2143  0.1644 -0.6937
 5112SOL     OW26971   0.793   1.941  14.032 -0.6108  0.3737  0.0630
 5112SOL    HW126972   0.752   1.969  14.114 -0.4823 -1.0005  0.5950
 5112SOL    HW226973   0.884   1.937  14.060 -1.0996  1.1884  1.7553
 5113SOL     OW26974   0.383   0.750   9.566 -0.2818  0.6561 -0.2370
 5113SOL    HW126975   0.458   0.775   9.511  0.5295  0.0159  0.5700
 5113SOL    HW226976   0.431   0.737   9.648  1.4237 -0.8283 -1.4706
 5114SOL     OW26977   4.461   4.062   9.291 -0.1508  0.3996  0.6302
 5114SOL    HW126978   4.507   4.004   9.230 -2.2799  0.7934 -1.3720
 5114SOL    HW226979   4.518   4.060   9.367 -0.3722  1.8130  0.8310
 5115SOL     OW26980   4.558   3.487  16.149 -0.3909  0.0885 -0.5670
 5115SOL    HW126981   4.525   3.514  16.234  0.5043 -3.1085  0.7779
 5115SOL    HW226982   4.503   3.410  16.133 -2.7590  1.6599  0.0710
 5116SOL     OW26983   4.044   2.927   3.433 -0.2133 -0.5887  0.0063
 5116SOL    HW126984   4.098   2.968   3.500 -0.0980  1.9146 -1.6524
 5116SOL    HW226985   4.112   2.894   3.374  0.5681 -0.5490  0.8834
 5117SOL     OW26986   1.352   2.691   9.562 -0.2225 -0.0358  0.1913
 5117SOL    HW126987   1.258   2.689   9.544 -0.1637  0.2451 -0.1291
 5117SOL    HW226988   1.388   2.720   9.479 -2.7519  0.2446 -0.8008
 5118SOL     OW26989   0.172   2.641   6.080  0.2626 -0.2865 -0.1514
 5118SOL    HW126990   0.208   2.555   6.101 -2.4021 -1.3057  0.2319
 5118SOL    HW226991   0.181   2.691   6.161 -2.7005 -0.5430  0.3142
 5119SOL     OW26992   2.133   2.002   8.459 -0.0344 -0.1043  0.1586
 5119SOL    HW126993   2.183   1.960   8.529  0.1158 -0.2706 -0.0533
 5119SOL    HW226994   2.066   1.936   8.440  0.3785  0.1095 -1.9741
 5120SOL     OW26995   0.200   1.369   6.100 -0.1443 -0.1444 -0.3067
 5120SOL    HW126996   0.127   1.358   6.039 -0.5609 -1.3647  0.4064
 5120SOL    HW226997   0.156   1.360   6.185  0.5298  1.7821  0.2419
 5121SOL     OW26998   2.965   0.118   4.891  1.1124  0.3420 -0.3515
 5121SOL    HW126999   2.895   0.136   4.954  0.7787 -1.5657 -0.1646
 5121SOL    HW227000   2.919   0.146   4.812 -0.8209 -2.5791 -0.2909
 5122SOL     OW27001   0.295   4.651   7.920 -0.4983  0.1519 -0.7993
 5122SOL    HW127002   0.353   4.587   7.961 -3.2295 -1.3426  0.7270
 5122SOL    HW227003   0.223   4.650   7.984  1.7689 -1.4510  1.6964
 5123SOL     OW27004   3.557   2.412  17.688 -0.2613 -0.5249 -0.7413
 5123SOL    HW127005   3.523   2.323  17.695 -1.9168  0.2909  1.3496
 5123SOL    HW227006   3.608   2.399  17.608  1.6950 -0.1815  0.4486
 5124SOL     OW27007   4.355   4.367   7.135  0.3272 -0.1985  0.2851
 5124SOL    HW127008   4.433   4.313   7.152  1.4766  1.5692  0.6280
 5124SOL    HW227009   4.294   4.295   7.147  0.3187 -0.5120 -1.7213
 5125SOL     OW27010   1.335   1.268   2.192 -0.7094 -0.3229  0.2915
 5125SOL    HW127011   1.266   1.311   2.243 -1.6715 -0.3692 -0.9842
 5125SOL    HW227012   1.408   1.268   2.254  0.1025  2.4225 -0.6392
 5126SOL     OW27013   2.947   0.804   4.774 -0.4903 -0.0573 -0.1621
 5126SOL    HW127014   2.885   0.865   4.816 -0.8652 -1.9958  2.0529
 5126SOL    HW227015   2.927   0.820   4.681 -0.4537 -3.0781 -0.6651
 5127SOL     OW27016   2.601   3.393   4.941  0.2964 -0.6723 -0.0818
 5127SOL    HW127017   2.527   3.401   4.880  0.6707  0.6104 -0.3477
 5127SOL    HW227018   2.558   3.366   5.022 -0.9383 -0.4853 -0.6761
 5128SOL     OW27019   4.042   0.942   6.462  0.0904  0.8619 -0.1007
 5128SOL    HW127020   4.051   0.865   6.406 -0.2204  0.4872  0.3645
 5128SOL    HW227021   4.129   0.946   6.502 -1.3364 -1.6642  3.2524
 5129SOL     OW27022   2.234   1.440  15.787 -0.3791  0.2522 -0.4105
 5129SOL    HW127023   2.182   1.493  15.726  1.7824  0.0198 -2.4832
 5129SOL    HW227024   2.323   1.472  15.769  0.2327 -0.7431  0.8663
 5130SOL     OW27025   2.160   0.729   5.812  0.3013  0.1474  0.1577
 5130SOL    HW127026   2.165   0.649   5.760  1.2774 -0.4435  1.1835
 5130SOL    HW227027   2.186   0.691   5.895 -0.2650 -0.0388  0.2500
 5131SOL     OW27028   1.342   2.946   3.958 -0.1026 -0.2683  0.4948
 5131SOL    HW127029   1.257   2.925   3.919 -0.5700  0.5499  1.0861
 5131SOL    HW227030   1.391   2.935   3.877 -1.5061  2.9304 -0.7689
 5132SOL     OW27031   3.379   2.196   2.074  0.7128  0.0418  0.2597
 5132SOL    HW127032   3.393   2.170   2.165  0.9614 -1.6594 -0.2620
 5132SOL    HW227033   3.459   2.247   2.064  1.0290 -0.6045 -0.5502
 5133SOL     OW27034   2.987   0.280   9.661  0.4185  0.0277  0.1158
 5133SOL    HW127035   2.949   0.220   9.726 -0.7587  2.3162  1.5286
 5133SOL    HW227036   3.048   0.217   9.622  1.2682  0.2204  1.1413
 5134SOL     OW27037   1.755   3.339   4.094 -0.0628  0.0234  0.3688
 5134SOL    HW127038   1.694   3.389   4.039 -2.0742 -2.7259  0.1350
 5134SOL    HW227039   1.765   3.387   4.176 -0.9033 -3.1046  2.3104
 5135SOL     OW27040   1.160   1.058   3.211  0.1073 -0.0683  0.8496
 5135SOL    HW127041   1.175   1.138   3.261 -1.6703  0.2225  0.9270
 5135SOL    HW227042   1.241   1.053   3.161 -1.0484  1.6280 -1.1968
 5136SOL     OW27043   3.585   0.327   6.085  0.3500  0.4803 -0.6341
 5136SOL    HW127044   3.535   0.245   6.092 -1.6136  1.6340 -1.1446
 5136SOL    HW227045   3.548   0.364   6.006  1.8135  0.3437 -1.3837
 5137SOL     OW27046   0.461   3.806  15.943 -0.1522  0.6692  0.5497
 5137SOL    HW127047   0.416   3.890  15.934  0.9813  1.3199  0.8350
 5137SOL    HW227048   0.496   3.828  16.030 -0.1190 -1.0909  0.9678
 5138SOL     OW27049   2.975   0.002   8.514  0.5095  0.4115  0.3327
 5138SOL    HW127050   2.920   0.001   8.435  0.0720 -0.4772  0.6465
 5138SOL    HW227051   2.959   0.089   8.550  0.9932  0.5576  0.1983
 5139SOL     OW27052   1.284   4.583   8.283 -0.1660  0.0203  0.1404
 5139SOL    HW127053   1.330   4.661   8.252 -1.3106  2.0478  3.6155
 5139SOL    HW227054   1.223   4.620   8.347 -1.3748  0.9673 -1.5823
 5140SOL     OW27055   2.985   3.427   4.251 -0.5510 -0.8537 -0.2932
 5140SOL    HW127056   3.020   3.355   4.200 -0.1604  0.6506 -2.1629
 5140SOL    HW227057   2.908   3.390   4.294  0.4760 -0.5389  1.8143
 5141SOL     OW27058   1.353   3.741   8.879  1.0314  0.1672 -0.2668
 5141SOL    HW127059   1.370   3.821   8.830 -0.6808  0.7715  0.1293
 5141SOL    HW227060   1.398   3.765   8.960  2.6753 -1.3478 -0.7345
 5142SOL     OW27061   3.934   2.693   7.991  0.0953  0.2282 -0.4956
 5142SOL    HW127062   3.932   2.697   8.087  1.4842  0.2822 -0.4643
 5142SOL    HW227063   4.026   2.719   7.978 -0.2986  0.8509 -1.9813
 5143SOL     OW27064   2.085   0.008  13.595 -0.1213  0.2479  0.2972
 5143SOL    HW127065   2.014   0.017  13.658  0.0453 -0.1094  0.5420
 5143SOL    HW227066   2.038   4.720  13.517  0.0296 -0.6049  0.4935
 5144SOL     OW27067   3.210   4.621  13.233 -0.2805  0.0120  0.3122
 5144SOL    HW127068   3.171   4.636  13.319 -3.9137  1.0628 -1.5431
 5144SOL    HW227069   3.292   4.670  13.231 -0.2359 -0.0409  0.9269
 5145SOL     OW27070   4.267   1.666   6.482 -0.3424  0.7105 -0.1032
 5145SOL    HW127071   4.241   1.664   6.390 -1.0226 -1.3241  0.1316
 5145SOL    HW227072   4.187   1.673   6.534 -1.0223 -0.1843 -1.0206
 5146SOL     OW27073   4.659   2.537   5.981 -0.2783  0.0751 -0.1655
 5146SOL    HW127074   4.730   2.588   6.020  0.0249  0.4521 -1.1882
 5146SOL    HW227075   4.654   2.593   5.903 -0.5378 -0.5766 -0.6121
 5147SOL     OW27076   1.091   2.350  15.155 -0.0492  0.4511  0.1282
 5147SOL    HW127077   1.117   2.314  15.070 -1.6587 -0.3436 -0.0254
 5147SOL    HW227078   1.162   2.413  15.167 -0.6278  1.0734  0.2268
 5148SOL     OW27079   1.390   3.881  16.994  0.1117  0.3408  0.3040
 5148SOL    HW127080   1.409   3.810  17.055  0.0437  0.7637  0.8158
 5148SOL    HW227081   1.327   3.933  17.044  0.1443  0.6680  0.0072
 5149SOL     OW27082   2.480   3.109   9.335  0.0404 -0.3596  0.5492
 5149SOL    HW127083   2.480   3.131   9.242  1.6537 -1.7007  0.2398
 5149SOL    HW227084   2.391   3.129   9.363 -0.1656  0.1528 -0.4530
 5150SOL     OW27085   1.163   3.032   9.651 -0.2922  0.3323 -0.9576
 5150SOL    HW127086   1.122   3.081   9.723 -0.2456 -1.7160  0.4659
 5150SOL    HW227087   1.215   3.104   9.616  0.7139 -0.2188 -0.5928
 5151SOL     OW27088   4.623   3.574   6.373 -0.0746  0.4474  0.3860
 5151SOL    HW127089   4.553   3.538   6.319  1.9651 -1.6852 -0.8037
 5151SOL    HW227090   4.696   3.514   6.360 -0.8316 -0.8714  2.2374
 5152SOL     OW27091   2.900   1.426   4.642 -0.2125 -0.2505 -0.0707
 5152SOL    HW127092   2.862   1.346   4.606 -0.2457 -0.0435 -0.4925
 5152SOL    HW227093   2.923   1.399   4.731  1.3430  0.0388 -0.3857
 5153SOL     OW27094   3.835   4.247   6.036 -0.1485 -0.4284 -0.3374
 5153SOL    HW127095   3.835   4.212   6.125 -0.1048 -1.6387 -0.8129
 5153SOL    HW227096   3.744   4.229   6.011  0.7174 -0.2979 -3.5698
 5154SOL     OW27097   2.618   0.958  13.783 -0.2000  0.3403  0.6626
 5154SOL    HW127098   2.714   0.948  13.781 -0.4168 -0.7817 -4.3855
 5154SOL    HW227099   2.601   1.048  13.810  1.2711  0.7789  0.1284
 5155SOL     OW27100   0.932   1.038   8.068  0.9098  0.5018 -0.3232
 5155SOL    HW127101   0.869   1.101   8.032  1.8800  0.0409 -2.8475
 5155SOL    HW227102   0.908   0.964   8.011  1.9339  0.5099 -0.7695
 5156SOL     OW27103   2.759   0.454   4.765  0.0774  0.2455  0.5565
 5156SOL    HW127104   2.835   0.456   4.822  0.2536 -0.8162  0.3655
 5156SOL    HW227105   2.702   0.488   4.833  1.9976 -0.6443  2.5967
 5157SOL     OW27106   0.242   4.617  12.125 -0.1857 -0.2989 -0.5619
 5157SOL    HW127107   0.238   4.689  12.188  0.8839 -0.3867 -0.3904
 5157SOL    HW227108   0.320   4.573  12.160 -0.2821  1.1633  1.5002
 5158SOL     OW27109   2.214   2.426   2.746 -0.2215 -0.3626 -0.4854
 5158SOL    HW127110   2.248   2.485   2.812 -1.7716 -0.0581  0.0461
 5158SOL    HW227111   2.123   2.455   2.742 -0.2358 -0.2995  0.5154
 5159SOL     OW27112   0.271   0.213   4.916 -0.1325 -0.1585  0.1239
 5159SOL    HW127113   0.248   0.228   4.825 -0.4937  1.9230  0.5577
 5159SOL    HW227114   0.194   0.248   4.962 -0.8165  0.4028 -1.4486
 5160SOL     OW27115   2.519   0.760   9.013 -0.0062  0.3159  0.8598
 5160SOL    HW127116   2.427   0.776   9.036  0.4160  1.7896  1.4606
 5160SOL    HW227117   2.508   0.668   8.988 -1.7057  0.8180 -0.2433
 5161SOL     OW27118   3.908   1.378   7.410 -0.2365 -0.7508 -0.5663
 5161SOL    HW127119   3.950   1.350   7.491 -0.2527 -0.0723 -0.3224
 5161SOL    HW227120   3.946   1.306   7.360  0.5714  0.1893 -1.3149
 5162SOL     OW27121   4.186   0.844   2.787  0.1755  0.5044  0.0263
 5162SOL    HW127122   4.091   0.835   2.789  0.3329 -0.9708  0.8359
 5162SOL    HW227123   4.208   0.767   2.735 -1.5985  0.5601 -0.8249
 5163SOL     OW27124   0.439   0.469   7.344  0.3758  0.3254  0.0930
 5163SOL    HW127125   0.456   0.404   7.413  1.4096  2.0204  1.4472
 5163SOL    HW227126   0.355   0.441   7.309  1.2058 -0.2916 -1.3757
 5164SOL     OW27127   0.561   3.760  17.137 -0.8036 -0.1860 -0.7769
 5164SOL    HW127128   0.467   3.769  17.124 -0.9620 -0.7753  0.0077
 5164SOL    HW227129   0.584   3.837  17.188 -2.4886 -0.1115 -0.1421
 5165SOL     OW27130   2.382   0.075   7.111  0.1553 -0.0070 -0.2626
 5165SOL    HW127131   2.437   0.014   7.062 -1.1007 -1.3834  0.0119
 5165SOL    HW227132   2.407   0.051   7.200  1.3284 -0.6391 -0.7650
 5166SOL     OW27133   0.469   0.569  12.126 -0.5973  0.2302 -0.0999
 5166SOL    HW127134   0.558   0.540  12.147 -1.3564 -2.5624 -0.6308
 5166SOL    HW227135   0.486   0.657  12.094 -0.2716  0.2394  0.0972
 5167SOL     OW27136   1.735   2.296   9.489 -0.1236  0.4206  0.0420
 5167SOL    HW127137   1.658   2.250   9.454 -0.1002  1.4221 -1.3509
 5167SOL    HW227138   1.799   2.227   9.505 -1.1644 -0.5764 -0.0808
 5168SOL     OW27139   1.602   4.330   4.380 -0.5794 -0.6432 -0.2476
 5168SOL    HW127140   1.541   4.283   4.436 -0.7031 -0.2730 -0.0723
 5168SOL    HW227141   1.661   4.265   4.341  0.9006 -0.4447  1.6323
 5169SOL     OW27142   3.962   3.988   9.466 -0.1159 -0.4628 -0.8195
 5169SOL    HW127143   3.978   4.033   9.549 -1.3702  3.1077 -2.4959
 5169SOL    HW227144   4.037   4.012   9.411 -0.6411  1.0266 -0.8940
 5170SOL     OW27145   1.108   0.499   6.284 -0.0822 -0.4118  0.1077
 5170SOL    HW127146   1.136   0.418   6.241 -3.1302 -0.6786 -1.3306
 5170SOL    HW227147   1.048   0.534   6.219 -0.9361 -0.7331  0.7248
 5171SOL     OW27148   2.234   1.277   1.522 -0.0834  0.3251  0.0696
 5171SOL    HW127149   2.300   1.332   1.564  0.1879 -0.9822  1.3244
 5171SOL    HW227150   2.248   1.289   1.428 -2.2367 -2.0377 -0.5422
 5172SOL     OW27151   0.867   0.917   2.750 -0.1209  0.2273  0.0420
 5172SOL    HW127152   0.923   0.899   2.674 -0.0956  1.2284 -0.1845
 5172SOL    HW227153   0.845   0.826   2.769 -1.4430  0.6516  0.5181
 5173SOL     OW27154   2.116   2.653   9.545  0.4222  0.1480  0.1896
 5173SOL    HW127155   2.193   2.706   9.523 -1.2996  2.6298  0.1531
 5173SOL    HW227156   2.037   2.706   9.540  0.0168 -0.2480  2.1666
 5174SOL     OW27157   4.273   3.131   4.314  0.6327  0.3661  0.2956
 5174SOL    HW127158   4.289   3.186   4.237 -2.0944  1.7744  0.7111
 5174SOL    HW227159   4.306   3.191   4.381 -0.3741  0.2422  0.9161
 5175SOL     OW27160   0.165   1.795   1.819  0.5980  0.2809  0.2627
 5175SOL    HW127161   0.211   1.798   1.903  0.8262  0.5522  0.1282
 5175SOL    HW227162   0.085   1.842   1.844 -0.2762 -1.3740  0.5480
 5176SOL     OW27163   2.681   2.977   4.917  0.1135  0.2647  0.7697
 5176SOL    HW127164   2.590   2.974   4.946 -0.2014 -0.6886 -0.2790
 5176SOL    HW227165   2.673   3.052   4.857  2.4196  0.2362  0.4429
 5177SOL     OW27166   0.417   4.695  10.529 -0.7287 -0.2971  0.7902
 5177SOL    HW127167   0.425   0.050  10.510 -1.8371 -0.6086 -1.1089
 5177SOL    HW227168   0.438   4.694  10.623 -0.8584 -0.0657  0.8211
 5178SOL     OW27169   0.707   4.572   8.838  0.6236 -0.1448 -0.1798
 5178SOL    HW127170   0.764   4.538   8.907 -0.7437 -0.7626  0.6569
 5178SOL    HW227171   0.759   4.540   8.765  1.8390  5.5399 -1.7829
 5179SOL     OW27172   3.259   0.613   3.578 -0.2848  0.0033  0.3655
 5179SOL    HW127173   3.216   0.605   3.493 -0.3291 -0.2700  0.4133
 5179SOL    HW227174   3.334   0.556   3.565 -0.4280 -0.5840  2.1178
 5180SOL     OW27175   4.008   2.618   2.609 -0.4881 -0.8291 -0.5344
 5180SOL    HW127176   3.946   2.571   2.554 -1.8265 -1.1028  1.1820
 5180SOL    HW227177   4.026   2.694   2.554 -0.9352 -0.6656 -0.4500
 5181SOL     OW27178   2.006   4.038   5.739 -0.0619 -0.1031  0.2866
 5181SOL    HW127179   2.061   4.056   5.816 -0.4035  2.6902 -0.1208
 5181SOL    HW227180   2.022   3.946   5.717 -0.7603  0.2815 -1.7534
 5182SOL     OW27181   2.131   0.873   1.733  0.0561  0.4620  0.5463
 5182SOL    HW127182   2.193   0.884   1.806  0.6524 -2.3479  0.4657
 5182SOL    HW227183   2.191   0.837   1.667 -0.6248  0.3864 -0.0233
 5183SOL     OW27184   4.096   2.161  11.874 -0.4728 -0.0847  0.0923
 5183SOL    HW127185   4.142   2.226  11.927 -0.6984  0.5079 -0.4439
 5183SOL    HW227186   4.096   2.207  11.790 -0.6716  1.0694  0.7264
 5184SOL     OW27187   1.949   0.190   9.625  0.6818  0.4777  0.2603
 5184SOL    HW127188   1.998   0.257   9.672  2.0284 -1.0666  1.0414
 5184SOL    HW227189   1.911   0.242   9.554 -1.0491 -1.7813 -0.5038
 5185SOL     OW27190   0.761   0.581   0.786 -0.0590  0.3972  0.9311
 5185SOL    HW127191   0.733   0.669   0.759 -0.4206 -0.7280 -2.3208
 5185SOL    HW227192   0.680   0.532   0.771  0.3610 -0.7650  2.4565
 5186SOL     OW27193   2.037   0.222  15.490  0.0098 -0.0017  0.3095
 5186SOL    HW127194   2.041   0.318  15.493 -0.5510 -0.0025  1.0946
 5186SOL    HW227195   1.966   0.211  15.427 -0.9842 -1.2622  1.6457
 5187SOL     OW27196   0.031   4.158   3.984  0.2266  0.0601  0.4724
 5187SOL    HW127197   0.043   4.235   4.039  0.5826  0.3532 -0.0174
 5187SOL    HW227198   0.004   4.090   4.045 -1.7509  1.3486  1.0251
 5188SOL     OW27199   0.014   1.025   6.106  0.5833  0.0118  0.4864
 5188SOL    HW127200   0.106   0.999   6.120  0.4233  0.2299  1.9497
 5188SOL    HW227201   0.012   1.061   6.017 -0.8234  2.7997  1.6504
 5189SOL     OW27202   1.908   0.515   7.186 -0.0986  0.4458 -0.2493
 5189SOL    HW127203   1.961   0.436   7.200  1.0919  0.9974 -1.6953
 5189SOL    HW227204   1.968   0.576   7.228  0.7507  0.3281 -1.3157
 5190SOL     OW27205   0.670   1.787  17.288 -0.3643 -0.2809  0.3361
 5190SOL    HW127206   0.734   1.851  17.258 -2.1342  0.7620 -1.2508
 5190SOL    HW227207   0.642   1.758  17.201  1.1104 -3.3392  0.8934
 5191SOL     OW27208   2.002   0.117   4.701 -0.5829 -0.0378  0.2322
 5191SOL    HW127209   2.059   0.180   4.658  1.5473 -1.2042  1.3276
 5191SOL    HW227210   1.918   0.154   4.674 -1.0289 -1.1686  0.0809
 5192SOL     OW27211   0.640   4.606   2.675  0.2452  1.0565  0.8095
 5192SOL    HW127212   0.688   4.688   2.661  1.3438  0.3453  0.4812
 5192SOL    HW227213   0.546   4.625   2.670  0.1418 -0.1856 -1.8935
 5193SOL     OW27214   1.168   4.241   3.657  0.3449  0.0979 -0.2073
 5193SOL    HW127215   1.073   4.242   3.649  0.2019 -1.5405  1.3294
 5193SOL    HW227216   1.174   4.239   3.752  0.7582  0.4616 -0.2260
 5194SOL     OW27217   1.190   3.243   7.785  0.0280  0.0221  0.4962
 5194SOL    HW127218   1.160   3.261   7.696  0.9873  1.0331  0.3728
 5194SOL    HW227219   1.286   3.248   7.786  0.0533 -0.9243  1.9727
 5195SOL     OW27220   3.570   1.824   9.642 -0.0961  0.2239 -0.3552
 5195SOL    HW127221   3.579   1.732   9.668  0.4042  0.6759  1.0800
 5195SOL    HW227222   3.520   1.813   9.561  0.7782 -0.4773 -0.7933
 5196SOL     OW27223   1.099   2.869  10.244  0.7078  0.2299 -0.2216
 5196SOL    HW127224   1.192   2.849  10.246  0.6959  0.1275 -0.7509
 5196SOL    HW227225   1.096   2.925  10.321 -0.4382  1.0243 -0.8505
 5197SOL     OW27226   0.323   3.401  17.223 -0.3433  0.0820 -0.3967
 5197SOL    HW127227   0.255   3.417  17.157  0.3566 -1.3701 -1.4704
 5197SOL    HW227228   0.399   3.396  17.165  0.4523  0.2246  0.6399
 5198SOL     OW27229   2.359   3.185  15.147  0.6358  0.0943  0.1999
 5198SOL    HW127230   2.414   3.120  15.104 -1.0789 -1.2015 -0.0417
 5198SOL    HW227231   2.405   3.268  15.141  0.1714  0.3377 -0.0494
 5199SOL     OW27232   0.212   1.921  13.266 -0.6518  0.0232  0.1910
 5199SOL    HW127233   0.206   1.876  13.350  1.1011 -1.6809 -0.6036
 5199SOL    HW227234   0.292   1.887  13.225  0.1965  0.9692  1.0764
 5200SOL     OW27235   1.460   4.059   8.245  0.2327  0.3093  0.2053
 5200SOL    HW127236   1.541   4.041   8.293  0.5303 -0.2917 -0.5131
 5200SOL    HW227237   1.399   4.073   8.318 -0.5812  0.4037 -0.4921
 5201SOL     OW27238   1.887   0.849   1.674 -0.4177  0.6301  0.0088
 5201SOL    HW127239   1.981   0.849   1.695 -0.2980 -0.8240 -0.5702
 5201SOL    HW227240   1.846   0.865   1.759 -2.1110 -1.5576 -0.3918
 5202SOL     OW27241   0.560   4.715   3.653 -0.0948  0.1868 -0.5719
 5202SOL    HW127242   0.491   4.717   3.719 -0.9619  1.2834 -1.5299
 5202SOL    HW227243   0.567   0.069   3.629  0.0346  1.5087  4.5635
 5203SOL     OW27244   3.977   1.774  17.653 -0.1868 -0.2128  0.6016
 5203SOL    HW127245   3.928   1.843  17.698 -2.6999 -0.8858 -1.1647
 5203SOL    HW227246   3.987   1.812  17.566 -1.0539 -0.6922  0.3009
 5204SOL     OW27247   1.404   2.435   9.205  0.2497  0.2447 -0.0470
 5204SOL    HW127248   1.453   2.356   9.228  0.8239  0.6733  0.2018
 5204SOL    HW227249   1.434   2.454   9.116  1.1702  0.7070  0.3636
 5205SOL     OW27250   3.973   3.973   8.554  0.0807 -0.3968  0.0096
 5205SOL    HW127251   4.002   3.971   8.645  0.3618  3.1606 -0.0032
 5205SOL    HW227252   3.962   4.068   8.547  1.5080 -0.3047 -0.8304
 5206SOL     OW27253   1.663   4.268   9.814  0.1303 -0.1924 -0.6283
 5206SOL    HW127254   1.681   4.321   9.736 -1.7885  0.4717 -0.6214
 5206SOL    HW227255   1.570   4.257   9.798 -0.1219  0.2972  0.4743
 5207SOL     OW27256   2.409   0.164   2.062 -0.0515  0.0657  0.4420
 5207SOL    HW127257   2.370   0.252   2.060  0.2227  0.2149  1.6335
 5207SOL    HW227258   2.400   0.140   2.154 -1.4746  1.8570  0.7905
 5208SOL     OW27259   3.912   4.450   3.939 -0.3211  0.4153  0.4699
 5208SOL    HW127260   3.849   4.402   3.993  1.2875 -0.1933  1.8029
 5208SOL    HW227261   3.991   4.405   3.969 -0.0768  1.3712  1.2712
 5209SOL     OW27262   0.093   0.394   2.318  0.4090 -0.1440 -0.2912
 5209SOL    HW127263   0.145   0.314   2.310  1.8179  0.7053  0.3976
 5209SOL    HW227264   0.138   0.460   2.266  0.3053 -0.8446 -1.2603
 5210SOL     OW27265   0.832   1.038   4.178  0.1737  0.3359 -0.1405
 5210SOL    HW127266   0.919   0.999   4.182 -0.6582 -1.4722  0.7559
 5210SOL    HW227267   0.827   1.098   4.252  2.8471  0.6232 -0.2118
 5211SOL     OW27268   0.158   2.191  12.494  0.3516 -0.0477 -0.1790
 5211SOL    HW127269   0.083   2.222  12.443  1.2254  0.5100 -1.1234
 5211SOL    HW227270   0.215   2.145  12.433  0.1564 -1.3462  0.6057
 5212SOL     OW27271   4.429   4.510   7.779  0.0740 -0.0752 -0.4752
 5212SOL    HW127272   4.495   4.558   7.729 -0.5004 -1.3633 -2.4325
 5212SOL    HW227273   4.393   4.586   7.826  0.5174  1.0654 -1.9670
 5213SOL     OW27274   1.669   1.096   6.005 -0.0500  0.1306 -0.3137
 5213SOL    HW127275   1.633   1.107   5.917  0.1480  0.2294 -0.3830
 5213SOL    HW227276   1.616   1.021   6.032 -2.0547  2.1172  1.2745
 5214SOL     OW27277   3.126   4.054   1.456 -0.1149 -0.2913 -0.4446
 5214SOL    HW127278   3.087   4.035   1.541  1.7554 -2.3933 -0.0350
 5214SOL    HW227279   3.217   4.057   1.484 -0.8359  0.6595  1.7430
 5215SOL     OW27280   1.306   2.732   3.149 -0.6058 -0.5326  0.5951
 5215SOL    HW127281   1.398   2.748   3.171 -0.8074 -0.8019  1.6603
 5215SOL    HW227282   1.318   2.654   3.096 -1.2436  0.6527 -1.2855
 5216SOL     OW27283   1.924   0.407  13.915  0.6099 -0.4052 -0.1642
 5216SOL    HW127284   1.951   0.404  13.823 -2.1738 -0.1078 -1.0185
 5216SOL    HW227285   1.839   0.365  13.900  0.5942 -0.7416  0.8640
 5217SOL     OW27286   0.465   0.052   2.447 -0.0421 -0.1331  0.4522
 5217SOL    HW127287   0.522   4.731   2.398 -2.0622 -0.2761 -1.7296
 5217SOL    HW227288   0.509   0.136   2.434  0.3500 -0.5621 -1.0145
 5218SOL     OW27289   0.475   3.231   2.139  0.0247  0.4002  0.5067
 5218SOL    HW127290   0.417   3.229   2.215  1.0514 -0.6006  1.2763
 5218SOL    HW227291   0.415   3.271   2.076  0.2790  0.4026  0.2651
 5219SOL     OW27292   2.017   1.354   5.748  0.0701 -0.0421  0.3605
 5219SOL    HW127293   1.974   1.313   5.823  0.1061  0.8296  0.8683
 5219SOL    HW227294   1.953   1.414   5.710 -2.1989 -1.4477  2.0213
 5220SOL     OW27295   1.647   1.789   2.426  0.0286  0.2140 -0.3718
 5220SOL    HW127296   1.657   1.693   2.427  2.8676  0.5041 -1.5741
 5220SOL    HW227297   1.692   1.809   2.509  0.6351  0.9435 -0.8775
 5221SOL     OW27298   3.452   2.108  12.467 -0.0311 -0.5859 -0.4559
 5221SOL    HW127299   3.465   2.074  12.378  2.5438 -0.2651 -0.2042
 5221SOL    HW227300   3.374   2.160  12.445  1.2365  0.8649 -1.4736
 5222SOL     OW27301   3.317   3.562  15.990  0.2052 -0.1366 -0.3493
 5222SOL    HW127302   3.331   3.652  15.959  0.9599 -0.1475 -0.0338
 5222SOL    HW227303   3.323   3.516  15.906 -0.7499 -0.5340 -0.2041
 5223SOL     OW27304   4.641   0.472   3.596 -0.8633  0.2100  0.5219
 5223SOL    HW127305   4.676   0.395   3.641  0.9905 -0.1248 -1.5315
 5223SOL    HW227306   4.653   0.457   3.503  0.0413  1.5849  0.4133
 5224SOL     OW27307   3.283   2.845   7.491 -0.0983  0.2291  0.4038
 5224SOL    HW127308   3.323   2.777   7.545  0.1847  0.5361  0.5833
 5224SOL    HW227309   3.193   2.814   7.499 -0.0911  0.0198 -0.3349
 5225SOL     OW27310   1.838   4.089  13.830 -0.2939  0.6647  0.1993
 5225SOL    HW127311   1.754   4.060  13.793 -0.1404  0.2885  0.1449
 5225SOL    HW227312   1.847   4.175  13.788 -2.9549 -0.1485 -2.0833
 5226SOL     OW27313   1.580   1.543   2.937 -0.1839 -0.7128 -0.3497
 5226SOL    HW127314   1.553   1.627   2.975 -1.4564 -1.7327  0.9464
 5226SOL    HW227315   1.660   1.532   2.987 -1.7068  1.7379  2.6306
 5227SOL     OW27316   0.766   3.198   1.814  0.4024 -0.8867 -0.3062
 5227SOL    HW127317   0.700   3.153   1.866 -0.4275 -0.6725 -1.1866
 5227SOL    HW227318   0.706   3.251   1.762 -0.1948 -2.4567 -1.2210
 5228SOL     OW27319   1.360   4.168   7.537  0.0378 -0.1478 -0.4788
 5228SOL    HW127320   1.357   4.246   7.591 -2.5849  0.3118 -1.2685
 5228SOL    HW227321   1.279   4.163   7.486 -0.2957  0.3496  0.0148
 5229SOL     OW27322   4.370   4.686   3.924  0.0794  0.1681 -0.0621
 5229SOL    HW127323   4.428   4.678   4.000 -1.5808  1.0976  1.3025
 5229SOL    HW227324   4.338   0.035   3.945  0.3115  0.3168 -0.3103
 5230SOL     OW27325   3.491   3.372   4.016 -0.1549  0.5607 -0.1337
 5230SOL    HW127326   3.460   3.378   3.926 -1.1176  0.4744  0.1832
 5230SOL    HW227327   3.408   3.384   4.062  1.0453  0.0425  2.1979
 5231SOL     OW27328   1.713   2.227   2.301  0.0424  0.1921 -0.4659
 5231SOL    HW127329   1.785   2.245   2.362 -0.4285 -2.6946  0.9223
 5231SOL    HW227330   1.644   2.284   2.336 -0.2931  0.5735 -1.7464
 5232SOL     OW27331   4.085   0.830   8.838 -0.2277  0.7142  0.6493
 5232SOL    HW127332   4.177   0.832   8.811 -0.3913 -2.3202 -0.1013
 5232SOL    HW227333   4.052   0.917   8.862 -0.0116  1.0019 -0.1037
 5233SOL     OW27334   3.266   4.554   3.152 -0.0901 -0.3246 -0.3106
 5233SOL    HW127335   3.232   4.537   3.064 -0.1939 -0.2488 -0.2840
 5233SOL    HW227336   3.322   4.629   3.133 -0.2752 -0.3797 -1.0577
 5234SOL     OW27337   3.940   3.966   6.499  0.3819 -0.1803  0.3725
 5234SOL    HW127338   3.991   3.885   6.510  3.1070  1.9444  3.1364
 5234SOL    HW227339   3.983   4.028   6.557 -0.7687  0.5596  0.4292
 5235SOL     OW27340   2.227   3.180   9.456 -0.0390  0.2758  0.4208
 5235SOL    HW127341   2.294   3.215   9.515  1.4552 -0.6525 -0.7330
 5235SOL    HW227342   2.159   3.174   9.523 -2.1311  0.7179 -1.6922
 5236SOL     OW27343   2.599   0.442   1.402  0.8112  0.1996 -0.2059
 5236SOL    HW127344   2.556   0.518   1.363 -2.5939 -1.5877  0.0155
 5236SOL    HW227345   2.601   0.389   1.322 -3.3632  0.5078 -0.5331
 5237SOL     OW27346   3.764   2.913   7.927 -0.2210  0.6801  0.1296
 5237SOL    HW127347   3.844   2.939   7.882  0.6333  3.0570  2.9732
 5237SOL    HW227348   3.787   2.820   7.939 -0.4776  0.9027  2.4937
 5238SOL     OW27349   1.021   4.020  15.518  0.1357 -0.0006  0.0696
 5238SOL    HW127350   1.058   4.099  15.557  0.9853 -0.3985  0.0708
 5238SOL    HW227351   0.937   4.017  15.563 -0.3192 -1.7352 -0.9104
 5239SOL     OW27352   4.307   3.935  16.775 -0.1020  0.4257  0.6328
 5239SOL    HW127353   4.359   3.872  16.725  1.0056  0.7015  1.4221
 5239SOL    HW227354   4.354   3.939  16.859 -0.4356 -0.6819  0.8738
 5240SOL     OW27355   3.739   1.413  10.099  0.4412  0.3726 -0.1927
 5240SOL    HW127356   3.687   1.492  10.090  1.1032  0.8190 -0.0903
 5240SOL    HW227357   3.744   1.394  10.005 -1.9082  0.5113 -0.3477
 5241SOL     OW27358   4.134   0.658   5.250 -0.4440 -0.4433  0.9334
 5241SOL    HW127359   4.197   0.654   5.177 -2.3652 -0.0941 -0.7361
 5241SOL    HW227360   4.076   0.586   5.226 -0.5408 -0.4397  1.1599
 5242SOL     OW27361   0.731   2.220   5.672 -0.6621 -0.0032  0.5125
 5242SOL    HW127362   0.760   2.310   5.686  2.4004 -0.9317  0.0576
 5242SOL    HW227363   0.674   2.226   5.596  0.1430 -0.9175 -0.1592
 5243SOL     OW27364   1.888   1.017   8.450 -0.5249  0.4651  0.1670
 5243SOL    HW127365   1.840   1.056   8.378 -1.5513 -2.0592 -0.5121
 5243SOL    HW227366   1.902   1.093   8.507 -0.5425  0.7629 -0.2303
 5244SOL     OW27367   1.959   1.042   6.472  0.0763  0.0872 -0.1445
 5244SOL    HW127368   2.032   0.983   6.492 -0.4268  0.1638  1.8821
 5244SOL    HW227369   1.976   1.095   6.550 -0.9545 -0.7619  0.6492
 5245SOL     OW27370   4.016   0.816  12.979  0.4247  0.0173 -0.1225
 5245SOL    HW127371   3.981   0.903  12.964  1.3960  0.3291 -0.5862
 5245SOL    HW227372   4.097   0.799  12.931 -0.3061 -0.8765 -1.0190
 5246SOL     OW27373   1.148   4.401   9.897  0.1364 -0.2504  0.0271
 5246SOL    HW127374   1.078   4.337   9.883 -1.1836  0.9992  0.8993
 5246SOL    HW227375   1.110   4.448   9.971 -2.0869 -0.2050 -1.1538
 5247SOL     OW27376   1.432   2.714   6.671  0.6372 -0.3015 -0.0171
 5247SOL    HW127377   1.407   2.721   6.764 -0.3130  0.7303 -0.3494
 5247SOL    HW227378   1.445   2.620   6.660 -4.5031 -1.1525  0.9463
 5248SOL     OW27379   3.565   2.961   6.231 -0.2611 -0.1508 -0.2312
 5248SOL    HW127380   3.573   2.903   6.156  2.1870  1.6483 -1.3525
 5248SOL    HW227381   3.657   2.967   6.255 -0.0886 -2.0368 -0.4752
 5249SOL     OW27382   4.010   0.454   1.239  0.2358 -0.0842  0.4203
 5249SOL    HW127383   4.025   0.492   1.153 -0.5742 -0.4312  0.1284
 5249SOL    HW227384   4.089   0.482   1.285  0.9763  0.0606 -0.9616
 5250SOL     OW27385   0.316   2.961   3.635  0.2721 -0.4836 -0.5284
 5250SOL    HW127386   0.312   2.875   3.676  2.2104  0.1123  0.9066
 5250SOL    HW227387   0.252   3.015   3.681  1.3864  0.1500  0.2769
 5251SOL     OW27388   0.151   0.341   8.209  0.4592  0.4793  0.0995
 5251SOL    HW127389   0.192   0.428   8.213  0.8093  0.2589  1.3875
 5251SOL    HW227390   0.114   0.352   8.121  0.5178  0.4259  0.0686
 5252SOL     OW27391   3.935   1.160  17.599  0.0300 -0.1603 -0.3401
 5252SOL    HW127392   3.844   1.162  17.629 -0.1142 -0.2160 -0.7785
 5252SOL    HW227393   3.930   1.191  17.509  0.2817  1.0935  0.0746
 5253SOL     OW27394   4.391   1.589  12.502 -0.2351  0.2668  0.7330
 5253SOL    HW127395   4.482   1.559  12.509 -0.8550 -1.5119  1.0767
 5253SOL    HW227396   4.408   1.662  12.442  1.7390  0.1996  1.2165
 5254SOL     OW27397   2.047   0.400   4.887 -0.8816 -0.6835 -0.6090
 5254SOL    HW127398   2.023   0.317   4.928  0.9333 -0.6339  0.5249
 5254SOL    HW227399   2.113   0.431   4.948  0.2043  1.4763 -2.8961
 5255SOL     OW27400   4.707   2.516   2.739  0.6620 -0.1998  0.4180
 5255SOL    HW127401   0.014   2.435   2.717 -1.4009 -1.6930  1.6845
 5255SOL    HW227402   4.649   2.527   2.664  1.8391  2.3124 -0.1255
 5256SOL     OW27403   2.606   3.722   7.543  0.0094  0.3206 -0.3342
 5256SOL    HW127404   2.677   3.786   7.544  0.3196 -0.0410  0.8259
 5256SOL    HW227405   2.536   3.781   7.572  1.5269  2.6197 -1.3555
 5257SOL     OW27406   2.535   4.183   5.244  0.4053 -0.6994  0.2595
 5257SOL    HW127407   2.478   4.236   5.299  1.2100 -1.6533  2.0484
 5257SOL    HW227408   2.593   4.249   5.206  0.4697 -1.2607 -0.6094
 5258SOL     OW27409   3.449   4.308   7.516  0.8755 -0.5844 -0.1107
 5258SOL    HW127410   3.460   4.402   7.528 -0.6845 -0.4076 -0.0758
 5258SOL    HW227411   3.431   4.282   7.607  3.0580 -1.5748  0.0375
 5259SOL     OW27412   4.348   3.358  15.564  0.5982  0.1730  0.0660
 5259SOL    HW127413   4.357   3.317  15.651 -2.0495  0.2864  0.4093
 5259SOL    HW227414   4.325   3.278  15.516 -0.9533  0.3409  0.5319
 5260SOL     OW27415   2.194   0.598   6.054 -0.0591  0.3858 -0.0632
 5260SOL    HW127416   2.113   0.549   6.040  0.5935 -1.0836  1.3422
 5260SOL    HW227417   2.171   0.622   6.143 -0.9702  0.2951 -0.2700
 5261SOL     OW27418   2.370   2.737   3.740  0.0906  1.0453 -0.0655
 5261SOL    HW127419   2.348   2.818   3.786 -3.2765 -0.1146  0.3376
 5261SOL    HW227420   2.286   2.692   3.735 -0.8984  2.6659  2.0296
 5262SOL     OW27421   3.464   2.468   2.333  0.5212  0.0782  0.6223
 5262SOL    HW127422   3.394   2.495   2.391 -0.2573 -1.4602  0.4044
 5262SOL    HW227423   3.530   2.428   2.390 -0.4655 -0.2325  1.5362
 5263SOL     OW27424   0.419   2.652  11.573 -0.0151  0.1464  0.6945
 5263SOL    HW127425   0.480   2.603  11.628  0.4196 -0.0175  0.0685
 5263SOL    HW227426   0.480   2.682  11.506  0.9770  1.2887  2.1194
 5264SOL     OW27427   3.815   2.479   0.393 -0.1987  0.4757  0.2358
 5264SOL    HW127428   3.736   2.436   0.426  0.5614 -1.6060 -0.6695
 5264SOL    HW227429   3.802   2.457   0.301 -0.5586 -2.7389  1.0622
 5265SOL     OW27430   2.886   1.758   8.182  0.2609 -0.2356  0.6804
 5265SOL    HW127431   2.873   1.832   8.122 -1.1311  0.1079  1.3934
 5265SOL    HW227432   2.931   1.696   8.125 -0.6581 -0.7475  0.5077
 5266SOL     OW27433   0.397   2.823   4.185 -0.5093  0.1221  0.1292
 5266SOL    HW127434   0.317   2.803   4.137 -2.1302  2.1008  1.9902
 5266SOL    HW227435   0.459   2.762   4.145 -1.0446 -0.0897 -0.3824
 5267SOL     OW27436   0.081   0.481   9.535 -0.0902 -0.0984 -0.0995
 5267SOL    HW127437   0.040   0.564   9.511  1.1266 -0.0012 -1.8531
 5267SOL    HW227438   0.069   0.476   9.630 -0.6549 -2.1363 -0.2889
 5268SOL     OW27439   1.419   3.922  10.218  0.1514 -0.7005  0.1102
 5268SOL    HW127440   1.349   3.857  10.212 -1.7724  1.1926  1.8827
 5268SOL    HW227441   1.477   3.905  10.144  1.4859 -0.1907  1.0363
 5269SOL     OW27442   3.813   4.539   5.783  0.0251  0.2361  0.5640
 5269SOL    HW127443   3.821   4.587   5.701 -1.9378  1.6513  1.2011
 5269SOL    HW227444   3.758   4.464   5.759  0.3220 -0.0133  0.6517
 5270SOL     OW27445   1.544   4.223   1.898  0.0696 -0.3494  0.2312
 5270SOL    HW127446   1.500   4.305   1.921  1.9793  1.6411 -3.1806
 5270SOL    HW227447   1.475   4.165   1.868  0.4626 -0.3260 -0.7179
 5271SOL     OW27448   0.205   4.520   5.294  0.0681  0.2261  0.0807
 5271SOL    HW127449   0.288   4.505   5.338  0.9846  2.6222 -0.8224
 5271SOL    HW227450   0.214   4.490   5.203 -0.0098  2.0692 -0.5400
 5272SOL     OW27451   0.833   1.700   4.067  0.1369  0.7564  0.2812
 5272SOL    HW127452   0.855   1.792   4.050  1.2053  0.6873  1.2694
 5272SOL    HW227453   0.894   1.684   4.139  1.2858  1.1618 -0.5968
 5273SOL     OW27454   2.885   2.139  14.249  0.3040  0.3372  0.7385
 5273SOL    HW127455   2.895   2.193  14.327 -1.8586  1.1294  0.4800
 5273SOL    HW227456   2.922   2.057  14.282  1.7102  0.0724 -1.5099
 5274SOL     OW27457   1.768   4.168   0.752 -0.1774  0.0381 -0.1366
 5274SOL    HW127458   1.701   4.100   0.757 -0.0810 -0.2622 -2.8375
 5274SOL    HW227459   1.820   4.157   0.831 -2.0023 -1.8108  0.8260
 5275SOL     OW27460   1.208   0.786   9.668 -0.9633  0.0251 -0.5821
 5275SOL    HW127461   1.288   0.806   9.716 -1.2540 -1.8461  0.6836
 5275SOL    HW227462   1.199   0.693   9.689  0.5930 -0.3941 -1.7547
 5276SOL     OW27463   4.053   4.480   3.320  0.2235 -0.3779 -0.0380
 5276SOL    HW127464   4.066   4.541   3.392 -0.6407 -0.9239  0.5813
 5276SOL    HW227465   4.022   4.540   3.252  1.2851  1.6681  1.3128
 5277SOL     OW27466   3.844   1.039   5.748  0.2939  0.2758  0.2168
 5277SOL    HW127467   3.896   0.971   5.792 -1.6457 -0.1104  1.9364
 5277SOL    HW227468   3.793   1.067   5.824 -0.8772  0.6976 -0.7394
 5278SOL     OW27469   2.217   0.803   8.143  0.8847 -0.1543  0.0808
 5278SOL    HW127470   2.154   0.742   8.180 -0.6029  1.3737  0.0955
 5278SOL    HW227471   2.305   0.779   8.172  1.4144  1.2999 -0.2988
 5279SOL     OW27472   2.602   0.748   6.560 -0.5225 -0.4342  0.2611
 5279SOL    HW127473   2.692   0.734   6.532 -0.1132 -0.0615  1.4164
 5279SOL    HW227474   2.610   0.835   6.600 -1.1948 -0.5664  0.6861
 5280SOL     OW27475   2.901   0.039   3.272  0.1046  0.1623  0.9585
 5280SOL    HW127476   2.931   0.111   3.215  1.0516 -1.6662 -0.8469
 5280SOL    HW227477   2.965   0.030   3.343  0.2385 -1.1543  0.6636
 5281SOL     OW27478   0.581   1.758   6.953  0.1875  0.2774 -0.0522
 5281SOL    HW127479   0.498   1.721   6.985 -0.5963  1.9729 -0.1259
 5281SOL    HW227480   0.569   1.852   6.937 -1.6416  0.1974  0.8507
 5282SOL     OW27481   4.069   1.116  17.237  0.4298  0.6490 -0.6933
 5282SOL    HW127482   3.987   1.138  17.281  0.5009  1.2614 -0.8758
 5282SOL    HW227483   4.075   1.021  17.228  0.5141  0.4662  1.3009
 5283SOL     OW27484   4.150   2.368   4.739 -0.2052 -0.3523  0.0465
 5283SOL    HW127485   4.225   2.322   4.700 -1.5924 -1.2507 -1.5749
 5283SOL    HW227486   4.158   2.341   4.830  0.1448  1.0050  0.4224
 5284SOL     OW27487   1.187   0.345   2.696 -0.3651 -0.0939  0.0585
 5284SOL    HW127488   1.277   0.348   2.663 -0.7743  0.2386 -1.0081
 5284SOL    HW227489   1.143   0.364   2.613 -1.5892  0.4990  0.8526
 5285SOL     OW27490   4.251   2.922   5.539 -0.1186  0.4320  0.1635
 5285SOL    HW127491   4.262   2.907   5.633 -2.3022 -1.3407  0.1273
 5285SOL    HW227492   4.340   2.901   5.511 -0.6930 -0.0826 -1.2334
 5286SOL     OW27493   0.028   4.067   0.815  0.2505  0.0505  0.2306
 5286SOL    HW127494   0.062   3.988   0.772 -1.5516 -1.4114  1.5213
 5286SOL    HW227495   4.686   4.068   0.763 -0.3165  1.2677  1.1279
 5287SOL     OW27496   0.061   0.720   5.443 -0.2477  0.5851  0.7937
 5287SOL    HW127497   0.127   0.787   5.425  0.8620 -0.9308 -0.7622
 5287SOL    HW227498   0.103   0.659   5.503 -0.5641 -0.8850 -0.4672
 5288SOL     OW27499   2.273   1.772   2.044 -0.5692  0.2642 -0.5122
 5288SOL    HW127500   2.293   1.681   2.068 -1.8799 -0.6275 -2.8308
 5288SOL    HW227501   2.360   1.802   2.016 -0.1457  0.9731  1.5580
 5289SOL     OW27502   1.529   0.373   2.338  0.0849 -0.0112  0.3693
 5289SOL    HW127503   1.585   0.441   2.300  1.3316 -1.2662 -0.0380
 5289SOL    HW227504   1.570   0.293   2.305 -0.1323  0.2386 -0.5272
 5290SOL     OW27505   1.697   1.802   4.229  0.8202 -0.5863 -0.0926
 5290SOL    HW127506   1.608   1.808   4.264  0.1740 -3.9218 -1.1869
 5290SOL    HW227507   1.674   1.830   4.141 -1.7210 -0.0613  0.7567
 5291SOL     OW27508   0.021   4.617   6.112  0.2302  0.1824 -0.0010
 5291SOL    HW127509   4.677   4.617   6.161 -0.9060  0.4866 -1.8988
 5291SOL    HW227510   0.023   4.704   6.073 -0.5049  0.5937  0.8883
 5292SOL     OW27511   0.497   3.726  11.897 -0.2624 -0.5082 -0.1925
 5292SOL    HW127512   0.574   3.780  11.883 -1.7686  1.7525  0.3037
 5292SOL    HW227513   0.468   3.766  11.980 -0.0219  0.5155 -0.6072
 5293SOL     OW27514   2.127   3.350   2.946 -0.1038  0.3065 -0.3275
 5293SOL    HW127515   2.034   3.338   2.966  0.1546 -0.7266  0.2572
 5293SOL    HW227516   2.157   3.326   3.033  0.4869  0.6929 -0.4212
 5294SOL     OW27517   0.990   2.874   4.428  0.0694  0.6977  0.0855
 5294SOL    HW127518   0.953   2.907   4.347 -0.2794 -1.0806 -0.4886
 5294SOL    HW227519   0.965   2.939   4.494 -1.0774 -1.9139  2.2340
 5295SOL     OW27520   3.346   4.147   2.129 -0.5847 -0.5519 -0.0617
 5295SOL    HW127521   3.326   4.096   2.050 -1.5335 -0.0538 -0.1452
 5295SOL    HW227522   3.326   4.075   2.189 -2.3403 -0.7775 -0.8921
 5296SOL     OW27523   4.458   2.737  10.006  0.7545  0.2487  0.1325
 5296SOL    HW127524   4.519   2.759   9.936  0.7162 -1.8307 -0.5445
 5296SOL    HW227525   4.501   2.659  10.043  1.2433  1.4369  2.0965
 5297SOL     OW27526   4.311   2.768  11.563  0.2130 -0.0148 -0.6963
 5297SOL    HW127527   4.313   2.682  11.522  0.2429  0.1182 -0.9760
 5297SOL    HW227528   4.324   2.758  11.657 -3.0461  1.5452 -0.0865
 5298SOL     OW27529   1.288   4.403   7.700 -0.0139  0.4418  0.0837
 5298SOL    HW127530   1.359   4.419   7.763 -0.1771 -0.0278  0.3935
 5298SOL    HW227531   1.247   4.489   7.695  0.5953  0.6516 -1.2405
 5299SOL     OW27532   0.118   1.579  14.400 -0.6436  0.4424 -0.2701
 5299SOL    HW127533   0.156   1.568  14.313  0.7871 -1.0108  0.5380
 5299SOL    HW227534   0.101   1.489  14.426  0.9340  0.3884  0.6170
 5300SOL     OW27535   1.877   2.701  17.446  0.7367  0.1486  0.2829
 5300SOL    HW127536   1.898   2.761  17.518  2.9672 -0.8476  0.4667
 5300SOL    HW227537   1.802   2.664  17.491  0.7768  0.2248  0.4152
 5301SOL     OW27538   1.221   3.284   2.799 -0.1009  0.8433 -0.7421
 5301SOL    HW127539   1.196   3.221   2.866  1.9629  0.3290 -0.4891
 5301SOL    HW227540   1.191   3.362   2.846  0.5587 -1.5555  3.6282
 5302SOL     OW27541   0.877   0.097   1.751 -0.0759  0.3913 -0.2315
 5302SOL    HW127542   0.951   0.145   1.788  0.7445 -0.4059 -0.8193
 5302SOL    HW227543   0.799   0.143   1.781 -0.8052 -1.0154  0.0337
 5303SOL     OW27544   3.015   3.321   7.972  0.2543 -0.1777 -0.1565
 5303SOL    HW127545   2.948   3.268   7.929  0.9340 -0.4825 -0.8461
 5303SOL    HW227546   3.081   3.306   7.904 -0.8889 -1.6258 -0.9527
 5304SOL     OW27547   1.096   0.765   8.678  0.3125 -0.2324 -0.0365
 5304SOL    HW127548   1.119   0.821   8.604 -0.3994 -0.9026 -0.7639
 5304SOL    HW227549   1.155   0.691   8.667 -0.3717 -0.3411 -3.0674
 5305SOL     OW27550   3.891   2.982   7.085 -0.6521 -0.1992  0.1352
 5305SOL    HW127551   3.935   2.921   7.026  0.1932  0.5400 -0.0082
 5305SOL    HW227552   3.831   3.031   7.028  2.2349  1.7740 -1.2010
 5306SOL     OW27553   2.881   4.261   7.050 -0.6043  0.2079 -0.1234
 5306SOL    HW127554   2.890   4.327   6.981  1.1305  0.7273  0.6028
 5306SOL    HW227555   2.944   4.195   7.022  0.6363  1.4840 -0.3285
 5307SOL     OW27556   3.174   4.405   6.952 -0.8239 -0.3947 -0.4263
 5307SOL    HW127557   3.088   4.401   6.910 -0.7121  1.9155 -0.8828
 5307SOL    HW227558   3.175   4.498   6.974  1.3053  0.1973 -3.0051
 5308SOL     OW27559   4.118   1.109   4.238 -0.7613 -0.3373 -0.2574
 5308SOL    HW127560   4.090   1.091   4.149 -0.0514  1.7005 -0.8790
 5308SOL    HW227561   4.059   1.055   4.291 -0.0441 -0.4392  0.4514
 5309SOL     OW27562   3.261   0.609   3.034  0.0764 -0.1768 -0.0153
 5309SOL    HW127563   3.169   0.590   3.018 -0.4190  2.1235  0.0216
 5309SOL    HW227564   3.284   0.599   2.942 -2.0821 -0.3868 -0.5217
 5310SOL     OW27565   0.081   1.759   4.276 -0.4038  0.3098 -0.2846
 5310SOL    HW127566   0.049   1.848   4.262 -0.0407 -0.0916 -3.6268
 5310SOL    HW227567   4.733   1.719   4.288  0.5688 -1.4200  0.9631
 5311SOL     OW27568   2.385   2.648   8.182 -0.3090 -0.3819 -0.5684
 5311SOL    HW127569   2.426   2.680   8.102 -1.2915  0.7416 -0.6178
 5311SOL    HW227570   2.327   2.723   8.194  0.9949  0.2812  1.5772
 5312SOL     OW27571   3.161   4.666   7.488 -0.4237  0.5075  0.0318
 5312SOL    HW127572   3.124   4.722   7.420  0.7219 -0.9234 -1.7928
 5312SOL    HW227573   3.151   4.735   7.553 -2.0738 -0.4150  0.7457
 5313SOL     OW27574   2.376   1.093   8.922  1.0334 -0.0009 -0.0194
 5313SOL    HW127575   2.422   1.086   9.005  0.5959  0.1649  0.2393
 5313SOL    HW227576   2.286   1.083   8.954  0.0226  1.3916 -2.4125
 5314SOL     OW27577   3.987   2.065   6.255  0.1110  0.0316  0.6836
 5314SOL    HW127578   3.980   2.148   6.208 -1.4606 -0.4732  0.0113
 5314SOL    HW227579   4.080   2.054   6.276  0.8492  2.2903 -1.3236
 5315SOL     OW27580   1.963   0.110   6.467  0.1339  0.0074 -0.6270
 5315SOL    HW127581   1.986   0.053   6.394  0.2329 -1.4604  0.5614
 5315SOL    HW227582   2.047   0.126   6.511  0.9769 -1.2523 -1.7812
 5316SOL     OW27583   4.522   2.389  14.343  0.1314  0.1459  0.2217
 5316SOL    HW127584   4.466   2.312  14.355  2.0504 -1.3723 -0.4493
 5316SOL    HW227585   4.562   2.396  14.430  0.3950  0.4146  0.0756
 5317SOL     OW27586   3.265   2.337   8.368 -0.6485  0.4948 -0.0309
 5317SOL    HW127587   3.174   2.356   8.388 -0.8447  1.0572 -1.4137
 5317SOL    HW227588   3.316   2.351   8.448 -2.0257 -0.8102  1.0731
 5318SOL     OW27589   0.480   1.832  12.049  0.0184 -0.2799  0.7633
 5318SOL    HW127590   0.552   1.811  11.990 -2.3461 -1.9974 -1.5085
 5318SOL    HW227591   0.427   1.900  12.009  0.5189  0.6766  1.7110
 5319SOL     OW27592   2.959   3.935  17.406 -0.3747 -0.1094 -0.3547
 5319SOL    HW127593   2.921   3.951  17.492 -0.7040 -0.3600 -0.4555
 5319SOL    HW227594   2.912   3.994  17.348 -0.0333  0.0430 -0.4788
 5320SOL     OW27595   1.816   3.588   9.584 -0.1093  0.3546 -0.4586
 5320SOL    HW127596   1.781   3.499   9.578 -0.5295  0.4688  0.2870
 5320SOL    HW227597   1.739   3.643   9.574  0.9919  2.2844  1.4965
 5321SOL     OW27598   2.174   3.338   7.758 -0.0195 -0.1165 -0.3114
 5321SOL    HW127599   2.136   3.324   7.671 -1.3323 -0.2329  0.2739
 5321SOL    HW227600   2.209   3.427   7.752 -2.3884  0.8546 -0.0191
 5322SOL     OW27601   2.756   0.619  16.705  0.1058 -0.7834  0.4105
 5322SOL    HW127602   2.755   0.534  16.747  0.3222 -1.1127 -0.2527
 5322SOL    HW227603   2.753   0.672  16.785 -1.5511 -0.9603  0.4710
 5323SOL     OW27604   2.527   2.315  11.039 -0.2159  0.0405 -0.4063
 5323SOL    HW127605   2.510   2.344  11.129 -1.3107 -1.9115  0.0107
 5323SOL    HW227606   2.577   2.234  11.048  0.8557  0.7946  0.5728
 5324SOL     OW27607   0.709   3.396   8.392  0.0715 -0.1077  0.0388
 5324SOL    HW127608   0.702   3.385   8.487 -1.6696 -0.5811 -0.1530
 5324SOL    HW227609   0.668   3.481   8.377 -0.4161  0.2239  3.1387
 5325SOL     OW27610   0.535   0.560   6.531  0.3158 -0.0143  0.7568
 5325SOL    HW127611   0.557   0.578   6.622  0.0903 -0.8329  0.9760
 5325SOL    HW227612   0.607   0.608   6.490  0.5580 -1.2647 -0.3152
 5326SOL     OW27613   3.041   2.767   7.370 -0.4544 -0.4768 -0.0150
 5326SOL    HW127614   3.027   2.675   7.350  1.2077 -0.6905 -0.2139
 5326SOL    HW227615   2.966   2.794   7.423 -2.5348 -1.2357 -2.5983
 5327SOL     OW27616   3.960   0.117   5.066  0.1684  0.0376  0.1326
 5327SOL    HW127617   3.951   0.157   5.153  1.8076 -0.1717  0.3933
 5327SOL    HW227618   3.915   0.184   5.015  1.0995 -0.8261 -1.8106
 5328SOL     OW27619   2.265   2.485  17.483  0.0017 -0.3630  0.1604
 5328SOL    HW127620   2.232   2.575  17.478  0.3351 -0.3031 -1.1611
 5328SOL    HW227621   2.360   2.496  17.481 -0.0179 -0.5721 -1.7843
 5329SOL     OW27622   1.747   4.599   6.514 -0.1120 -0.2182 -0.4779
 5329SOL    HW127623   1.720   4.561   6.430 -0.4525 -2.8264  0.8449
 5329SOL    HW227624   1.832   4.634   6.488  0.6154 -0.6421  1.4055
 5330SOL     OW27625   4.568   1.203  15.576  0.4048 -0.6568 -0.0476
 5330SOL    HW127626   4.650   1.184  15.530  0.3499  1.1193 -0.8616
 5330SOL    HW227627   4.509   1.228  15.505  0.9335 -2.6386 -1.2050
 5331SOL     OW27628   3.062   2.922  14.835  0.0590 -0.0903  0.2753
 5331SOL    HW127629   3.009   2.869  14.895  0.1862  0.5733  0.9689
 5331SOL    HW227630   3.008   2.995  14.804 -0.9615 -1.1047 -0.3188
 5332SOL     OW27631   1.368   3.874  16.729  0.2529 -0.1608 -0.0002
 5332SOL    HW127632   1.376   3.887  16.823  0.6088  3.0428 -0.4714
 5332SOL    HW227633   1.366   3.963  16.692 -2.4924  0.1657  0.9068
 5333SOL     OW27634   4.261   0.934   4.974  0.3017 -0.1377  0.6357
 5333SOL    HW127635   4.325   0.890   4.919 -1.0555  2.3929 -2.9650
 5333SOL    HW227636   4.188   0.931   4.912  0.6500 -1.2339  0.2646
 5334SOL     OW27637   0.691   0.668   5.313 -0.1554 -0.0706 -0.0744
 5334SOL    HW127638   0.786   0.672   5.325  0.0489  3.0788 -2.5984
 5334SOL    HW227639   0.673   0.689   5.405  1.3617 -1.3338  0.5218
 5335SOL     OW27640   3.707   4.028   2.791  0.3354  0.2385 -0.2379
 5335SOL    HW127641   3.787   3.978   2.773  0.3894  0.1841  0.1678
 5335SOL    HW227642   3.641   3.958   2.790  1.1962 -0.5228 -4.6305
 5336SOL     OW27643   2.955   0.284   4.613  0.4938  0.6256  0.0993
 5336SOL    HW127644   2.942   0.276   4.518  2.2441 -1.9106  0.0668
 5336SOL    HW227645   2.890   0.352   4.630  0.7288  1.0054 -0.4998
 5337SOL     OW27646   0.826   0.758  13.727 -0.2463 -0.4119 -0.1979
 5337SOL    HW127647   0.762   0.790  13.791 -0.0544  2.0058 -1.2159
 5337SOL    HW227648   0.848   0.828  13.666  1.1858 -1.2724 -0.6717
 5338SOL     OW27649   2.412   0.967  16.234  0.4005  0.4240 -0.4379
 5338SOL    HW127650   2.459   0.981  16.151 -0.1211  0.5655 -0.7048
 5338SOL    HW227651   2.479   0.927  16.290 -0.1639 -0.6191 -0.5267
 5339SOL     OW27652   4.111   2.242   7.988  0.6035 -0.1634 -0.1625
 5339SOL    HW127653   4.206   2.256   7.995  0.5694 -0.2090  0.4233
 5339SOL    HW227654   4.097   2.152   8.018 -0.9539  0.5623  1.2905
 5340SOL     OW27655   3.021   3.272   9.754 -0.4755 -0.0555  0.0670
 5340SOL    HW127656   3.022   3.367   9.760  2.5775 -0.0755 -0.4096
 5340SOL    HW227657   3.090   3.264   9.689  0.7167  0.8418  1.2379
 5341SOL     OW27658   1.707   0.966   6.342  0.2533  0.2358 -0.3393
 5341SOL    HW127659   1.790   0.979   6.387 -0.5325  1.8441  0.6507
 5341SOL    HW227660   1.701   0.871   6.350  0.9050  0.1618 -0.6841
 5342SOL     OW27661   4.696   3.208   7.648 -0.3608 -0.1335  0.7994
 5342SOL    HW127662   4.653   3.207   7.563  1.3995 -1.6515 -0.0968
 5342SOL    HW227663   4.631   3.163   7.702  1.9278 -0.7108  3.1552
 5343SOL     OW27664   1.968   1.914   5.699 -0.4052  0.3948 -0.1400
 5343SOL    HW127665   1.889   1.966   5.685  0.8962  2.1027 -1.0575
 5343SOL    HW227666   1.968   1.890   5.792 -0.5971 -2.5227 -0.8939
 5344SOL     OW27667   3.908   2.819  16.618 -0.4236  0.2760  0.3409
 5344SOL    HW127668   3.862   2.854  16.695 -1.3623 -0.3535  0.0730
 5344SOL    HW227669   3.970   2.759  16.660 -1.2764 -0.5071  0.4846
 5345SOL     OW27670   1.769   1.479  16.159  0.0534 -0.2831  0.0126
 5345SOL    HW127671   1.701   1.430  16.112  0.6045 -0.0525 -1.0320
 5345SOL    HW227672   1.722   1.488  16.241  1.8270  1.1665  0.8639
 5346SOL     OW27673   2.754   3.539   8.739 -0.4264  0.6968 -0.0120
 5346SOL    HW127674   2.835   3.494   8.760 -0.3468  1.2897  0.9212
 5346SOL    HW227675   2.709   3.536   8.823 -0.1329 -0.4116  0.0952
 5347SOL     OW27676   0.168   2.652   6.498 -0.2737 -0.3476 -0.8440
 5347SOL    HW127677   0.252   2.611   6.475 -0.8446 -0.6773 -2.2877
 5347SOL    HW227678   0.148   2.707   6.422  0.9219  0.0595 -0.8835
 5348SOL     OW27679   2.126   4.618   7.437  0.2314 -0.3811  0.4403
 5348SOL    HW127680   2.210   4.576   7.422  0.2160 -0.8836  1.6890
 5348SOL    HW227681   2.133   4.635   7.531 -1.0095  1.3214  0.2363
 5349SOL     OW27682   1.679   3.558  12.684 -0.2845 -0.2578  0.2196
 5349SOL    HW127683   1.662   3.649  12.708  1.2809 -0.5569  2.4591
 5349SOL    HW227684   1.750   3.543  12.747  2.4239  2.5176 -2.2021
 5350SOL     OW27685   0.945   2.857   2.643  0.8238  0.2160  0.3203
 5350SOL    HW127686   0.913   2.945   2.623 -0.9647 -0.6986 -0.8109
 5350SOL    HW227687   0.938   2.813   2.558  1.0399  0.8314 -0.0177
 5351SOL     OW27688   4.417   3.818  15.321 -0.4748  0.1581  0.1081
 5351SOL    HW127689   4.420   3.786  15.231  1.6091 -0.5909  0.4332
 5351SOL    HW227690   4.387   3.739  15.366  1.1687  0.7805  2.2842
 5352SOL     OW27691   1.432   2.539   8.964 -0.3792 -0.5277  0.2877
 5352SOL    HW127692   1.421   2.599   8.889 -0.2970  0.3168  0.9530
 5352SOL    HW227693   1.389   2.463   8.923 -0.5770 -0.6943  0.8109
 5353SOL     OW27694   2.833   1.227   4.317 -0.2098  0.2135 -0.0286
 5353SOL    HW127695   2.898   1.187   4.258 -1.4079 -1.0118 -0.5194
 5353SOL    HW227696   2.833   1.164   4.389 -0.5983  1.4752  1.0676
 5354SOL     OW27697   2.000   1.506   6.959 -0.1511  0.0365 -0.7873
 5354SOL    HW127698   1.960   1.577   7.008  1.0322  0.4741 -0.4504
 5354SOL    HW227699   2.013   1.444   7.030  1.0138  0.9969 -0.1638
 5355SOL     OW27700   3.287   2.077   6.877  0.0574  0.4808  0.0498
 5355SOL    HW127701   3.354   2.011   6.895  1.0363  0.9675 -1.7238
 5355SOL    HW227702   3.212   2.022   6.857 -0.3143  1.0425 -0.0897
 5356SOL     OW27703   3.189   2.064  10.095  0.2511 -0.1732 -0.4043
 5356SOL    HW127704   3.202   2.133  10.031 -1.8929  1.9887  1.5027
 5356SOL    HW227705   3.120   2.107  10.145 -0.8208 -0.0377 -2.0199
 5357SOL     OW27706   4.090   1.758   0.281 -0.1616  0.4961  0.2386
 5357SOL    HW127707   4.014   1.807   0.313 -1.6160 -2.3329  1.1700
 5357SOL    HW227708   4.056   1.737   0.194 -1.0626  1.6686  0.3125
 5358SOL     OW27709   4.034   4.714  16.389  0.4159 -0.4787  0.2763
 5358SOL    HW127710   4.051   4.671  16.473 -0.7525 -0.9357  0.2910
 5358SOL    HW227711   3.966   0.038  16.414 -0.1106 -1.1652  0.5715
 5359SOL     OW27712   0.103   4.148   8.516  0.0763  0.0451  0.1283
 5359SOL    HW127713   0.099   4.155   8.611 -0.1646 -0.5904  0.1619
 5359SOL    HW227714   0.178   4.203   8.493  0.0115  0.5639  1.1595
 5360SOL     OW27715   2.771   1.499   7.937 -0.7411  0.3257  0.2576
 5360SOL    HW127716   2.826   1.528   7.864 -2.1400 -2.0346 -1.7102
 5360SOL    HW227717   2.794   1.407   7.945 -1.2460  0.1729 -0.0863
 5361SOL     OW27718   0.073   2.883   3.388  0.7048 -0.1980 -0.1345
 5361SOL    HW127719   0.022   2.813   3.347 -2.9990  0.4668  3.3428
 5361SOL    HW227720   0.158   2.862   3.348 -0.1200 -1.0655 -1.4284
 5362SOL     OW27721   1.053   0.197   2.162 -0.3885 -0.3782 -0.1077
 5362SOL    HW127722   1.126   0.249   2.196 -1.5431  0.8889  0.4432
 5362SOL    HW227723   1.088   0.150   2.087  0.4099 -1.7991  1.1463
 5363SOL     OW27724   0.959   2.784   2.384  0.8003  0.1613 -0.0619
 5363SOL    HW127725   1.027   2.829   2.334 -0.3106  1.2275 -0.6168
 5363SOL    HW227726   0.891   2.775   2.317  1.7842 -0.7327 -0.9389
 5364SOL     OW27727   3.789   1.984  17.736 -0.8390 -0.3189  0.2495
 5364SOL    HW127728   3.699   1.975   0.014 -0.8586  0.8765  0.5667
 5364SOL    HW227729   3.825   2.045   0.050  3.6976 -1.0987 -1.5019
 5365SOL     OW27730   3.269   4.306   9.806  0.2059  0.4438  0.7647
 5365SOL    HW127731   3.359   4.339   9.801  0.6114 -0.9325 -1.0304
 5365SOL    HW227732   3.226   4.389   9.787  0.9287  0.0354 -2.6046
 5366SOL     OW27733   2.428   3.706   6.159  0.0477  0.1556 -0.7320
 5366SOL    HW127734   2.461   3.652   6.087 -0.1007  0.6548 -1.1785
 5366SOL    HW227735   2.337   3.724   6.136 -0.2332  0.1181  0.3766
 5367SOL     OW27736   3.137   4.478   6.347 -0.0458 -0.0283 -0.3611
 5367SOL    HW127737   3.134   4.574   6.356 -0.4844 -0.3204  2.8426
 5367SOL    HW227738   3.216   4.481   6.294 -0.9255  1.3232 -1.5767
 5368SOL     OW27739   3.345   0.359   8.182 -0.1960 -0.0071  0.1919
 5368SOL    HW127740   3.283   0.292   8.154 -1.7913  0.9396  1.4466
 5368SOL    HW227741   3.293   0.433   8.213 -0.6135  0.0069 -0.5548
 5369SOL     OW27742   3.406   3.526   2.617  0.0968 -0.5592  0.1379
 5369SOL    HW127743   3.453   3.546   2.698  0.7319 -1.4832 -0.0150
 5369SOL    HW227744   3.421   3.432   2.608 -0.4432 -0.5518 -0.8347
 5370SOL     OW27745   3.812   0.277   7.767  0.3171  0.3387  0.1394
 5370SOL    HW127746   3.733   0.224   7.764 -0.1070  0.9607  0.2523
 5370SOL    HW227747   3.828   0.284   7.673  1.5137  2.4444  0.4813
 5371SOL     OW27748   0.766   4.662   9.764 -0.0647 -0.1256  0.2916
 5371SOL    HW127749   0.703   4.603   9.806 -2.0734  1.7592 -0.0538
 5371SOL    HW227750   0.759   0.003   9.817 -1.0895  0.2504 -0.4055
 5372SOL     OW27751   1.471   2.697   7.046 -0.5874  0.2679  0.3494
 5372SOL    HW127752   1.450   2.788   7.027  0.5424 -0.4410 -4.2584
 5372SOL    HW227753   1.401   2.668   7.105  0.1473 -1.1990  0.5054
 5373SOL     OW27754   3.199   4.523   4.540  0.1556  0.3390 -0.3965
 5373SOL    HW127755   3.163   4.498   4.454  2.5837 -0.1287 -1.2607
 5373SOL    HW227756   3.242   4.605   4.514  1.1162 -0.7498 -2.2290
 5374SOL     OW27757   4.195   3.452   3.173 -0.3900  0.2637 -0.1999
 5374SOL    HW127758   4.202   3.357   3.161  0.3534  0.5053 -1.5958
 5374SOL    HW227759   4.169   3.442   3.265  1.5668 -0.1170  0.3097
 5375SOL     OW27760   3.730   3.158   5.367 -0.4395 -0.1155 -0.5220
 5375SOL    HW127761   3.662   3.188   5.306 -0.1146  1.0148 -0.3253
 5375SOL    HW227762   3.745   3.244   5.407 -1.1025  0.1501 -0.8392
 5376SOL     OW27763   1.562   3.688  10.672 -0.8571  0.3724 -0.3094
 5376SOL    HW127764   1.634   3.632  10.644  1.8617  1.6993  4.0713
 5376SOL    HW227765   1.495   3.621  10.687 -1.7474  1.5072  0.8033
 5377SOL     OW27766   2.454   4.661   8.013 -0.0465 -0.1150 -0.0819
 5377SOL    HW127767   2.474   4.730   8.077  0.9958  0.6216 -1.1973
 5377SOL    HW227768   2.534   4.610   8.018  1.3799  1.9086 -2.3053
 5378SOL     OW27769   0.179   0.418   6.470 -0.1228  0.0726 -0.0494
 5378SOL    HW127770   0.204   0.326   6.476 -0.4586 -0.2045 -2.7370
 5378SOL    HW227771   0.208   0.437   6.380  0.6803  3.3027  0.8871
 5379SOL     OW27772   2.196   1.332   4.663 -0.7005 -0.0115 -0.0764
 5379SOL    HW127773   2.126   1.269   4.648 -1.0254  1.0049 -2.9414
 5379SOL    HW227774   2.278   1.284   4.646 -0.5777  0.1894 -0.0575
 5380SOL     OW27775   4.453   3.222  10.904 -0.2051  0.3542 -0.2615
 5380SOL    HW127776   4.520   3.228  10.973 -0.2797  2.7170 -0.3908
 5380SOL    HW227777   4.428   3.129  10.909  1.2708 -0.0100  0.3063
 5381SOL     OW27778   1.383   0.120  12.113 -1.0207 -0.4601 -0.3367
 5381SOL    HW127779   1.420   0.149  12.197  0.2609  1.6383 -1.6226
 5381SOL    HW227780   1.336   0.199  12.085 -2.1601 -0.6988  0.9031
 5382SOL     OW27781   3.610   4.506   5.068  0.0868  0.3861 -0.3552
 5382SOL    HW127782   3.548   4.575   5.045 -1.1311 -0.3315  0.7587
 5382SOL    HW227783   3.653   4.545   5.144  1.1980 -1.8213  0.1681
 5383SOL     OW27784   2.505   1.117   5.979  0.2627 -0.0573  1.1016
 5383SOL    HW127785   2.591   1.093   6.014 -0.6648 -2.6768  1.5739
 5383SOL    HW227786   2.506   1.088   5.888 -0.5877 -0.4346  1.2124
 5384SOL     OW27787   2.099   3.220   6.775  0.3596  0.2025 -0.2892
 5384SOL    HW127788   2.076   3.244   6.686 -0.3895  1.6917  0.3164
 5384SOL    HW227789   2.021   3.174   6.806 -0.4426  0.7478 -1.5201
 5385SOL     OW27790   3.349   2.693   1.992  0.1255 -0.2510 -0.3091
 5385SOL    HW127791   3.314   2.605   2.001 -1.5322  0.7404  2.7739
 5385SOL    HW227792   3.414   2.705   2.062 -0.2834  0.1467  0.0018
 5386SOL     OW27793   4.579   1.606   4.884  0.1382 -0.0718  0.1276
 5386SOL    HW127794   4.575   1.621   4.979 -2.2243 -0.0769  0.0119
 5386SOL    HW227795   4.487   1.581   4.876 -0.0179  0.3133  0.7027
 5387SOL     OW27796   0.313   3.530   7.857 -0.0952  0.1826  0.1920
 5387SOL    HW127797   0.287   3.528   7.949 -1.8332  0.7880 -0.2799
 5387SOL    HW227798   0.228   3.526   7.812 -0.8127  1.4950  1.4163
 5388SOL     OW27799   2.629   2.457   5.346 -0.0856 -0.4591 -0.7108
 5388SOL    HW127800   2.564   2.502   5.400 -0.0206 -0.4914 -0.6053
 5388SOL    HW227801   2.613   2.489   5.257 -1.9370 -2.6959 -1.1783
 5389SOL     OW27802   2.969   1.365   5.423  0.2121 -0.5544 -0.4352
 5389SOL    HW127803   2.980   1.275   5.392 -2.6332 -1.0101 -0.1366
 5389SOL    HW227804   2.876   1.373   5.401  0.7054  3.1251 -1.1781
 5390SOL     OW27805   3.948   4.469   7.513  0.1440  0.2384  0.3919
 5390SOL    HW127806   3.889   4.524   7.565 -1.1058 -0.9713  0.2565
 5390SOL    HW227807   4.029   4.486   7.561  0.9109  1.0955 -1.2490
 5391SOL     OW27808   4.695   3.900  10.235 -0.8644 -0.1858 -0.1750
 5391SOL    HW127809   4.734   3.861  10.157 -1.7135 -1.8513  0.2556
 5391SOL    HW227810   4.631   3.836  10.265 -1.2929  0.1780 -0.3163
 5392SOL     OW27811   2.457   0.578  14.693 -0.4462 -0.1665  0.2290
 5392SOL    HW127812   2.421   0.643  14.753  1.3964 -0.4090  1.6084
 5392SOL    HW227813   2.489   0.517  14.759  0.5974 -0.6798 -0.7557
 5393SOL     OW27814   0.523   1.140  13.339 -0.3164 -0.1054 -0.2927
 5393SOL    HW127815   0.491   1.136  13.429  1.0030  0.5515  0.2028
 5393SOL    HW227816   0.453   1.088  13.299  0.1625 -0.6164 -0.4735
 5394SOL     OW27817   0.559   2.429   4.369 -0.0896  0.8720 -0.4308
 5394SOL    HW127818   0.603   2.347   4.347  1.5457  1.8417 -0.7513
 5394SOL    HW227819   0.630   2.468   4.419 -1.9857  1.4175  1.8748
 5395SOL     OW27820   2.460   1.963   7.460  0.5145 -0.0449 -0.1591
 5395SOL    HW127821   2.534   1.969   7.400  0.2691  2.1593 -0.2168
 5395SOL    HW227822   2.417   2.048   7.454  0.5513 -0.0962 -1.2515
 5396SOL     OW27823   0.066   2.643   5.539 -0.1700 -0.8923 -0.1741
 5396SOL    HW127824   0.017   2.595   5.472  1.6936 -1.5351 -1.0663
 5396SOL    HW227825   0.145   2.643   5.485 -1.5022 -0.8115 -2.1303
 5397SOL     OW27826   3.804   3.276  14.892 -0.0589  0.1145  0.0544
 5397SOL    HW127827   3.801   3.196  14.946  0.0724 -0.3445 -0.6193
 5397SOL    HW227828   3.898   3.291  14.886  0.2809 -2.1766 -0.4176
 5398SOL     OW27829   0.039   4.724   3.675 -0.3316 -0.5183 -0.3973
 5398SOL    HW127830   0.123   4.717   3.720  1.0512  1.4757 -2.6168
 5398SOL    HW227831   0.011   4.633   3.668 -0.8451 -0.6017  2.8105
 5399SOL     OW27832   1.491   3.390   2.061 -0.6485  0.4440 -0.3909
 5399SOL    HW127833   1.420   3.341   2.102  0.8170 -1.4225 -0.1042
 5399SOL    HW227834   1.488   3.358   1.970 -0.9724  0.9299 -0.5496
 5400SOL     OW27835   1.474   2.006   9.471 -0.1479  0.2304 -0.6452
 5400SOL    HW127836   1.394   1.964   9.502  0.3480 -0.6316 -0.5189
 5400SOL    HW227837   1.516   2.013   9.557 -0.2956 -1.5506 -0.4294
 5401SOL     OW27838   3.414   4.117   7.331  0.2230 -0.0869  0.1618
 5401SOL    HW127839   3.422   4.182   7.401 -1.7380 -1.1310  1.3323
 5401SOL    HW227840   3.387   4.185   7.270  1.2573  1.3483  1.3109
 5402SOL     OW27841   2.229   2.952   7.966  0.5812  0.1814  0.1133
 5402SOL    HW127842   2.314   2.909   7.963  0.2129 -0.4442 -1.5988
 5402SOL    HW227843   2.233   3.011   7.890 -0.3233  0.0333 -0.0525
 5403SOL     OW27844   4.119   3.153  16.318  0.6150 -0.1780  0.2005
 5403SOL    HW127845   4.173   3.109  16.383 -0.5859  0.2358  1.4801
 5403SOL    HW227846   4.037   3.144  16.366 -0.5561  3.7056 -1.0422
 5404SOL     OW27847   0.440   0.717  16.697  0.1873  0.6127  0.2587
 5404SOL    HW127848   0.468   0.783  16.760  0.1833 -0.2509  1.1675
 5404SOL    HW227849   0.365   0.680  16.743  1.1309 -1.6594 -0.0442
 5405SOL     OW27850   0.971   2.144   3.064 -0.0444  0.2875  0.3194
 5405SOL    HW127851   0.955   2.228   3.108  1.9376  1.1875 -0.6646
 5405SOL    HW227852   0.881   2.114   3.050  0.2022 -1.2980  2.1104
 5406SOL     OW27853   1.817   2.816   2.603 -0.7597 -0.0081 -0.1025
 5406SOL    HW127854   1.894   2.760   2.590 -0.5488  0.2996 -0.2069
 5406SOL    HW227855   1.800   2.834   2.510  1.7049 -1.2306 -0.8082
 5407SOL     OW27856   3.351   4.325   7.164  0.8183 -0.0663 -0.3920
 5407SOL    HW127857   3.362   4.404   7.217  1.3210  0.7656 -1.7426
 5407SOL    HW227858   3.309   4.356   7.084  0.9174  2.5067  0.5781
 5408SOL     OW27859   1.601   2.833  13.069  0.0395  0.5883  0.3250
 5408SOL    HW127860   1.692   2.815  13.047 -0.4496 -1.6095  0.0895
 5408SOL    HW227861   1.560   2.786  12.996 -1.2175 -0.3197  1.6242
 5409SOL     OW27862   4.502   0.243   8.930  0.3034  0.1365  0.8789
 5409SOL    HW127863   4.441   0.318   8.929  0.6169  0.3718 -0.7854
 5409SOL    HW227864   4.478   0.210   9.016 -1.8640  1.7537  0.9234
 5410SOL     OW27865   3.258   1.571   9.910 -0.1306 -0.4593 -0.1119
 5410SOL    HW127866   3.207   1.653   9.910 -1.1006 -1.0613 -0.2460
 5410SOL    HW227867   3.258   1.556   9.816 -1.9373  1.4598 -0.4348
 5411SOL     OW27868   3.662   3.875  16.913  0.2306 -0.3603  0.7970
 5411SOL    HW127869   3.689   3.966  16.900 -0.6940  0.0032  1.4605
 5411SOL    HW227870   3.614   3.862  16.831  0.4898 -1.6166  0.8530
 5412SOL     OW27871   4.427   3.874   5.938  0.6659 -0.6350 -0.0573
 5412SOL    HW127872   4.438   3.816   5.863 -0.0779  1.1522 -1.5504
 5412SOL    HW227873   4.354   3.831   5.984 -2.1156  2.2513 -1.7684
 5413SOL     OW27874   2.880   2.841   3.642 -0.0983  0.1654 -0.2183
 5413SOL    HW127875   2.936   2.915   3.668 -0.1858  0.1248  0.0826
 5413SOL    HW227876   2.893   2.838   3.547  2.3761 -0.0136  0.1392
 5414SOL     OW27877   1.240   2.759   4.446 -0.0873  0.2536  0.1520
 5414SOL    HW127878   1.257   2.713   4.529 -0.7838 -0.7448 -0.2672
 5414SOL    HW227879   1.151   2.792   4.457 -0.4420 -0.5442 -0.3390
 5415SOL     OW27880   1.788   2.507  16.962 -0.5162 -0.2430  0.6037
 5415SOL    HW127881   1.811   2.553  17.043  2.7402 -0.4482 -0.2028
 5415SOL    HW227882   1.731   2.433  16.983 -4.7686  2.3667 -1.8229
 5416SOL     OW27883   3.450   1.932   0.595  0.0594 -0.0044 -0.1182
 5416SOL    HW127884   3.518   1.999   0.587 -0.1735  0.5157  2.2634
 5416SOL    HW227885   3.421   1.939   0.686  1.9273 -0.1895  0.5042
 5417SOL     OW27886   3.572   1.928   3.450  0.1270  0.3831 -0.6675
 5417SOL    HW127887   3.518   1.892   3.520  1.2062  2.4545  1.2172
 5417SOL    HW227888   3.597   1.849   3.403 -1.7010 -1.1155  0.8933
 5418SOL     OW27889   4.258   1.672  11.838 -0.8203  0.5278  0.0101
 5418SOL    HW127890   4.203   1.708  11.769 -1.0080 -0.2211 -0.2293
 5418SOL    HW227891   4.231   1.580  11.830 -0.7014  0.6102 -1.3033
 5419SOL     OW27892   3.889   2.222   5.188 -0.2266  0.1926  0.7038
 5419SOL    HW127893   3.875   2.263   5.103 -0.9295 -0.4303  0.5197
 5419SOL    HW227894   3.799   2.204   5.214  0.3281 -1.8084  1.2742
 5420SOL     OW27895   1.086   4.180   4.462 -0.1906 -0.5050  0.1026
 5420SOL    HW127896   1.176   4.151   4.448 -0.9246 -1.6696 -2.1479
 5420SOL    HW227897   1.045   4.114   4.518 -2.2082  1.9389  1.4908
 5421SOL     OW27898   4.132   3.899  16.366 -0.0168 -0.1264  0.3485
 5421SOL    HW127899   4.067   3.965  16.391 -1.1449 -1.3003  0.5060
 5421SOL    HW227900   4.118   3.894  16.272 -0.5288  2.1569  0.3071
 5422SOL     OW27901   1.276   1.389   1.442 -0.0136  0.8337 -0.3105
 5422SOL    HW127902   1.230   1.313   1.405  0.5893  0.0559  0.5405
 5422SOL    HW227903   1.265   1.375   1.536  1.4160 -0.6851 -0.3549
 5423SOL     OW27904   3.659   1.555  12.155 -0.0735 -0.1699 -0.1161
 5423SOL    HW127905   3.709   1.627  12.115 -0.7609  0.5705  0.3601
 5423SOL    HW227906   3.712   1.532  12.231 -0.2554  1.4098  0.4892
 5424SOL     OW27907   0.876   2.837   2.902  0.0719  0.0499 -0.0643
 5424SOL    HW127908   0.900   2.930   2.909 -0.1111 -0.0064  1.2481
 5424SOL    HW227909   0.914   2.820   2.816 -0.9886  0.2211 -0.5606
 5425SOL     OW27910   3.701   2.318   5.528 -0.0297  0.0499 -0.2780
 5425SOL    HW127911   3.623   2.366   5.556 -0.6035 -1.2496  0.3434
 5425SOL    HW227912   3.665   2.237   5.492 -0.8281  0.1687  0.2593
 5426SOL     OW27913   2.210   1.614   5.300  0.4978 -0.3850 -0.3148
 5426SOL    HW127914   2.265   1.563   5.359 -1.1471 -2.1567 -0.3248
 5426SOL    HW227915   2.186   1.698   5.339 -0.0577 -0.1827 -1.0987
 5427SOL     OW27916   3.877   2.082   2.640 -0.4289 -0.3228  0.1455
 5427SOL    HW127917   3.786   2.108   2.651  0.5361  1.6740  3.3374
 5427SOL    HW227918   3.929   2.162   2.628 -2.7803  1.1776  0.0429
 5428SOL     OW27919   1.446   1.595   6.278  0.1176 -0.9494  0.1334
 5428SOL    HW127920   1.490   1.626   6.357  0.5056 -0.8317 -0.1276
 5428SOL    HW227921   1.358   1.598   6.314  0.2795  0.8983  0.3711
 5429SOL     OW27922   3.552   2.636   1.145 -0.4682 -0.0757  0.7408
 5429SOL    HW127923   3.611   2.688   1.091 -1.8176  2.0651  1.3426
 5429SOL    HW227924   3.572   2.556   1.097 -0.2385 -0.7031  1.8843
 5430SOL     OW27925   1.767   2.215   9.860  0.1065 -0.5233  0.0660
 5430SOL    HW127926   1.734   2.296   9.821 -0.2865  0.0112  1.5009
 5430SOL    HW227927   1.736   2.226   9.950 -2.7162 -3.1459 -0.5876
 5431SOL     OW27928   1.124   1.574   1.876 -0.0180 -0.2018 -0.2956
 5431SOL    HW127929   1.192   1.583   1.943 -0.5044  0.3914  0.1293
 5431SOL    HW227930   1.044   1.578   1.930 -0.7606  0.6839 -1.4529
 5432SOL     OW27931   4.082   4.035  15.927  0.1634 -0.3114 -0.0912
 5432SOL    HW127932   4.087   3.951  15.972  1.9305 -0.1985 -0.0883
 5432SOL    HW227933   4.159   4.085  15.954 -2.5883  2.7741  2.0528
 5433SOL     OW27934   0.550   0.529  10.694  0.4725  0.6956 -0.6834
 5433SOL    HW127935   0.525   0.477  10.618 -1.3482 -1.4997  1.3965
 5433SOL    HW227936   0.597   0.456  10.735 -2.3530 -0.3418  0.7239
 5434SOL     OW27937   3.597   4.094   8.620  0.9859 -0.3980  0.4567
 5434SOL    HW127938   3.507   4.122   8.635  0.8388 -0.1542 -0.8425
 5434SOL    HW227939   3.640   4.179   8.636 -1.4418  0.4750  2.3510
 5435SOL     OW27940   2.989   3.071   4.955  0.0178  0.1346 -0.3428
 5435SOL    HW127941   2.964   3.164   4.948  0.6319  0.1759 -2.1394
 5435SOL    HW227942   2.900   3.035   4.960 -0.2983  0.6396 -2.1790
 5436SOL     OW27943   2.249   0.338   1.523 -0.1765 -0.3734 -0.7582
 5436SOL    HW127944   2.305   0.295   1.588 -1.5325  1.5448  1.6814
 5436SOL    HW227945   2.314   0.343   1.454 -0.6473  0.1828 -1.1655
 5437SOL     OW27946   4.205   1.174   1.696 -0.7857 -0.5760  0.3751
 5437SOL    HW127947   4.191   1.080   1.702  2.4362 -1.0694  0.2964
 5437SOL    HW227948   4.200   1.192   1.789  0.2557  2.4787 -0.1629
 5438SOL     OW27949   0.746   1.797   8.750 -0.1222  0.0432  0.6268
 5438SOL    HW127950   0.815   1.834   8.805  2.7896 -0.4869 -2.6531
 5438SOL    HW227951   0.693   1.875   8.732 -1.4923 -1.0331  0.0072
 5439SOL     OW27952   2.711   2.616   5.717 -0.2597 -0.5255 -0.1284
 5439SOL    HW127953   2.696   2.665   5.636  1.4366  1.9448  1.0505
 5439SOL    HW227954   2.716   2.529   5.678 -2.1521 -2.0830  3.0183
 5440SOL     OW27955   1.604   3.577   2.482 -0.2693  0.5041 -0.0099
 5440SOL    HW127956   1.603   3.484   2.460 -2.1378  1.0243 -2.1218
 5440SOL    HW227957   1.513   3.598   2.503 -0.0070  1.1330  0.4824
 5441SOL     OW27958   3.387   2.291   5.578  0.2069  0.5550 -0.7701
 5441SOL    HW127959   3.380   2.201   5.610  0.9958  1.0434  0.7412
 5441SOL    HW227960   3.293   2.306   5.571  0.1922 -0.2874 -2.3719
 5442SOL     OW27961   2.217   1.170  16.182 -0.2384 -0.1076 -0.0764
 5442SOL    HW127962   2.184   1.140  16.267 -1.8283 -1.2819 -1.0899
 5442SOL    HW227963   2.296   1.116  16.172 -0.4381 -0.2341 -1.0240
 5443SOL     OW27964   3.550   0.298   6.433 -0.3294  0.3977  0.3100
 5443SOL    HW127965   3.485   0.364   6.411 -0.0994  0.0018 -1.5744
 5443SOL    HW227966   3.569   0.261   6.346 -1.8267 -0.5037  0.3441
 5444SOL     OW27967   3.996   1.475   2.272 -0.6287  0.1005 -0.5152
 5444SOL    HW127968   3.948   1.398   2.241 -0.4815 -0.4229  0.5713
 5444SOL    HW227969   3.945   1.497   2.350  1.4338 -0.2284  0.9108
 5445SOL     OW27970   0.841   2.241   3.487 -0.0315  0.2308 -0.0770
 5445SOL    HW127971   0.778   2.175   3.515  0.4175  0.6571  1.9814
 5445SOL    HW227972   0.917   2.183   3.490  1.2822  1.8473 -2.4127
 5446SOL     OW27973   4.666   4.320   4.289  0.2984 -0.0584  0.4703
 5446SOL    HW127974   4.657   4.325   4.384  0.1018  0.4484  0.4226
 5446SOL    HW227975   0.008   4.268   4.290 -0.7887 -1.7742  0.0462
 5447SOL     OW27976   0.711   3.427   3.706  0.1999  0.2802  0.4929
 5447SOL    HW127977   0.795   3.443   3.749  0.6869 -2.1172  0.4319
 5447SOL    HW227978   0.667   3.511   3.717  0.2014  0.4009 -0.4123
 5448SOL     OW27979   2.520   3.674   9.887  1.0272 -0.2818 -0.0578
 5448SOL    HW127980   2.580   3.676   9.961  2.3196 -0.8631 -1.0994
 5448SOL    HW227981   2.559   3.628   9.813  1.7782  0.4560 -0.1247
 5449SOL     OW27982   1.417   0.018  10.728 -0.4935 -0.1815  0.0773
 5449SOL    HW127983   1.500   4.715  10.754 -0.9303 -3.1345 -3.1529
 5449SOL    HW227984   1.387   4.694  10.662  0.4790 -3.5043  2.7297
 5450SOL     OW27985   2.779   1.991   6.905 -0.3614  0.0039 -0.1633
 5450SOL    HW127986   2.770   1.992   7.000 -0.3218  0.1911 -0.1613
 5450SOL    HW227987   2.708   1.934   6.876 -0.4050 -0.0103 -0.0288
 5451SOL     OW27988   3.520   3.756   8.386  0.3631 -0.0106 -1.1827
 5451SOL    HW127989   3.609   3.758   8.421 -0.5476 -1.5734  1.1869
 5451SOL    HW227990   3.533   3.825   8.321  1.0413 -0.1255 -1.1686
 5452SOL     OW27991   3.112   0.736   8.554  0.3308 -0.6431 -0.9771
 5452SOL    HW127992   3.048   0.753   8.485 -0.2310  2.5054  0.3500
 5452SOL    HW227993   3.189   0.785   8.524 -1.6437  0.6537 -3.9735
 5453SOL     OW27994   0.226   0.896  14.634 -0.4351  0.4887  0.2365
 5453SOL    HW127995   0.138   0.867  14.612  0.0463 -0.4904 -0.4452
 5453SOL    HW227996   0.279   0.833  14.585 -0.0558  0.0999  1.1481
 5454SOL     OW27997   3.094   0.787   9.323 -0.2108  0.0941  0.2433
 5454SOL    HW127998   3.047   0.733   9.260  1.4844  1.7435 -2.4419
 5454SOL    HW227999   3.020   0.831   9.365  0.7522  0.8029  1.1766
 5455SOL     OW28000   2.440   3.094   3.610 -0.0861 -0.0831 -1.0018
 5455SOL    HW128001   2.375   3.136   3.667 -0.1153  0.4686 -1.4511
 5455SOL    HW228002   2.515   3.076   3.667  0.2138  0.0827 -1.3530
 5456SOL     OW28003   2.615   1.606   5.002  0.6069 -0.3107  0.2061
 5456SOL    HW128004   2.523   1.602   5.028  0.7595  1.3985  1.0551
 5456SOL    HW228005   2.604   1.592   4.908 -1.1646 -3.7956  0.9222
 5457SOL     OW28006   4.393   1.045   4.289 -0.6364 -0.1284  0.3679
 5457SOL    HW128007   4.376   0.977   4.225 -0.5284 -0.2871  0.5074
 5457SOL    HW228008   4.318   1.104   4.283 -0.1064  0.6730  1.4503
 5458SOL     OW28009   0.514   0.172   7.302 -0.1546  0.1168 -0.4800
 5458SOL    HW128010   0.484   0.125   7.225 -1.5699  0.2353  0.0058
 5458SOL    HW228011   0.521   0.099   7.364  1.9266  1.7369  1.2314
 5459SOL     OW28012   4.500   4.659   7.170 -0.4600  0.1983 -0.4572
 5459SOL    HW128013   4.558   4.591   7.134  1.4370  1.2705  0.5971
 5459SOL    HW228014   4.428   4.642   7.109  1.9396 -5.7042 -1.7435
 5460SOL     OW28015   4.600   2.687   4.769  0.2130  0.1449 -0.2315
 5460SOL    HW128016   4.639   2.600   4.768 -0.7910 -0.3343  2.1389
 5460SOL    HW228017   4.582   2.701   4.676  0.0821 -0.0843 -0.2406
 5461SOL     OW28018   2.686   4.155   1.051 -0.1110 -0.9591  0.2070
 5461SOL    HW128019   2.687   4.168   0.956  0.2021 -0.0042  0.3474
 5461SOL    HW228020   2.640   4.235   1.073  0.0135 -0.9729  0.5078
 5462SOL     OW28021   2.783   0.451   1.109  0.0192  0.6023  0.1896
 5462SOL    HW128022   2.850   0.509   1.145 -0.1442  0.0558  1.3719
 5462SOL    HW228023   2.780   0.374   1.166 -0.9033 -0.4601 -1.3067
 5463SOL     OW28024   2.617   0.491   3.459 -0.1014 -0.4309  0.2308
 5463SOL    HW128025   2.603   0.480   3.365  2.0206 -1.0181 -0.0201
 5463SOL    HW228026   2.711   0.477   3.473 -0.5489 -1.6871  1.9409
 5464SOL     OW28027   3.045   4.575   4.759 -0.1135 -0.4432  0.3071
 5464SOL    HW128028   3.097   4.556   4.681  1.1377 -0.1098  1.0603
 5464SOL    HW228029   3.053   4.670   4.769  0.5742 -0.6091  1.3178
 5465SOL     OW28030   2.513   2.644   8.971  0.2921 -0.2348 -0.2308
 5465SOL    HW128031   2.551   2.698   9.040 -1.3632  1.5572 -0.7258
 5465SOL    HW228032   2.486   2.715   8.913  4.6225  1.0348 -0.6960
 5466SOL     OW28033   0.704   3.059   8.481 -0.2801 -0.2959 -0.2268
 5466SOL    HW128034   0.650   3.000   8.428  0.7903 -2.4092  1.0665
 5466SOL    HW228035   0.786   3.044   8.434 -0.1045 -2.1479  0.6693
 5467SOL     OW28036   1.201   3.232   3.895  0.4373  0.5601  0.2799
 5467SOL    HW128037   1.133   3.175   3.932 -2.1742  1.9838 -2.3497
 5467SOL    HW228038   1.172   3.236   3.804  1.2805  2.9463  0.1076
 5468SOL     OW28039   0.299   1.276  12.860 -0.0379  0.0155 -0.4438
 5468SOL    HW128040   0.364   1.245  12.797  1.6004  0.8577  0.8212
 5468SOL    HW228041   0.286   1.365  12.825  0.9006  0.5571  0.5770
 5469SOL     OW28042   2.979   0.998  10.321 -1.0801 -0.4542 -0.7184
 5469SOL    HW128043   2.980   1.040  10.408 -1.9111 -1.9474  0.0195
 5469SOL    HW228044   3.025   1.068  10.276 -1.0375  0.4090  0.6460
 5470SOL     OW28045   3.971   3.811   1.560  0.8663  0.4021 -0.5778
 5470SOL    HW128046   3.987   3.849   1.646 -2.2059  3.2897 -1.2344
 5470SOL    HW228047   4.041   3.840   1.502  0.9214 -0.9882 -1.1911
 5471SOL     OW28048   1.433   2.380   0.823 -0.1830 -0.0805  0.0327
 5471SOL    HW128049   1.412   2.354   0.913  1.3072  0.3465  0.5054
 5471SOL    HW228050   1.380   2.319   0.772  0.5341 -0.1015 -0.6782
 5472SOL     OW28051   0.691   2.788  14.331  0.1929  0.5243 -0.0230
 5472SOL    HW128052   0.638   2.844  14.388 -0.7972  0.1196 -0.5309
 5472SOL    HW228053   0.735   2.846  14.268  2.4447 -2.5455 -1.2719
 5473SOL     OW28054   0.027   3.421   1.026  0.3617 -0.1273  0.0045
 5473SOL    HW128055   4.679   3.384   1.041 -0.4996  2.9904  2.8582
 5473SOL    HW228056   0.029   3.509   1.064 -0.6834 -0.1532  0.1019
 5474SOL     OW28057   3.553   2.658   9.132  0.5181  0.3818 -0.1126
 5474SOL    HW128058   3.529   2.578   9.179 -0.6055  0.7203 -0.1006
 5474SOL    HW228059   3.470   2.673   9.087  1.4447  0.7201 -1.6925
 5475SOL     OW28060   2.476   3.548   5.673  0.5125  0.2772 -0.2058
 5475SOL    HW128061   2.509   3.467   5.636  2.3093  0.8569  0.1451
 5475SOL    HW228062   2.541   3.616   5.657 -1.2126  1.6728 -1.3807
 5476SOL     OW28063   2.328   1.708   5.748  0.0810  0.3629  0.5958
 5476SOL    HW128064   2.264   1.651   5.789  1.9226 -2.4933 -0.4654
 5476SOL    HW228065   2.316   1.691   5.654 -1.5917 -1.5226  1.1497
 5477SOL     OW28066   1.806   0.315   5.541 -0.6489  0.2668  0.9797
 5477SOL    HW128067   1.778   0.345   5.628  0.3378  0.2418  1.3083
 5477SOL    HW228068   1.790   0.221   5.553 -2.4848  0.6825  1.9470
 5478SOL     OW28069   1.850   2.835   7.231  0.1535  0.0873 -0.0957
 5478SOL    HW128070   1.946   2.834   7.229  0.1770  0.7765  1.0090
 5478SOL    HW228071   1.825   2.899   7.164 -1.0367  0.1094  0.3862
 5479SOL     OW28072   3.072   3.697   5.962 -0.8570 -0.4120  0.1061
 5479SOL    HW128073   3.054   3.604   5.946 -1.7004 -0.2137 -0.1072
 5479SOL    HW228074   3.106   3.737   5.883  0.4608  2.6416  2.2186
 5480SOL     OW28075   3.072   3.007   9.804 -0.0365 -0.2598 -0.5513
 5480SOL    HW128076   3.157   3.018   9.846 -0.0169  0.5999 -0.8318
 5480SOL    HW228077   3.052   3.099   9.787 -0.0663 -0.0333  0.7113
 5481SOL     OW28078   3.611   3.849   2.424 -0.5031  0.8256  0.0734
 5481SOL    HW128079   3.533   3.846   2.369 -1.5753  0.2552  1.6467
 5481SOL    HW228080   3.573   3.862   2.511  1.2995 -0.7203  1.0925
 5482SOL     OW28081   2.636   3.346  12.290 -0.0312  0.1635  0.1905
 5482SOL    HW128082   2.684   3.281  12.341 -0.2558 -0.0861  0.0826
 5482SOL    HW228083   2.680   3.347  12.205 -0.2229  1.3736  0.1107
 5483SOL     OW28084   4.259   3.852   3.358  0.0770 -0.0366  0.1709
 5483SOL    HW128085   4.192   3.816   3.300  0.4142  2.5713 -1.8490
 5483SOL    HW228086   4.325   3.888   3.298  0.0203  1.0318  0.7377
 5484SOL     OW28087   4.098   2.352   5.655 -0.6820 -0.2023  0.1609
 5484SOL    HW128088   4.067   2.275   5.608 -0.9601  2.3407 -3.7670
 5484SOL    HW228089   4.128   2.309   5.736  0.1052 -0.9579 -0.5329
 5485SOL     OW28090   4.585   2.674   3.465 -0.2156  0.0132  0.2485
 5485SOL    HW128091   4.592   2.673   3.370  0.1430  2.1435  0.2576
 5485SOL    HW228092   4.627   2.589   3.481 -0.9266 -0.3895 -0.0222
 5486SOL     OW28093   3.742   1.041  13.878  0.1451 -0.2716 -0.0827
 5486SOL    HW128094   3.773   0.960  13.838  1.5196  0.0309  0.3655
 5486SOL    HW228095   3.800   1.044  13.954  0.4077 -2.0096 -0.2023
 5487SOL     OW28096   1.345   2.201   6.678 -0.2301 -0.0781  0.6360
 5487SOL    HW128097   1.262   2.154   6.671 -0.7361  1.0185 -0.7227
 5487SOL    HW228098   1.321   2.283   6.636 -2.4900  0.2776  2.6395
 5488SOL     OW28099   3.062   3.027   1.344 -0.0612  0.4734  0.1374
 5488SOL    HW128100   3.109   3.108   1.325  0.0361  0.5007  0.4870
 5488SOL    HW228101   2.972   3.056   1.363  0.5361  1.5246  1.4097
 5489SOL     OW28102   0.213   2.048   2.884 -0.0641  0.1233  0.3169
 5489SOL    HW128103   0.193   2.003   2.802  1.2782 -0.5918  0.3905
 5489SOL    HW228104   0.214   1.969   2.937  0.4731 -0.7596 -1.0218
 5490SOL     OW28105   1.886   0.312   5.092 -0.4126 -0.4141  0.1999
 5490SOL    HW128106   1.801   0.331   5.130  0.0066  1.7455  0.0510
 5490SOL    HW228107   1.941   0.305   5.171 -0.6368  1.1333  0.4808
 5491SOL     OW28108   0.871   3.128   5.741 -0.3355 -0.2482  0.4450
 5491SOL    HW128109   0.940   3.062   5.734  0.3849  0.4423  0.9124
 5491SOL    HW228110   0.820   3.110   5.663  0.8235  0.4390 -0.4688
 5492SOL     OW28111   3.571   0.030  12.210 -0.3318 -0.6380  0.5801
 5492SOL    HW128112   3.644   4.716  12.245  2.2625  1.1971 -2.0798
 5492SOL    HW228113   3.491   4.722  12.235  0.1681 -1.2087  1.1071
 5493SOL     OW28114   2.624   4.023  13.597 -0.3839  0.3992  0.1474
 5493SOL    HW128115   2.529   4.028  13.612 -0.3961 -0.6194  0.3620
 5493SOL    HW228116   2.641   4.029  13.503  1.1750 -1.0715  0.3458
 5494SOL     OW28117   1.130   1.841   4.369 -0.2921  0.4039 -0.4597
 5494SOL    HW128118   1.084   1.859   4.287  0.3492  0.2492 -0.8553
 5494SOL    HW228119   1.050   1.812   4.413  0.0133 -2.0067 -1.4661
 5495SOL     OW28120   0.504   4.078   4.082  0.4899  0.5092  0.2129
 5495SOL    HW128121   0.499   4.160   4.034 -2.1368  0.9175  1.1560
 5495SOL    HW228122   0.418   4.070   4.124  0.5300 -0.0367  0.1978
 5496SOL     OW28123   1.149   1.190   6.546 -0.4490 -0.1024  0.1420
 5496SOL    HW128124   1.200   1.113   6.522 -0.1638 -0.1116  0.7890
 5496SOL    HW228125   1.204   1.266   6.564 -0.2017 -0.2844  0.1578
 5497SOL     OW28126   4.003   2.609   4.919  0.5190 -0.4807 -0.0549
 5497SOL    HW128127   4.095   2.633   4.909 -0.0072  0.7739 -1.8412
 5497SOL    HW228128   4.000   2.607   5.015  0.7907  1.3614 -0.0039
 5498SOL     OW28129   0.213   1.179   9.132  0.6467 -0.4272  0.5178
 5498SOL    HW128130   0.286   1.241   9.130 -1.3256  1.8880  0.5951
 5498SOL    HW228131   0.226   1.131   9.214 -1.6227  0.2055  1.2312
 5499SOL     OW28132   2.134   1.304   2.695  0.2016  0.0933 -0.4869
 5499SOL    HW128133   2.041   1.321   2.707  0.7726  0.7697  3.0213
 5499SOL    HW228134   2.142   1.273   2.605 -3.0539  1.1380 -1.1532
 5500SOL     OW28135   2.060   4.037   6.474  0.4189 -0.5711 -0.1781
 5500SOL    HW128136   2.049   4.129   6.448  1.8884 -0.2496  0.3383
 5500SOL    HW228137   1.984   4.031   6.531  0.8716  0.2622  0.5118
 5501SOL     OW28138   1.293   2.598  13.937  0.0330  0.5030  0.0306
 5501SOL    HW128139   1.315   2.531  13.873 -0.7410  1.3617 -1.1330
 5501SOL    HW228140   1.321   2.575  14.026  1.3610 -0.5580 -0.6716
 5502SOL     OW28141   3.782   3.479  11.728  0.1445 -0.0947 -0.3906
 5502SOL    HW128142   3.750   3.444  11.811 -0.1945  1.8826  0.2991
 5502SOL    HW228143   3.808   3.567  11.755 -0.0991  0.0022 -0.4706
 5503SOL     OW28144   3.648   0.686   2.229  0.0659  0.4712 -1.1898
 5503SOL    HW128145   3.635   0.777   2.257 -2.6718  0.0775 -1.2221
 5503SOL    HW228146   3.579   0.670   2.165 -0.9846  1.3823 -0.2940
 5504SOL     OW28147   0.498   3.865  17.388 -0.0580  0.0790 -0.0070
 5504SOL    HW128148   0.577   3.902  17.350 -0.2466  1.4221  0.9176
 5504SOL    HW228149   0.457   3.948  17.414  1.3285  0.8216 -0.2170
 5505SOL     OW28150   3.513   3.440   7.834  0.1223  0.0169 -0.0371
 5505SOL    HW128151   3.494   3.524   7.876 -1.5112  0.5342 -1.7857
 5505SOL    HW228152   3.444   3.380   7.863 -0.3815  0.2669 -0.7156
 5506SOL     OW28153   1.607   4.481  16.772  0.1940  0.1994 -0.1320
 5506SOL    HW128154   1.539   4.484  16.704 -0.3352  2.1718  0.4844
 5506SOL    HW228155   1.658   4.400  16.762  0.2608  0.3650 -1.2100
 5507SOL     OW28156   1.672   0.346   9.511 -0.0561  0.1322  0.2153
 5507SOL    HW128157   1.579   0.358   9.492 -0.1905  2.2074  2.0438
 5507SOL    HW228158   1.671   0.261   9.554  1.9007 -0.6217 -1.2648
 5508SOL     OW28159   4.084   1.095   2.750 -0.2036  0.0456 -0.2286
 5508SOL    HW128160   4.143   1.021   2.737  0.2497  0.1431  1.3026
 5508SOL    HW228161   4.002   1.048   2.766  0.5541 -1.5780 -1.1908
 5509SOL     OW28162   2.586   1.724   3.973  0.0631 -0.6386 -0.4707
 5509SOL    HW128163   2.551   1.684   4.053  0.7997 -2.0766 -0.8782
 5509SOL    HW228164   2.672   1.749   4.007 -0.0704  0.7043 -1.1529
 5510SOL     OW28165   2.357   4.147   3.446 -0.0834  0.1309 -0.7860
 5510SOL    HW128166   2.268   4.129   3.474 -0.1476 -0.0503 -1.1111
 5510SOL    HW228167   2.372   4.064   3.400 -0.8063 -0.6986  0.4649
 5511SOL     OW28168   3.523   3.827   8.717 -0.2986  0.0679 -0.2130
 5511SOL    HW128169   3.589   3.861   8.657 -1.7368  0.3352 -1.6576
 5511SOL    HW228170   3.456   3.893   8.700  0.5761  0.7795 -0.9130
 5512SOL     OW28171   2.366   4.143   9.652 -0.1671 -0.0354 -0.5325
 5512SOL    HW128172   2.284   4.150   9.603 -1.2644  1.3817  1.5009
 5512SOL    HW228173   2.329   4.099   9.728 -1.3329  0.7872 -0.6327
 5513SOL     OW28174   3.769   4.262   9.040 -0.0781  0.4463 -0.6004
 5513SOL    HW128175   3.832   4.212   9.092 -0.9690 -0.4052 -0.3588
 5513SOL    HW228176   3.739   4.194   8.980 -1.9976 -1.9958  3.1694
 5514SOL     OW28177   2.322   0.553  17.350  0.2670 -0.2040 -0.9393
 5514SOL    HW128178   2.258   0.609  17.396  1.8604 -0.7534  1.9790
 5514SOL    HW228179   2.370   0.509  17.420  1.2508  0.2069 -1.3545
 5515SOL     OW28180   4.068   0.054  16.099  0.6164 -0.2523 -0.1012
 5515SOL    HW128181   3.982   0.060  16.058  1.1929  1.3070 -1.1236
 5515SOL    HW228182   4.049   0.036  16.191 -1.8837 -1.7469 -0.9125
 5516SOL     OW28183   2.144   1.608   2.302 -0.0293  0.1284  0.4321
 5516SOL    HW128184   2.211   1.645   2.360 -1.2782  0.7245  1.4755
 5516SOL    HW228185   2.087   1.680   2.274 -0.3499 -0.1206  0.4566
 5517SOL     OW28186   1.816   3.147   6.810  0.2204  0.6752  0.1474
 5517SOL    HW128187   1.783   3.237   6.806 -2.7277 -0.5172 -2.2860
 5517SOL    HW228188   1.780   3.111   6.729  1.3574 -0.8000  0.2968
 5518SOL     OW28189   3.471   1.260   1.303  1.1087 -0.0803 -0.3761
 5518SOL    HW128190   3.435   1.250   1.215  0.2675  0.3525 -0.0728
 5518SOL    HW228191   3.549   1.313   1.288  2.2901 -1.0668  2.1779
 5519SOL     OW28192   1.947   3.037   2.717 -0.3733  0.3817 -0.3939
 5519SOL    HW128193   1.922   2.963   2.662  0.0133  2.0040 -2.7705
 5519SOL    HW228194   1.926   3.000   2.802 -0.3715 -0.3785 -0.7235
 5520SOL     OW28195   0.310   3.139   5.392  0.0074  0.7838 -0.5251
 5520SOL    HW128196   0.313   3.151   5.298  0.6720 -1.4666 -0.7780
 5520SOL    HW228197   0.302   3.044   5.396  1.8422  0.6479 -0.0561
 5521SOL     OW28198   0.329   3.310   8.860  0.6126 -0.4348 -0.2483
 5521SOL    HW128199   0.269   3.315   8.786  1.4311 -0.1527 -0.8841
 5521SOL    HW228200   0.389   3.244   8.827  1.1875 -0.7517  1.4261
 5522SOL     OW28201   3.999   4.710   3.979  0.0444  0.3822  0.3851
 5522SOL    HW128202   4.060   4.675   4.044  0.5466 -1.5974 -1.1604
 5522SOL    HW228203   3.976   4.632   3.928  0.5808 -0.5771  1.6054
 5523SOL     OW28204   2.487   1.759   5.422  0.3167 -0.5353  0.4004
 5523SOL    HW128205   2.551   1.734   5.355 -0.8193 -0.3713 -0.7499
 5523SOL    HW228206   2.450   1.845   5.405 -2.0172 -1.3875  1.1698
 5524SOL     OW28207   0.361   4.103   5.689 -0.1009 -0.2617 -0.2267
 5524SOL    HW128208   0.382   4.019   5.731 -1.5615  0.2068  1.3956
 5524SOL    HW228209   0.403   4.077   5.607 -0.1261  0.2081 -0.3905
 5525SOL     OW28210   1.143   0.533   9.216  0.8154 -0.3608 -0.0788
 5525SOL    HW128211   1.101   0.454   9.251  0.2339 -1.2704 -2.8745
 5525SOL    HW228212   1.132   0.595   9.288 -1.3258  0.7638 -1.3922
 5526SOL     OW28213   2.460   2.429   6.406 -0.0263 -0.7412  0.1927
 5526SOL    HW128214   2.537   2.388   6.367 -0.4435 -0.5419 -0.8368
 5526SOL    HW228215   2.389   2.389   6.355 -1.3855  0.5819  1.0436
 5527SOL     OW28216   1.873   1.027   3.840  0.2287 -0.0887  0.0364
 5527SOL    HW128217   1.809   0.979   3.893  0.3607  1.5638  1.6962
 5527SOL    HW228218   1.824   1.098   3.798  0.3209  0.0616  0.1813
 5528SOL     OW28219   0.071   2.976  17.297 -0.1524  0.1803  0.1019
 5528SOL    HW128220   0.028   3.051  17.257  0.9778  1.0721  0.5773
 5528SOL    HW228221   0.121   2.937  17.225 -3.3521 -3.7231 -0.0595
 5529SOL     OW28222   0.928   4.065   7.079 -0.3459  0.2372 -0.3359
 5529SOL    HW128223   0.896   4.036   7.164  1.6878  0.8269  0.6120
 5529SOL    HW228224   1.005   4.008   7.085  0.6454  1.6310  0.1353
 5530SOL     OW28225   3.368   4.214   8.709  0.5309 -0.0194 -0.3429
 5530SOL    HW128226   3.326   4.300   8.712 -1.7014 -1.1642  1.1913
 5530SOL    HW228227   3.350   4.183   8.798  0.0970  2.3360  0.3874
 5531SOL     OW28228   0.126   3.337   8.670  0.3051 -0.0315 -0.2948
 5531SOL    HW128229   0.074   3.257   8.677 -1.1307  0.9609  0.1576
 5531SOL    HW228230   0.139   3.326   8.576  0.0228 -1.6396 -0.1483
 5532SOL     OW28231   0.200   3.873  13.361 -0.0349  0.2810  0.6293
 5532SOL    HW128232   0.197   3.968  13.362  1.3569  0.3208  1.3599
 5532SOL    HW228233   0.274   3.855  13.419  0.8005 -0.9147 -0.7779
 5533SOL     OW28234   1.109   1.498   9.737 -0.1868 -0.3050 -0.0359
 5533SOL    HW128235   1.030   1.551   9.741  0.5085  1.0173 -3.4336
 5533SOL    HW228236   1.077   1.420   9.783 -1.8741 -0.7960 -2.0387
 5534SOL     OW28237   1.501   3.664   4.837  0.4550  0.4967 -0.1101
 5534SOL    HW128238   1.503   3.593   4.902  3.5743  1.0043  0.3313
 5534SOL    HW228239   1.424   3.642   4.785  0.1649 -0.1728  0.5990
 5535SOL     OW28240   3.472   4.107   5.488  0.0044 -0.1788  0.8170
 5535SOL    HW128241   3.502   4.192   5.456  0.7584  0.3199  2.8811
 5535SOL    HW228242   3.460   4.118   5.582 -0.7408  0.1117  0.6938
 5536SOL     OW28243   0.199   1.834   9.022  0.4102 -0.3137  0.0122
 5536SOL    HW128244   0.134   1.809   8.956  0.2210 -1.6508  0.6901
 5536SOL    HW228245   0.270   1.864   8.966  0.2844  0.5781  0.3316
 5537SOL     OW28246   1.618   2.232   1.873 -0.1325  0.4140 -0.2054
 5537SOL    HW128247   1.620   2.253   1.780  0.7418  1.3894  0.0307
 5537SOL    HW228248   1.591   2.318   1.905  1.1299  0.4813  0.6676
 5538SOL     OW28249   1.163   3.789   5.739 -0.3130  0.4337  0.3555
 5538SOL    HW128250   1.100   3.808   5.670  0.4781 -2.0929 -1.0627
 5538SOL    HW228251   1.146   3.694   5.740 -1.1886  0.5905  0.5578
 5539SOL     OW28252   4.031   3.323   2.757 -0.1260 -0.3606 -0.2120
 5539SOL    HW128253   4.064   3.402   2.799  3.5190 -1.6029 -0.7533
 5539SOL    HW228254   3.999   3.273   2.833  1.1303 -0.9683 -0.0775
 5540SOL     OW28255   1.459   4.191   6.311 -0.4534 -0.0161 -0.1340
 5540SOL    HW128256   1.482   4.119   6.369  0.5912  1.0780  0.8181
 5540SOL    HW228257   1.368   4.171   6.288 -0.5594  2.3075 -1.6590
 5541SOL     OW28258   1.955   2.177   6.872  0.2526 -0.3652 -0.4902
 5541SOL    HW128259   1.946   2.249   6.935 -0.3653  0.5597 -1.6174
 5541SOL    HW228260   1.943   2.231   6.793 -0.0087  0.8094  0.3494
 5542SOL     OW28261   3.365   1.651  10.835 -0.2974 -0.3972  0.1707
 5542SOL    HW128262   3.426   1.709  10.792 -1.0286  0.2127 -0.0426
 5542SOL    HW228263   3.286   1.704  10.828  1.2247  2.2484  3.1004
 5543SOL     OW28264   2.598   2.172  17.505 -0.3237 -0.4380 -0.5974
 5543SOL    HW128265   2.575   2.255  17.463 -0.3294 -0.3474 -0.4120
 5543SOL    HW228266   2.617   2.114  17.431  1.2429 -0.9514  0.2091
 5544SOL     OW28267   3.911   1.155   8.749 -0.7621  0.2578  0.4231
 5544SOL    HW128268   3.878   1.149   8.839 -0.6662 -2.0122  0.2959
 5544SOL    HW228269   3.999   1.183   8.773  0.5032 -4.4433  1.3271
 5545SOL     OW28270   0.033   3.761   0.033 -0.1397 -0.0377 -0.0579
 5545SOL    HW128271   4.705   3.813  17.739 -1.6315 -1.3776  0.5871
 5545SOL    HW228272   0.049   3.695  17.717  1.4366  0.4508 -0.1520
 5546SOL     OW28273   1.975   4.317   6.798 -0.8910 -0.0690  0.5283
 5546SOL    HW128274   2.033   4.305   6.873 -1.3717  1.4448  1.1266
 5546SOL    HW228275   2.021   4.273   6.726  1.6250  2.5488  0.5375
 5547SOL     OW28276   1.212   2.912   2.773  0.0306  0.3042  0.1441
 5547SOL    HW128277   1.225   3.004   2.750  0.1951  0.4261  0.7398
 5547SOL    HW228278   1.121   2.893   2.749  0.0601 -1.0901  1.1573
 5548SOL     OW28279   1.453   4.479  16.536 -0.0521 -0.7588  0.2509
 5548SOL    HW128280   1.390   4.525  16.481  1.5650 -0.1212 -1.0824
 5548SOL    HW228281   1.456   4.391  16.499  4.6005 -0.8351  0.7417
 5549SOL     OW28282   2.324   3.409   6.750  0.0151 -0.3299 -0.1726
 5549SOL    HW128283   2.308   3.433   6.659  3.3879 -1.2714 -1.0219
 5549SOL    HW228284   2.246   3.355   6.763 -0.4690 -0.1532 -2.2705
 5550SOL     OW28285   2.218   1.817   2.801 -0.0540 -0.2778  0.3022
 5550SOL    HW128286   2.182   1.788   2.885  0.1609 -1.6787 -0.0966
 5550SOL    HW228287   2.188   1.908   2.807  0.8012 -0.1507  2.7076
 5551SOL     OW28288   1.446   0.579   1.540 -0.6221  0.2627  0.3743
 5551SOL    HW128289   1.503   0.648   1.574 -0.0571 -0.8634  1.6692
 5551SOL    HW228290   1.400   0.628   1.471  0.8175  1.2473  0.1009
 5552SOL     OW28291   2.794   3.196   3.207 -0.3119 -0.0839 -0.2823
 5552SOL    HW128292   2.754   3.192   3.295 -2.2938 -2.3662 -1.2877
 5552SOL    HW228293   2.857   3.267   3.217 -0.9065  0.4309 -0.1969
 5553SOL     OW28294   4.077   4.545   6.729  0.6386  0.3014  0.2034
 5553SOL    HW128295   4.067   4.551   6.634 -1.7712 -0.1803  0.4319
 5553SOL    HW228296   4.086   4.639   6.746 -0.8789  0.3578  0.6371
 5554SOL     OW28297   2.523   2.999   1.419 -0.4962 -0.1024  0.0529
 5554SOL    HW128298   2.470   2.924   1.448 -1.6629  0.9544  0.6437
 5554SOL    HW228299   2.497   3.009   1.328 -2.6983 -1.4233  0.5420
 5555SOL     OW28300   1.300   1.154   7.686 -0.8110  0.1806 -0.2910
 5555SOL    HW128301   1.351   1.233   7.670 -2.7170  1.5424  0.2870
 5555SOL    HW228302   1.212   1.187   7.667 -0.6265  0.0885 -1.2944
 5556SOL     OW28303   3.562   2.493   0.821  0.1377 -0.0472  0.0095
 5556SOL    HW128304   3.537   2.417   0.874 -0.9403 -0.5524 -1.2418
 5556SOL    HW228305   3.507   2.562   0.858  1.1973  0.7782  0.0637
 5557SOL     OW28306   3.065   0.553   9.673  0.1505  0.0972 -0.4644
 5557SOL    HW128307   3.062   0.458   9.672  1.3447  0.0655 -1.3813
 5557SOL    HW228308   2.996   0.569   9.609  0.5252  1.2825 -0.5819
 5558SOL     OW28309   3.928   3.143   7.450 -0.4332 -0.3930  0.2441
 5558SOL    HW128310   3.984   3.211   7.488 -1.0993  0.5678 -0.5051
 5558SOL    HW228311   3.887   3.194   7.381 -0.4809 -1.5573 -0.5937
 5559SOL     OW28312   3.552   3.193   2.117  0.4249  0.0414  0.4979
 5559SOL    HW128313   3.562   3.275   2.069  2.2525 -0.6547 -0.3258
 5559SOL    HW228314   3.535   3.122   2.055  2.8774 -0.8963  0.8964
 5560SOL     OW28315   0.703   4.240   9.245 -0.1983 -0.4806  0.4823
 5560SOL    HW128316   0.790   4.261   9.280  0.6443 -2.4035 -0.4818
 5560SOL    HW228317   0.726   4.154   9.211  0.0154 -0.1021 -0.3324
 5561SOL     OW28318   3.260   4.441   8.744  0.1497  0.1493  0.4484
 5561SOL    HW128319   3.173   4.449   8.706  0.9368  0.5628 -1.2491
 5561SOL    HW228320   3.297   4.529   8.731  1.1442 -0.4162 -0.5136
 5562SOL     OW28321   1.593   0.985   4.293  0.2226 -0.3354 -0.0798
 5562SOL    HW128322   1.623   0.896   4.273 -0.4879 -0.9039  1.3708
 5562SOL    HW228323   1.552   0.977   4.379  1.3371  1.6961  0.6482
 5563SOL     OW28324   2.944   3.677   1.536 -0.3253  0.3861  0.2948
 5563SOL    HW128325   2.900   3.762   1.531  0.0192  0.4292 -1.8701
 5563SOL    HW228326   2.983   3.671   1.449 -0.6263  2.1108  0.0226
 5564SOL     OW28327   2.057   3.696   8.223  0.2032  0.0697  0.0762
 5564SOL    HW128328   2.126   3.761   8.213 -1.2701  1.4896 -0.9075
 5564SOL    HW228329   2.103   3.620   8.259  0.6072 -0.4071 -1.4508
 5565SOL     OW28330   4.394   1.862   4.946  0.5426  0.6327  0.2614
 5565SOL    HW128331   4.384   1.768   4.959  0.8133  0.6135  0.3333
 5565SOL    HW228332   4.437   1.894   5.025  2.7908 -0.9967 -0.3144
 5566SOL     OW28333   2.585   3.568   6.586  0.2341 -0.1088  0.2731
 5566SOL    HW128334   2.647   3.606   6.648  1.4415 -1.4643 -0.1023
 5566SOL    HW228335   2.528   3.641   6.562 -1.4423 -1.3671  0.4325
 5567SOL     OW28336   2.814   0.151  12.682 -0.0953 -0.3400 -0.5345
 5567SOL    HW128337   2.898   0.151  12.728 -0.5432  1.7331  0.2899
 5567SOL    HW228338   2.758   0.197  12.745 -0.2804 -1.0674 -0.1758
 5568SOL     OW28339   0.602   0.911   8.534 -0.4252  0.6110  0.0899
 5568SOL    HW128340   0.640   0.844   8.591 -0.9350 -0.0725 -0.3669
 5568SOL    HW228341   0.512   0.921   8.564 -0.2868  1.2157  0.3005
 5569SOL     OW28342   3.990   0.201   3.837 -0.0876  0.6263  0.4693
 5569SOL    HW128343   3.974   0.265   3.906  2.2706  1.1950  0.4883
 5569SOL    HW228344   4.018   0.119   3.879  3.2694  0.9717 -1.0976
 5570SOL     OW28345   4.646   4.226  14.434  0.2949  0.4442 -0.2238
 5570SOL    HW128346   4.732   4.184  14.433  0.4378  0.6824  1.5752
 5570SOL    HW228347   4.653   4.287  14.361 -1.3050  3.6333  2.2856
 5571SOL     OW28348   0.618   1.613   3.821  0.3993 -0.5168 -0.1362
 5571SOL    HW128349   0.603   1.528   3.862  0.5209 -1.1300 -1.3675
 5571SOL    HW228350   0.547   1.668   3.856 -0.3388 -1.1379 -0.6652
 5572SOL     OW28351   1.941   4.623   1.314  0.1904  0.0664  0.2174
 5572SOL    HW128352   1.957   4.595   1.224 -0.5162 -0.0545  0.1350
 5572SOL    HW228353   1.850   4.599   1.303 -0.1452  1.4941 -0.1582
 5573SOL     OW28354   4.478   0.412   8.553  0.4157 -0.0678  0.0862
 5573SOL    HW128355   4.538   0.351   8.511  0.4724 -0.0215  0.1001
 5573SOL    HW228356   4.541   0.480   8.577 -1.4349  0.9547  2.0766
 5574SOL     OW28357   4.300   1.698   8.022 -0.0456  0.0799  0.8450
 5574SOL    HW128358   4.345   1.666   8.100 -2.6680 -1.4032  1.7516
 5574SOL    HW228359   4.220   1.645   8.020 -0.6900  1.0535  0.9404
 5575SOL     OW28360   0.889   4.523   5.413 -0.5299 -0.3145  0.1328
 5575SOL    HW128361   0.819   4.587   5.400  0.6722  1.1968  1.1556
 5575SOL    HW228362   0.958   4.575   5.454  0.3025 -1.1921 -0.1407
 5576SOL     OW28363   3.079   1.686  13.617  0.4655 -0.1192  0.1937
 5576SOL    HW128364   3.151   1.665  13.558  0.1395 -1.7239  0.3702
 5576SOL    HW228365   3.081   1.779  13.637  1.5279  0.3265 -2.0419
 5577SOL     OW28366   3.753   4.608   3.318  0.6273 -0.4391  0.2221
 5577SOL    HW128367   3.813   4.641   3.250  0.0086  0.1238 -0.0484
 5577SOL    HW228368   3.712   4.549   3.255 -2.2274 -0.5758  2.2439
 5578SOL     OW28369   0.323   0.010   3.364  0.3849 -0.1030  0.2842
 5578SOL    HW128370   0.405   0.059   3.370 -0.3138  1.0485  0.4645
 5578SOL    HW228371   0.333   4.672   3.420 -0.5339 -0.0577  0.5037
 5579SOL     OW28372   2.756   3.828  17.023 -0.4300  0.1789 -0.1537
 5579SOL    HW128373   2.765   3.908  17.075  0.6815 -0.8239  1.2122
 5579SOL    HW228374   2.802   3.839  16.940  0.6703 -1.1293  0.2872
 5580SOL     OW28375   4.407   1.207  12.279 -0.0558 -0.4144  0.6687
 5580SOL    HW128376   4.403   1.264  12.202 -0.0677 -1.5774 -0.2024
 5580SOL    HW228377   4.378   1.122  12.245 -0.9048  0.9550 -2.0227
 5581SOL     OW28378   1.558   3.111   5.356 -0.3826 -0.0044  0.0612
 5581SOL    HW128379   1.509   3.097   5.275 -0.7145 -2.2661  0.6391
 5581SOL    HW228380   1.641   3.111   5.308 -0.1338  1.5545  0.4976
 5582SOL     OW28381   1.647   2.490   0.310  0.1718  0.0070 -0.0521
 5582SOL    HW128382   1.737   2.492   0.341  0.2658 -1.8420 -0.1931
 5582SOL    HW228383   1.597   2.439   0.374  0.5676  3.1626  2.7570
 5583SOL     OW28384   3.455   1.189  17.473  0.1405 -0.4188 -0.1546
 5583SOL    HW128385   3.520   1.244  17.429 -1.7655  1.6319 -0.4397
 5583SOL    HW228386   3.385   1.179  17.408 -0.5678 -1.8897  0.8453
 5584SOL     OW28387   2.277   4.574  15.094 -0.2315 -0.1490 -0.2041
 5584SOL    HW128388   2.276   4.642  15.162  1.1644 -2.9409  2.5910
 5584SOL    HW228389   2.235   4.617  15.020  1.0061  0.7013 -0.4253
 5585SOL     OW28390   1.102   0.347   5.641 -0.3536 -0.2556  0.1605
 5585SOL    HW128391   1.159   0.423   5.649  1.1498 -1.4632  0.8300
 5585SOL    HW228392   1.153   0.270   5.664 -1.5898 -1.2621 -0.4562
 5586SOL     OW28393   0.830   3.038   4.595 -0.4004 -0.2491  0.2020
 5586SOL    HW128394   0.804   3.053   4.505  1.7106  1.4348 -0.1220
 5586SOL    HW228395   0.815   3.124   4.636 -0.1145 -0.0217 -0.1745
 5587SOL     OW28396   0.006   3.944   7.963  0.4165 -0.1420 -1.0455
 5587SOL    HW128397   4.721   3.864   8.009 -1.0567  0.4271 -0.8189
 5587SOL    HW228398   0.101   3.931   7.964  0.2196 -1.1295  2.4695
 5588SOL     OW28399   1.248   0.148   6.579 -0.1221  0.3545 -0.5127
 5588SOL    HW128400   1.187   0.220   6.596 -0.5823 -0.3142  0.6592
 5588SOL    HW228401   1.334   0.178   6.609 -1.0048  1.2008  1.1892
 5589SOL     OW28402   2.096   4.023  17.203 -0.1989  0.6859 -0.2544
 5589SOL    HW128403   2.152   4.095  17.231  0.8308  0.1516 -0.9345
 5589SOL    HW228404   2.137   3.956  17.148 -1.4430 -1.6863  1.6723
 5590SOL     OW28405   1.521   0.792  11.869 -0.1125 -0.1897 -0.2049
 5590SOL    HW128406   1.589   0.724  11.862  0.0827  0.0436 -0.5853
 5590SOL    HW228407   1.528   0.830  11.782  1.3621  0.0634  0.0216
 5591SOL     OW28408   4.432   1.017   0.258 -0.1026  0.4421 -0.2746
 5591SOL    HW128409   4.443   1.086   0.323  0.0886  1.5291 -1.4582
 5591SOL    HW228410   4.488   0.950   0.297  0.3176 -0.0805 -1.7853
 5592SOL     OW28411   1.366   3.199  10.493 -0.2034  0.1195  0.1288
 5592SOL    HW128412   1.430   3.128  10.486 -0.1157  0.2553 -0.4424
 5592SOL    HW228413   1.303   3.168  10.557 -0.6187  0.4479 -0.1149
 5593SOL     OW28414   3.366   4.418   3.371  0.1235  0.2375  0.5202
 5593SOL    HW128415   3.308   4.346   3.351  0.8721  0.0594 -0.9869
 5593SOL    HW228416   3.335   4.480   3.305  0.4514  0.2623  0.3893
 5594SOL     OW28417   0.815   1.187   4.401  0.0116 -0.2010 -0.1906
 5594SOL    HW128418   0.855   1.274   4.394  1.0250 -0.4859  2.0194
 5594SOL    HW228419   0.768   1.179   4.484 -1.2690 -0.4308 -0.9320
 5595SOL     OW28420   4.083   3.902   4.966 -0.9278 -0.3147 -0.5512
 5595SOL    HW128421   4.164   3.948   4.983  0.1326 -1.7343 -1.8130
 5595SOL    HW228422   4.038   3.918   5.049 -0.8328  0.8167 -0.7245
 5596SOL     OW28423   1.862   3.412   2.015  0.7210 -0.5112  1.0149
 5596SOL    HW128424   1.794   3.464   1.972  2.2815 -0.2829 -1.1743
 5596SOL    HW228425   1.944   3.419   1.966  0.0423  0.8205  0.0743
 5597SOL     OW28426   3.999   1.359   5.241  0.0285 -0.0872 -0.1862
 5597SOL    HW128427   3.906   1.381   5.247 -0.4381 -1.2979 -3.0389
 5597SOL    HW228428   4.010   1.275   5.285  1.0138 -0.4161 -1.0528
 5598SOL     OW28429   3.584   0.924   1.965 -0.7854  0.1990  0.5596
 5598SOL    HW128430   3.586   0.952   2.056  1.1314  0.2849  0.4943
 5598SOL    HW228431   3.676   0.938   1.943 -1.2052  1.4998 -0.3647
 5599SOL     OW28432   2.848   3.734   3.370 -0.0496  0.1187 -0.4154
 5599SOL    HW128433   2.832   3.733   3.464 -1.8533  0.8087 -0.7269
 5599SOL    HW228434   2.773   3.787   3.344 -1.1796 -0.9553  0.6477
 5600SOL     OW28435   1.980   3.988  14.441 -0.0590 -0.3582  0.4604
 5600SOL    HW128436   1.911   4.045  14.406 -0.3085 -0.9044  0.0776
 5600SOL    HW228437   1.985   4.021  14.531  0.3697  0.1996  0.2361
 5601SOL     OW28438   3.964   2.234   1.176 -0.3191 -0.1059  0.6862
 5601SOL    HW128439   3.967   2.311   1.233  3.9032  0.6969 -0.6292
 5601SOL    HW228440   3.947   2.165   1.241 -0.0825 -0.2189  0.6270
 5602SOL     OW28441   4.660   3.844   6.080 -0.0382  0.1670 -0.2801
 5602SOL    HW128442   4.577   3.855   6.032 -2.1942  0.1863  3.4078
 5602SOL    HW228443   4.661   3.920   6.138  1.6178  0.0486 -0.1781
 5603SOL     OW28444   1.805   1.839  15.550  0.1361 -0.2746  0.5373
 5603SOL    HW128445   1.844   1.824  15.636  1.2444  0.6982  0.2093
 5603SOL    HW228446   1.766   1.924  15.570 -1.1705 -0.8265  0.3352
 5604SOL     OW28447   1.847   1.485   6.089  0.1371  0.1704  0.4045
 5604SOL    HW128448   1.867   1.450   6.176  0.0512 -1.9788 -0.4502
 5604SOL    HW228449   1.845   1.402   6.043  2.0235  0.1572  0.3376
 5605SOL     OW28450   0.234   2.765   6.745 -0.2501  0.5115 -0.1562
 5605SOL    HW128451   0.328   2.784   6.745 -0.4593  1.6681 -3.7412
 5605SOL    HW228452   0.229   2.755   6.650 -2.3271  2.9094 -0.2933
 5606SOL     OW28453   1.882   2.402  15.772 -0.0346  0.0936 -0.2120
 5606SOL    HW128454   1.902   2.364  15.687 -1.1010 -0.7747 -0.0820
 5606SOL    HW228455   1.795   2.365  15.789  0.2005 -0.0665  0.6596
 5607SOL     OW28456   4.019   1.943   2.884  0.1119  0.7367 -0.1352
 5607SOL    HW128457   3.961   1.951   2.808  1.2996  3.8409 -0.7342
 5607SOL    HW228458   3.959   1.956   2.957 -2.7181 -2.5659 -1.8820
 5608SOL     OW28459   2.178   1.395   4.941 -0.5160 -0.4177 -0.1619
 5608SOL    HW128460   2.176   1.390   4.845  2.2252  3.0372 -0.3873
 5608SOL    HW228461   2.223   1.477   4.961  1.3340 -2.0930  2.5082
 5609SOL     OW28462   0.213   1.303   9.783  0.0906  0.6856  0.1172
 5609SOL    HW128463   0.185   1.273   9.869  1.7085 -0.7565  0.1381
 5609SOL    HW228464   0.200   1.221   9.734  0.7269  0.8991 -0.4132
 5610SOL     OW28465   3.592   1.178  11.886  0.7361  0.3382 -0.2675
 5610SOL    HW128466   3.655   1.197  11.955 -0.7640 -1.6074  1.6458
 5610SOL    HW228467   3.570   1.087  11.905  1.4568  0.2053 -0.0767
 5611SOL     OW28468   3.395   1.264   1.934 -1.3096  0.4979  0.4197
 5611SOL    HW128469   3.318   1.224   1.893 -0.8489  0.4057 -0.3671
 5611SOL    HW228470   3.345   1.330   1.982 -1.2944  0.8175  0.0034
 5612SOL     OW28471   0.246   3.989   7.592  0.4820  0.4076  1.3461
 5612SOL    HW128472   0.189   4.027   7.659 -1.7702  4.5962 -2.8979
 5612SOL    HW228473   0.330   4.034   7.602  2.2471 -2.3662 -0.9882
 5613SOL     OW28474   1.248   4.616   6.620  0.2265  0.0710 -0.0549
 5613SOL    HW128475   1.248   4.707   6.589 -1.5425 -0.2434 -0.9477
 5613SOL    HW228476   1.205   4.629   6.705  1.3036  2.6843  0.0944
 5614SOL     OW28477   0.607   3.969   8.954 -0.0731 -0.1361  0.2355
 5614SOL    HW128478   0.658   3.921   9.019  0.7411  0.5711  0.1205
 5614SOL    HW228479   0.651   4.044   8.914  1.1655  0.1641  2.1258
 5615SOL     OW28480   3.983   2.765   8.798  0.1566  0.5222 -0.4152
 5615SOL    HW128481   3.941   2.709   8.863  2.7801  0.3707  1.1707
 5615SOL    HW228482   3.989   2.848   8.846 -1.5028  0.2432  0.2637
 5616SOL     OW28483   1.558   3.834   9.710 -0.0156 -0.4358 -0.5205
 5616SOL    HW128484   1.601   3.796   9.787  0.7287  0.8054 -0.3345
 5616SOL    HW228485   1.616   3.908   9.693 -0.9178  0.6520  1.1310
 5617SOL     OW28486   3.144   4.278   4.924 -0.1218  0.2602  0.0530
 5617SOL    HW128487   3.196   4.278   4.843 -1.8164  0.0646 -1.0219
 5617SOL    HW228488   3.172   4.195   4.963 -0.4730  0.5257  0.8675
 5618SOL     OW28489   1.244   0.377   2.243 -0.2878 -0.3569  0.0374
 5618SOL    HW128490   1.263   0.458   2.197 -0.9803  1.0694  2.2703
 5618SOL    HW228491   1.302   0.377   2.320  0.6478 -1.3867 -0.6666
 5619SOL     OW28492   3.132   3.320   2.871 -0.1579 -0.5240  0.0380
 5619SOL    HW128493   3.223   3.307   2.843 -0.2385  0.1469 -0.5385
 5619SOL    HW228494   3.085   3.273   2.803  0.0197  0.4309 -0.7499
 5620SOL     OW28495   0.218   4.622   6.414  0.1048 -0.1527 -0.8588
 5620SOL    HW128496   0.261   4.646   6.497  0.0936  3.0400 -1.7520
 5620SOL    HW228497   0.289   4.578   6.367 -0.4437 -0.1321 -1.7031
 5621SOL     OW28498   0.414   3.959   3.499  0.0004 -0.5317  0.4789
 5621SOL    HW128499   0.403   3.864   3.487 -3.3865 -0.0610 -0.2183
 5621SOL    HW228500   0.326   3.985   3.525  0.1377  0.8664 -0.4667
 5622SOL     OW28501   3.017   1.303   9.600  0.2525 -0.2656 -0.3031
 5622SOL    HW128502   2.979   1.360   9.667  2.2382 -2.1588  2.4544
 5622SOL    HW228503   3.105   1.340   9.610  0.4851 -0.5913 -1.1330
 5623SOL     OW28504   3.735   2.360   7.376 -0.1726  0.1996 -0.0871
 5623SOL    HW128505   3.776   2.446   7.370 -0.7313  0.4914  0.3219
 5623SOL    HW228506   3.688   2.348   7.293  0.0725 -0.9111 -0.0714
 5624SOL     OW28507   3.452   0.451   7.620 -0.1569  0.7726  0.0872
 5624SOL    HW128508   3.544   0.460   7.596  0.3665 -1.6319  1.1853
 5624SOL    HW228509   3.464   0.358   7.641 -0.5597  1.1909  2.2033
 5625SOL     OW28510   4.491   2.709  17.517  0.4456  0.1346 -0.0064
 5625SOL    HW128511   4.557   2.645  17.544  2.4722  2.0521 -0.5062
 5625SOL    HW228512   4.554   2.778  17.501 -1.7940  1.8501 -1.3865
 5626SOL     OW28513   3.259   1.459   9.630 -0.1541  0.4360 -0.2187
 5626SOL    HW128514   3.258   1.481   9.537 -1.2470  2.8804  0.3852
 5626SOL    HW228515   3.353   1.446   9.643 -0.0120  1.9086  0.1821
 5627SOL     OW28516   4.591   2.770   0.716  0.2688  0.0140 -0.4094
 5627SOL    HW128517   4.606   2.768   0.810  2.2599 -1.3107 -0.7671
 5627SOL    HW228518   4.561   2.682   0.693  0.7795  0.0824 -1.3454
 5628SOL     OW28519   2.056   3.395   1.810 -0.1201  0.7421  0.3685
 5628SOL    HW128520   2.053   3.474   1.757  1.2481  1.0939  0.8192
 5628SOL    HW228521   2.014   3.327   1.757 -0.4494 -0.6864  2.4758
 5629SOL     OW28522   4.701   3.968   6.974 -0.1697 -0.1899  0.8260
 5629SOL    HW128523   4.704   3.906   7.048  1.9095  0.3772  1.2185
 5629SOL    HW228524   0.053   3.985   6.950  0.2363 -1.7608  1.2417
 5630SOL     OW28525   2.899   3.429   6.735 -0.2447 -0.4055 -0.0115
 5630SOL    HW128526   2.878   3.523   6.740 -0.1016 -0.3595 -0.2739
 5630SOL    HW228527   2.896   3.409   6.641  0.8692 -1.9616  0.2956
 5631SOL     OW28528   0.760   0.196   8.899 -0.4218  0.0415 -0.7887
 5631SOL    HW128529   0.669   0.187   8.871  0.1054 -0.9678 -2.1593
 5631SOL    HW228530   0.753   0.145   8.980  0.2751  0.2100 -0.6177
 5632SOL     OW28531   1.071   4.687   2.895  0.4981  0.2030  0.2399
 5632SOL    HW128532   1.055   0.031   2.941  0.8816  0.0826  0.5838
 5632SOL    HW228533   1.112   4.645   2.970  0.4879 -2.6869 -1.4082
 5633SOL     OW28534   0.421   4.121   8.752 -0.2887 -0.3542 -0.5644
 5633SOL    HW128535   0.424   4.054   8.821  1.9177 -0.7458 -1.0566
 5633SOL    HW228536   0.330   4.110   8.722 -0.8651 -0.0413  1.0591
 5634SOL     OW28537   4.447   3.069   3.230 -0.0494 -0.3674 -0.1253
 5634SOL    HW128538   4.486   3.059   3.143 -0.4703  1.4784 -0.5376
 5634SOL    HW228539   4.504   3.127   3.280 -0.2503 -0.1981 -0.0930
 5635SOL     OW28540   0.811   1.323   6.743 -0.0977  0.3676  0.2811
 5635SOL    HW128541   0.903   1.325   6.770 -0.7339  1.6627  2.3920
 5635SOL    HW228542   0.763   1.316   6.826 -1.1818  0.1600 -0.3508
 5636SOL     OW28543   2.883   2.496   0.674 -0.2307  0.5051  0.5615
 5636SOL    HW128544   2.957   2.550   0.647 -0.1930 -0.2134 -0.7815
 5636SOL    HW228545   2.809   2.553   0.654 -0.3177  0.3483  0.4270
 5637SOL     OW28546   1.197   2.102  12.523 -0.0336 -0.3066 -0.1813
 5637SOL    HW128547   1.223   2.066  12.608 -1.3044  1.5546  1.0082
 5637SOL    HW228548   1.281   2.148  12.511 -0.6028  0.7845  0.0086
 5638SOL     OW28549   3.873   1.539   4.442  0.1847 -0.2556 -0.5085
 5638SOL    HW128550   3.846   1.566   4.530  0.7564 -0.5953 -0.2316
 5638SOL    HW228551   3.958   1.581   4.434 -0.5212  1.3438  0.2055
 5639SOL     OW28552   1.707   2.484  15.414 -0.4476 -0.0879 -0.0308
 5639SOL    HW128553   1.638   2.528  15.463  1.5267  2.9200  0.0227
 5639SOL    HW228554   1.646   2.438  15.356  0.5861 -1.7004  0.1570
 5640SOL     OW28555   1.065   1.882   0.697 -0.4633 -0.6236  0.4159
 5640SOL    HW128556   1.090   1.793   0.720 -0.7664 -0.6062  0.8045
 5640SOL    HW228557   0.993   1.898   0.757 -0.3060  0.3022  0.3712
 5641SOL     OW28558   1.594   2.550   0.695  0.1299  0.0223 -0.1669
 5641SOL    HW128559   1.526   2.570   0.759  1.6588  3.2203  0.4443
 5641SOL    HW228560   1.546   2.476   0.657 -0.9719  1.0955 -0.8568
 5642SOL     OW28561   1.941   3.324   3.731 -0.2384  0.0540 -0.2814
 5642SOL    HW128562   1.939   3.256   3.798 -3.1774 -0.2954 -0.7201
 5642SOL    HW228563   1.956   3.405   3.779  0.4723  0.3848 -1.0626
 5643SOL     OW28564   1.471   4.309   0.797  0.4835 -0.3742  0.4048
 5643SOL    HW128565   1.542   4.350   0.747 -0.9976  0.8336 -0.6651
 5643SOL    HW228566   1.498   4.218   0.807  1.5390 -0.0214  0.7997
 5644SOL     OW28567   1.301   3.966   9.770 -0.5694  0.1553 -0.5560
 5644SOL    HW128568   1.387   3.952   9.731 -1.7137  1.0146 -3.3755
 5644SOL    HW228569   1.312   4.061   9.762  0.8945  0.0639  0.2991
 5645SOL     OW28570   3.632   3.427   1.490  0.0159  0.4398 -0.4535
 5645SOL    HW128571   3.608   3.432   1.583  1.8235 -2.1165  0.1717
 5645SOL    HW228572   3.719   3.466   1.493  0.3519 -0.3278 -0.1340
 5646SOL     OW28573   1.476   1.826  13.714 -0.0996 -0.0368  0.5717
 5646SOL    HW128574   1.513   1.744  13.746 -1.6598 -1.8420 -2.1773
 5646SOL    HW228575   1.557   1.858  13.675 -0.3546  0.0013  0.0690
 5647SOL     OW28576   0.592   2.735   2.629  0.5217  0.1826  0.1426
 5647SOL    HW128577   0.581   2.829   2.642  2.1935 -0.0437  3.1873
 5647SOL    HW228578   0.673   2.736   2.681  1.6903  0.2494 -1.6687
 5648SOL     OW28579   2.613   2.969   4.444 -0.0223 -0.0178 -0.5862
 5648SOL    HW128580   2.520   2.986   4.435 -0.2855  0.1376  2.5488
 5648SOL    HW228581   2.600   2.884   4.487  3.5135  0.7265  1.9924
 5649SOL     OW28582   3.647   0.276  12.087 -0.1710  0.5996  0.2397
 5649SOL    HW128583   3.634   0.268  11.993 -0.9601 -0.6246  0.4399
 5649SOL    HW228584   3.637   0.187  12.123  1.5902 -0.2040 -1.3131
 5650SOL     OW28585   1.455   3.003   1.342  0.0446  0.3843  0.5115
 5650SOL    HW128586   1.526   2.942   1.326 -0.2955  0.2189 -0.3317
 5650SOL    HW228587   1.495   3.082   1.379  1.7112 -0.7292  1.0625
 5651SOL     OW28588   3.676   4.476   7.174  0.1951 -0.3177 -0.1134
 5651SOL    HW128589   3.643   4.533   7.104 -0.6153  0.7641  1.1390
 5651SOL    HW228590   3.740   4.414   7.140  2.4903 -0.0103  3.5947
 5652SOL     OW28591   0.479   2.655   6.517  0.7917 -0.2255  0.0161
 5652SOL    HW128592   0.454   2.730   6.464  0.8309 -1.1749 -1.3346
 5652SOL    HW228593   0.559   2.686   6.561  0.3449  2.5595 -1.1849
 5653SOL     OW28594   1.172   1.757  16.505  0.1681 -0.2699 -0.0301
 5653SOL    HW128595   1.205   1.667  16.506 -1.0015 -0.6755  0.8873
 5653SOL    HW228596   1.091   1.738  16.458  1.3619 -0.7331 -1.8865
 5654SOL     OW28597   4.277   0.191   3.748 -0.5228  0.3755 -0.1915
 5654SOL    HW128598   4.321   0.268   3.783 -0.7553  0.0375  0.8275
 5654SOL    HW228599   4.189   0.212   3.780 -1.4863 -2.7108 -0.8436
 5655SOL     OW28600   0.752   1.298  14.812  0.3643  0.3983  0.5837
 5655SOL    HW128601   0.699   1.227  14.774 -1.0163  1.0314  1.3411
 5655SOL    HW228602   0.708   1.311  14.896  0.5642  2.1847  0.3999
 5656SOL     OW28603   2.242   1.792   4.077 -0.3408 -0.2918  0.2653
 5656SOL    HW128604   2.279   1.715   4.121  2.5938  1.2973  0.6390
 5656SOL    HW228605   2.148   1.788   4.093 -0.4108  0.9924  0.2058
 5657SOL     OW28606   1.611   1.474  16.683 -0.1876 -0.3436  0.1126
 5657SOL    HW128607   1.588   1.408  16.748 -0.8793  1.2872  1.5338
 5657SOL    HW228608   1.686   1.504  16.735 -0.6198  1.0875 -0.0930
 5658SOL     OW28609   1.686   0.026   8.625 -0.1213 -0.4462  0.3123
 5658SOL    HW128610   1.670   0.120   8.614  0.5199 -0.2798  0.8210
 5658SOL    HW228611   1.696   0.004   8.532  3.2120 -0.8388  0.7873
 5659SOL     OW28612   0.282   0.898  14.949 -0.5579 -0.9099  0.1576
 5659SOL    HW128613   0.248   0.813  14.976 -2.5553 -0.5083 -1.0726
 5659SOL    HW228614   0.260   0.888  14.857  0.4848 -1.4489 -0.0237
 5660SOL     OW28615   0.024   1.713   3.253  0.2245 -0.3621  0.3754
 5660SOL    HW128616   0.007   1.742   3.342 -1.1045 -1.6983  0.5510
 5660SOL    HW228617   0.062   1.627   3.269 -1.2522 -1.3964 -1.7110
 5661SOL     OW28618   2.078   0.951   3.665 -0.3981  0.1608  0.2048
 5661SOL    HW128619   2.138   0.985   3.732  0.8319 -0.7080 -0.4594
 5661SOL    HW228620   1.993   0.980   3.697 -0.3716  0.3962  0.0553
 5662SOL     OW28621   3.980   2.658   6.114  0.5445 -0.1271  0.3513
 5662SOL    HW128622   4.043   2.587   6.100 -0.7463 -0.8040 -2.0507
 5662SOL    HW228623   4.041   2.730   6.101  1.5448 -1.0070  0.1404
 5663SOL     OW28624   3.001   2.412   8.409  0.5417  0.0125  0.0681
 5663SOL    HW128625   2.993   2.406   8.504 -0.9966 -1.5189 -0.1723
 5663SOL    HW228626   2.926   2.359   8.384 -1.0009  0.8524  2.9794
 5664SOL     OW28627   0.274   4.733   4.609  0.2699 -0.3716  0.0436
 5664SOL    HW128628   0.196   4.711   4.559 -1.3420  3.1729  1.0080
 5664SOL    HW228629   0.262   4.680   4.687  0.8987 -1.5125 -0.6365
 5665SOL     OW28630   1.056   2.378   7.011 -0.0035  0.6031  0.3173
 5665SOL    HW128631   0.969   2.374   6.970  1.1605 -0.4654 -2.0658
 5665SOL    HW228632   1.073   2.288   7.039  0.6240  0.4570 -0.5347
 5666SOL     OW28633   2.617   3.177  10.791  0.5338  0.2787  0.4952
 5666SOL    HW128634   2.706   3.144  10.793  0.6784  0.6568  0.3351
 5666SOL    HW228635   2.563   3.099  10.777 -3.4730  3.1407 -0.3022
 5667SOL     OW28636   3.578   4.037   3.924 -0.2881 -0.0019  0.5681
 5667SOL    HW128637   3.588   4.011   3.832 -0.3254 -0.9073  0.8196
 5667SOL    HW228638   3.629   3.966   3.965  0.3406 -0.7869 -1.5219
 5668SOL     OW28639   0.043   1.507   4.538 -0.0987 -0.0411  0.2518
 5668SOL    HW128640   0.111   1.574   4.533  0.2209 -0.3857  0.0791
 5668SOL    HW228641   0.039   1.493   4.632  2.8717 -1.1210  0.2185
 5669SOL     OW28642   0.248   1.182   2.131 -0.1779  0.3317 -0.2711
 5669SOL    HW128643   0.240   1.182   2.035  2.4823 -1.7776 -0.5081
 5669SOL    HW228644   0.231   1.275   2.144 -0.1672  0.4196 -0.8756
 5670SOL     OW28645   1.282   4.634   3.883  0.1873 -0.0070 -0.1127
 5670SOL    HW128646   1.315   4.548   3.909 -0.7222 -0.8292 -1.7238
 5670SOL    HW228647   1.192   4.636   3.914  0.7745 -1.2327  1.6859
 5671SOL     OW28648   1.265   2.660   2.043 -0.4094  0.1066  0.4836
 5671SOL    HW128649   1.288   2.588   1.984  1.8173 -0.3002  1.8273
 5671SOL    HW228650   1.251   2.723   1.973  1.0007  1.8138  1.7406
 5672SOL     OW28651   1.729   3.296   9.494  0.3329 -0.0128  0.3840
 5672SOL    HW128652   1.798   3.230   9.483  1.3071  0.9364  0.7307
 5672SOL    HW228653   1.653   3.242   9.511 -0.1012  0.4498 -0.0842
 5673SOL     OW28654   3.778   0.293  11.830 -0.4910 -0.3214 -0.1400
 5673SOL    HW128655   3.817   0.260  11.911 -0.2461 -0.4026 -0.2939
 5673SOL    HW228656   3.844   0.254  11.773 -0.3219 -1.1303  0.6065
 5674SOL     OW28657   3.664   1.411   7.929 -0.1765  0.0395  0.0310
 5674SOL    HW128658   3.582   1.455   7.907  0.4791  0.2676 -1.9182
 5674SOL    HW228659   3.652   1.326   7.885  0.1455  0.0206 -0.0164
 5675SOL     OW28660   1.267   2.094  12.081 -0.0724 -0.4533 -0.0621
 5675SOL    HW128661   1.331   2.101  12.151 -1.1750  1.0130  0.8182
 5675SOL    HW228662   1.206   2.053  12.142  1.2499  0.8678  2.1382
 5676SOL     OW28663   3.883   3.126   6.066  0.2261 -0.1961 -0.1822
 5676SOL    HW128664   3.976   3.103   6.057  0.6808  2.2667 -1.6017
 5676SOL    HW228665   3.866   3.078   6.148  2.1867  0.3006  0.5181
 5677SOL     OW28666   0.192   1.969   3.524  0.4535  0.0632 -0.1834
 5677SOL    HW128667   0.157   1.893   3.570  0.3234 -0.1337 -0.6122
 5677SOL    HW228668   0.158   2.045   3.570  0.9769  0.3525 -0.2725
 5678SOL     OW28669   4.651   1.319  10.956 -0.3977  0.4064 -0.2875
 5678SOL    HW128670   4.658   1.275  11.041  0.1811 -0.5364 -0.8287
 5678SOL    HW228671   4.633   1.411  10.975  1.8429  0.8403 -0.2819
 5679SOL     OW28672   2.237   3.083   8.279 -0.2865 -0.5563 -0.3547
 5679SOL    HW128673   2.144   3.090   8.259 -0.0787  2.0469 -0.3607
 5679SOL    HW228674   2.238   2.997   8.322 -0.8114  0.2306  1.2113
 5680SOL     OW28675   4.307   1.965   5.649 -0.2631  0.6891  0.0355
 5680SOL    HW128676   4.300   2.027   5.723  2.1679  1.7246 -0.5965
 5680SOL    HW228677   4.402   1.956   5.641 -0.1851  0.6970  0.9045
 5681SOL     OW28678   0.071   3.632   6.060 -0.8038  0.6327  0.0047
 5681SOL    HW128679   0.086   3.658   5.969 -1.3565  0.3383 -0.1722
 5681SOL    HW228680   0.000   3.694   6.078 -0.3968  0.3157  2.7575
 5682SOL     OW28681   2.364   3.010   4.577 -0.0350 -0.3734 -0.2094
 5682SOL    HW128682   2.307   3.087   4.578  1.1508  0.5171 -0.8024
 5682SOL    HW228683   2.346   2.991   4.669  0.8722  0.3639  0.1229
 5683SOL     OW28684   4.418   4.678  11.553  0.4773  0.4079 -0.7882
 5683SOL    HW128685   4.332   4.693  11.593  0.7042  0.3926 -0.2982
 5683SOL    HW228686   4.456   4.623  11.622 -0.6688  1.2932  0.5315
 5684SOL     OW28687   1.816   4.608   3.001  0.0337  0.4163 -0.5332
 5684SOL    HW128688   1.885   4.651   3.051 -1.4776  1.7833  0.3720
 5684SOL    HW228689   1.744   4.601   3.064  2.9271 -0.4996  2.6870
 5685SOL     OW28690   4.256   1.547   5.311 -0.8928 -0.0686  0.6309
 5685SOL    HW128691   4.255   1.621   5.371  0.7014  0.1729  0.3829
 5685SOL    HW228692   4.182   1.503   5.353  0.2105 -0.4322  2.2187
 5686SOL     OW28693   2.814   0.802   9.557 -0.5113 -0.1989  0.0325
 5686SOL    HW128694   2.807   0.712   9.526  0.2365 -0.0967 -0.4431
 5686SOL    HW228695   2.721   0.825   9.555 -0.2931  0.7917  1.4838
 5687SOL     OW28696   4.263   4.254   4.879  0.4130 -0.2848 -0.0231
 5687SOL    HW128697   4.314   4.173   4.889  1.1181  0.3552  1.6283
 5687SOL    HW228698   4.176   4.218   4.865  0.1052  0.2276  0.6141
 5688SOL     OW28699   0.891   0.344   8.620 -0.2018  0.2969  0.3705
 5688SOL    HW128700   0.889   0.414   8.555  1.9334  0.6203  0.6416
 5688SOL    HW228701   0.814   0.369   8.670 -0.6694  0.2070 -0.3179
 5689SOL     OW28702   0.696   4.654   8.080  0.5662  0.3355 -0.0230
 5689SOL    HW128703   0.706   4.559   8.088  2.0842  0.5431  0.5653
 5689SOL    HW228704   0.696   4.661   7.985 -0.0160  0.8325  0.0154
 5690SOL     OW28705   0.951   2.814   5.483 -0.4949  0.3608  0.2943
 5690SOL    HW128706   0.971   2.745   5.420 -0.8404  0.2935  0.2554
 5690SOL    HW228707   0.858   2.795   5.495 -0.0621 -1.4757  0.7138
 5691SOL     OW28708   3.582   3.707   6.856  0.2740 -0.5357  0.0564
 5691SOL    HW128709   3.519   3.726   6.786  0.3775 -0.8899 -0.1296
 5691SOL    HW228710   3.540   3.629   6.891 -0.7632  1.0809  2.4029
 5692SOL     OW28711   3.074   4.375  14.851 -0.0559  0.1250 -0.2078
 5692SOL    HW128712   2.986   4.410  14.866 -0.3400 -0.6442 -0.0839
 5692SOL    HW228713   3.124   4.423  14.918  2.6574 -1.5394 -1.0312
 5693SOL     OW28714   1.748   2.686   1.990 -0.2055  0.1121  0.1876
 5693SOL    HW128715   1.833   2.689   2.033  0.6681  1.2360 -1.6213
 5693SOL    HW228716   1.714   2.769   2.024 -1.3981  1.2063 -3.6487
 5694SOL     OW28717   4.243   4.054   9.859 -0.0742 -0.1174  0.2178
 5694SOL    HW128718   4.307   4.051   9.930  0.5762 -0.6507 -0.3919
 5694SOL    HW228719   4.278   4.100   9.783 -1.6647  1.2893  0.3311
 5695SOL     OW28720   3.252   2.794  13.810 -0.6080 -0.3465 -0.3475
 5695SOL    HW128721   3.302   2.819  13.888  1.1133 -3.0783 -0.5761
 5695SOL    HW228722   3.212   2.710  13.831 -0.4472 -0.0668  1.0928
 5696SOL     OW28723   1.983   2.806   4.714  0.9615  0.1953 -0.5195
 5696SOL    HW128724   2.047   2.798   4.643  0.8171  0.3061 -0.6619
 5696SOL    HW228725   1.910   2.828   4.657 -0.4326  0.7720  1.4871
 5697SOL     OW28726   2.595   0.462   6.295  0.2316  0.0440 -0.2888
 5697SOL    HW128727   2.667   0.485   6.355 -1.5338  1.5840  1.2404
 5697SOL    HW228728   2.558   0.543   6.259 -1.3208 -0.6007 -0.1185
 5698SOL     OW28729   1.879   2.721   0.550 -0.5733  0.0789 -0.3386
 5698SOL    HW128730   1.810   2.754   0.607 -0.4756 -0.8477  0.3110
 5698SOL    HW228731   1.890   2.632   0.584 -1.7972 -0.0809 -0.3738
 5699SOL     OW28732   3.995   2.880  11.062  0.1963  0.1436 -0.1510
 5699SOL    HW128733   3.929   2.900  10.995 -0.5421 -2.3597 -0.2002
 5699SOL    HW228734   3.986   2.785  11.069  0.3870  0.0175 -1.6047
 5700SOL     OW28735   2.608   2.939   6.888 -0.2265  0.1396 -0.3691
 5700SOL    HW128736   2.532   2.967   6.837  1.1170 -0.6913 -2.8093
 5700SOL    HW228737   2.667   2.933   6.813 -0.8294 -2.3061 -0.6490
 5701SOL     OW28738   0.766   1.424  11.126 -0.7321  0.0729  0.1477
 5701SOL    HW128739   0.753   1.392  11.037 -1.6507 -0.6750  0.5542
 5701SOL    HW228740   0.842   1.481  11.114 -0.6939 -0.3415 -1.4552
 5702SOL     OW28741   1.922   3.026   6.034  0.3961 -0.1085  0.4577
 5702SOL    HW128742   1.929   3.110   5.989 -3.1741 -0.7019 -1.2063
 5702SOL    HW228743   1.998   2.975   6.006  1.3422 -0.6750  4.0325
 5703SOL     OW28744   1.995   4.030   4.881  0.3062 -0.1174  0.2793
 5703SOL    HW128745   2.051   4.084   4.937  1.5037 -1.1242  0.0574
 5703SOL    HW228746   1.955   3.976   4.950  0.2896 -0.5436 -0.0632
 5704SOL     OW28747   3.436   0.812   3.102 -0.3512  0.1643 -0.3413
 5704SOL    HW128748   3.386   0.739   3.064  1.8126 -1.0980 -0.7721
 5704SOL    HW228749   3.445   0.872   3.029 -2.5538  0.0928 -0.6701
 5705SOL     OW28750   2.988   4.457   3.228 -0.0500 -0.0281  0.4296
 5705SOL    HW128751   3.074   4.478   3.263  0.5300  1.0153 -1.6430
 5705SOL    HW228752   2.970   4.507   3.148 -2.7449 -0.6841  0.6006
 5706SOL     OW28753   1.371   2.746   2.290  0.3571 -0.4401  0.3038
 5706SOL    HW128754   1.366   2.743   2.195  1.7532 -0.4400  0.2391
 5706SOL    HW228755   1.282   2.777   2.311  0.0253 -0.6100 -0.8641
 5707SOL     OW28756   4.242   4.521   7.331  0.0365 -0.0057  0.4237
 5707SOL    HW128757   4.295   4.461   7.278  0.9209 -0.7180  2.0961
 5707SOL    HW228758   4.266   4.610   7.306  0.4206  0.1416  1.2938
 5708SOL     OW28759   2.880   4.337   4.643  0.4587  0.5717  0.1529
 5708SOL    HW128760   2.906   4.419   4.686  1.3479 -0.3897  1.4366
 5708SOL    HW228761   2.851   4.279   4.714 -2.2181  0.9895 -0.6237
 5709SOL     OW28762   4.653   4.284  16.286  0.2374  0.4076  0.6604
 5709SOL    HW128763   0.005   4.305  16.307  0.7007 -0.6755 -0.2242
 5709SOL    HW228764   4.614   4.367  16.260  0.8133  0.4969  0.0761
 5710SOL     OW28765   4.147   3.048  16.754 -0.3738 -0.5976 -0.0316
 5710SOL    HW128766   4.134   3.142  16.766  0.4122 -0.2174 -2.1449
 5710SOL    HW228767   4.159   3.018  16.844 -0.4973 -0.4015  0.0498
 5711SOL     OW28768   4.583   2.553   2.497 -0.3266 -0.3524 -0.3150
 5711SOL    HW128769   4.563   2.501   2.419 -0.2419  0.8057 -1.1018
 5711SOL    HW228770   4.494   2.580   2.519  0.8062  2.3619  0.8668
 5712SOL     OW28771   0.514   2.757   4.979 -0.6541 -0.5968 -0.0348
 5712SOL    HW128772   0.608   2.775   4.970 -0.5539  0.8748  3.8304
 5712SOL    HW228773   0.496   2.673   4.938  1.1897 -1.2970  0.5707
 5713SOL     OW28774   1.221   3.114   7.346  0.1356  0.0474 -0.5436
 5713SOL    HW128775   1.293   3.053   7.329  0.4169  0.5080 -0.9980
 5713SOL    HW228776   1.268   3.196   7.334 -1.5938  1.3204  1.2419
 5714SOL     OW28777   0.569   0.502   8.220  0.1644  0.3517 -0.1175
 5714SOL    HW128778   0.587   0.414   8.253  0.6014  0.1486 -0.8843
 5714SOL    HW228779   0.656   0.540   8.210  0.6271 -0.5309  0.5157
 5715SOL     OW28780   3.222   3.450  10.515  0.1760  0.2377  0.1830
 5715SOL    HW128781   3.294   3.501  10.477  0.8451 -1.6128 -1.0009
 5715SOL    HW228782   3.215   3.484  10.605 -0.0969 -1.2059  0.6996
 5716SOL     OW28783   3.624   3.226   5.149 -0.0984 -0.5818 -0.7903
 5716SOL    HW128784   3.594   3.317   5.147 -0.2834 -0.5908  0.9400
 5716SOL    HW228785   3.600   3.205   5.059 -0.5224 -2.8268 -0.1581
 5717SOL     OW28786   2.857   0.729   8.848  0.0437  0.4834  0.2065
 5717SOL    HW128787   2.869   0.682   8.765 -5.0331  3.0404 -1.9637
 5717SOL    HW228788   2.856   0.664   8.919  2.9048 -1.3330 -1.4158
 5718SOL     OW28789   2.245   1.582   8.710  0.2829 -0.4463 -0.2432
 5718SOL    HW128790   2.250   1.552   8.619  0.2311  0.7112 -0.6304
 5718SOL    HW228791   2.278   1.509   8.762  1.8947 -0.0182 -0.6666
 5719SOL     OW28792   1.251   1.886   8.810 -0.0212 -0.0048 -0.0984
 5719SOL    HW128793   1.230   1.795   8.788 -0.6291 -0.1634  1.1658
 5719SOL    HW228794   1.162   1.915   8.831 -0.9007 -2.2669 -0.6171
 5720SOL     OW28795   4.083   1.886  15.039  0.2108 -0.5465  0.0560
 5720SOL    HW128796   4.024   1.950  14.997  0.8383  0.1832  0.2919
 5720SOL    HW228797   4.023   1.846  15.102  1.3852 -3.1239 -0.4712
 5721SOL     OW28798   1.895   0.247   7.693 -0.0659 -1.0394  0.6555
 5721SOL    HW128799   1.944   0.176   7.652 -0.9322 -1.0239 -0.3925
 5721SOL    HW228800   1.963   0.315   7.685 -2.7529  1.7577  1.5989
 5722SOL     OW28801   0.890   2.281  12.871  0.0359 -0.4511 -0.5206
 5722SOL    HW128802   0.890   2.229  12.951  3.0307  0.1180 -0.1452
 5722SOL    HW228803   0.803   2.255  12.840  0.2968 -0.2498 -1.4401
 5723SOL     OW28804   3.800   3.177   1.839  0.6255 -0.0223  0.2220
 5723SOL    HW128805   3.720   3.228   1.852  0.9581  0.4123  0.5650
 5723SOL    HW228806   3.872   3.238   1.821  0.3027  0.2430 -0.1631
 5724SOL     OW28807   3.381   0.730  15.793  0.2805  0.0985 -0.9785
 5724SOL    HW128808   3.369   0.636  15.797  1.0582  0.0448  0.1007
 5724SOL    HW228809   3.381   0.746  15.698  1.0363 -0.2404 -1.0373
 5725SOL     OW28810   2.176   3.731   6.113 -0.4621 -0.0805  0.1319
 5725SOL    HW128811   2.140   3.745   6.200 -0.9111 -1.5220  0.1724
 5725SOL    HW228812   2.095   3.711   6.067  1.4537 -0.6955 -2.9532
 5726SOL     OW28813   4.241   2.059   6.333 -0.2249 -0.3045 -0.0586
 5726SOL    HW128814   4.297   2.135   6.317  1.0239 -1.1463  0.2903
 5726SOL    HW228815   4.298   2.003   6.385 -0.7320  1.6396  2.6234
 5727SOL     OW28816   2.659   3.265   8.056 -0.0025 -0.0482  0.1119
 5727SOL    HW128817   2.563   3.258   8.064 -0.0797  0.1541 -0.6250
 5727SOL    HW228818   2.664   3.276   7.961 -3.6762  2.2070  0.1526
 5728SOL     OW28819   2.899   0.419  12.597 -0.3565  0.7812 -0.1501
 5728SOL    HW128820   2.844   0.362  12.542  0.8569  0.5874 -1.1673
 5728SOL    HW228821   2.944   0.360  12.658  0.9337 -0.2861 -2.1182
 5729SOL     OW28822   1.527   2.089  12.574 -0.0016  0.0348 -0.0866
 5729SOL    HW128823   1.514   2.129  12.660 -0.6113  1.8327 -1.0331
 5729SOL    HW228824   1.522   1.994  12.587  0.4407  0.0492  0.1940
 5730SOL     OW28825   3.248   1.705   1.900  0.6785 -0.5544 -0.2456
 5730SOL    HW128826   3.316   1.680   1.963  0.7584  2.4532  0.8412
 5730SOL    HW228827   3.240   1.628   1.844 -0.8056 -1.7387  1.5714
 5731SOL     OW28828   4.194   3.878   1.438 -0.1533 -0.2788 -0.0193
 5731SOL    HW128829   4.265   3.941   1.453  0.3088 -0.7241 -0.3247
 5731SOL    HW228830   4.162   3.905   1.352  0.7171 -0.7841 -0.5109
 5732SOL     OW28831   2.659   1.915   5.678  0.3997  0.1653 -0.8116
 5732SOL    HW128832   2.583   1.864   5.649  1.8601 -2.1876 -0.4977
 5732SOL    HW228833   2.606   1.984   5.719 -0.4026  1.1319 -3.4479
 5733SOL     OW28834   2.305   3.225   5.615 -0.0626  0.6925 -0.0532
 5733SOL    HW128835   2.388   3.266   5.588 -0.1782  0.8439 -0.1757
 5733SOL    HW228836   2.277   3.283   5.685 -3.2966 -2.1656  0.9946
 5734SOL     OW28837   1.093   2.973   5.662 -0.1449 -0.1673  0.0591
 5734SOL    HW128838   1.031   2.938   5.598  1.0933  2.6438 -2.6606
 5734SOL    HW228839   1.163   2.908   5.654 -0.8779 -1.1656  1.7339
 5735SOL     OW28840   3.288   1.750   7.198 -0.1676 -0.3612  0.2760
 5735SOL    HW128841   3.322   1.707   7.120  1.6842  0.0786  0.8462
 5735SOL    HW228842   3.275   1.843   7.180 -3.5373 -0.6127  1.3927
 5736SOL     OW28843   3.740   0.878   8.829 -0.7258 -0.0128 -0.5270
 5736SOL    HW128844   3.695   0.795   8.841  0.3764 -0.3747  1.0047
 5736SOL    HW228845   3.743   0.908   8.738 -2.2567 -0.7526 -0.8207
 5737SOL     OW28846   3.646   4.098  14.509  0.1012  0.1896 -0.2604
 5737SOL    HW128847   3.560   4.096  14.550  0.4990 -0.4971  0.5312
 5737SOL    HW228848   3.669   4.006  14.503 -1.0074 -0.2344  2.0646
 5738SOL     OW28849   1.713   2.818  16.917 -0.6751  0.0429 -0.2607
 5738SOL    HW128850   1.752   2.874  16.984 -0.8858 -1.2275  0.9187
 5738SOL    HW228851   1.701   2.739  16.970  0.4745 -0.6123 -0.9823
 5739SOL     OW28852   3.289   4.279   4.689  0.6821 -0.1841 -0.3709
 5739SOL    HW128853   3.368   4.321   4.725  1.0736  0.0569 -1.5243
 5739SOL    HW228854   3.250   4.352   4.641  0.5107 -0.0126  0.0219
 5740SOL     OW28855   4.424   4.439  13.520  0.6967  0.5641 -0.0122
 5740SOL    HW128856   4.411   4.526  13.557 -2.2405  0.7811 -1.6145
 5740SOL    HW228857   4.504   4.450  13.468  0.6375 -0.2283 -0.2674
 5741SOL     OW28858   0.627   1.740   1.679  0.1996 -0.4310  0.0444
 5741SOL    HW128859   0.635   1.700   1.765 -2.2871 -1.2616 -0.1332
 5741SOL    HW228860   0.662   1.828   1.694  1.4385 -1.0733  0.9087
 5742SOL     OW28861   2.685   1.410  14.625  0.4281  0.0494  0.1137
 5742SOL    HW128862   2.672   1.347  14.696 -2.3659  0.2130 -0.2701
 5742SOL    HW228863   2.726   1.490  14.658 -0.6018  0.2387  0.9000
 5743SOL     OW28864   3.847   1.877   0.331 -0.0372 -0.1780  0.4365
 5743SOL    HW128865   3.824   1.951   0.275  0.0268 -1.6571 -1.5392
 5743SOL    HW228866   3.765   1.849   0.372 -1.5874  1.9990 -1.2089
 5744SOL     OW28867   2.306   0.098   1.825 -0.2596 -0.0906  0.0667
 5744SOL    HW128868   2.363   0.167   1.791 -1.0227 -0.5000 -2.0491
 5744SOL    HW228869   2.337   0.090   1.915  0.4112  2.0549  0.0257
 5745SOL     OW28870   4.031   4.398   5.212  0.1530  0.1061 -0.3197
 5745SOL    HW128871   4.125   4.415   5.203  0.3138 -0.6032  0.0231
 5745SOL    HW228872   3.990   4.446   5.140  0.4750  0.6145 -0.1619
 5746SOL     OW28873   2.102   0.585   4.637  0.9598  0.6842  0.8610
 5746SOL    HW128874   2.087   0.680   4.643  0.7922  0.7859 -1.3841
 5746SOL    HW228875   2.034   0.546   4.693 -0.1126  1.6326  0.2214
 5747SOL     OW28876   1.769   2.714  15.854  0.8670 -0.4800 -0.1721
 5747SOL    HW128877   1.729   2.640  15.810  1.8507 -1.3225  0.3669
 5747SOL    HW228878   1.829   2.737  15.784 -0.5442 -1.8011 -1.8189
 5748SOL     OW28879   0.396   3.118   8.376 -0.1398  0.4848 -0.0771
 5748SOL    HW128880   0.324   3.181   8.366 -0.9110 -0.3572  0.0965
 5748SOL    HW228881   0.464   3.180   8.403  0.0142  0.5204 -0.5510
 5749SOL     OW28882   1.936   3.602   9.178 -0.0223  0.1348 -0.4242
 5749SOL    HW128883   1.972   3.673   9.232 -1.0309 -0.1637  0.6303
 5749SOL    HW228884   1.883   3.565   9.248  0.9145  2.0769  1.3145
 5750SOL     OW28885   0.538   4.088   8.204  0.0706 -0.3075  0.4965
 5750SOL    HW128886   0.619   4.089   8.153 -1.4162 -2.6428 -1.9259
 5750SOL    HW228887   0.515   3.996   8.194 -0.3015 -0.1169 -0.3853
 5751SOL     OW28888   1.288   0.412   6.821  0.1516 -0.0643 -0.2246
 5751SOL    HW128889   1.363   0.448   6.774  0.4302 -1.4960 -0.8740
 5751SOL    HW228890   1.222   0.409   6.752  0.2154  0.9266 -0.3325
 5752SOL     OW28891   4.213   3.205   7.713 -0.2258  0.3572  0.3620
 5752SOL    HW128892   4.219   3.264   7.638 -2.0155 -0.6515 -0.5788
 5752SOL    HW228893   4.127   3.227   7.750 -0.5733 -0.2378 -0.0905
 5753SOL     OW28894   3.761   4.025   7.243  0.3057  0.2919  0.6078
 5753SOL    HW128895   3.780   4.097   7.302 -1.7651  0.8690  0.5450
 5753SOL    HW228896   3.691   3.992   7.299 -0.4355  1.7493  0.5343
 5754SOL     OW28897   1.966   3.594   9.865  0.1908 -0.3585 -0.1992
 5754SOL    HW128898   1.946   3.617   9.774 -0.9134 -0.4667  0.0177
 5754SOL    HW228899   2.060   3.577   9.865  0.2737  0.1092  1.6088
 5755SOL     OW28900   4.628   3.646   0.236 -0.3933  0.5871 -0.0203
 5755SOL    HW128901   4.572   3.614   0.165 -0.8923  1.6776 -0.1181
 5755SOL    HW228902   4.703   3.675   0.185 -0.8977  0.1675 -0.9981
 5756SOL     OW28903   3.823   1.635   6.314 -0.1060 -0.4141  0.1741
 5756SOL    HW128904   3.882   1.566   6.343  0.3633 -0.5601 -1.1064
 5756SOL    HW228905   3.841   1.641   6.220 -0.6080 -3.3223 -0.0937
 5757SOL     OW28906   4.163   3.025  10.218  0.0941 -0.1838 -0.2296
 5757SOL    HW128907   4.255   3.010  10.239 -0.2298  1.2082  2.2249
 5757SOL    HW228908   4.160   2.954  10.154 -0.5874 -0.9367  0.6367
 5758SOL     OW28909   3.588   1.679   1.099 -0.4047 -0.3557 -0.2812
 5758SOL    HW128910   3.603   1.690   1.005  0.9917  1.4120  0.1640
 5758SOL    HW228911   3.593   1.774   1.112 -0.1118 -0.4317  0.1334
 5759SOL     OW28912   1.420   2.627   7.462  0.3524 -0.5664 -0.1619
 5759SOL    HW128913   1.503   2.656   7.500  0.5017 -0.8860 -0.2453
 5759SOL    HW228914   1.370   2.606   7.541  0.2029 -0.3533 -0.1994
 5760SOL     OW28915   4.011   0.019   9.605 -0.3961 -0.3863 -0.1469
 5760SOL    HW128916   4.090   0.071   9.623 -0.8529 -0.7207  2.8969
 5760SOL    HW228917   3.979   0.018   9.696 -0.3650 -1.9782 -0.1411
 5761SOL     OW28918   3.646   2.962   3.171  0.3312  0.1191  0.0429
 5761SOL    HW128919   3.553   2.960   3.196 -0.2971 -0.1118 -2.3311
 5761SOL    HW228920   3.677   3.013   3.246  2.0814  0.1933 -0.7297
 5762SOL     OW28921   2.134   2.220   7.221  0.6215  0.1913 -0.3122
 5762SOL    HW128922   2.226   2.226   7.197  0.7297  2.6903  0.7231
 5762SOL    HW228923   2.124   2.126   7.204 -0.1559  0.1241  0.4864
 5763SOL     OW28924   1.941   4.656  12.779  0.2608  0.2199  0.3165
 5763SOL    HW128925   1.956   0.012  12.789  0.5944  0.1558  0.4392
 5763SOL    HW228926   1.871   4.642  12.843  0.4312  0.3561  0.5316
 5764SOL     OW28927   1.621   4.215   4.865 -0.5458 -0.2800  0.2379
 5764SOL    HW128928   1.712   4.245   4.870 -0.3851 -0.9603  1.3285
 5764SOL    HW228929   1.629   4.146   4.799  3.7226  0.1266  0.2968
 5765SOL     OW28930   2.870   0.421   3.505 -1.1508 -0.0072 -0.5371
 5765SOL    HW128931   2.871   0.470   3.587  0.2357 -2.1420  0.7373
 5765SOL    HW228932   2.845   0.334   3.536 -2.4072  0.7336  0.5153
 5766SOL     OW28933   2.053   2.407   1.974 -0.3477  0.0324  0.1811
 5766SOL    HW128934   2.023   2.388   1.886  1.3949  0.0233 -0.4128
 5766SOL    HW228935   1.989   2.362   2.029 -0.7689  0.6008  0.1516
 5767SOL     OW28936   2.917   0.939   0.176  0.4772 -0.0567 -0.2130
 5767SOL    HW128937   2.846   0.890   0.218 -0.2774 -0.8001 -2.3552
 5767SOL    HW228938   2.934   1.017   0.229 -0.2412 -0.0907  0.0728
 5768SOL     OW28939   2.407   3.594   6.915 -0.2974 -0.3470 -0.0828
 5768SOL    HW128940   2.478   3.629   6.862  0.0274 -0.9697 -0.0560
 5768SOL    HW228941   2.365   3.532   6.856  0.6431 -2.4790  1.5034
 5769SOL     OW28942   0.891   1.675   1.393 -0.1216 -0.3786 -0.0186
 5769SOL    HW128943   0.947   1.668   1.471  1.1810  2.7791 -0.6891
 5769SOL    HW228944   0.806   1.643   1.422 -0.1915 -0.0241  0.1684
 5770SOL     OW28945   0.534   2.993   4.788  0.4990  0.8509 -0.3795
 5770SOL    HW128946   0.538   2.978   4.693  0.6165 -1.3077 -0.0262
 5770SOL    HW228947   0.521   2.910   4.834  0.6221  1.2371  0.3581
 5771SOL     OW28948   3.686   2.624   2.832 -0.1210 -0.2287  0.3579
 5771SOL    HW128949   3.764   2.666   2.869 -1.1228  1.5786  0.4010
 5771SOL    HW228950   3.669   2.687   2.762 -2.5240  0.3359  1.4524
 5772SOL     OW28951   3.681   2.702   4.230  0.3009 -0.3357 -0.1892
 5772SOL    HW128952   3.720   2.719   4.316  0.2235  3.5861 -0.9123
 5772SOL    HW228953   3.753   2.724   4.171  1.5871 -1.3307  0.9980
 5773SOL     OW28954   0.230   2.582  14.467 -0.0145  0.2920  0.4724
 5773SOL    HW128955   0.151   2.577  14.413  0.4058 -0.5425 -0.0645
 5773SOL    HW228956   0.200   2.527  14.539 -1.9734 -0.0999 -0.6321
 5774SOL     OW28957   2.501   0.341   7.305  0.7549 -0.0130  0.0335
 5774SOL    HW128958   2.582   0.345   7.356  1.4816 -2.4337 -0.9086
 5774SOL    HW228959   2.436   0.318   7.371  2.5571 -0.3044  1.7113
 5775SOL     OW28960   2.964   4.358  15.186 -0.6526  0.0921 -0.5912
 5775SOL    HW128961   3.044   4.411  15.182 -0.6201  0.2368  2.3596
 5775SOL    HW228962   2.898   4.421  15.215 -0.7422  0.5300 -1.7539
 5776SOL     OW28963   4.593   1.231   0.812  0.2167 -0.4204  0.6566
 5776SOL    HW128964   4.546   1.149   0.797 -1.7873  0.5537  1.6487
 5776SOL    HW228965   4.610   1.262   0.723  1.1951  0.4195  1.1325
 5777SOL     OW28966   4.099   0.989   8.560 -0.5111  0.2398  0.1381
 5777SOL    HW128967   4.088   1.009   8.653  1.5791  2.6855 -0.1441
 5777SOL    HW228968   4.195   0.995   8.558 -0.6943  3.1489 -0.4322
 5778SOL     OW28969   0.787   0.616   7.867 -0.0781 -0.2981  0.7508
 5778SOL    HW128970   0.745   0.568   7.796 -0.4048  1.8253 -0.4797
 5778SOL    HW228971   0.880   0.617   7.847  0.2103 -0.9514  2.0281
 5779SOL     OW28972   3.655   1.127   5.903 -0.3707  0.5707  0.4006
 5779SOL    HW128973   3.605   1.124   5.985  0.5188 -0.1086  0.9222
 5779SOL    HW228974   3.605   1.188   5.849 -1.3198 -0.1033  0.5291
 5780SOL     OW28975   4.585   4.653   3.396 -0.5392 -0.2510  0.1790
 5780SOL    HW128976   4.654   4.719   3.388  0.4071 -1.4629 -1.6075
 5780SOL    HW228977   4.624   4.595   3.462 -1.2797 -1.6168 -0.5968
 5781SOL     OW28978   0.345   0.448   1.736 -0.5193 -0.0086  0.5050
 5781SOL    HW128979   0.424   0.501   1.749 -0.8496  1.0165 -1.8057
 5781SOL    HW228980   0.320   0.444   1.829  1.9547  0.3514  1.1769
 5782SOL     OW28981   2.389   0.983   9.401  0.0439  0.6209  0.4395
 5782SOL    HW128982   2.330   1.019   9.467 -1.3608  3.5144 -2.3491
 5782SOL    HW228983   2.428   0.908   9.445 -0.2916  0.8761  1.1568
 5783SOL     OW28984   0.115   1.023   2.774  0.1846  0.1273  0.4608
 5783SOL    HW128985   0.032   1.055   2.738 -0.3046 -2.7347 -0.9880
 5783SOL    HW228986   0.176   1.038   2.701  0.1262  0.2874  0.4442
 5784SOL     OW28987   3.590   2.232   7.634  0.1291 -0.2066  0.5064
 5784SOL    HW128988   3.513   2.262   7.683 -0.9638 -0.0323 -1.3084
 5784SOL    HW228989   3.604   2.303   7.572  2.0917 -1.8425 -0.9232
 5785SOL     OW28990   0.877   1.228   6.496  0.2186 -0.3656 -0.2262
 5785SOL    HW128991   0.964   1.201   6.525 -0.1078 -0.6970  0.4191
 5785SOL    HW228992   0.858   1.287   6.569  0.0281  0.8774 -1.2702
 5786SOL     OW28993   4.483   2.741   4.993 -0.3844 -0.6139  0.2084
 5786SOL    HW128994   4.527   2.732   4.908 -1.5203  0.3650 -0.4754
 5786SOL    HW228995   4.551   2.767   5.056  0.2826 -1.7194 -0.0640
 5787SOL     OW28996   4.582   0.419   7.355  0.0933 -0.1254  0.7449
 5787SOL    HW128997   4.603   0.492   7.414 -0.4625  0.8508 -0.2792
 5787SOL    HW228998   4.629   0.447   7.277 -1.9475 -0.4623 -0.5947
 5788SOL     OW28999   2.970   0.023   2.950 -0.6542 -0.1935 -0.1407
 5788SOL    HW129000   3.062   0.044   2.967 -0.5056 -0.4255 -0.6364
 5788SOL    HW229001   2.936   0.110   2.968 -2.1855 -1.0232  0.9833
 5789SOL     OW29002   4.573   0.672   7.786  0.1067  0.4151 -0.2074
 5789SOL    HW129003   4.498   0.639   7.835  2.4986 -1.6964  2.0304
 5789SOL    HW229004   4.601   0.745   7.841  0.2819 -0.0107  0.2696
 5790SOL     OW29005   0.061   0.897   9.442 -0.2909 -0.1577  0.4033
 5790SOL    HW129006   0.005   0.951   9.387 -1.9949 -0.0438  2.2311
 5790SOL    HW229007   0.149   0.925   9.419 -0.3667  0.5402  0.9384
 5791SOL     OW29008   0.167   1.491  17.081  0.4802 -0.5714 -0.3404
 5791SOL    HW129009   0.161   1.541  16.999  0.3300  2.2768  1.4214
 5791SOL    HW229010   0.261   1.474  17.093  0.5778 -0.4354 -0.8865
 5792SOL     OW29011   1.200   0.853   6.199  0.2592 -0.1130  0.0292
 5792SOL    HW129012   1.122   0.813   6.162 -1.8033 -0.7453  5.0151
 5792SOL    HW229013   1.216   0.919   6.131  0.3161  2.4193  2.5103
 5793SOL     OW29014   1.392   3.480   6.186  0.2766 -0.1515  0.4248
 5793SOL    HW129015   1.330   3.451   6.253 -0.7390  1.5698  0.2316
 5793SOL    HW229016   1.446   3.547   6.228  1.7608 -1.2456  0.2517
 5794SOL     OW29017   3.237   2.445   7.299  0.6125  0.0327  0.0152
 5794SOL    HW129018   3.142   2.452   7.296  0.5041 -1.5867 -0.3550
 5794SOL    HW229019   3.245   2.453   7.394 -1.3815  1.3165  0.0592
 5795SOL     OW29020   3.445   4.047   0.970  0.5343  0.1621  0.4730
 5795SOL    HW129021   3.438   4.134   0.933 -0.0608 -0.1862 -0.2365
 5795SOL    HW229022   3.397   3.986   0.914 -1.2088  1.4691  0.5498
 5796SOL     OW29023   2.936   3.828  10.890  0.1717 -0.6737  0.3511
 5796SOL    HW129024   2.963   3.910  10.849 -2.8477  0.1871  0.1123
 5796SOL    HW229025   2.868   3.802  10.828 -1.7030  2.2792  1.1752
 5797SOL     OW29026   3.566   2.243   0.230 -0.0516 -0.1420 -0.0939
 5797SOL    HW129027   3.543   2.327   0.190  2.1155 -0.5667 -2.2621
 5797SOL    HW229028   3.485   2.196   0.211  0.2381 -2.2446  4.0325
 5798SOL     OW29029   2.075   4.304   7.358  0.0357  0.3327  0.5441
 5798SOL    HW129030   2.112   4.339   7.439 -1.4348  2.6282  0.2003
 5798SOL    HW229031   2.074   4.380   7.300  2.0924 -0.1872 -0.2107
 5799SOL     OW29032   0.823   4.066   7.779  0.0332  0.4436  0.5778
 5799SOL    HW129033   0.759   3.996   7.792  0.3615  0.0624  0.1198
 5799SOL    HW229034   0.866   4.062   7.865 -1.4817 -2.1982  1.2336
 5800SOL     OW29035   4.710   0.893   0.600 -0.0213 -0.1980  0.5096
 5800SOL    HW129036   0.034   0.949   0.646  1.0906 -1.5844  0.6912
 5800SOL    HW229037   4.711   0.818   0.659  1.1861  0.9042  1.8941
 5801SOL     OW29038   1.683   0.712   1.592 -0.0442 -0.5144 -0.4556
 5801SOL    HW129039   1.740   0.777   1.634  0.3942 -0.7320 -0.7159
 5801SOL    HW229040   1.680   0.742   1.501  0.2151 -0.6879 -0.5220
 5802SOL     OW29041   3.142   0.508   5.794 -0.1356  0.0138 -0.0760
 5802SOL    HW129042   3.051   0.480   5.808 -0.2219 -0.5124 -1.6347
 5802SOL    HW229043   3.138   0.531   5.701 -1.4222  0.5738  0.1007
 5803SOL     OW29044   3.843   0.834   0.353 -0.3760  0.3277  0.1949
 5803SOL    HW129045   3.796   0.767   0.304 -0.8333  1.0496 -0.3424
 5803SOL    HW229046   3.788   0.912   0.348  1.0221  1.3001 -0.0901
 5804SOL     OW29047   4.164   4.579   8.492 -0.1362  0.8957 -0.3127
 5804SOL    HW129048   4.121   4.521   8.555  0.4281  0.1957 -0.5755
 5804SOL    HW229049   4.129   4.664   8.520 -0.5921  0.7860 -0.5414
 5805SOL     OW29050   0.738   2.891  16.757  0.1502  0.2549  0.0035
 5805SOL    HW129051   0.766   2.896  16.848 -2.1729  2.0244  0.6167
 5805SOL    HW229052   0.788   2.964  16.721 -0.7684  0.9607  0.1593
 5806SOL     OW29053   4.597   0.480  13.845  0.2200 -0.1305  0.1190
 5806SOL    HW129054   4.545   0.546  13.800  1.4703 -0.7526 -2.2295
 5806SOL    HW229055   4.547   0.400  13.831 -1.4689  1.0320 -0.4931
 5807SOL     OW29056   4.203   4.352   6.497  0.0378  0.1466 -0.4996
 5807SOL    HW129057   4.224   4.377   6.408 -1.2675 -0.2250 -0.9096
 5807SOL    HW229058   4.279   4.380   6.549  1.1131 -0.2051 -1.8841
 5808SOL     OW29059   0.685   0.866   2.259  0.3354 -0.4050  0.9365
 5808SOL    HW129060   0.651   0.937   2.204 -1.4258 -0.3760  2.0681
 5808SOL    HW229061   0.776   0.852   2.233 -0.1671 -0.6891 -0.6732
 5809SOL     OW29062   2.197   2.340  16.084  0.0956  0.1761 -0.1209
 5809SOL    HW129063   2.264   2.278  16.054  0.3741 -0.0286  0.8919
 5809SOL    HW229064   2.189   2.385  16.001 -0.4339  0.2202 -0.0457
 5810SOL     OW29065   2.466   1.292   6.698  0.0834  0.5398  0.2946
 5810SOL    HW129066   2.505   1.379   6.705 -1.3239  0.9719  2.7565
 5810SOL    HW229067   2.520   1.244   6.761 -3.4035  0.9562  3.5843
 5811SOL     OW29068   1.216   2.073  12.805 -0.3230  0.2102  0.4797
 5811SOL    HW129069   1.303   2.100  12.835 -0.7564  3.1748 -0.9264
 5811SOL    HW229070   1.174   2.026  12.878  0.4119  0.3437  0.9844
 5812SOL     OW29071   2.342   1.991   3.040  0.0580  0.5727  0.0647
 5812SOL    HW129072   2.387   2.009   2.957  0.1989  2.1146  0.4698
 5812SOL    HW229073   2.397   1.919   3.072 -1.1046 -1.1026 -1.6879
 5813SOL     OW29074   2.997   4.189  10.405 -0.3439  0.0854 -0.0141
 5813SOL    HW129075   2.977   4.114  10.462  0.6862  0.6466  1.0834
 5813SOL    HW229076   2.954   4.254  10.460 -1.2674 -0.1980 -0.3984
 5814SOL     OW29077   0.944   2.935   5.984 -0.5032  0.3251  0.2465
 5814SOL    HW129078   0.967   3.021   5.948  0.1695 -0.1958 -0.5734
 5814SOL    HW229079   0.905   2.960   6.067 -0.4415  1.2770 -0.0128
 5815SOL     OW29080   4.406   2.335  16.575  0.2111  0.3908 -0.1760
 5815SOL    HW129081   4.349   2.287  16.515 -2.5365  1.7045  1.4401
 5815SOL    HW229082   4.489   2.309  16.533 -0.1797  1.8133 -1.8301
 5816SOL     OW29083   3.346   1.984   5.821  0.0086 -0.1580  0.4358
 5816SOL    HW129084   3.366   1.926   5.747  2.5025  1.7522 -0.3593
 5816SOL    HW229085   3.269   1.939   5.856 -0.5411  0.3681 -0.1049
 5817SOL     OW29086   2.585   0.610   6.012  0.0577  0.3973 -0.4625
 5817SOL    HW129087   2.520   0.680   6.008 -2.6854 -2.0994  1.3097
 5817SOL    HW229088   2.644   0.643   6.080  0.4511 -0.7812 -0.2401
 5818SOL     OW29089   1.683   2.074  11.695  0.1846 -0.3387 -0.0885
 5818SOL    HW129090   1.615   2.131  11.658  0.4924 -0.7207 -1.2361
 5818SOL    HW229091   1.642   2.040  11.775  0.9060 -0.9296  0.0194
 5819SOL     OW29092   0.474   3.895   1.592  0.5297 -0.3430 -0.6096
 5819SOL    HW129093   0.424   3.932   1.665  1.9299  1.3622 -0.5016
 5819SOL    HW229094   0.441   3.805   1.590  1.0114 -0.5649  2.0311
 5820SOL     OW29095   1.675   2.875  13.741 -0.2416 -0.8463 -0.1627
 5820SOL    HW129096   1.674   2.971  13.745  0.4955 -0.8806  0.9971
 5820SOL    HW229097   1.696   2.854  13.832  0.9106 -2.9459 -0.9074
 5821SOL     OW29098   1.370   3.986   8.740  0.5275  0.5204  0.6909
 5821SOL    HW129099   1.456   3.947   8.759 -0.2361 -1.3133  0.3386
 5821SOL    HW229100   1.400   4.073   8.766  0.7697  0.9998 -1.2077
 5822SOL     OW29101   3.418   4.362   6.860 -0.3908 -0.0417  0.3346
 5822SOL    HW129102   3.331   4.392   6.884  0.4529  0.8693  2.3147
 5822SOL    HW229103   3.460   4.350   6.945 -0.2166 -1.9963 -0.0380
 5823SOL     OW29104   0.166   0.921   5.148 -0.1490 -0.1600 -0.2350
 5823SOL    HW129105   0.234   0.987   5.132 -0.2873  0.1115  0.3035
 5823SOL    HW229106   0.186   0.841   5.100 -0.7322 -0.4330 -0.0163
 5824SOL     OW29107   2.489   4.511   1.732  0.3529 -0.2031 -0.0072
 5824SOL    HW129108   2.559   4.535   1.671  0.6971  0.9928  0.8623
 5824SOL    HW229109   2.451   4.593   1.765 -0.1585 -0.7319  0.7156
 5825SOL     OW29110   3.612   1.487   2.042 -0.0730 -0.3640  0.0293
 5825SOL    HW129111   3.553   1.501   1.967  0.5184 -0.3181 -0.4271
 5825SOL    HW229112   3.587   1.400   2.071 -0.0914  0.0245  1.1819
 5826SOL     OW29113   0.350   0.729   5.354  0.0287 -0.3339  0.0372
 5826SOL    HW129114   0.372   0.766   5.439 -0.8103  0.1623  0.0399
 5826SOL    HW229115   0.401   0.781   5.293  1.1518  0.0261  1.2940
 5827SOL     OW29116   0.761   0.291   6.652  0.6789 -0.0364  0.2458
 5827SOL    HW129117   0.840   0.237   6.663  0.0246 -0.9225  0.6027
 5827SOL    HW229118   0.795   0.371   6.691 -0.7344  1.0593 -0.8047
 5828SOL     OW29119   2.349   1.733   4.644 -0.5721 -0.2479  0.5986
 5828SOL    HW129120   2.354   1.826   4.665  0.2627  0.1789 -1.5353
 5828SOL    HW229121   2.359   1.734   4.549 -1.9558  1.4762  0.4688
 5829SOL     OW29122   3.847   3.595   9.865  0.0619  0.5621 -0.1280
 5829SOL    HW129123   3.928   3.582   9.815 -0.1827  0.2426 -0.4448
 5829SOL    HW229124   3.859   3.685   9.897 -0.1787  1.0710 -1.4687
 5830SOL     OW29125   1.834   4.168   1.803 -0.3577 -0.1161  0.2797
 5830SOL    HW129126   1.816   4.186   1.711 -0.6717 -1.0169  0.1671
 5830SOL    HW229127   1.752   4.122   1.820 -0.8166  0.6039  0.0239
 5831SOL     OW29128   4.220   0.660  14.725 -0.0995  0.0528 -0.1096
 5831SOL    HW129129   4.204   0.755  14.721  1.0833  0.3506  2.2535
 5831SOL    HW229130   4.148   0.632  14.781 -1.4134  1.6238 -0.9971
 5832SOL     OW29131   0.308   1.221   7.925  0.7349  0.2008  0.0814
 5832SOL    HW129132   0.398   1.222   7.891  1.5028  1.3303  2.1569
 5832SOL    HW229133   0.287   1.128   7.922 -0.1070  0.3736  0.8348
 5833SOL     OW29134   1.691   3.309  17.392 -0.1271 -0.4718  0.0142
 5833SOL    HW129135   1.735   3.354  17.320  0.6296 -2.4814 -0.7820
 5833SOL    HW229136   1.612   3.275  17.351 -0.6643  1.3258 -0.4361
 5834SOL     OW29137   2.396   0.534  15.393 -0.0330 -0.2147  0.0131
 5834SOL    HW129138   2.469   0.534  15.454  0.5346  2.0483 -0.6671
 5834SOL    HW229139   2.440   0.572  15.317 -0.5773 -0.4747 -0.4310
 5835SOL     OW29140   0.751   1.824   3.176  0.2026 -0.0961  0.2855
 5835SOL    HW129141   0.812   1.819   3.103  0.4567  0.1655  0.4798
 5835SOL    HW229142   0.765   1.741   3.221  0.4441  0.8531  1.9765
 5836SOL     OW29143   1.378   3.785   3.440  0.2738 -0.1929  0.0814
 5836SOL    HW129144   1.338   3.724   3.502  1.9997 -1.9178 -0.5106
 5836SOL    HW229145   1.334   3.869   3.452 -1.2199 -0.7659 -1.2728
 5837SOL     OW29146   0.695   2.661  10.354  0.0348  0.1859  0.3923
 5837SOL    HW129147   0.705   2.744  10.402 -1.5423  0.2542  0.6038
 5837SOL    HW229148   0.764   2.663  10.288  0.2381  3.4556  0.6939
 5838SOL     OW29149   2.157   3.539  16.707 -0.3974  0.0072 -0.0993
 5838SOL    HW129150   2.196   3.455  16.681 -0.8675 -0.7720  1.6636
 5838SOL    HW229151   2.131   3.567  16.620  1.1917  1.3695 -0.1306
 5839SOL     OW29152   2.239   1.184   6.603  0.1761 -1.0496  0.1842
 5839SOL    HW129153   2.325   1.221   6.624  0.3827 -0.2763 -2.0358
 5839SOL    HW229154   2.183   1.260   6.621 -1.8740 -1.2209 -5.3523
 5840SOL     OW29155   2.786   0.109   9.063  0.0453  0.2063  0.1913
 5840SOL    HW129156   2.827   0.044   9.006  3.3522  3.4911 -1.1931
 5840SOL    HW229157   2.857   0.122   9.125  0.6232 -1.7620 -0.0468
 5841SOL     OW29158   0.103   1.600   4.011 -0.6801  0.7785 -0.3905
 5841SOL    HW129159   0.040   1.531   3.989 -1.0259  0.7566  0.6304
 5841SOL    HW229160   0.093   1.588   4.106  0.8494 -0.2843 -0.3573
 5842SOL     OW29161   0.964   2.142   5.020  0.5260  0.3930 -0.0680
 5842SOL    HW129162   1.058   2.132   5.030  0.5956 -0.0111 -1.1266
 5842SOL    HW229163   0.951   2.151   5.115  1.9614  2.9772 -0.1119
 5843SOL     OW29164   4.703   1.036  11.902 -0.3037  0.2177  0.1898
 5843SOL    HW129165   0.034   0.975  11.877  0.5945  1.5490 -0.5882
 5843SOL    HW229166   4.629   0.975  11.904 -1.2912  1.4515  1.3169
 5844SOL     OW29167   1.681   1.208  15.277 -0.0395  0.2989  0.2200
 5844SOL    HW129168   1.593   1.173  15.265  0.4421 -0.7695 -0.2114
 5844SOL    HW229169   1.682   1.290  15.228 -0.9144  1.5235  2.2783
 5845SOL     OW29170   2.914   0.167   2.682  0.5050 -0.2414 -0.2416
 5845SOL    HW129171   2.934   0.240   2.741  1.8099  0.2014 -1.2397
 5845SOL    HW229172   3.001   0.133   2.664  0.4707 -0.7887  0.6084
 5846SOL     OW29173   0.119   4.250   8.031 -0.5802  0.2540 -0.0226
 5846SOL    HW129174   0.179   4.267   8.103  0.0524 -3.1692  0.2723
 5846SOL    HW229175   0.064   4.180   8.068 -0.2146  0.6558  1.2791
 5847SOL     OW29176   2.213   0.554   1.748  0.3886 -0.1957  0.0256
 5847SOL    HW129177   2.249   0.638   1.720  0.7243  0.7073  3.1571
 5847SOL    HW229178   2.249   0.507   1.673 -0.3747 -0.5807 -0.0996
 5848SOL     OW29179   4.379   4.140   8.241  0.1324 -0.1354  0.3791
 5848SOL    HW129180   4.431   4.060   8.232  1.2382  0.6027  0.1859
 5848SOL    HW229181   4.389   4.157   8.335 -0.2127  0.6000  0.2833
 5849SOL     OW29182   4.681   1.112   3.579  0.2548  0.3537  0.5730
 5849SOL    HW129183   4.738   1.179   3.541  2.0213 -1.5085 -0.0159
 5849SOL    HW229184   4.601   1.118   3.526  0.2572 -1.9243  0.3501
 5850SOL     OW29185   4.582   3.707   2.496  0.1678 -0.6159 -0.7829
 5850SOL    HW129186   4.609   3.648   2.567 -1.1467 -0.6830 -0.3425
 5850SOL    HW229187   4.487   3.708   2.512  0.3407  0.8613  0.0814
 5851SOL     OW29188   1.004   4.021   9.967  0.3657  0.3743  0.0444
 5851SOL    HW129189   0.935   4.083   9.947  1.5448  1.3265 -1.0579
 5851SOL    HW229190   1.027   4.054  10.054  0.7483 -1.1912  0.5443
 5852SOL     OW29191   2.273   0.796   9.110  0.0218 -0.4783 -0.4522
 5852SOL    HW129192   2.213   0.871   9.116  0.4158 -0.0489 -1.9584
 5852SOL    HW229193   2.228   0.739   9.173 -0.5741  1.0844  0.5569
 5853SOL     OW29194   3.798   0.927   6.789 -0.4894  0.1038 -0.3477
 5853SOL    HW129195   3.779   0.872   6.865  1.3442  0.0345  0.0511
 5853SOL    HW229196   3.841   0.995   6.839  0.0926 -0.9693  0.5965
 5854SOL     OW29197   3.552   1.469   3.684  0.1310 -0.2441  0.8984
 5854SOL    HW129198   3.635   1.434   3.652 -0.3981 -0.3990 -0.3112
 5854SOL    HW229199   3.530   1.399   3.746  1.8030 -0.4667  1.2427
 5855SOL     OW29200   2.996   1.597   3.961 -0.0759  0.3867 -0.0914
 5855SOL    HW129201   2.934   1.544   4.012  0.4483 -1.4010 -1.3338
 5855SOL    HW229202   2.955   1.683   3.957 -1.8317 -0.3737  1.0997
 5856SOL     OW29203   2.946   2.163   6.719  0.2130 -0.2092 -0.1395
 5856SOL    HW129204   2.888   2.090   6.741  1.2659 -0.8743  0.4493
 5856SOL    HW229205   2.965   2.197   6.806  0.2308 -0.7543  0.0681
 5857SOL     OW29206   4.463   3.627  11.528  0.6467 -0.2317 -0.0352
 5857SOL    HW129207   4.395   3.595  11.469 -1.5330  1.1679  1.7335
 5857SOL    HW229208   4.467   3.720  11.508 -1.8478  0.6490  3.6185
 5858SOL     OW29209   4.099   2.336   3.544 -0.2616 -0.2639  0.7359
 5858SOL    HW129210   4.008   2.325   3.572 -0.3546  1.1952  1.0120
 5858SOL    HW229211   4.115   2.430   3.534 -1.0414 -0.2434 -0.3215
 5859SOL     OW29212   2.042   3.124   9.257  0.3553  0.2861  0.0575
 5859SOL    HW129213   2.081   3.190   9.314 -1.9539  0.1047  1.8270
 5859SOL    HW229214   2.112   3.128   9.192  0.2368  3.1062  0.1194
 5860SOL     OW29215   3.394   2.887   5.631  0.3960  0.7001 -0.3781
 5860SOL    HW129216   3.483   2.888   5.668  0.3645  0.5270 -0.2956
 5860SOL    HW229217   3.413   2.923   5.545 -0.2094 -0.2460 -0.9074
 5861SOL     OW29218   0.081   1.232  12.025  0.4201  0.5549 -0.3081
 5861SOL    HW129219   0.166   1.211  11.986  0.1578  2.1938 -1.7910
 5861SOL    HW229220   0.034   1.149  12.009 -0.7057  1.0916  0.2019
 5862SOL     OW29221   2.358   1.587   1.730  0.0436  0.1464 -0.2810
 5862SOL    HW129222   2.322   1.515   1.782 -1.1359 -1.2592 -3.0267
 5862SOL    HW229223   2.362   1.548   1.642  2.3670 -1.0089  0.3448
 5863SOL     OW29224   3.535   1.481   8.271  0.3283  0.2742  0.2536
 5863SOL    HW129225   3.517   1.400   8.222 -1.8582  1.0233 -0.1621
 5863SOL    HW229226   3.466   1.472   8.337 -0.7276  1.0133 -0.7613
 5864SOL     OW29227   1.371   3.289  14.278 -0.1009  0.0417  0.1551
 5864SOL    HW129228   1.416   3.216  14.236  0.6666  1.7629 -2.0415
 5864SOL    HW229229   1.378   3.349  14.203 -2.3875  0.1503  0.0196
 5865SOL     OW29230   0.673   1.179   9.616 -0.2687  0.5190 -0.6315
 5865SOL    HW129231   0.608   1.140   9.675 -1.5335  0.8140 -1.8300
 5865SOL    HW229232   0.736   1.109   9.600  0.1604  0.6887  0.2873
 5866SOL     OW29233   0.805   3.953   5.507  0.4884  0.1976  0.0378
 5866SOL    HW129234   0.777   3.886   5.445 -1.1842 -1.0670  2.1220
 5866SOL    HW229235   0.773   4.035   5.467 -0.7584 -0.0534  0.5097
 5867SOL     OW29236   2.342   2.264   8.720  0.3080  0.1947  0.2893
 5867SOL    HW129237   2.328   2.275   8.626  2.4534  0.9430  0.0582
 5867SOL    HW229238   2.424   2.311   8.731  0.5207 -0.2886  0.8057
 5868SOL     OW29239   1.685   4.002   7.531  0.4654  0.3128  0.0125
 5868SOL    HW129240   1.700   3.914   7.497 -0.8196 -0.7766  2.2636
 5868SOL    HW229241   1.720   4.055   7.459  1.0210 -2.1120 -1.4942
 5869SOL     OW29242   0.318   3.092  13.042  0.4634 -0.0967  0.4082
 5869SOL    HW129243   0.384   3.046  13.093 -0.8967  2.0106  4.0732
 5869SOL    HW229244   0.275   3.023  12.992  0.2363  1.7282 -1.9551
 5870SOL     OW29245   3.350   3.653   6.071  0.9104 -0.0090  0.1101
 5870SOL    HW129246   3.387   3.593   6.136 -0.2427  0.4062  1.1614
 5870SOL    HW229247   3.259   3.655   6.101  1.5400  2.0833  1.8707
 5871SOL     OW29248   3.563   3.827  15.637  0.6347 -0.6167  0.3402
 5871SOL    HW129249   3.526   3.913  15.656  3.8674  1.0634 -1.0287
 5871SOL    HW229250   3.652   3.858  15.622  0.6148 -0.7146  0.0137
 5872SOL     OW29251   2.567   4.081   4.325  0.1256 -0.2738 -0.4054
 5872SOL    HW129252   2.644   4.129   4.357  0.5369 -1.2610  0.0642
 5872SOL    HW229253   2.503   4.152   4.323 -0.1386 -0.5161 -0.3616
 5873SOL     OW29254   3.626   1.657   1.431  0.5982  0.7115  0.0331
 5873SOL    HW129255   3.637   1.563   1.447 -0.6911  0.3783 -0.9897
 5873SOL    HW229256   3.532   1.662   1.410  0.8029  0.7994 -0.8561
 5874SOL     OW29257   4.171   3.961  15.294  0.4181  0.1252  0.1453
 5874SOL    HW129258   4.221   4.003  15.363 -1.0053  1.2160  0.5115
 5874SOL    HW229259   4.219   3.879  15.280  1.4497  0.6194  0.8143
 5875SOL     OW29260   2.898   4.090   2.823  0.2259 -0.1042 -0.5477
 5875SOL    HW129261   2.842   4.014   2.808 -0.3169  0.5905 -2.1150
 5875SOL    HW229262   2.908   4.090   2.918 -1.7762  2.1249 -0.3496
 5876SOL     OW29263   3.407   3.240   8.184 -0.1717  0.3008  0.5918
 5876SOL    HW129264   3.462   3.318   8.178  0.4462 -0.1224  0.7703
 5876SOL    HW229265   3.333   3.266   8.238 -0.3804  0.8659  0.0364
 5877SOL     OW29266   4.185   1.634   6.207  0.0396 -0.8831  0.2122
 5877SOL    HW129267   4.258   1.680   6.166 -0.6323  0.7639  0.8505
 5877SOL    HW229268   4.121   1.628   6.135  1.8191 -0.8397 -1.3718
 5878SOL     OW29269   4.646   4.145  16.037  0.1511 -0.1169 -0.6057
 5878SOL    HW129270   4.637   4.153  16.132  0.1932 -1.3714 -0.5012
 5878SOL    HW229271   4.563   4.103  16.015 -0.8791  0.2913  2.4791
 5879SOL     OW29272   0.888   1.858  14.372  0.1266  0.4793  0.3364
 5879SOL    HW129273   0.844   1.842  14.455  0.1438  1.2367  0.4944
 5879SOL    HW229274   0.980   1.868  14.395  0.3829 -0.3418 -0.3427
 5880SOL     OW29275   0.988   1.481   2.639  0.0033 -0.4506 -0.0064
 5880SOL    HW129276   1.032   1.421   2.579  0.3761 -2.6558  2.4788
 5880SOL    HW229277   1.057   1.501   2.703  1.2504  2.1608 -2.1405
 5881SOL     OW29278   1.013   0.430   4.337 -0.0451  0.6750 -0.1400
 5881SOL    HW129279   0.940   0.480   4.375 -0.2861  2.8676 -3.4996
 5881SOL    HW229280   1.018   0.456   4.246 -0.8683 -1.2183 -0.7236
 5882SOL     OW29281   1.999   4.425  13.400  0.0283  0.2491  0.6800
 5882SOL    HW129282   1.968   4.516  13.407 -0.5097  0.3531 -2.8735
 5882SOL    HW229283   1.971   4.400  13.312 -0.5002 -2.8928  1.7532
 5883SOL     OW29284   2.887   3.224   9.449 -0.4208 -0.0541  0.1845
 5883SOL    HW129285   2.954   3.221   9.381  0.7796  1.0658  1.3213
 5883SOL    HW229286   2.845   3.137   9.449 -0.8411  0.1466  0.5067
 5884SOL     OW29287   0.642   1.687   9.384 -0.3311  0.1603  0.2153
 5884SOL    HW129288   0.682   1.632   9.451 -1.6869  1.9524  2.5150
 5884SOL    HW229289   0.712   1.747   9.358  0.3529 -0.0207  1.6034
 5885SOL     OW29290   2.472   1.522   7.773  0.1368  0.3426  0.1147
 5885SOL    HW129291   2.538   1.523   7.842  1.3068  1.7295 -1.0169
 5885SOL    HW229292   2.443   1.613   7.779  0.7760  0.6980 -2.0314
 5886SOL     OW29293   1.859   1.427   7.211  0.1876  0.6879  0.0001
 5886SOL    HW129294   1.938   1.474   7.238  0.3991  0.3572 -0.0382
 5886SOL    HW229295   1.870   1.355   7.274  0.7385  0.1324 -0.7267
 5887SOL     OW29296   1.436   2.804   9.787 -0.3741  0.3531 -0.0678
 5887SOL    HW129297   1.527   2.800   9.758 -1.1146 -1.6136 -2.1546
 5887SOL    HW229298   1.399   2.742   9.724 -1.3309  0.3523  0.4967
 5888SOL     OW29299   3.630   0.502  14.357 -0.3812 -0.0036 -0.4537
 5888SOL    HW129300   3.549   0.542  14.326 -1.4032  0.3545  2.5960
 5888SOL    HW229301   3.689   0.513  14.282 -1.8481  0.1533 -1.5713
 5889SOL     OW29302   1.285   2.510  12.474  0.7918  0.0399  0.2559
 5889SOL    HW129303   1.315   2.578  12.413 -1.1428 -0.5583 -1.3393
 5889SOL    HW229304   1.322   2.430  12.437  1.8994  0.3794  0.6046
 5890SOL     OW29305   0.331   1.114   6.372  0.8947  0.0343  0.2416
 5890SOL    HW129306   0.254   1.131   6.427  0.0056 -0.1896 -0.9282
 5890SOL    HW229307   0.388   1.067   6.432 -0.0088 -0.8836  0.3666
 5891SOL     OW29308   4.051   3.129   1.563 -0.3658 -0.2668 -0.1843
 5891SOL    HW129309   4.099   3.201   1.522  1.1487 -1.5105 -0.5784
 5891SOL    HW229310   3.990   3.189   1.607 -1.0095 -1.1191  0.0825
 5892SOL     OW29311   3.873   2.677   7.016  0.7638  0.2594  0.1423
 5892SOL    HW129312   3.964   2.699   7.034  0.3799  1.8468  0.1758
 5892SOL    HW229313   3.874   2.662   6.922  0.1434 -2.3869  0.5385
 5893SOL     OW29314   1.747   3.860   6.395 -0.2058  0.2090  1.0093
 5893SOL    HW129315   1.718   3.791   6.336  0.3668 -0.3132  1.3397
 5893SOL    HW229316   1.667   3.909   6.416 -1.7774 -2.0894  0.4261
 5894SOL     OW29317   1.728   2.902   5.838  0.8717  0.0027 -0.0859
 5894SOL    HW129318   1.700   2.990   5.864 -0.0307 -0.7433  1.4463
 5894SOL    HW229319   1.737   2.920   5.745 -0.5983 -2.8289 -0.7561
 5895SOL     OW29320   4.360   3.790   6.925  0.1813  0.2365 -0.0529
 5895SOL    HW129321   4.402   3.847   6.861  1.3773 -1.4432 -0.7335
 5895SOL    HW229322   4.305   3.728   6.877 -1.0783 -1.4617  3.6004
 5896SOL     OW29323   0.654   1.577   1.468 -0.5866  0.6665  0.4778
 5896SOL    HW129324   0.647   1.641   1.538 -0.0828 -0.3214  1.4279
 5896SOL    HW229325   0.621   1.498   1.510 -0.9682  0.4840 -0.1606
 5897SOL     OW29326   3.005   4.150   5.374  0.8679  0.5920  0.1495
 5897SOL    HW129327   3.092   4.135   5.338 -0.1116  1.5040 -2.5472
 5897SOL    HW229328   3.025   4.214   5.443 -2.4185  2.1731 -0.3672
 5898SOL     OW29329   2.191   2.750   2.316 -0.0261 -0.8428  0.3848
 5898SOL    HW129330   2.241   2.674   2.346 -0.6145 -1.4051 -0.0781
 5898SOL    HW229331   2.241   2.767   2.236  0.0918  0.2535  0.6848
 5899SOL     OW29332   4.161   1.104   0.730 -0.0325  0.1448  0.0170
 5899SOL    HW129333   4.067   1.085   0.721  0.0293  0.2926 -0.9328
 5899SOL    HW229334   4.150   1.199   0.732  0.3550  0.2168 -0.9516
 5900SOL     OW29335   2.528   3.436   9.756  0.3528 -0.6193 -0.0831
 5900SOL    HW129336   2.607   3.445   9.703 -0.9929 -2.5989 -2.3998
 5900SOL    HW229337   2.495   3.354   9.720  1.3680 -0.4717 -1.3599
 5901SOL     OW29338   1.974   3.742   8.703 -0.4847 -0.0685  0.2785
 5901SOL    HW129339   1.920   3.684   8.649  1.6329 -2.1445  0.3967
 5901SOL    HW229340   1.939   3.828   8.679 -0.8282 -0.2710  0.0375
 5902SOL     OW29341   0.813   3.865   3.733  0.6155  0.3679  1.1990
 5902SOL    HW129342   0.901   3.851   3.767  0.2762 -3.6668  0.5071
 5902SOL    HW229343   0.826   3.888   3.641  0.5959  0.5618  1.2464
 5903SOL     OW29344   4.665   0.311   4.302  0.1222  0.4328 -0.6137
 5903SOL    HW129345   4.636   0.356   4.382  0.3817 -1.7874  0.7171
 5903SOL    HW229346   4.638   0.371   4.233  1.8596  0.3093 -1.4025
 5904SOL     OW29347   3.437   2.434   8.554 -0.4673  0.5181  0.4452
 5904SOL    HW129348   3.415   2.481   8.634 -0.3232  1.4715 -0.0812
 5904SOL    HW229349   3.532   2.425   8.564 -0.6489 -0.8376  1.0822
 5905SOL     OW29350   0.237   0.989  16.183 -0.3607  0.1325 -0.0652
 5905SOL    HW129351   0.192   0.905  16.186  1.7308 -0.9408  0.5749
 5905SOL    HW229352   0.218   1.032  16.267 -1.9463 -0.6220 -0.0382
 5906SOL     OW29353   0.939   0.641   5.068 -0.0877 -0.6388 -0.3651
 5906SOL    HW129354   0.954   0.664   5.160 -0.4098 -1.4375 -0.1135
 5906SOL    HW229355   0.848   0.667   5.056  0.3452  0.6664 -0.8280
 5907SOL     OW29356   1.723   3.138   2.429 -0.2726 -0.3771  0.7655
 5907SOL    HW129357   1.653   3.202   2.438  0.3151  0.7390 -2.4582
 5907SOL    HW229358   1.680   3.053   2.425 -1.7238  0.4257 -0.6615
 5908SOL     OW29359   2.709   1.611   4.538 -0.2192 -0.5962  0.0106
 5908SOL    HW129360   2.772   1.543   4.560 -0.2218  0.2522  2.6579
 5908SOL    HW229361   2.760   1.685   4.572 -0.6787 -0.0372 -0.4993
 5909SOL     OW29362   1.616   3.058  10.626  0.4906  0.4340  0.3492
 5909SOL    HW129363   1.694   3.018  10.666  0.4286 -0.3535 -0.3033
 5909SOL    HW229364   1.547   3.008  10.669  0.2694  1.3369  1.0390
 5910SOL     OW29365   2.892   0.994   7.023  0.5547  0.2779  0.3159
 5910SOL    HW129366   2.874   1.010   6.930 -1.6495 -2.6801  0.2385
 5910SOL    HW229367   2.903   0.899   7.014 -0.7299  0.0295  1.2970
 5911SOL     OW29368   0.383   3.706   2.746  0.3689  0.2454 -0.2180
 5911SOL    HW129369   0.408   3.729   2.835 -2.4778  0.6094  0.4680
 5911SOL    HW229370   0.350   3.616   2.752 -0.0999  0.4417  0.0679
 5912SOL     OW29371   4.281   0.910   4.087 -0.9677  0.2891  0.0714
 5912SOL    HW129372   4.211   0.973   4.069 -0.7012  0.3997 -0.5917
 5912SOL    HW229373   4.310   0.886   3.999  0.7359  1.3119  0.3590
 5913SOL     OW29374   1.868   2.859   2.321  0.2550 -0.5755 -0.0529
 5913SOL    HW129375   1.822   2.874   2.238 -0.0183  0.7844  0.3456
 5913SOL    HW229376   1.925   2.935   2.326 -1.3794  0.4573  2.8041
 5914SOL     OW29377   4.230   4.017  14.707 -0.3773  0.1095  0.1295
 5914SOL    HW129378   4.187   4.099  14.683 -0.5578 -1.2399 -4.1531
 5914SOL    HW229379   4.314   4.035  14.666  0.3937  0.7332  1.9624
 5915SOL     OW29380   1.040   2.465   2.206  0.6581 -0.6386 -0.4416
 5915SOL    HW129381   0.948   2.441   2.217  0.4733 -0.4415 -1.5655
 5915SOL    HW229382   1.045   2.478   2.112 -1.7587 -0.1284 -0.4850
 5916SOL     OW29383   0.980   3.370   5.388 -0.3066 -0.9814  0.1504
 5916SOL    HW129384   0.911   3.343   5.327  2.5777  0.4915 -3.7812
 5916SOL    HW229385   1.046   3.306   5.361 -0.3712  0.1289 -2.6562
 5917SOL     OW29386   0.377   0.855   5.592  0.2575 -0.4719 -0.2080
 5917SOL    HW129387   0.379   0.944   5.627 -0.7835 -0.2331 -0.7440
 5917SOL    HW229388   0.339   0.810   5.668 -1.8421 -0.3358 -1.1710
 5918SOL     OW29389   1.187   2.376   3.563  0.0326  0.7271  0.0303
 5918SOL    HW129390   1.099   2.361   3.597  0.3909  0.7870  0.9928
 5918SOL    HW229391   1.182   2.337   3.476 -0.6909  0.8802  0.0039
 5919SOL     OW29392   2.212   1.641   9.632  0.5325 -0.1424  0.0597
 5919SOL    HW129393   2.245   1.600   9.552 -1.8971 -1.5477 -0.2472
 5919SOL    HW229394   2.153   1.569   9.657  0.6088 -0.6345 -1.1859
 5920SOL     OW29395   1.415   2.292  12.398 -0.3205 -0.6978  0.1707
 5920SOL    HW129396   1.462   2.235  12.459  0.8326  0.5585  0.4574
 5920SOL    HW229397   1.441   2.255  12.314  2.2672  1.0115  0.2235
 5921SOL     OW29398   0.629   2.850   1.418 -0.0639  0.2190  0.2122
 5921SOL    HW129399   0.651   2.892   1.501  0.2432 -1.7093  1.1128
 5921SOL    HW229400   0.596   2.922   1.364 -5.1954 -2.5063 -0.3354
 5922SOL     OW29401   3.693   0.451   1.331  0.1801  0.0706  0.0770
 5922SOL    HW129402   3.739   0.368   1.342 -1.4619 -1.0582 -1.5921
 5922SOL    HW229403   3.663   0.445   1.240 -0.1388  1.9796  0.0457
 5923SOL     OW29404   4.580   0.199  11.690 -0.4450 -0.3195  0.2268
 5923SOL    HW129405   4.598   0.105  11.701 -0.7948 -0.1800  2.1106
 5923SOL    HW229406   4.486   0.203  11.704 -0.4392  1.4781 -0.2472
 5924SOL     OW29407   1.664   0.642   4.191 -0.0576 -0.5671  0.5720
 5924SOL    HW129408   1.704   0.594   4.118 -2.7985 -1.3764 -0.3949
 5924SOL    HW229409   1.727   0.634   4.263  1.1843 -0.1502 -0.4576
 5925SOL     OW29410   4.095   1.519   6.857  0.0525 -0.3398 -0.2582
 5925SOL    HW129411   4.030   1.552   6.918  0.5565 -0.0194  0.1050
 5925SOL    HW229412   4.065   1.552   6.773 -1.2065  0.1020  0.3747
 5926SOL     OW29413   2.968   0.872  14.526 -0.5719 -0.2869  0.0459
 5926SOL    HW129414   2.937   0.786  14.557  1.5870 -1.1213 -0.1528
 5926SOL    HW229415   2.888   0.924  14.527  0.7161  1.7020 -1.7781
 5927SOL     OW29416   4.612   0.348   7.697  0.5393 -0.6354 -0.0124
 5927SOL    HW129417   4.606   0.337   7.792  1.6153  2.8575  0.4803
 5927SOL    HW229418   4.669   0.426   7.700  1.0024 -0.9499 -0.5658
 5928SOL     OW29419   1.177   2.359   8.779  0.1809  0.0762  0.1389
 5928SOL    HW129420   1.206   2.329   8.692  0.0737 -1.6282  0.6807
 5928SOL    HW229421   1.251   2.329   8.832  0.4429 -0.0511 -0.3018
 5929SOL     OW29422   2.186   2.765   4.523  0.5447  0.3313 -0.3733
 5929SOL    HW129423   2.245   2.839   4.534  1.8554 -0.7970  0.1072
 5929SOL    HW229424   2.185   2.753   4.428 -1.3013 -1.6301 -0.1093
 5930SOL     OW29425   0.639   1.952   0.709  0.4572 -0.5562 -0.0460
 5930SOL    HW129426   0.643   1.881   0.645  4.3950 -1.3727  1.1241
 5930SOL    HW229427   0.665   2.022   0.649  0.6976 -2.1044 -1.7625
 5931SOL     OW29428   3.449   1.567   8.837 -0.3991 -0.2523 -0.1841
 5931SOL    HW129429   3.529   1.609   8.805  0.5240 -1.0576  1.0500
 5931SOL    HW229430   3.385   1.604   8.776 -0.7951 -1.7231 -0.6472
 5932SOL     OW29431   3.399   2.095   5.256 -0.4884  0.3043  0.0873
 5932SOL    HW129432   3.385   2.027   5.189 -2.8835 -1.6059  2.5578
 5932SOL    HW229433   3.308   2.120   5.268 -0.7189  0.1759 -1.3826
 5933SOL     OW29434   1.249   2.288   8.534  0.1348  1.0301 -0.3015
 5933SOL    HW129435   1.314   2.231   8.494 -0.2827 -0.8607  1.6819
 5933SOL    HW229436   1.173   2.231   8.532 -0.3230  1.6570 -1.0530
 5934SOL     OW29437   0.979   3.079   2.926 -0.1956 -0.5501  0.0538
 5934SOL    HW129438   1.068   3.066   2.958 -0.4977  1.1378  1.5403
 5934SOL    HW229439   0.944   3.140   2.990 -0.7160 -0.9631  0.1718
 5935SOL     OW29440   0.275   2.863   5.371  0.3231 -0.4606  0.0368
 5935SOL    HW129441   0.347   2.825   5.421 -0.0177 -0.3178  0.6406
 5935SOL    HW229442   0.285   2.829   5.282 -0.9917  3.0179 -1.4238
 5936SOL     OW29443   0.409   1.620   7.234  0.0939  0.1782 -0.3892
 5936SOL    HW129444   0.335   1.670   7.199  0.5019  0.0371 -1.4726
 5936SOL    HW229445   0.393   1.625   7.328 -0.2433 -0.8220 -0.3909
 5937SOL     OW29446   1.053   0.949   5.955  0.0228  0.4140 -0.5499
 5937SOL    HW129447   0.964   0.958   5.988 -0.8402  1.8595 -3.2497
 5937SOL    HW229448   1.062   1.031   5.906 -0.3635  0.6193 -0.2804
 5938SOL     OW29449   3.861   1.357   0.173  0.0135 -0.4757  0.2660
 5938SOL    HW129450   3.839   1.388   0.085 -3.4159 -1.7521  0.6744
 5938SOL    HW229451   3.784   1.301   0.179 -0.6300 -0.0624 -3.8037
 5939SOL     OW29452   0.588   2.474   2.461 -0.8399  0.2099 -0.4396
 5939SOL    HW129453   0.520   2.442   2.520  1.5355 -2.4964  0.8487
 5939SOL    HW229454   0.609   2.557   2.504  1.3593  0.0779 -1.2356
 5940SOL     OW29455   0.940   1.245   2.953  0.5222  0.0102  0.0740
 5940SOL    HW129456   0.942   1.150   2.963  0.5480  0.0785  0.7878
 5940SOL    HW229457   1.030   1.269   2.975  0.6751  1.1504 -1.8010
 5941SOL     OW29458   4.369   1.961   5.263 -0.1108  0.0152 -0.3365
 5941SOL    HW129459   4.392   1.895   5.328  0.1577  0.8252  0.3868
 5941SOL    HW229460   4.297   1.919   5.216 -0.3551 -0.0977  0.1466
 5942SOL     OW29461   0.410   0.040   6.965  0.0012 -0.4448 -0.1443
 5942SOL    HW129462   0.475   0.061   6.898 -1.0397  0.3313 -0.9066
 5942SOL    HW229463   0.467   4.712   7.005  3.0634  1.0060 -2.1449
 5943SOL     OW29464   1.349   3.700   3.819 -0.4413  0.4251 -0.2009
 5943SOL    HW129465   1.347   3.625   3.879 -0.6806  0.0761 -0.6487
 5943SOL    HW229466   1.411   3.665   3.755  0.0257  0.3726  0.2755
 5944SOL     OW29467   2.793   1.554  17.157  0.4131  0.3054  0.2955
 5944SOL    HW129468   2.703   1.523  17.157  0.0040  1.4237 -1.6873
 5944SOL    HW229469   2.835   1.500  17.090 -2.0907  0.4125 -1.3812
 5945SOL     OW29470   3.871   3.097   5.039  0.4257 -0.0561 -0.7223
 5945SOL    HW129471   3.809   3.160   5.075 -1.2653 -0.8282 -2.3031
 5945SOL    HW229472   3.821   3.057   4.968 -0.2702  0.6922 -0.6639
 5946SOL     OW29473   0.320   2.316  16.335  0.1417  0.5201 -0.4164
 5946SOL    HW129474   0.239   2.360  16.364 -1.7567 -3.3772  0.2587
 5946SOL    HW229475   0.344   2.263  16.411 -0.3699  1.8140  0.6500
 5947SOL     OW29476   1.547   2.351   3.024  0.0848  0.3594  0.1495
 5947SOL    HW129477   1.452   2.343   3.015  0.2079  0.0008 -0.8470
 5947SOL    HW229478   1.579   2.364   2.935  0.8808  0.8356  0.5103
 5948SOL     OW29479   3.591   1.585   4.808 -0.0456  0.7397  0.3283
 5948SOL    HW129480   3.521   1.623   4.755 -0.4569 -1.3471 -0.6495
 5948SOL    HW229481   3.603   1.497   4.772  1.0795  1.8376 -1.9639
 5949SOL     OW29482   2.933   3.034   2.805 -0.1972  0.3206  0.2934
 5949SOL    HW129483   2.858   3.048   2.746 -0.9432 -0.6317  1.0214
 5949SOL    HW229484   2.986   2.972   2.755 -0.3932  0.0155  0.4649
 5950SOL     OW29485   1.024   1.584  14.162  0.2242 -0.0240  0.0798
 5950SOL    HW129486   1.111   1.586  14.203 -0.6187 -0.3204  1.8732
 5950SOL    HW229487   1.047   1.535  14.083 -1.9339  1.8073 -1.6599
 5951SOL     OW29488   3.959   3.624   3.916  0.2580  0.1860  0.0319
 5951SOL    HW129489   3.874   3.632   3.958  1.6727  2.5431  2.4783
 5951SOL    HW229490   4.019   3.648   3.986  1.6817 -0.0579 -1.1044
 5952SOL     OW29491   2.256   3.249   6.080 -0.1309  0.2332 -0.1356
 5952SOL    HW129492   2.217   3.162   6.078 -0.5237  0.3471  3.8280
 5952SOL    HW229493   2.349   3.237   6.061 -0.2621 -0.7342 -0.1838
 5953SOL     OW29494   4.224   1.677   1.753  0.2356 -0.1663 -0.0390
 5953SOL    HW129495   4.240   1.609   1.818 -2.4608 -1.6235 -0.8963
 5953SOL    HW229496   4.281   1.746   1.787 -0.9737  0.5294  0.5898
 5954SOL     OW29497   3.800   1.329   6.529  0.2873 -0.3203  0.2605
 5954SOL    HW129498   3.890   1.343   6.502  0.3285 -2.8091 -0.8976
 5954SOL    HW229499   3.804   1.235   6.515 -0.6426 -0.4525  0.8793
 5955SOL     OW29500   3.009   4.477   4.327 -0.3482 -0.1031 -0.4567
 5955SOL    HW129501   2.941   4.441   4.385 -0.4193  2.2118  0.9041
 5955SOL    HW229502   2.954   4.537   4.277  1.9826  0.8792 -1.8253
 5956SOL     OW29503   3.132   3.946   3.481  0.0949 -0.0679 -0.1532
 5956SOL    HW129504   3.094   3.909   3.401  3.4458 -2.8298 -0.4713
 5956SOL    HW229505   3.074   3.908   3.547 -1.6372  0.1794 -1.5133
 5957SOL     OW29506   0.820   1.834   0.873  0.8603  0.1042 -0.5024
 5957SOL    HW129507   0.794   1.837   0.965 -0.1209  2.3032 -0.8604
 5957SOL    HW229508   0.757   1.889   0.827  0.6846  0.2221 -0.1213
 5958SOL     OW29509   0.672   2.817   1.807  1.1506  0.5458 -0.2330
 5958SOL    HW129510   0.659   2.893   1.864 -0.0285 -1.8926  2.7141
 5958SOL    HW229511   0.717   2.760   1.869 -1.4996  0.5159  1.6615
 5959SOL     OW29512   0.034   0.769   7.148 -0.4026  0.0270 -0.4043
 5959SOL    HW129513   0.071   0.787   7.062 -1.8466 -0.6058 -1.1634
 5959SOL    HW229514   0.112   0.772   7.203 -0.7896 -1.9194  0.2521
 5960SOL     OW29515   3.743   4.242   2.956 -0.1115 -0.1182  0.1766
 5960SOL    HW129516   3.650   4.264   2.945  0.1065  1.0471  0.6071
 5960SOL    HW229517   3.745   4.164   2.901 -0.2770 -0.0804  0.1158
 5961SOL     OW29518   2.636   0.885   6.992  0.3004  0.2396 -0.2350
 5961SOL    HW129519   2.712   0.838   6.958  0.2734  1.2033 -1.6139
 5961SOL    HW229520   2.560   0.828   6.979  0.0873  0.1084  1.6955
 5962SOL     OW29521   2.836   3.156   7.826  0.0100 -0.5904  0.4549
 5962SOL    HW129522   2.873   3.080   7.871  1.5421 -1.1391 -1.6776
 5962SOL    HW229523   2.745   3.129   7.820  0.0182 -0.6811  0.7650
 5963SOL     OW29524   3.702   0.557   8.590 -0.1728  0.0333  0.0646
 5963SOL    HW129525   3.760   0.626   8.557  0.4503 -0.5150  0.0258
 5963SOL    HW229526   3.729   0.550   8.681  0.2574  0.0107 -0.0681
 5964SOL     OW29527   0.621   3.672   3.736 -0.3931 -0.1656  0.4792
 5964SOL    HW129528   0.554   3.729   3.775  0.4875  0.1414  1.5281
 5964SOL    HW229529   0.700   3.724   3.725 -0.2326 -0.6626 -0.7163
 5965SOL     OW29530   0.713   0.507   9.765 -0.4193  0.4152  0.4550
 5965SOL    HW129531   0.698   0.602   9.762  0.9242  0.5832 -0.7221
 5965SOL    HW229532   0.707   0.490   9.671 -1.7887  0.2574  0.5693
 5966SOL     OW29533   2.756   3.128  10.408  0.0455 -0.8182 -0.0028
 5966SOL    HW129534   2.850   3.127  10.390  0.2266 -0.3327  0.9482
 5966SOL    HW229535   2.713   3.127  10.322 -1.0253  0.1278  0.5178
 5967SOL     OW29536   0.794   1.795   7.853 -0.4006  0.2696  0.5286
 5967SOL    HW129537   0.882   1.804   7.816  0.2928 -0.7845  1.9018
 5967SOL    HW229538   0.801   1.733   7.927  0.6861  1.2022  1.2067
 5968SOL     OW29539   2.795   0.888   4.540  0.3933 -0.8282  0.6590
 5968SOL    HW129540   2.814   0.898   4.447 -0.5046 -2.0813  0.3416
 5968SOL    HW229541   2.712   0.840   4.539  0.1132 -0.3381  0.4873
 5969SOL     OW29542   3.012   2.132  11.928  0.0940 -0.2731  0.0889
 5969SOL    HW129543   2.986   2.124  12.020  0.4174  0.7478  0.2749
 5969SOL    HW229544   2.956   2.064  11.891 -0.5966 -0.0989  0.8234
 5970SOL     OW29545   1.292   2.222   4.075 -0.3772  0.0599 -0.1721
 5970SOL    HW129546   1.375   2.269   4.067 -0.6913  0.5279 -0.6603
 5970SOL    HW229547   1.309   2.179   4.158 -1.6343 -0.7349 -0.3248
 5971SOL     OW29548   2.182   4.466  11.648  0.0335  0.2813 -0.3793
 5971SOL    HW129549   2.214   4.476  11.558  0.0156 -0.5132 -0.4759
 5971SOL    HW229550   2.102   4.414  11.636 -1.2534  1.1589  4.3647
 5972SOL     OW29551   2.442   1.367  11.893  0.1559  0.2206  0.4438
 5972SOL    HW129552   2.395   1.449  11.875 -1.1644 -0.5724  0.3594
 5972SOL    HW229553   2.455   1.380  11.987 -1.3897  0.9711  0.5533
 5973SOL     OW29554   2.623   3.771   5.638  0.1444 -0.7003  0.7659
 5973SOL    HW129555   2.554   3.835   5.623  0.9501 -0.4053 -1.7731
 5973SOL    HW229556   2.707   3.817   5.632 -0.3244 -0.2528 -2.6763
 5974SOL     OW29557   0.321   3.970   8.967  0.0724  0.3079  0.3316
 5974SOL    HW129558   0.416   3.966   8.959  0.0272 -1.1385  0.5893
 5974SOL    HW229559   0.295   3.913   9.039  0.5222 -0.6817 -0.2790
 5975SOL     OW29560   0.672   1.374  12.923  0.3166 -0.7067  0.0716
 5975SOL    HW129561   0.650   1.376  13.016  1.3342  0.9738  0.2654
 5975SOL    HW229562   0.641   1.286  12.901  0.4882 -0.3618 -1.5220
 5976SOL     OW29563   1.353   3.396   4.785  0.0463  0.0535  0.6393
 5976SOL    HW129564   1.307   3.479   4.797 -0.2591 -0.1188  0.6814
 5976SOL    HW229565   1.300   3.343   4.845 -1.3700  1.0769  0.2975
 5977SOL     OW29566   0.578   1.156  13.076 -0.3075  0.1547  0.0763
 5977SOL    HW129567   0.670   1.129  13.063 -1.3962 -2.6492 -1.9824
 5977SOL    HW229568   0.580   1.158  13.171  2.4431 -0.3913  0.0457
 5978SOL     OW29569   2.637   3.340   0.793 -0.6321 -0.4032  0.0486
 5978SOL    HW129570   2.698   3.299   0.854 -0.3112 -1.3531 -0.9033
 5978SOL    HW229571   2.556   3.333   0.844 -0.3333  0.0309  0.5847
 5979SOL     OW29572   1.861   3.850   5.004  0.1538 -0.3767  0.0287
 5979SOL    HW129573   1.839   3.813   4.918 -0.9758  2.2798 -0.8496
 5979SOL    HW229574   1.778   3.847   5.053  0.2778  1.2008  0.3478
 5980SOL     OW29575   1.631   2.481   8.488  0.2168  0.0664 -0.7806
 5980SOL    HW129576   1.571   2.513   8.420  2.1518  0.2742 -2.4108
 5980SOL    HW229577   1.612   2.389   8.502  1.5917 -0.2454 -0.9662
 5981SOL     OW29578   0.684   2.171   7.670 -0.2994 -0.1645 -0.6317
 5981SOL    HW129579   0.672   2.101   7.605 -0.4051 -0.9996  0.2878
 5981SOL    HW229580   0.663   2.130   7.753  0.4942 -1.7680 -1.2154
 5982SOL     OW29581   0.759   1.735  14.574  0.2625  0.0820 -0.1063
 5982SOL    HW129582   0.672   1.773  14.586  0.7745  0.9000  1.0013
 5982SOL    HW229583   0.762   1.668  14.643 -2.1762  0.5876  0.4968
 5983SOL     OW29584   1.629   2.101  14.053  0.2547  0.1432  1.2070
 5983SOL    HW129585   1.572   2.030  14.022  0.9935 -0.0267  0.2367
 5983SOL    HW229586   1.611   2.151  13.973  0.6316  1.3544  1.8878
 5984SOL     OW29587   0.070   3.446   5.140 -0.6345  0.3364 -0.4111
 5984SOL    HW129588   0.113   3.417   5.059 -0.6840 -0.3677 -0.1898
 5984SOL    HW229589   4.726   3.397   5.139 -0.2033 -0.4089 -0.0639
 5985SOL     OW29590   1.986   0.329   5.345 -0.0903 -0.1708  0.7712
 5985SOL    HW129591   1.913   0.314   5.406 -0.1870 -0.1899  0.6491
 5985SOL    HW229592   2.022   0.411   5.381 -1.0921  0.1365  1.0737
 5986SOL     OW29593   0.713   2.005   7.146 -0.4666  0.5866  0.2541
 5986SOL    HW129594   0.806   2.011   7.124 -0.1557  0.7779  1.6254
 5986SOL    HW229595   0.692   2.098   7.140 -1.4142  0.4214  0.9379
 5987SOL     OW29596   2.441   3.151   2.541 -0.3492  0.4719  0.3618
 5987SOL    HW129597   2.476   3.108   2.618 -0.1685  1.1003  0.6327
 5987SOL    HW229598   2.352   3.169   2.574 -0.1642  1.4253  0.3468
 5988SOL     OW29599   0.520   0.373   4.515 -0.8049  0.3985 -0.3443
 5988SOL    HW129600   0.538   0.464   4.540 -1.9254  0.8956 -1.3703
 5988SOL    HW229601   0.425   0.368   4.505 -0.9304 -0.1689  1.1298
 5989SOL     OW29602   3.518   1.956  10.219 -0.5393 -0.1271  1.0554
 5989SOL    HW129603   3.504   1.941  10.126  1.4427  1.0727  0.5780
 5989SOL    HW229604   3.568   1.879  10.246  0.5651 -1.5860 -5.1960
 5990SOL     OW29605   3.269   4.705   0.321 -0.3941  0.2284  0.4174
 5990SOL    HW129606   3.238   4.738   0.406  2.1124  1.9318  0.6824
 5990SOL    HW229607   3.252   0.038   0.259  1.4509  0.3542  0.0677
 5991SOL     OW29608   0.501   3.884   7.074  0.1578 -0.2087 -0.1861
 5991SOL    HW129609   0.524   3.798   7.039  1.4017  0.9744 -2.2679
 5991SOL    HW229610   0.560   3.880   7.150 -1.9045 -1.5607  1.3504
 5992SOL     OW29611   4.470   2.663   3.154  0.5174  0.6691  0.2461
 5992SOL    HW129612   4.565   2.659   3.138  0.5834  1.0854  0.5367
 5992SOL    HW229613   4.437   2.621   3.074 -0.0768 -1.7698  1.7837
 5993SOL     OW29614   3.879   0.556   2.795  0.1001 -0.3104  0.1000
 5993SOL    HW129615   3.906   0.591   2.879  0.5706  0.6572 -0.4487
 5993SOL    HW229616   3.920   0.471   2.809 -1.0705 -0.8222  0.4151
 5994SOL     OW29617   2.679   3.610   1.788  0.7883 -0.4143  0.0453
 5994SOL    HW129618   2.621   3.624   1.713  0.4552  1.5099  0.6730
 5994SOL    HW229619   2.741   3.543   1.758  0.6183 -1.0393  1.0994
 5995SOL     OW29620   2.058   0.433   9.428 -0.0306 -0.3944 -0.0984
 5995SOL    HW129621   2.150   0.406   9.420 -0.2002 -0.4805 -1.7818
 5995SOL    HW229622   2.046   0.444   9.523 -0.4155 -0.5357 -0.1308
 5996SOL     OW29623   3.488   0.980  10.981 -1.0141  0.4524 -0.4063
 5996SOL    HW129624   3.485   1.024  11.066  1.3041 -0.7201  0.2782
 5996SOL    HW229625   3.435   0.901  10.993  1.1455 -1.0281 -0.6887
 5997SOL     OW29626   1.206   4.019   3.485 -0.0837  0.0253 -0.4665
 5997SOL    HW129627   1.197   4.083   3.555  2.6122 -0.7227  0.5619
 5997SOL    HW229628   1.191   4.079   3.411  0.6659  3.9309  2.5435
 5998SOL     OW29629   2.601   1.206   8.188 -0.4592 -0.0398 -0.4082
 5998SOL    HW129630   2.585   1.113   8.205 -0.7853  0.5592  2.6649
 5998SOL    HW229631   2.659   1.204   8.112 -1.0525 -0.7970 -0.8419
 5999SOL     OW29632   2.124   4.030   2.177 -0.2353 -0.1747  0.2757
 5999SOL    HW129633   2.183   4.087   2.227 -0.7974  0.4213  0.2594
 5999SOL    HW229634   2.191   4.001   2.115 -1.7331  1.3026 -2.0263
 6000SOL     OW29635   0.741   2.303   0.839 -0.4982 -0.3643 -0.5980
 6000SOL    HW129636   0.812   2.316   0.777  0.9057 -1.3361  0.7887
 6000SOL    HW229637   0.671   2.325   0.778 -0.6509  1.5176  0.2582
 6001SOL     OW29638   1.755   2.374  16.393  0.6345 -0.0870  0.5107
 6001SOL    HW129639   1.762   2.459  16.436  0.8398 -0.2000  0.6976
 6001SOL    HW229640   1.821   2.390  16.326 -1.8786 -0.3948 -2.0440
 6002SOL     OW29641   2.534   2.616   4.281  0.1877  0.0601 -0.0678
 6002SOL    HW129642   2.556   2.668   4.204 -1.3002 -1.4299 -1.4950
 6002SOL    HW229643   2.597   2.653   4.343 -0.2972  0.6066  0.1010
 6003SOL     OW29644   4.720   1.894   7.520  0.3754  0.0111 -0.3815
 6003SOL    HW129645   4.686   1.840   7.591  1.3820 -0.0779  0.0378
 6003SOL    HW229646   0.054   1.931   7.571  0.1916 -2.4652  1.6345
 6004SOL     OW29647   2.868   3.116   6.251 -0.4422  0.2812 -0.3896
 6004SOL    HW129648   2.945   3.064   6.228  0.5780  0.8718  1.6561
 6004SOL    HW229649   2.875   3.097   6.345 -0.4521  1.2813 -0.1873
 6005SOL     OW29650   3.441   4.333  11.441  0.5139 -0.6673 -0.0675
 6005SOL    HW129651   3.367   4.345  11.501  2.5059  3.7623  1.4781
 6005SOL    HW229652   3.411   4.255  11.394 -1.4772 -0.3443  0.6492
 6006SOL     OW29653   2.845   3.196   5.197  0.1731  0.1790 -0.9948
 6006SOL    HW129654   2.771   3.239   5.241  0.1844  0.2371 -1.0336
 6006SOL    HW229655   2.920   3.249   5.223  1.3838 -2.1394  0.2001
 6007SOL     OW29656   0.110   4.448   2.485 -0.1263 -0.0917  0.5127
 6007SOL    HW129657   0.181   4.400   2.443 -0.9747 -0.3627 -0.6103
 6007SOL    HW229658   0.095   4.509   2.413  0.6812 -0.5411 -0.0413
 6008SOL     OW29659   1.336   1.180   9.026  0.3882 -0.1555 -0.2588
 6008SOL    HW129660   1.244   1.201   9.036  0.4671  1.4493 -2.7275
 6008SOL    HW229661   1.368   1.225   9.104  1.8982 -0.7547 -0.5308
 6009SOL     OW29662   3.906   2.683   4.649  0.1531 -0.2173 -0.2433
 6009SOL    HW129663   3.929   2.686   4.742 -0.3719  0.0756 -0.1219
 6009SOL    HW229664   3.975   2.629   4.612 -0.4771 -0.9601 -0.3462
 6010SOL     OW29665   1.125   1.339  16.914  0.1154  0.0950 -0.8119
 6010SOL    HW129666   1.080   1.380  16.841 -0.1969  3.0270  1.0180
 6010SOL    HW229667   1.209   1.325  16.870  0.4358  0.3338 -0.2761
 6011SOL     OW29668   1.854   2.886   3.341  0.6053 -1.0305 -0.2670
 6011SOL    HW129669   1.843   2.981   3.345  1.9997 -0.9222  1.0841
 6011SOL    HW229670   1.938   2.888   3.295  2.0189 -1.1414  2.3196
 6012SOL     OW29671   0.142   1.804  12.478  0.0536  0.2635 -0.0587
 6012SOL    HW129672   0.200   1.730  12.462  0.5629  0.5800  0.3075
 6012SOL    HW229673   0.193   1.844  12.548  1.4322 -1.0351 -0.3264
 6013SOL     OW29674   1.381   1.611  16.682  0.6985 -0.2006 -0.0682
 6013SOL    HW129675   1.464   1.564  16.692  1.6584  1.2694 -1.0770
 6013SOL    HW229676   1.372   1.625  16.588  1.2675 -2.0250 -0.4018
 6014SOL     OW29677   1.568   4.494   9.408 -0.1336  0.0927  0.8407
 6014SOL    HW129678   1.581   4.540   9.325  0.7795 -0.1150  0.8793
 6014SOL    HW229679   1.483   4.533   9.432 -1.3670 -2.2006  0.2290
 6015SOL     OW29680   2.727   2.709   4.782 -0.2870 -0.4137  0.1056
 6015SOL    HW129681   2.711   2.791   4.828  2.8931  0.6121 -0.6591
 6015SOL    HW229682   2.822   2.710   4.779 -0.2189  0.3693  2.1285
 6016SOL     OW29683   4.263   3.711   4.851  0.2577 -0.8572  0.6161
 6016SOL    HW129684   4.319   3.783   4.881  1.3489 -2.2887  1.9597
 6016SOL    HW229685   4.175   3.738   4.876  0.3188  2.2610 -2.4944
 6017SOL     OW29686   2.493   0.770   0.063  0.1503  0.4762 -0.0372
 6017SOL    HW129687   2.578   0.774   0.018 -0.0209 -0.2694 -0.4270
 6017SOL    HW229688   2.477   0.676   0.061  0.1723  0.5355 -3.6315
 6018SOL     OW29689   3.251   4.429   1.608 -0.2166 -0.2309  0.1974
 6018SOL    HW129690   3.173   4.406   1.658 -0.7530  2.2414  0.5276
 6018SOL    HW229691   3.229   4.415   1.516 -1.9779 -0.6680  0.6817
 6019SOL     OW29692   1.887   1.752  10.830 -0.0084 -0.6534  0.5407
 6019SOL    HW129693   1.970   1.790  10.857 -0.7055  0.4871  1.0762
 6019SOL    HW229694   1.891   1.658  10.846 -0.4237 -0.4196  2.0480
 6020SOL     OW29695   4.709   4.370   9.295 -0.8883  0.5321 -0.2340
 6020SOL    HW129696   4.627   4.419   9.306 -0.5648  1.1380 -0.5388
 6020SOL    HW229697   4.688   4.280   9.323  1.1410  0.0364 -0.2779
 6021SOL     OW29698   3.227   3.855  10.432  1.2154 -0.5335 -0.0711
 6021SOL    HW129699   3.140   3.814  10.430 -0.1138  2.3406 -1.8311
 6021SOL    HW229700   3.219   3.916  10.358 -0.1739 -1.0124 -0.3239
 6022SOL     OW29701   4.726   0.007   6.681  0.2187  0.4366  0.3165
 6022SOL    HW129702   4.714   4.687   6.607  1.6509  0.9926 -0.3562
 6022SOL    HW229703   4.658   4.707   6.736  0.2415  0.9594  0.7116
 6023SOL     OW29704   3.818   1.524   2.457  0.6301 -0.2922 -0.1351
 6023SOL    HW129705   3.750   1.585   2.484 -1.2566 -2.7309  0.5887
 6023SOL    HW229706   3.803   1.463   2.529  1.4975 -0.4480 -0.0868
 6024SOL     OW29707   1.145   2.048   2.331  0.6620 -0.1129  0.0085
 6024SOL    HW129708   1.191   2.120   2.374 -3.5459  1.5038  1.8247
 6024SOL    HW229709   1.214   1.992   2.295  0.2379 -0.6646  0.0436
 6025SOL     OW29710   4.242   0.855   3.811 -0.6128 -0.0263 -0.4958
 6025SOL    HW129711   4.157   0.873   3.772  0.1886 -0.8054 -2.6135
 6025SOL    HW229712   4.305   0.849   3.738 -1.6747 -1.8691 -1.2537
 6026SOL     OW29713   1.759   2.273  16.686  0.6018 -0.4472 -0.0106
 6026SOL    HW129714   1.749   2.367  16.671  1.6429 -0.2901  0.2996
 6026SOL    HW229715   1.848   2.266  16.650  1.0047 -0.5934  1.0044
 6027SOL     OW29716   0.766   2.822   4.713 -0.3415  0.0739  0.1751
 6027SOL    HW129717   0.815   2.891   4.668 -0.1474 -0.3521 -0.2554
 6027SOL    HW229718   0.686   2.826   4.661 -0.8554 -0.4396  0.9128
 6028SOL     OW29719   0.523   0.058   8.848  1.0350  0.3441  0.0423
 6028SOL    HW129720   0.436   0.026   8.872  1.4395 -0.8476 -0.0760
 6028SOL    HW229721   0.583   4.737   8.894 -1.5609 -2.6326 -0.4004
 6029SOL     OW29722   4.703   1.322  17.521  0.0579 -0.3099  0.2997
 6029SOL    HW129723   4.673   1.347  17.434  1.3771 -0.2298 -0.1266
 6029SOL    HW229724   0.011   1.396  17.561  0.3615 -1.2057  1.6054
 6030SOL     OW29725   2.202   0.039   3.994  0.3515  0.0470  0.1239
 6030SOL    HW129726   2.167   0.048   4.083  0.9245 -2.1629  0.5799
 6030SOL    HW229727   2.122   0.070   3.953  0.7927 -0.5115 -1.1726
 6031SOL     OW29728   3.702   1.540   6.693 -0.3703 -0.3289 -0.7162
 6031SOL    HW129729   3.723   1.450   6.668 -1.1754 -0.5464 -0.6107
 6031SOL    HW229730   3.778   1.566   6.745 -1.8056 -1.6862  2.0292
 6032SOL     OW29731   2.332   1.672   1.364  0.4367  0.0845 -0.2809
 6032SOL    HW129732   2.395   1.626   1.309  0.8211 -0.5057  0.6573
 6032SOL    HW229733   2.259   1.685   1.304 -1.7027 -0.9903  2.0766
 6033SOL     OW29734   0.223   3.366   6.905 -0.3573  0.0542  0.0881
 6033SOL    HW129735   0.251   3.432   6.969  0.1476 -1.7632  1.7512
 6033SOL    HW229736   0.155   3.415   6.860 -1.3164 -1.8909 -0.5647
 6034SOL     OW29737   4.293   4.707  16.238  0.4232  0.0041 -0.3315
 6034SOL    HW129738   4.246   4.730  16.158 -0.3892 -1.6482 -0.3216
 6034SOL    HW229739   4.236   0.001  16.308  0.1888  0.7841 -0.8867
 6035SOL     OW29740   0.038   1.615   6.241  0.8726  0.0842 -0.2105
 6035SOL    HW129741   4.722   1.607   6.319  1.8899  0.6885  0.5591
 6035SOL    HW229742   0.115   1.650   6.287  1.5133  1.3955 -2.2595
 6036SOL     OW29743   3.145   1.027   0.684  0.7947  0.1710  0.1992
 6036SOL    HW129744   3.092   1.099   0.649 -0.1697 -0.1525  0.9812
 6036SOL    HW229745   3.187   0.991   0.606 -2.6581 -3.2054 -0.1014
 6037SOL     OW29746   3.146   1.095   2.882 -0.3898  0.3360 -0.0643
 6037SOL    HW129747   3.082   1.126   2.946  0.4143 -0.8151  1.2987
 6037SOL    HW229748   3.101   1.034   2.824  0.8883  1.2126 -1.9785
 6038SOL     OW29749   3.540   1.183  13.142  0.1071  0.1059  0.7485
 6038SOL    HW129750   3.630   1.187  13.110 -1.6242  1.1834 -4.0011
 6038SOL    HW229751   3.504   1.269  13.119  0.1800 -0.0955 -0.0978
 6039SOL     OW29752   0.291   0.304   4.418 -0.3017  0.2328 -0.2748
 6039SOL    HW129753   0.253   0.362   4.352 -1.4668  1.0621  1.1313
 6039SOL    HW229754   0.349   0.253   4.362  0.0310 -0.9023  1.0969
 6040SOL     OW29755   4.375   3.827   5.293  0.1455 -0.2062 -0.0166
 6040SOL    HW129756   4.424   3.900   5.330  0.2220 -0.7778  1.0378
 6040SOL    HW229757   4.430   3.798   5.220 -0.8249 -0.0674 -0.7909
 6041SOL     OW29758   1.615   3.496  16.988 -0.2573 -0.0209  0.8468
 6041SOL    HW129759   1.581   3.412  16.958 -1.1790  0.5853  0.2153
 6041SOL    HW229760   1.659   3.525  16.908 -2.2737  0.6772  0.0058
 6042SOL     OW29761   4.399   2.493   5.087 -0.1188  0.3878 -0.4234
 6042SOL    HW129762   4.424   2.581   5.060 -0.6873  0.6628 -0.0498
 6042SOL    HW229763   4.463   2.448   5.032  0.0052  3.1304 -2.5329
 6043SOL     OW29764   1.951   3.420   8.958  0.4709  0.1903  0.6983
 6043SOL    HW129765   1.884   3.352   8.968 -0.4679  0.6817 -2.0413
 6043SOL    HW229766   1.927   3.478   9.030  0.8703 -1.1282  1.8761
 6044SOL     OW29767   3.903   0.761   4.401 -0.8184  0.5148 -0.8681
 6044SOL    HW129768   3.964   0.736   4.470 -0.6675  1.4678 -0.6428
 6044SOL    HW229769   3.820   0.732   4.438 -0.4214  0.8096  0.2573
 6045SOL     OW29770   2.915   4.173   1.349  0.7853  0.0186 -0.2413
 6045SOL    HW129771   2.935   4.194   1.258  1.2811 -0.7141 -0.3032
 6045SOL    HW229772   2.994   4.126   1.377  0.2163 -1.3466 -0.9018
 6046SOL     OW29773   1.798   4.726   9.681  0.1517  0.6653  0.7153
 6046SOL    HW129774   1.720   0.040   9.665 -0.9045 -0.1481  3.2424
 6046SOL    HW229775   1.860   0.051   9.645  0.7702 -0.7489 -0.7325
 6047SOL     OW29776   0.594   3.020   2.644 -0.0612  0.3508  0.5188
 6047SOL    HW129777   0.530   3.063   2.587  0.8799  1.3201  0.1914
 6047SOL    HW229778   0.672   3.064   2.609 -1.7723  0.8256 -2.6319
 6048SOL     OW29779   2.565   1.473   2.117 -0.2071  0.3602 -0.6950
 6048SOL    HW129780   2.571   1.540   2.049  1.7630  0.7987 -0.0717
 6048SOL    HW229781   2.600   1.519   2.193 -0.2499 -0.3729 -0.2322
 6049SOL     OW29782   1.173   1.227   8.038 -0.4841  0.4565 -0.0377
 6049SOL    HW129783   1.148   1.243   7.948 -1.4218  1.1214  0.3415
 6049SOL    HW229784   1.091   1.184   8.062  0.7002 -0.3708  2.6179
 6050SOL     OW29785   3.061   0.656  12.859 -0.5537  0.2039  0.1353
 6050SOL    HW129786   3.143   0.677  12.903 -0.6103  0.4693  0.1153
 6050SOL    HW229787   3.087   0.653  12.768  2.6521 -1.4955  1.1064
 6051SOL     OW29788   0.116   0.701   4.986 -0.0917 -0.1280  0.2027
 6051SOL    HW129789   0.120   0.627   4.925  0.5343  0.1025 -0.0350
 6051SOL    HW229790   0.084   0.657   5.064  1.1386 -0.2519  0.6387
 6052SOL     OW29791   4.724   2.132  14.033  0.5954  0.4253 -0.3029
 6052SOL    HW129792   4.634   2.139  14.065  0.1358 -0.5540 -1.3665
 6052SOL    HW229793   4.726   2.040  14.009  0.2910  0.0352  1.1885
 6053SOL     OW29794   3.899   2.415   9.637  0.2415 -0.2596  0.1734
 6053SOL    HW129795   3.873   2.420   9.729  0.1990 -1.8074  0.2576
 6053SOL    HW229796   3.818   2.383   9.596  0.6171  0.9089 -1.4637
 6054SOL     OW29797   4.522   4.170   6.651  0.3815 -0.0676 -0.1932
 6054SOL    HW129798   4.524   4.265   6.654 -3.2711  0.0008  0.3383
 6054SOL    HW229799   4.491   4.148   6.739 -1.6792  2.9384 -0.1918
 6055SOL     OW29800   2.341   0.159   9.271 -0.3953 -0.0926  0.0486
 6055SOL    HW129801   2.418   0.107   9.296  0.5695  1.7134  0.8648
 6055SOL    HW229802   2.313   0.106   9.197  0.5602 -0.3087 -0.1625
 6056SOL     OW29803   2.821   0.463   2.195  0.5401 -0.0578  0.1214
 6056SOL    HW129804   2.758   0.536   2.197 -1.3313 -1.6553 -0.2903
 6056SOL    HW229805   2.806   0.429   2.107 -0.2822 -2.1580  1.0865
 6057SOL     OW29806   2.110   0.113   1.285  0.5115  0.0936 -0.1690
 6057SOL    HW129807   2.069   0.192   1.320  0.2488  0.0442 -0.3686
 6057SOL    HW229808   2.035   0.055   1.293  0.7845 -0.1537  0.7093
 6058SOL     OW29809   0.129   4.295   3.450 -0.6816 -0.5080  0.4921
 6058SOL    HW129810   0.084   4.334   3.525 -1.9006 -2.3806  0.7362
 6058SOL    HW229811   0.068   4.313   3.379  0.9949  0.2154 -0.7487
 6059SOL     OW29812   2.411   1.033   4.390 -0.5987 -0.1647  0.3529
 6059SOL    HW129813   2.356   1.104   4.357 -1.5294 -0.4311  1.3430
 6059SOL    HW229814   2.400   1.045   4.485  3.3313 -0.5772  0.8378
 6060SOL     OW29815   1.011   1.537   5.307 -0.0844 -0.1460  0.0959
 6060SOL    HW129816   1.012   1.608   5.371  1.6173 -1.7598  1.8602
 6060SOL    HW229817   0.946   1.478   5.344 -0.1552 -1.9115 -2.8466
 6061SOL     OW29818   0.887   1.750  14.977  0.1727  0.2651 -0.1419
 6061SOL    HW129819   0.865   1.678  14.918  1.7354 -0.8816  0.7031
 6061SOL    HW229820   0.977   1.734  15.004  0.2175 -0.2445 -0.6032
 6062SOL     OW29821   1.995   0.662   3.261  0.5405 -0.3597 -0.2123
 6062SOL    HW129822   2.080   0.690   3.294  0.0070  0.5359  0.4179
 6062SOL    HW229823   1.950   0.747   3.261 -2.1690 -1.7929 -3.0377
 6063SOL     OW29824   2.706   3.217   6.592  0.0528 -0.3006  0.0867
 6063SOL    HW129825   2.665   3.248   6.512 -1.1239 -0.4605  0.6303
 6063SOL    HW229826   2.642   3.242   6.659 -0.3309 -1.5398  0.1772
 6064SOL     OW29827   1.653   3.625   8.824 -0.5882 -0.0417 -0.0531
 6064SOL    HW129828   1.717   3.619   8.896 -2.2699  0.0663  1.4596
 6064SOL    HW229829   1.699   3.624   8.741  0.7074 -0.2805  0.6705
 6065SOL     OW29830   0.959   2.781   6.574  0.3964 -0.1935  0.1375
 6065SOL    HW129831   0.994   2.791   6.662  2.8630  1.2639 -1.0048
 6065SOL    HW229832   1.028   2.821   6.521 -0.2649  2.1027  0.9721
 6066SOL     OW29833   2.516   4.544  10.364  0.2172  0.5526 -0.0211
 6066SOL    HW129834   2.515   4.596  10.444  1.0983  0.7455 -0.1321
 6066SOL    HW229835   2.593   4.488  10.370 -0.4117 -0.3451 -0.3465
 6067SOL     OW29836   2.758   0.462   7.426  0.1363 -0.1662  0.0586
 6067SOL    HW129837   2.800   0.416   7.353  2.2967 -0.5484  1.5437
 6067SOL    HW229838   2.833   0.454   7.485  0.1188 -0.5301  0.0320
 6068SOL     OW29839   4.478   1.086   3.400 -0.4905  0.1300  0.1200
 6068SOL    HW129840   4.442   1.149   3.338 -2.0183 -2.2287 -1.4057
 6068SOL    HW229841   4.520   1.032   3.333 -0.6612 -0.7434  0.7065
 6069SOL     OW29842   0.082   1.706   6.959  0.0913  0.4018 -0.2115
 6069SOL    HW129843   0.111   1.747   7.041  0.3906 -2.2062  0.9756
 6069SOL    HW229844   0.010   1.648   6.982 -0.4868  1.3070  0.2867
 6070SOL     OW29845   0.273   0.596   2.227 -0.6492  0.0419 -0.4727
 6070SOL    HW129846   0.277   0.595   2.323  0.2686 -1.1511 -0.5300
 6070SOL    HW229847   0.346   0.656   2.210 -1.5144  0.7162 -1.7659
 6071SOL     OW29848   3.831   0.597   0.873 -0.3216 -0.0996 -0.2175
 6071SOL    HW129849   3.861   0.672   0.924  0.5332 -0.4849 -0.1585
 6071SOL    HW229850   3.840   0.629   0.784  1.1289 -0.1598 -0.0812
 6072SOL     OW29851   1.636   0.192  12.016 -0.5401 -0.1206 -0.8733
 6072SOL    HW129852   1.597   0.123  12.070 -0.0911  1.3036  1.2781
 6072SOL    HW229853   1.730   0.176  12.021 -0.9711 -1.5337  2.2442
 6073SOL     OW29854   3.528   0.840  15.978  0.3175 -0.9961  0.7002
 6073SOL    HW129855   3.498   0.774  16.041  1.1657 -1.9321  0.1308
 6073SOL    HW229856   3.473   0.809  15.906 -0.2814  1.4905  0.1121
 6074SOL     OW29857   1.976   1.796   1.564 -0.0673  0.0668  0.0207
 6074SOL    HW129858   2.010   1.763   1.647 -3.2616  0.4927  1.4956
 6074SOL    HW229859   1.895   1.744   1.561  1.0202 -1.8278  3.5812
 6075SOL     OW29860   4.635   0.573  14.308 -0.6596 -0.1803 -0.5581
 6075SOL    HW129861   4.619   0.565  14.403 -1.9526  3.8360 -0.4673
 6075SOL    HW229862   4.726   0.545  14.294 -0.0197  2.5364 -1.7242
 6076SOL     OW29863   2.362   4.307   1.645 -0.2160 -0.1018 -0.1346
 6076SOL    HW129864   2.425   4.363   1.691 -0.6114  0.2502 -0.0209
 6076SOL    HW229865   2.288   4.332   1.701  0.9810  0.9208  1.0110
 6077SOL     OW29866   0.885   0.443   8.974 -0.3219  0.0392 -0.1590
 6077SOL    HW129867   0.848   0.356   8.982  2.1205 -1.0399 -0.5029
 6077SOL    HW229868   0.976   0.418   8.955 -0.6837  0.9399 -3.0996
 6078SOL     OW29869   0.494   4.082   6.896 -0.5090 -0.4770 -0.0128
 6078SOL    HW129870   0.530   4.165   6.926  0.6796 -1.2038  0.5864
 6078SOL    HW229871   0.495   4.035   6.979 -0.3674 -1.7354 -0.7168
 6079SOL     OW29872   1.852   4.135   9.502  0.1753 -0.4477 -0.2251
 6079SOL    HW129873   1.765   4.174   9.497  0.5723  0.3586 -0.8470
 6079SOL    HW229874   1.913   4.207   9.488 -0.5795 -0.2896 -2.7672
 6080SOL     OW29875   2.409   3.456   9.127  0.6792  0.1115 -0.3711
 6080SOL    HW129876   2.361   3.527   9.084 -2.0946 -2.2128 -1.0859
 6080SOL    HW229877   2.345   3.386   9.122 -0.6723  1.2657  0.7362
 6081SOL     OW29878   1.957   1.304   7.451 -0.4755 -0.0038 -0.0101
 6081SOL    HW129879   1.922   1.253   7.523 -2.5053  0.6868 -0.5097
 6081SOL    HW229880   1.962   1.395   7.481  0.7132  0.6531 -2.1253
 6082SOL     OW29881   4.072   0.089   8.534 -0.0166 -0.2341  0.1522
 6082SOL    HW129882   4.130   0.143   8.480 -0.9893  1.4022  0.7049
 6082SOL    HW229883   4.004   0.154   8.556 -0.1170  0.3581 -1.8534
 6083SOL     OW29884   1.083   0.647   8.126  0.4529 -0.5981  0.1185
 6083SOL    HW129885   1.124   0.714   8.182  0.3636 -0.7880  0.4074
 6083SOL    HW229886   1.089   0.577   8.191  2.7702  0.7817  1.4116
 6084SOL     OW29887   0.575   3.347   1.659 -0.2773 -0.2821 -0.1651
 6084SOL    HW129888   0.550   3.396   1.582  3.0560  2.2736  0.3670
 6084SOL    HW229889   0.536   3.402   1.727  0.7007  1.6628 -1.1699
 6085SOL     OW29890   2.959   4.175   1.050  0.1778  0.6265 -0.3556
 6085SOL    HW129891   2.865   4.160   1.055  0.5898 -2.0489 -0.5168
 6085SOL    HW229892   2.983   4.089   1.013  0.2452  0.6275 -0.3139
 6086SOL     OW29893   2.178   2.667   6.437 -0.0122 -0.4679 -0.0109
 6086SOL    HW129894   2.098   2.619   6.457 -0.2752 -0.1420 -0.2791
 6086SOL    HW229895   2.201   2.642   6.348  0.5947 -1.3663  0.4004
 6087SOL     OW29896   1.029   0.864   4.246 -0.0132  0.4603  0.1890
 6087SOL    HW129897   1.049   0.779   4.208  0.2375  0.5261  0.1762
 6087SOL    HW229898   0.961   0.836   4.307  1.1283 -0.0020  1.2478
 6088SOL     OW29899   0.893   4.266   3.639  0.2769 -0.2260 -0.6879
 6088SOL    HW129900   0.837   4.302   3.570 -0.2856  0.6655  0.2391
 6088SOL    HW229901   0.818   4.240   3.691  0.0118 -3.0714 -2.5125
 6089SOL     OW29902   3.162   2.446   5.286  0.1190 -0.0970 -0.1558
 6089SOL    HW129903   3.114   2.484   5.359  2.6783  1.3743  0.7179
 6089SOL    HW229904   3.095   2.460   5.219 -0.4090  2.2316  0.8724
 6090SOL     OW29905   4.434   2.351   5.322 -0.0760 -0.2217  0.4916
 6090SOL    HW129906   4.392   2.416   5.378 -2.0846 -1.4514  0.4101
 6090SOL    HW229907   4.429   2.400   5.240 -0.2025 -1.1348 -0.0479
 6091SOL     OW29908   3.215   0.617  17.089  0.3750 -0.1696  0.3149
 6091SOL    HW129909   3.214   0.610  16.994 -1.7971  0.4522  0.2921
 6091SOL    HW229910   3.304   0.650  17.100  1.2148 -1.8242 -1.6487
 6092SOL     OW29911   3.995   3.696   5.370  0.2319  0.6081  0.1899
 6092SOL    HW129912   3.931   3.708   5.441  0.0014  2.0642 -0.2609
 6092SOL    HW229913   4.018   3.607   5.395  0.2122  0.4421 -0.4003
 6093SOL     OW29914   0.518   3.834   8.671 -0.0522 -0.1117  0.4086
 6093SOL    HW129915   0.582   3.876   8.728 -0.2236  0.0584  0.4761
 6093SOL    HW229916   0.518   3.747   8.709  1.6530  0.2416  1.2106
 6094SOL     OW29917   0.274   3.574   7.064  0.1174 -0.3807  0.1908
 6094SOL    HW129918   0.196   3.628   7.076  2.0149  1.9754  1.9670
 6094SOL    HW229919   0.315   3.579   7.151  0.8798  1.5127 -0.3035
 6095SOL     OW29920   2.178   0.472  12.975  0.5468  0.0378 -0.1954
 6095SOL    HW129921   2.087   0.457  12.999  0.4769  0.6315 -0.0987
 6095SOL    HW229922   2.211   0.384  12.993  0.4992  0.1326  0.3624
 6096SOL     OW29923   4.196   1.737   3.663 -0.0737  0.4553 -0.0408
 6096SOL    HW129924   4.187   1.832   3.678  1.4282  0.5166  0.3944
 6096SOL    HW229925   4.220   1.701   3.748 -0.2033  0.5287  0.0269
 6097SOL     OW29926   0.516   1.071   4.827  0.0879  0.3652 -0.1053
 6097SOL    HW129927   0.476   0.985   4.821  0.7643 -0.0741  1.6614
 6097SOL    HW229928   0.447   1.128   4.792 -0.0628  1.7840  2.5205
 6098SOL     OW29929   2.123   1.027   9.018  0.1975 -0.6116 -0.1331
 6098SOL    HW129930   2.074   1.064   9.092 -1.2284 -1.4256 -0.6669
 6098SOL    HW229931   2.074   1.064   8.945 -3.2124 -2.8931  0.9873
 6099SOL     OW29932   2.175   3.164   2.603  0.0821 -0.9501 -0.1483
 6099SOL    HW129933   2.149   3.247   2.642  0.1818 -1.5505  1.1844
 6099SOL    HW229934   2.105   3.105   2.628 -1.1972  0.9422  0.7126
 6100SOL     OW29935   4.409   0.021   4.740 -0.2338 -0.3116  0.4169
 6100SOL    HW129936   4.315   0.038   4.750 -0.6982 -2.3746 -0.4216
 6100SOL    HW229937   4.430   4.714   4.822  1.7299  0.4549  0.3240
 6101SOL     OW29938   2.015   2.278   5.246 -0.2070  0.5054 -1.2971
 6101SOL    HW129939   1.923   2.295   5.264 -0.1098 -0.5483  0.1206
 6101SOL    HW229940   2.068   2.335   5.302 -1.6323 -1.7235  2.2397
 6102SOL     OW29941   1.111   1.342   7.588  0.1406  0.4085  0.6494
 6102SOL    HW129942   1.043   1.285   7.554  2.2843 -1.9426  0.3483
 6102SOL    HW229943   1.086   1.427   7.551 -1.5816 -0.3786  0.0632
 6103SOL     OW29944   4.412   1.161   6.455  0.4567 -0.1068  0.7418
 6103SOL    HW129945   4.369   1.090   6.502  0.1719 -0.3256  0.1540
 6103SOL    HW229946   4.501   1.131   6.438  0.4486  0.9788 -1.2113
 6104SOL     OW29947   1.109   3.193   9.862 -0.5365  0.3839  0.4573
 6104SOL    HW129948   1.123   3.110   9.909  0.7809 -0.0352 -0.6496
 6104SOL    HW229949   1.104   3.255   9.934  1.5205  1.4888 -0.3448
 6105SOL     OW29950   3.073   0.694  17.294  0.2039  0.0225  0.0491
 6105SOL    HW129951   3.096   0.657  17.209 -1.7043  1.2274 -0.9778
 6105SOL    HW229952   3.149   0.660  17.343 -0.7816 -0.8733  0.9512
 6106SOL     OW29953   0.810   2.481   4.472 -0.1316 -0.1567  0.6180
 6106SOL    HW129954   0.859   2.524   4.401  1.1891 -0.9910  1.0205
 6106SOL    HW229955   0.856   2.397   4.473  1.1740  0.5645  0.2763
 6107SOL     OW29956   2.031   4.677  12.520  0.1420 -0.3833 -0.4207
 6107SOL    HW129957   1.963   4.735  12.486 -0.5233 -1.3203 -0.6807
 6107SOL    HW229958   1.997   4.662  12.608  2.1893  1.6414  0.7202
 6108SOL     OW29959   3.135   2.579  15.246 -0.0860 -0.0817  0.5380
 6108SOL    HW129960   3.181   2.653  15.206  0.1242 -0.1171  0.7166
 6108SOL    HW229961   3.209   2.550  15.299  0.5471  0.3830 -0.0890
 6109SOL     OW29962   1.853   1.406   9.258  0.6506  0.4067 -0.5921
 6109SOL    HW129963   1.902   1.487   9.273 -0.2538  0.7134  0.7423
 6109SOL    HW229964   1.877   1.376   9.171  0.5323  0.2133 -0.5576
 6110SOL     OW29965   3.351   4.309   8.387 -0.3017 -0.1631 -0.1184
 6110SOL    HW129966   3.385   4.362   8.459  0.2833  0.7076 -1.0427
 6110SOL    HW229967   3.437   4.276   8.362 -0.6870 -0.4484 -1.0754
 6111SOL     OW29968   1.968   2.302   2.431 -0.7578  0.0155  0.0386
 6111SOL    HW129969   1.958   2.396   2.415 -0.5902  0.3638  1.9787
 6111SOL    HW229970   2.056   2.301   2.393  0.2070  1.5463  2.2529
 6112SOL     OW29971   3.694   1.770   0.848 -0.1978  0.2426 -0.6908
 6112SOL    HW129972   3.679   1.702   0.782 -1.3278  0.7304 -0.9434
 6112SOL    HW229973   3.755   1.834   0.811  0.8571 -0.9169 -0.9627
 6113SOL     OW29974   0.778   2.374  11.557 -0.1035  0.8641  0.4231
 6113SOL    HW129975   0.871   2.352  11.557 -0.3372 -0.0838 -0.8427
 6113SOL    HW229976   0.759   2.393  11.465 -1.6373  1.0954  0.7966
 6114SOL     OW29977   4.142   3.984  10.464 -0.0680 -0.4599 -0.7160
 6114SOL    HW129978   4.097   3.900  10.454 -0.0703 -0.4715 -0.6015
 6114SOL    HW229979   4.162   3.973  10.557 -0.6097  1.0189 -0.4266
 6115SOL     OW29980   0.360   1.016   1.736 -0.0337 -0.5671  0.3823
 6115SOL    HW129981   0.427   0.993   1.800  0.0468 -1.4201  0.0018
 6115SOL    HW229982   0.407   1.042   1.657  1.6138  1.1573  1.9419
 6116SOL     OW29983   2.270   4.613   1.242  0.3288 -0.1510  0.0063
 6116SOL    HW129984   2.277   4.560   1.321 -1.6312 -1.9838 -1.0315
 6116SOL    HW229985   2.207   4.680   1.269  0.8065 -0.4671  1.9084
 6117SOL     OW29986   3.122   4.188  16.124 -0.3238  0.0784 -0.1180
 6117SOL    HW129987   3.076   4.152  16.200 -1.4171  0.2252 -0.7144
 6117SOL    HW229988   3.165   4.265  16.163 -0.5705  0.4248 -0.5244
 6118SOL     OW29989   3.915   4.362  13.668 -1.0675  0.1217  0.0464
 6118SOL    HW129990   4.008   4.376  13.647 -1.0078 -2.3109 -1.3732
 6118SOL    HW229991   3.891   4.295  13.604 -0.4628  1.9359 -2.0648
 6119SOL     OW29992   0.656   2.928   3.345 -0.9693  0.0435  0.2647
 6119SOL    HW129993   0.728   2.910   3.285 -0.5821 -0.3840  0.8498
 6119SOL    HW229994   0.594   2.862   3.313  1.7372 -1.5358 -1.7157
 6120SOL     OW29995   1.942   2.788   8.943 -0.4842 -0.0345 -0.4490
 6120SOL    HW129996   1.849   2.765   8.953 -0.4334 -0.8102 -1.7995
 6120SOL    HW229997   1.975   2.698   8.950  3.3124  1.5176  1.8695
 6121SOL     OW29998   4.227   3.800   2.863  0.8147 -0.1368  0.0782
 6121SOL    HW129999   4.188   3.882   2.894 -0.9400 -1.2008  0.7123
 6121SOL    HW230000   4.154   3.737   2.870  2.0934 -1.6554 -0.2842
 6122SOL     OW30001   3.637   3.934   3.384  0.0665  0.1608  0.4579
 6122SOL    HW130002   3.554   3.947   3.338  0.2296  0.7828  0.3460
 6122SOL    HW230003   3.702   3.926   3.314 -0.0480 -3.7006  0.7803
 6123SOL     OW30004   1.246   3.208   9.264 -0.1447 -0.0334 -0.0815
 6123SOL    HW130005   1.174   3.242   9.211  1.5235  1.8794 -1.1189
 6123SOL    HW230006   1.272   3.134   9.209  0.9625 -0.2454  0.7335
 6124SOL     OW30007   1.884   2.922  15.340 -0.2815 -0.4179  0.0903
 6124SOL    HW130008   1.793   2.947  15.355 -0.8186 -1.9556 -0.6573
 6124SOL    HW230009   1.893   2.947  15.248  1.5805  1.6624  0.8231
 6125SOL     OW30010   2.509   1.652  12.915 -0.6900  0.6029  0.7078
 6125SOL    HW130011   2.599   1.682  12.899 -0.2615 -1.2768 -0.5239
 6125SOL    HW230012   2.517   1.557  12.905 -1.3145  0.7993 -1.7729
 6126SOL     OW30013   0.731   1.545  16.319 -0.1997  0.4650 -0.4252
 6126SOL    HW130014   0.717   1.451  16.333 -2.1400  1.0317  1.3604
 6126SOL    HW230015   0.658   1.568  16.262  1.4099 -0.5760 -2.9259
 6127SOL     OW30016   1.245   1.393   8.256  0.4826  0.2856 -0.5285
 6127SOL    HW130017   1.155   1.398   8.290 -0.0686 -0.9356 -1.8310
 6127SOL    HW230018   1.250   1.328   8.187  0.2870 -1.2779  0.9221
 6128SOL     OW30019   3.167   3.481   3.085 -0.0964  0.0854  0.1159
 6128SOL    HW130020   3.137   3.421   3.154 -2.0346 -0.1210 -0.9090
 6128SOL    HW230021   3.147   3.433   3.005  1.8726 -0.9160  0.2097
 6129SOL     OW30022   0.402   1.256   3.116  0.1946 -0.5483  0.0489
 6129SOL    HW130023   0.348   1.241   3.038  1.5071  1.3401 -1.2315
 6129SOL    HW230024   0.483   1.209   3.096  0.8608  0.4307  0.4630
 6130SOL     OW30025   4.525   4.709   8.936  0.0085  0.1913 -0.5032
 6130SOL    HW130026   4.453   4.674   8.883  0.4633  0.2086 -1.1465
 6130SOL    HW230027   4.547   0.049   8.885  1.9749  0.1642  0.3175
 6131SOL     OW30028   3.570   1.287   5.428  0.1931 -0.2600  0.1729
 6131SOL    HW130029   3.489   1.325   5.460 -0.5926 -0.6998 -1.2933
 6131SOL    HW230030   3.553   1.286   5.334 -2.2937  1.3200  0.6176
 6132SOL     OW30031   1.611   2.228   6.833 -0.1590  0.2716  0.2615
 6132SOL    HW130032   1.583   2.137   6.825  0.5945  0.3617 -3.1864
 6132SOL    HW230033   1.542   2.281   6.794 -0.7346  0.4194  1.4692
 6133SOL     OW30034   3.534   4.520   8.462  0.1223 -0.1392 -0.6984
 6133SOL    HW130035   3.591   4.596   8.468  0.4058 -0.4417  0.5040
 6133SOL    HW230036   3.454   4.567   8.487 -0.7140 -1.6430 -0.5421
 6134SOL     OW30037   4.500   4.610   6.240 -0.7801  0.2011  0.0840
 6134SOL    HW130038   4.444   4.641   6.169 -0.9558  0.7081  0.4488
 6134SOL    HW230039   4.441   4.548   6.282 -2.0470  1.2644 -0.1418
 6135SOL     OW30040   2.861   4.178   5.135  0.6508  0.4897 -0.1210
 6135SOL    HW130041   2.899   4.141   5.214  3.1681  1.6879 -0.7888
 6135SOL    HW230042   2.881   4.110   5.070  0.0722  0.2587 -0.0621
 6136SOL     OW30043   1.200   0.066   5.942 -0.1629  0.7029  0.4672
 6136SOL    HW130044   1.235   0.022   6.019 -0.7411 -0.8498 -0.1603
 6136SOL    HW230045   1.265   0.029   5.883  0.2642  2.1935  0.0053
 6137SOL     OW30046   4.596   3.562  12.516 -0.1135 -0.2988 -0.1116
 6137SOL    HW130047   4.588   3.654  12.490 -3.7094 -0.4814  0.2490
 6137SOL    HW230048   4.513   3.531  12.480 -1.7462  2.4274  1.2888
 6138SOL     OW30049   2.061   2.462  16.856 -0.1579 -0.6221  0.3536
 6138SOL    HW130050   1.975   2.461  16.899 -0.7679 -1.8038 -0.8972
 6138SOL    HW230051   2.038   2.396  16.791  0.1238 -1.1220  0.7667
 6139SOL     OW30052   0.288   3.005   0.028  0.1896  0.3775  0.0044
 6139SOL    HW130053   0.340   3.031   0.104 -0.2401 -0.8249  0.7126
 6139SOL    HW230054   0.240   3.088   0.027 -0.1289  0.2081  0.8527
 6140SOL     OW30055   0.073   1.535  15.170  0.7642 -0.2508 -0.4605
 6140SOL    HW130056   0.146   1.533  15.108  1.0338 -0.4023 -0.1396
 6140SOL    HW230057   0.119   1.515  15.252 -0.6590 -1.9754 -0.0860
 6141SOL     OW30058   2.137   4.534   2.984 -0.1074  0.2025  0.3017
 6141SOL    HW130059   2.081   4.581   3.046  1.7999  0.6682  1.6834
 6141SOL    HW230060   2.080   4.459   2.967  0.3956  0.1440 -1.1850
 6142SOL     OW30061   0.637   1.262  15.329 -0.3751 -0.3587  0.2066
 6142SOL    HW130062   0.545   1.286  15.337  0.0284  1.1805  0.3567
 6142SOL    HW230063   0.634   1.175  15.368  0.6837 -0.1978  0.6434
 6143SOL     OW30064   4.407   1.904   6.840 -0.0043  0.3487  0.1242
 6143SOL    HW130065   4.501   1.911   6.827  0.1179  1.3664  1.5118
 6143SOL    HW230066   4.411   1.813   6.867 -0.5350 -0.1315 -1.4184
 6144SOL     OW30067   1.480   3.515   3.071 -0.2248  0.8042  0.3905
 6144SOL    HW130068   1.510   3.428   3.097 -1.6506  0.0322 -0.5798
 6144SOL    HW230069   1.546   3.543   3.007 -0.1948 -1.3804 -0.5148
 6145SOL     OW30070   0.079   2.298   5.364  0.1995  0.3481 -0.2299
 6145SOL    HW130071   0.040   2.326   5.281  0.7461  0.6258 -0.3988
 6145SOL    HW230072   0.005   2.248   5.397 -0.0017  2.2234  2.1431
 6146SOL     OW30073   2.537   0.157   0.735 -0.5850 -0.0851  0.2390
 6146SOL    HW130074   2.518   0.244   0.770  2.0162 -0.0775  1.6204
 6146SOL    HW230075   2.454   0.124   0.702 -0.3431 -1.6966  1.2551
 6147SOL     OW30076   1.599   0.367   0.576  0.6103  0.1069 -0.2525
 6147SOL    HW130077   1.625   0.360   0.484 -2.4447 -0.6464 -1.0720
 6147SOL    HW230078   1.538   0.441   0.574  0.7330  0.1977 -0.6287
 6148SOL     OW30079   1.990   2.401  11.116 -0.2158 -0.4234 -0.6063
 6148SOL    HW130080   2.080   2.384  11.144 -1.0647 -0.1422  2.3642
 6148SOL    HW230081   1.944   2.377  11.197 -2.9671 -0.5186 -2.2052
 6149SOL     OW30082   3.713   3.566   5.787  0.0855 -0.4762  0.2285
 6149SOL    HW130083   3.763   3.495   5.827  3.1401  2.3838  1.4785
 6149SOL    HW230084   3.627   3.544   5.821  0.0687  1.0111  1.1485
 6150SOL     OW30085   4.286   4.152   7.265  0.2380 -0.1477 -0.4694
 6150SOL    HW130086   4.271   4.058   7.257 -1.5912  0.2469 -1.7562
 6150SOL    HW230087   4.266   4.169   7.357 -0.3097  0.1353 -0.6423
 6151SOL     OW30088   2.498   3.897   9.615 -0.3579 -0.8079  0.9142
 6151SOL    HW130089   2.503   3.987   9.645 -0.7221 -0.2378 -0.7632
 6151SOL    HW230090   2.544   3.847   9.683  0.8990 -0.2916  0.4430
 6152SOL     OW30091   2.898   0.935  13.698  0.0264  0.0292  0.1003
 6152SOL    HW130092   2.835   0.984  13.645  0.7818 -0.3677 -1.1860
 6152SOL    HW230093   2.943   0.999  13.752 -1.3519  1.3178 -0.2986
 6153SOL     OW30094   1.463   3.245  17.258 -0.2447  0.3719  0.0421
 6153SOL    HW130095   1.386   3.294  17.284 -0.2653  0.0775  0.5326
 6153SOL    HW230096   1.431   3.155  17.265 -1.6780  1.0280  1.7685
 6154SOL     OW30097   2.273   3.344   7.108 -0.4397  0.1367  0.2221
 6154SOL    HW130098   2.326   3.371   7.033 -0.9210  3.4300  1.1023
 6154SOL    HW230099   2.258   3.252   7.084 -0.0637 -0.5647  2.6423
 6155SOL     OW30100   2.198   1.635   9.093  0.2063 -0.6949 -0.1002
 6155SOL    HW130101   2.166   1.628   9.003 -0.7478 -1.6701  0.3090
 6155SOL    HW230102   2.207   1.730   9.096  0.9467 -0.7024 -2.1369
 6156SOL     OW30103   4.663   3.322  16.904  0.1056 -0.1175 -0.3535
 6156SOL    HW130104   4.572   3.352  16.900  0.4772  1.3061  1.8323
 6156SOL    HW230105   4.667   3.241  16.853  0.6468  0.7662 -1.7173
 6157SOL     OW30106   0.757   4.241  10.940  0.0810 -0.0740  0.2228
 6157SOL    HW130107   0.715   4.160  10.911  0.7729  0.1685 -1.4920
 6157SOL    HW230108   0.820   4.202  11.001 -0.4619 -1.7999 -0.3391
 6158SOL     OW30109   4.444   1.410   3.523 -0.0579 -0.4967  0.2886
 6158SOL    HW130110   4.366   1.400   3.468  0.1087  0.6951 -0.1683
 6158SOL    HW230111   4.461   1.502   3.499 -3.2866 -0.1779 -0.8610
 6159SOL     OW30112   2.483   2.001  10.453  0.3573  0.1264 -0.0133
 6159SOL    HW130113   2.498   2.087  10.494 -0.5595  0.7628 -1.0284
 6159SOL    HW230114   2.443   2.017  10.368 -0.1585  0.6979  0.3345
 6160SOL     OW30115   3.255   2.894   2.209  0.2724 -0.2698  0.1418
 6160SOL    HW130116   3.261   2.887   2.113  1.5639 -1.3006  0.2893
 6160SOL    HW230117   3.321   2.831   2.237 -0.8054 -1.2719  0.3837
 6161SOL     OW30118   3.383   2.069   3.741 -0.2631  0.1028  0.4247
 6161SOL    HW130119   3.369   1.987   3.694  0.6779 -1.4078  2.8012
 6161SOL    HW230120   3.355   2.134   3.676  1.5367 -2.8066 -3.2204
 6162SOL     OW30121   3.528   3.698   5.197 -0.3840 -0.7918  0.3805
 6162SOL    HW130122   3.531   3.713   5.291 -0.3542 -0.8456  0.3879
 6162SOL    HW230123   3.453   3.640   5.181  0.5853 -2.0472  0.4126
 6163SOL     OW30124   1.898   2.176   7.437  0.4799 -0.2260 -0.2828
 6163SOL    HW130125   1.820   2.129   7.466  0.4252  1.6627  2.6383
 6163SOL    HW230126   1.871   2.241   7.372 -0.4093 -1.2544 -0.9322
 6164SOL     OW30127   2.382   1.615   4.234 -0.8682 -0.3733 -0.5163
 6164SOL    HW130128   2.477   1.602   4.237 -0.7412  0.3483 -1.3781
 6164SOL    HW230129   2.365   1.660   4.316 -0.4797 -0.4783 -0.3782
 6165SOL     OW30130   2.995   4.708  15.350 -0.6574  0.5093 -0.1758
 6165SOL    HW130131   3.059   0.024  15.303  0.4216  0.7288  1.5428
 6165SOL    HW230132   3.046   4.671  15.422 -1.2045  0.0495 -0.0234
 6166SOL     OW30133   3.242   3.928   2.743 -0.0297  0.2545  0.4862
 6166SOL    HW130134   3.207   3.949   2.656  0.6732 -0.2941  0.0741
 6166SOL    HW230135   3.186   3.852   2.758 -0.8292  1.3656  3.1519
 6167SOL     OW30136   1.476   0.767   6.764 -0.8133  0.5797  0.4136
 6167SOL    HW130137   1.501   0.859   6.756 -0.8534  0.6257  0.8428
 6167SOL    HW230138   1.415   0.778   6.837  0.1013 -1.0146  1.4223
 6168SOL     OW30139   2.860   3.870   6.997  0.4432  0.4635  0.2477
 6168SOL    HW130140   2.919   3.945   7.002 -1.1675  1.5632  2.9177
 6168SOL    HW230141   2.918   3.799   7.028  0.7977  0.5646 -0.1948
 6169SOL     OW30142   2.829   0.538   9.498 -0.1586 -0.1377  0.1826
 6169SOL    HW130143   2.818   0.487   9.418 -0.6236  0.2211  0.0137
 6169SOL    HW230144   2.776   0.485   9.558  0.3105  0.8526  1.4790
 6170SOL     OW30145   4.173   1.505  12.999 -0.4202 -0.4013  0.3744
 6170SOL    HW130146   4.225   1.437  12.956 -0.4806 -0.8745  1.0415
 6170SOL    HW230147   4.241   1.563  13.035  0.4450  0.3184 -2.4689
 6171SOL     OW30148   2.827   0.367   1.932  0.5617  0.4345  0.2201
 6171SOL    HW130149   2.841   0.303   1.862  0.8068  0.6415  0.0786
 6171SOL    HW230150   2.874   0.442   1.895 -0.1602  0.7518 -0.0333
 6172SOL     OW30151   0.921   3.269   7.280  0.1192  0.5416  0.3013
 6172SOL    HW130152   0.983   3.251   7.210 -1.2821 -0.0614 -0.7891
 6172SOL    HW230153   0.851   3.325   7.246 -1.2751 -1.1323  0.3827
 6173SOL     OW30154   3.836   1.816  12.347  0.5854  0.2126 -0.1883
 6173SOL    HW130155   3.821   1.726  12.375  2.1029 -0.3579 -1.1817
 6173SOL    HW230156   3.784   1.819  12.267 -0.2489  1.5694  0.4003
 6174SOL     OW30157   0.652   2.865   6.236 -0.2004 -0.5106  0.1231
 6174SOL    HW130158   0.706   2.938   6.205  0.9610 -1.5016 -0.2053
 6174SOL    HW230159   0.661   2.874   6.331 -0.3677 -0.8495  0.1712
 6175SOL     OW30160   4.732   3.983   5.047 -0.2744  0.0406  0.4457
 6175SOL    HW130161   0.040   3.905   5.079 -1.1903 -0.9283 -0.5792
 6175SOL    HW230162   0.040   4.051   5.096 -1.0803  1.8001 -1.2378
 6176SOL     OW30163   1.947   2.583   7.683 -0.0665 -0.1442 -0.2298
 6176SOL    HW130164   1.917   2.603   7.594 -0.7103  1.2427  0.3033
 6176SOL    HW230165   2.042   2.573   7.676 -0.0464 -1.8087  2.4535
 6177SOL     OW30166   3.092   1.792  10.064  0.0022  0.2058 -0.2848
 6177SOL    HW130167   3.135   1.744  10.135 -1.7730  0.3965  0.9101
 6177SOL    HW230168   3.123   1.882  10.075  2.3939 -0.7675  1.0092
 6178SOL     OW30169   0.885   3.781   4.018  0.2946  0.1281 -0.3372
 6178SOL    HW130170   0.831   3.856   3.994 -0.5847  0.2600  2.0382
 6178SOL    HW230171   0.880   3.787   4.114  2.7321 -1.1054 -0.1226
 6179SOL     OW30172   4.649   2.142   2.996  0.0081 -0.1062  0.7288
 6179SOL    HW130173   4.681   2.133   2.907  0.9246 -0.6099  1.1130
 6179SOL    HW230174   4.634   2.050   3.017  2.4043 -0.7558 -0.4019
 6180SOL     OW30175   2.019   3.291   6.533  0.0411 -0.3326 -0.0362
 6180SOL    HW130176   2.013   3.354   6.462 -2.1084  0.3597  0.7679
 6180SOL    HW230177   1.925   3.275   6.547  0.5154 -1.2876  2.1209
 6181SOL     OW30178   3.594   0.711  11.981 -0.8073 -0.3055 -0.4071
 6181SOL    HW130179   3.599   0.773  11.908 -2.7616 -1.3453 -1.4101
 6181SOL    HW230180   3.605   0.629  11.934 -0.6609 -1.1268  1.0385
 6182SOL     OW30181   0.521   0.585  15.305  0.8078 -0.6466  0.5769
 6182SOL    HW130182   0.467   0.516  15.267  1.5518 -0.0138 -1.6386
 6182SOL    HW230183   0.536   0.538  15.387  1.5175  1.5581  1.7206
 6183SOL     OW30184   2.623   2.333   4.404  0.2731 -0.5619  0.4414
 6183SOL    HW130185   2.569   2.351   4.482  0.3429 -1.6551  0.7492
 6183SOL    HW230186   2.689   2.403   4.405  0.1613 -0.4548 -0.4706
 6184SOL     OW30187   3.784   4.280   5.190 -0.4459  0.8842  0.2422
 6184SOL    HW130188   3.863   4.325   5.218  0.1034 -0.4977  0.9035
 6184SOL    HW230189   3.813   4.271   5.099 -1.5638  0.8703 -0.1161
 6185SOL     OW30190   4.541   0.411   7.944  0.6336 -0.0569  0.1881
 6185SOL    HW130191   4.531   0.382   8.034 -0.6175 -0.7179 -0.1628
 6185SOL    HW230192   4.589   0.493   7.948  0.4715  0.0611 -0.2346
 6186SOL     OW30193   2.191   2.518   3.758 -0.0072 -0.1619  0.3834
 6186SOL    HW130194   2.099   2.504   3.780 -0.2378 -0.5192 -0.8099
 6186SOL    HW230195   2.188   2.471   3.675 -3.2917  1.7312 -0.5803
 6187SOL     OW30196   1.435   2.928   4.404 -0.0140  0.0873 -0.4862
 6187SOL    HW130197   1.483   2.870   4.463 -0.3356 -1.4595 -1.7551
 6187SOL    HW230198   1.348   2.888   4.405  0.7350 -1.5511 -1.1883
 6188SOL     OW30199   2.004   4.356   3.323 -0.1734  0.0155 -0.5204
 6188SOL    HW130200   2.001   4.437   3.374  1.5535 -0.6952  0.7092
 6188SOL    HW230201   2.098   4.338   3.320  0.5622  3.8499 -0.9290
 6189SOL     OW30202   1.049   4.574  14.144 -0.6547 -0.3454 -0.8484
 6189SOL    HW130203   1.129   4.575  14.092 -0.2599 -0.7007 -0.2495
 6189SOL    HW230204   1.092   4.586  14.229  0.1107 -2.5751 -0.9433
 6190SOL     OW30205   4.038   3.708   9.471  0.1920  0.1110  0.2491
 6190SOL    HW130206   3.997   3.791   9.495 -2.2821 -0.7800 -0.9596
 6190SOL    HW230207   4.067   3.717   9.380 -0.4844 -0.6555 -0.0367
 6191SOL     OW30208   1.014   1.163   7.836 -0.3162  0.0955  0.2908
 6191SOL    HW130209   0.936   1.119   7.869  0.6413 -1.1345  0.9331
 6191SOL    HW230210   0.975   1.206   7.760  1.7779  1.0108 -0.2716
 6192SOL     OW30211   0.256   4.337   8.881 -0.0715  0.1118  0.4318
 6192SOL    HW130212   0.340   4.370   8.850  0.1776 -0.3812  0.5799
 6192SOL    HW230213   0.202   4.412   8.908 -3.2887 -1.3793 -1.8094
 6193SOL     OW30214   2.282   2.902   4.175 -0.1647 -0.3730  0.9890
 6193SOL    HW130215   2.188   2.884   4.172 -0.4150  1.1473 -0.4009
 6193SOL    HW230216   2.288   2.991   4.210 -1.5904  0.7671 -1.7229
 6194SOL     OW30217   3.843   1.500   0.414 -0.1926  0.4059  0.5309
 6194SOL    HW130218   3.758   1.466   0.441 -1.5769  1.2854 -2.6960
 6194SOL    HW230219   3.841   1.499   0.319  0.0303 -1.3390  0.5458
 6195SOL     OW30220   0.063   1.573  17.574 -0.8028 -0.1956 -0.4444
 6195SOL    HW130221   0.084   1.595  17.483  0.7917 -0.2346 -0.0859
 6195SOL    HW230222   0.035   1.654  17.616 -0.6161 -0.0311 -0.6342
 6196SOL     OW30223   3.265   0.111   9.242 -0.2255 -0.1603  0.7636
 6196SOL    HW130224   3.319   0.190   9.234 -1.2326  0.7097  2.5559
 6196SOL    HW230225   3.308   0.037   9.284 -3.3812 -1.1822  2.1934
 6197SOL     OW30226   1.171   2.019   3.934  0.0717 -0.3293 -0.7443
 6197SOL    HW130227   1.243   2.075   3.962 -1.9108  1.0862  1.5635
 6197SOL    HW230228   1.216   1.971   3.864 -0.3002 -0.1928 -1.0837
 6198SOL     OW30229   1.747   1.446  13.424 -0.3591 -0.0965  0.3753
 6198SOL    HW130230   1.807   1.501  13.373 -0.8626  0.3590  0.2717
 6198SOL    HW230231   1.669   1.497  13.445 -0.7533  0.7442 -3.1908
 6199SOL     OW30232   1.854   2.742  12.987 -0.1876  0.0395 -0.0475
 6199SOL    HW130233   1.945   2.716  12.998 -0.6091 -0.4819  2.2331
 6199SOL    HW230234   1.820   2.670  12.934  1.4112 -1.2286  0.6583
 6200SOL     OW30235   1.630   1.592  11.708 -0.6214 -0.0261 -0.1230
 6200SOL    HW130236   1.541   1.626  11.694 -0.3628  0.5917 -0.2339
 6200SOL    HW230237   1.611   1.498  11.697 -0.8238  0.0075 -0.0660
 6201SOL     OW30238   2.606   0.489   0.906 -0.0117  0.0220 -0.3824
 6201SOL    HW130239   2.674   0.483   0.973  1.0537  0.2301 -1.4380
 6201SOL    HW230240   2.624   0.571   0.861 -1.7252  1.2471  1.1800
 6202SOL     OW30241   0.357   3.961  16.441 -0.0476  0.2469  0.1098
 6202SOL    HW130242   0.348   3.866  16.440 -0.3390  0.2752  0.2840
 6202SOL    HW230243   0.323   3.997  16.359 -2.3762  3.4882  2.4780
 6203SOL     OW30244   2.496   1.506   1.203 -0.3869  0.3602  0.2339
 6203SOL    HW130245   2.529   1.416   1.203 -0.3994  0.3575 -0.7250
 6203SOL    HW230246   2.549   1.556   1.140 -1.1782 -0.0105 -0.7231
 6204SOL     OW30247   0.660   0.309  16.466  0.3435  0.2240 -0.2472
 6204SOL    HW130248   0.742   0.283  16.507  1.1203  0.5018 -1.6219
 6204SOL    HW230249   0.689   0.347  16.383  1.4638 -0.8326 -0.3417
 6205SOL     OW30250   2.537   4.184   6.293  0.1245 -0.0423 -0.9253
 6205SOL    HW130251   2.452   4.153   6.261 -1.5969  1.5532  2.0604
 6205SOL    HW230252   2.596   4.163   6.221  0.4946 -2.2010 -0.0079
 6206SOL     OW30253   1.125   2.044   5.684 -0.0225  0.0152  0.1183
 6206SOL    HW130254   1.057   2.043   5.752 -1.4399  0.5476 -1.2942
 6206SOL    HW230255   1.094   2.121   5.636  2.9146  0.5450 -0.9232
 6207SOL     OW30256   3.869   4.586  16.838  0.2625 -0.2497  0.2400
 6207SOL    HW130257   3.931   4.640  16.788 -0.6019  1.5555  1.1022
 6207SOL    HW230258   3.821   4.654  16.886 -0.3789 -0.2661 -0.3814
 6208SOL     OW30259   2.402   3.524   0.870  0.0131 -0.1069 -0.2176
 6208SOL    HW130260   2.330   3.556   0.924 -0.3017 -0.2995 -0.5245
 6208SOL    HW230261   2.452   3.603   0.850 -0.9901  0.9933  1.6609
 6209SOL     OW30262   3.090   3.493   3.397  0.3019 -0.3851  0.0922
 6209SOL    HW130263   3.095   3.547   3.476 -0.0352  1.3269 -1.0515
 6209SOL    HW230264   3.145   3.549   3.343  0.8459 -1.1529 -0.1553
 6210SOL     OW30265   3.870   2.962   2.471 -0.5014  0.3098 -0.1216
 6210SOL    HW130266   3.962   2.939   2.484 -0.3804  1.3278  0.8132
 6210SOL    HW230267   3.871   3.037   2.412 -0.3123 -0.6371 -1.3177
 6211SOL     OW30268   1.829   4.217  16.179  0.2727 -0.0561  0.0545
 6211SOL    HW130269   1.826   4.269  16.260 -0.5764 -0.6604  0.4012
 6211SOL    HW230270   1.746   4.230  16.133 -1.5877 -1.4799  3.0540
 6212SOL     OW30271   3.428   3.201  12.694  0.3779  0.2313 -0.4574
 6212SOL    HW130272   3.353   3.241  12.650  1.0175  0.8767 -0.9499
 6212SOL    HW230273   3.428   3.123  12.638  0.0510  0.6426 -1.0425
 6213SOL     OW30274   2.064   0.692   1.993 -0.2883  0.2196  0.5776
 6213SOL    HW130275   2.120   0.769   1.987 -0.7242  0.2801 -2.8041
 6213SOL    HW230276   2.111   0.625   1.944 -0.9677  0.2717 -0.1547
 6214SOL     OW30277   4.684   1.576  11.441 -0.0446  0.2837  0.7295
 6214SOL    HW130278   4.690   1.583  11.536 -1.5886 -0.7656  0.9143
 6214SOL    HW230279   4.683   1.480  11.438  0.3674  0.2699  1.1259
 6215SOL     OW30280   1.960   3.105   5.647 -0.4297 -0.7005  0.7162
 6215SOL    HW130281   1.950   3.160   5.725  0.2125 -0.0937  0.3688
 6215SOL    HW230282   1.898   3.162   5.602 -0.2798 -1.4319 -0.4133
 6216SOL     OW30283   2.918   0.973   5.155  0.5122  0.3417  0.2144
 6216SOL    HW130284   2.928   0.886   5.116  0.9907  1.4478 -2.1453
 6216SOL    HW230285   2.980   1.011   5.093  1.5406 -1.6410  0.0191
 6217SOL     OW30286   1.237   2.919   1.226 -0.5406 -0.2445  0.1859
 6217SOL    HW130287   1.312   2.950   1.276  0.3253 -2.0913  0.0071
 6217SOL    HW230288   1.183   2.903   1.303  2.2080 -1.4880  1.8255
 6218SOL     OW30289   4.651   0.089   2.754 -0.2894 -0.2201  0.1458
 6218SOL    HW130290   4.715   0.018   2.741 -2.2302 -2.0616  0.5995
 6218SOL    HW230291   4.602   0.089   2.672 -1.8461  1.2465  1.0719
 6219SOL     OW30292   0.071   3.555   8.426 -0.2033  0.2829 -0.3763
 6219SOL    HW130293   0.044   3.560   8.334  2.7317 -0.3706 -1.2756
 6219SOL    HW230294   0.014   3.618   8.470 -1.2123 -0.7298 -0.2286
 6220SOL     OW30295   4.625   0.137   7.015 -0.4389  0.8728 -0.2150
 6220SOL    HW130296   4.718   0.119   7.004 -0.7405 -0.4060 -0.6551
 6220SOL    HW230297   4.605   0.087   7.095 -3.2889  4.1203  1.1014
 6221SOL     OW30298   3.214   1.907   4.920  0.2816  0.4076 -0.1970
 6221SOL    HW130299   3.192   1.970   4.988  0.1956 -0.5714  0.6755
 6221SOL    HW230300   3.259   1.960   4.854  2.6979 -1.3661  0.0309
 6222SOL     OW30301   0.239   3.716   7.584 -0.4939 -0.1928 -0.1696
 6222SOL    HW130302   0.246   3.811   7.579  1.4130 -0.3758 -0.8637
 6222SOL    HW230303   0.145   3.710   7.566 -0.4512  1.8676 -1.1026
 6223SOL     OW30304   2.900   3.411   3.897  0.3372 -0.2016 -0.5230
 6223SOL    HW130305   2.848   3.335   3.921 -0.6848  0.2154 -1.3921
 6223SOL    HW230306   2.987   3.373   3.907  0.0988 -0.3681  0.8833
 6224SOL     OW30307   1.181   3.477   6.408  0.3448 -0.2394  0.2644
 6224SOL    HW130308   1.099   3.484   6.458 -0.1690  1.5692 -0.8373
 6224SOL    HW230309   1.205   3.565   6.379  0.4476 -0.2253  0.3937
 6225SOL     OW30310   3.293   0.910   1.724  0.2817  0.2552  0.1608
 6225SOL    HW130311   3.354   0.928   1.653  0.6442 -0.7553  0.2162
 6225SOL    HW230312   3.336   0.830   1.756 -4.0741 -1.7543  0.9965
 6226SOL     OW30313   3.253   2.122   3.161 -0.5921 -0.1903 -0.1096
 6226SOL    HW130314   3.341   2.127   3.197 -0.5314 -1.3966 -0.1137
 6226SOL    HW230315   3.212   2.059   3.220 -0.3558 -0.6866 -0.4804
 6227SOL     OW30316   3.003   0.402   7.558 -0.4144  0.0485  0.0980
 6227SOL    HW130317   3.081   0.400   7.504  0.9193  1.0991  1.9788
 6227SOL    HW230318   3.041   0.457   7.627 -0.8093 -0.7514  0.9646
 6228SOL     OW30319   2.044   3.890   9.107  0.5018 -0.0978 -0.3664
 6228SOL    HW130320   2.092   3.878   9.189 -0.8894  0.1783  0.5046
 6228SOL    HW230321   2.089   3.828   9.049  2.1476  1.3119 -0.5872
 6229SOL     OW30322   2.743   1.198   7.956  0.3866  0.0293  0.0023
 6229SOL    HW130323   2.816   1.138   7.970  0.4322  0.1099  0.0990
 6229SOL    HW230324   2.713   1.175   7.868  1.8354  0.3040 -0.5580
 6230SOL     OW30325   4.089   2.784   9.354 -0.5887  0.2864 -0.2404
 6230SOL    HW130326   4.070   2.760   9.445  1.7260  1.0136  0.4348
 6230SOL    HW230327   4.005   2.823   9.329 -0.5949 -0.2863 -1.1072
 6231SOL     OW30328   4.226   4.723  17.564  0.2768 -0.3050  0.0765
 6231SOL    HW130329   4.317   0.013  17.574  0.0112  0.1344  1.2721
 6231SOL    HW230330   4.235   4.644  17.617 -0.5350 -0.3451  0.1574
 6232SOL     OW30331   0.914   2.160   4.733  0.2705  0.0484  0.0075
 6232SOL    HW130332   0.918   2.165   4.829  2.2243 -0.9006 -0.0168
 6232SOL    HW230333   0.959   2.077   4.719 -0.5281 -0.2198 -0.9677
 6233SOL     OW30334   2.739   4.620  11.072 -0.3704 -0.2229  0.3372
 6233SOL    HW130335   2.813   4.631  11.012 -0.3272  1.7886  0.7519
 6233SOL    HW230336   2.731   4.525  11.079  1.4689 -0.1669  2.8912
 6234SOL     OW30337   2.836   3.296   7.577 -0.0377  0.1853  0.1268
 6234SOL    HW130338   2.870   3.257   7.657 -0.8717  2.3702  1.5802
 6234SOL    HW230339   2.855   3.390   7.586  0.6889  0.0910 -0.5162
 6235SOL     OW30340   1.969   2.474   0.703  0.0505  0.2800  1.1180
 6235SOL    HW130341   1.959   2.403   0.640 -0.6516 -0.3699  1.9699
 6235SOL    HW230342   1.916   2.438   0.774  3.1199 -1.4130  2.5442
 6236SOL     OW30343   3.768   1.313   2.664 -0.1732 -0.1963  0.3831
 6236SOL    HW130344   3.794   1.256   2.592 -0.8302  0.6783 -0.5359
 6236SOL    HW230345   3.696   1.260   2.697 -1.8649  1.1767 -1.1405
 6237SOL     OW30346   1.305   1.874   3.332  0.0060 -0.4653  0.6169
 6237SOL    HW130347   1.274   1.885   3.423  1.8566  3.1748  0.8241
 6237SOL    HW230348   1.221   1.893   3.289  1.4489  0.7279 -1.6602
 6238SOL     OW30349   3.017   3.182  13.663  0.4401 -0.4120  0.2863
 6238SOL    HW130350   2.999   3.225  13.580 -1.7101 -0.9201  0.5021
 6238SOL    HW230351   2.999   3.091  13.637  0.6409 -0.4969  0.4404
 6239SOL     OW30352   0.156   4.226   7.744  0.3122  0.6593  0.2900
 6239SOL    HW130353   0.149   4.238   7.838 -0.6910  1.8074  0.0549
 6239SOL    HW230354   0.121   4.306   7.705  2.8381  2.7737  2.4050
 6240SOL     OW30355   2.560   0.253   9.009  0.4225  0.0323  0.5020
 6240SOL    HW130356   2.633   0.207   9.051 -0.3599  0.1284  1.9539
 6240SOL    HW230357   2.522   0.187   8.951  0.0422 -0.6631  1.5490
 6241SOL     OW30358   3.138   2.959  13.466 -0.4320 -0.4309  0.5148
 6241SOL    HW130359   3.106   2.950  13.377  2.1968  2.7613 -0.7372
 6241SOL    HW230360   3.175   3.047  13.465 -0.9712 -0.1669  2.7363
 6242SOL     OW30361   3.358   3.657   5.642 -0.1765 -0.2563 -0.9224
 6242SOL    HW130362   3.304   3.730   5.672 -0.9888 -0.6116 -1.5096
 6242SOL    HW230363   3.398   3.686   5.560 -1.1946 -1.9907 -2.0263
 6243SOL     OW30364   4.671   1.789   0.627 -0.1282  0.2193  0.1234
 6243SOL    HW130365   4.689   1.698   0.652 -2.5643 -0.3677 -0.3038
 6243SOL    HW230366   4.702   1.782   0.537 -0.0983  1.9741  0.0061
 6244SOL     OW30367   1.363   4.621   2.410 -0.1087 -0.2503  0.4286
 6244SOL    HW130368   1.347   4.685   2.479  4.6900 -1.1752  2.3947
 6244SOL    HW230369   1.440   4.657   2.365 -0.6040 -0.6151 -0.7085
 6245SOL     OW30370   3.771   1.341   3.332 -0.4321 -0.1726  0.0602
 6245SOL    HW130371   3.800   1.349   3.423  0.1829  1.7898 -0.2913
 6245SOL    HW230372   3.814   1.419   3.296 -0.1359 -0.8730 -1.0746
 6246SOL     OW30373   2.301   2.482   6.650  0.1451 -0.3101 -0.5293
 6246SOL    HW130374   2.242   2.536   6.597 -0.3942 -0.0090  0.3694
 6246SOL    HW230375   2.380   2.502   6.600  1.2243 -0.4470  1.1110
 6247SOL     OW30376   0.277   1.509  14.987  0.2325  0.2008  0.5562
 6247SOL    HW130377   0.251   1.509  14.895  0.1914 -2.3602  0.5806
 6247SOL    HW230378   0.368   1.537  14.992  0.5599 -0.8715  0.4570
 6248SOL     OW30379   3.038   2.029   0.534 -1.0184 -0.1104  0.2698
 6248SOL    HW130380   3.090   2.083   0.594  0.9139 -0.3271 -1.2447
 6248SOL    HW230381   2.971   2.095   0.522  0.0532  0.7915 -0.6357
 6249SOL     OW30382   3.373   2.355   8.886 -0.1325  0.4451  0.1774
 6249SOL    HW130383   3.402   2.393   8.969 -0.4003  0.6338  0.1823
 6249SOL    HW230384   3.459   2.320   8.860 -0.4953 -0.3804  0.0818
 6250SOL     OW30385   2.188   1.894   9.136  0.3709  0.1715 -0.1061
 6250SOL    HW130386   2.251   1.966   9.128 -0.4888  1.1475  1.8082
 6250SOL    HW230387   2.137   1.922   9.060 -0.5535 -0.6009  0.2318
 6251SOL     OW30388   3.334   1.510   9.087  0.2039 -0.6694 -0.1357
 6251SOL    HW130389   3.331   1.419   9.055  0.2313 -1.2770  1.5863
 6251SOL    HW230390   3.338   1.562   9.007 -0.2753 -0.2917  0.0910
 6252SOL     OW30391   4.451   4.644   2.548  0.5011  0.5970  0.2652
 6252SOL    HW130392   4.533   4.691   2.533 -0.0857  1.4892 -0.2196
 6252SOL    HW230393   4.465   4.596   2.466 -1.2248 -0.8311  0.8237
 6253SOL     OW30394   4.352   0.404   7.606  0.4274 -0.5667  0.1826
 6253SOL    HW130395   4.437   0.380   7.643  0.6977  0.7016  0.3725
 6253SOL    HW230396   4.310   0.451   7.678  0.6744  3.4995 -2.3653
 6254SOL     OW30397   3.532   0.664   8.362 -0.2077  0.0638 -0.0790
 6254SOL    HW130398   3.575   0.609   8.427 -0.8574  0.2380  0.5092
 6254SOL    HW230399   3.537   0.747   8.410 -0.0740  0.4916 -0.8418
 6255SOL     OW30400   3.410   0.962   9.030 -0.2840  0.2176  0.5660
 6255SOL    HW130401   3.414   0.880   9.080  0.5290 -1.6425 -2.5837
 6255SOL    HW230402   3.364   0.933   8.951  0.8881 -0.8181  0.2615
 6256SOL     OW30403   3.634   3.302   6.967 -0.9045  0.0936 -0.1850
 6256SOL    HW130404   3.553   3.301   6.917  0.5170 -1.8373 -2.4473
 6256SOL    HW230405   3.614   3.231   7.029  0.5740  0.0627  0.2589
 6257SOL     OW30406   0.565   2.398  16.429  0.6035 -0.4857 -0.3542
 6257SOL    HW130407   0.473   2.409  16.405  0.0526 -1.2227  1.4184
 6257SOL    HW230408   0.604   2.464  16.372  1.0604 -0.0191  0.5034
 6258SOL     OW30409   2.959   4.667   8.930 -0.0472  0.7789  0.3303
 6258SOL    HW130410   3.043   4.708   8.948  0.1611  0.0622  0.9834
 6258SOL    HW230411   2.964   4.645   8.837  0.6984  0.6076  0.4165
 6259SOL     OW30412   1.877   2.027   2.426 -0.0448 -0.4600 -0.3959
 6259SOL    HW130413   1.850   2.012   2.517  3.2358  3.5148  1.2437
 6259SOL    HW230414   1.933   2.105   2.424  0.6897 -0.9767 -0.1101
 6260SOL     OW30415   2.524   0.093   8.225 -0.3711 -0.1298 -0.2417
 6260SOL    HW130416   2.573   0.175   8.233 -1.7874  0.7420 -0.4291
 6260SOL    HW230417   2.465   0.097   8.300  1.0852  1.7101  0.8082
 6261SOL     OW30418   1.497   1.722   3.556  0.2360  0.4087  0.2536
 6261SOL    HW130419   1.577   1.711   3.506  2.3303 -0.5470  3.7666
 6261SOL    HW230420   1.499   1.817   3.564  0.0741  0.5909 -1.9421
 6262SOL     OW30421   3.669   3.063  11.904 -0.5752 -0.0755 -0.7500
 6262SOL    HW130422   3.603   3.051  11.972 -1.0066 -0.2570 -1.2062
 6262SOL    HW230423   3.674   2.977  11.862  2.8225 -0.1855 -0.1277
 6263SOL     OW30424   1.475   2.460  13.229  0.2777 -0.5949 -0.0254
 6263SOL    HW130425   1.423   2.531  13.265  0.3514 -0.5096 -0.0872
 6263SOL    HW230426   1.470   2.405  13.307 -1.4368 -0.6876 -0.2057
 6264SOL     OW30427   3.738   0.574   1.571 -0.4472 -0.0620  0.0413
 6264SOL    HW130428   3.739   0.488   1.612  0.3409  0.0160  0.1849
 6264SOL    HW230429   3.728   0.544   1.481  2.3557 -1.7688  0.3172
 6265SOL     OW30430   3.942   3.034   2.788 -0.1236 -0.4168  0.1188
 6265SOL    HW130431   3.858   3.051   2.829 -0.8361  0.1911 -1.6023
 6265SOL    HW230432   3.968   3.122   2.760  1.0662 -0.7449  0.1670
 6266SOL     OW30433   0.853   0.811  16.407 -0.1651  0.2881  0.1227
 6266SOL    HW130434   0.794   0.778  16.475 -0.1028  0.2488  0.1578
 6266SOL    HW230435   0.916   0.739  16.410 -1.7122 -1.0156  1.7526
 6267SOL     OW30436   2.976   3.097   3.663  0.2130  0.1405 -0.4988
 6267SOL    HW130437   2.951   3.153   3.589  1.1910 -0.2705 -1.1398
 6267SOL    HW230438   3.043   3.140   3.716 -0.1570 -1.1776  1.0331
 6268SOL     OW30439   3.228   4.564   1.955 -0.0223 -0.6311  0.1166
 6268SOL    HW130440   3.168   4.548   2.028 -0.6030 -0.5308 -0.3311
 6268SOL    HW230441   3.221   4.478   1.914  1.4020 -0.7413  0.1029
 6269SOL     OW30442   4.458   1.051   4.559  0.0304 -0.1176 -0.0185
 6269SOL    HW130443   4.453   1.028   4.467 -1.7710  2.1248 -0.4681
 6269SOL    HW230444   4.528   1.116   4.552 -1.0108  1.4756  4.1473
 6270SOL     OW30445   1.864   3.015   7.640 -0.0987 -0.0734  0.4789
 6270SOL    HW130446   1.812   3.092   7.618  0.8019  0.4488  0.1829
 6270SOL    HW230447   1.900   3.049   7.722  0.5244 -1.0881  0.6275
 6271SOL     OW30448   4.162   1.561  12.711 -0.1695  0.4129 -0.2986
 6271SOL    HW130449   4.167   1.562  12.806 -0.8440  0.5870 -0.2601
 6271SOL    HW230450   4.244   1.604  12.689 -1.1603  1.9021 -1.1592
 6272SOL     OW30451   1.767   2.357   5.352 -0.1865  0.3237  0.6783
 6272SOL    HW130452   1.725   2.418   5.413 -0.5478  1.7655 -1.0158
 6272SOL    HW230453   1.812   2.291   5.406  3.1757  2.5415  0.5523
 6273SOL     OW30454   3.073   2.591   1.715 -0.1359  0.2884 -0.4860
 6273SOL    HW130455   3.121   2.514   1.684 -1.1254 -0.3579 -0.4263
 6273SOL    HW230456   3.036   2.622   1.632 -0.6220 -0.0049 -0.3805
 6274SOL     OW30457   0.218   3.559  13.030 -0.4066 -0.0766 -0.3817
 6274SOL    HW130458   0.133   3.578  12.989 -0.7640  0.0943  0.4250
 6274SOL    HW230459   0.213   3.464  13.020  2.7795 -0.3738  1.1083
 6275SOL     OW30460   0.769   1.276  10.905 -0.4813 -0.2269 -0.0459
 6275SOL    HW130461   0.749   1.264  10.812  1.5635 -2.1660 -0.2485
 6275SOL    HW230462   0.745   1.193  10.946  0.9211 -0.5198  0.1936
 6276SOL     OW30463   0.471   1.933   5.613 -0.1928  0.4670  0.1003
 6276SOL    HW130464   0.421   1.859   5.647 -0.4917  1.1640  1.1580
 6276SOL    HW230465   0.461   1.996   5.684 -0.9353 -0.7855  1.0852
 6277SOL     OW30466   4.190   1.138   0.347 -0.2763  0.2367  0.1601
 6277SOL    HW130467   4.207   1.043   0.350 -0.8909  0.1250  0.0543
 6277SOL    HW230468   4.164   1.149   0.256 -0.4846 -2.8875 -0.1566
 6278SOL     OW30469   2.028   4.396  16.082  0.3219 -0.6345 -0.3952
 6278SOL    HW130470   1.959   4.459  16.059 -0.0201 -1.9204 -2.9411
 6278SOL    HW230471   1.967   4.326  16.103  0.4803 -0.1432  1.6972
 6279SOL     OW30472   3.729   0.540   3.215 -0.3698 -0.2658  0.0286
 6279SOL    HW130473   3.664   0.483   3.173 -1.2492 -1.3437  2.8829
 6279SOL    HW230474   3.761   0.488   3.289  2.8324  0.0730 -1.1176
 6280SOL     OW30475   2.058   3.409  10.379 -0.1239 -0.2194  0.2935
 6280SOL    HW130476   2.127   3.358  10.421 -0.0544  1.2362  1.9024
 6280SOL    HW230477   2.063   3.368  10.292  2.4900 -0.2478  0.4464
 6281SOL     OW30478   4.382   1.778   6.081  0.9604  0.2913  0.0026
 6281SOL    HW130479   4.411   1.809   6.166 -1.8996 -5.0697  2.9318
 6281SOL    HW230480   4.440   1.832   6.026  0.7847 -1.2203 -1.6764
 6282SOL     OW30481   4.721   2.943  14.611  0.4323  0.6004  0.5230
 6282SOL    HW130482   0.073   2.929  14.584  0.5624 -2.7565  2.7507
 6282SOL    HW230483   4.706   2.883  14.684 -0.8852  0.4526  0.1307
 6283SOL     OW30484   2.050   3.331   7.516  0.6635 -0.0466 -0.5425
 6283SOL    HW130485   2.048   3.241   7.482 -2.5012  0.1566 -0.9245
 6283SOL    HW230486   2.070   3.383   7.438 -0.7844 -0.2698 -1.0600
 6284SOL     OW30487   2.234   3.850   8.614 -0.2537 -0.4343  0.2018
 6284SOL    HW130488   2.207   3.764   8.645 -0.0569 -1.6030 -2.9090
 6284SOL    HW230489   2.281   3.834   8.532  2.9860  1.9718  1.5578
 6285SOL     OW30490   4.710   1.385   0.621  0.4478 -0.2970  0.0460
 6285SOL    HW130491   0.058   1.345   0.618  0.2422 -0.7292 -0.1823
 6285SOL    HW230492   4.725   1.453   0.686  0.1462 -1.1236  0.9810
 6286SOL     OW30493   0.705   3.926   5.074 -0.6101 -0.2646 -0.2264
 6286SOL    HW130494   0.635   3.984   5.042  0.9979  1.2444 -1.0041
 6286SOL    HW230495   0.709   3.945   5.168 -0.1797 -0.0118 -0.2942
 6287SOL     OW30496   2.116   2.638  13.041 -0.0668 -0.2390  0.3383
 6287SOL    HW130497   2.184   2.592  12.992 -2.2307  0.1390 -3.0437
 6287SOL    HW230498   2.168   2.713  13.068 -0.7706  0.7142 -0.9866
 6288SOL     OW30499   2.705   2.221  13.830  0.7121  0.1973 -0.0599
 6288SOL    HW130500   2.616   2.216  13.794  0.7435  0.1342 -0.1277
 6288SOL    HW230501   2.689   2.192  13.920 -1.4438  1.7673  0.0717
 6289SOL     OW30502   3.842   3.559   2.734 -0.1377  0.4516  0.0054
 6289SOL    HW130503   3.752   3.564   2.765 -0.3121  1.0829 -0.6110
 6289SOL    HW230504   3.868   3.477   2.776  1.0863  0.2572 -1.1343
 6290SOL     OW30505   0.306   3.376  11.172 -0.2857 -0.1015 -0.0238
 6290SOL    HW130506   0.224   3.330  11.187  0.2320 -0.6176  1.2137
 6290SOL    HW230507   0.359   3.358  11.249  0.6616  0.1315 -0.6258
 6291SOL     OW30508   3.396   4.638   1.533  0.0838 -0.0978 -0.4931
 6291SOL    HW130509   3.344   4.575   1.583 -0.6520  0.2260 -0.8486
 6291SOL    HW230510   3.439   4.568   1.484  0.0694 -0.7458  0.4168
 6292SOL     OW30511   1.361   2.552  12.986  0.1716 -0.3851 -0.3428
 6292SOL    HW130512   1.412   2.566  12.906 -0.1405  1.9680 -0.1363
 6292SOL    HW230513   1.422   2.527  13.055  0.7831 -0.1926 -0.8060
 6293SOL     OW30514   2.146   2.521   8.935  0.5537  0.3056  0.3068
 6293SOL    HW130515   2.159   2.580   8.861 -0.5748  0.0072 -0.1326
 6293SOL    HW230516   2.051   2.509   8.941  0.8277 -2.4374 -0.6703
 6294SOL     OW30517   4.408   1.020   0.792  0.0485  0.1674 -0.5914
 6294SOL    HW130518   4.417   0.931   0.757  1.5369 -0.3143  0.9969
 6294SOL    HW230519   4.312   1.022   0.786 -0.2217 -2.4876  2.6763
 6295SOL     OW30520   3.214   4.002   8.634 -0.2044 -0.1957 -0.4907
 6295SOL    HW130521   3.174   4.058   8.567  1.8228  0.2551 -1.3231
 6295SOL    HW230522   3.237   4.072   8.694 -0.5885 -0.1071 -0.4468
 6296SOL     OW30523   0.297   0.833  13.423 -0.9141  0.0695  0.2739
 6296SOL    HW130524   0.379   0.799  13.387 -1.1901  0.0964 -0.3827
 6296SOL    HW230525   0.292   0.926  13.402 -0.9254  0.1752  0.7517
 6297SOL     OW30526   3.985   4.217   9.621 -0.3967 -0.3761  0.3391
 6297SOL    HW130527   3.954   4.306   9.606 -1.0740 -0.2061  2.7972
 6297SOL    HW230528   4.073   4.226   9.658 -0.4244  0.1094  0.2804
 6298SOL     OW30529   0.957   1.065  11.146  0.2435 -0.3424  0.3117
 6298SOL    HW130530   1.038   1.046  11.100  0.8111  0.4663  0.9559
 6298SOL    HW230531   0.973   0.996  11.211 -1.1293  0.8202  1.9012
 6299SOL     OW30532   1.133   1.621   8.011 -0.1992 -0.1227  0.3542
 6299SOL    HW130533   1.146   1.623   7.916  1.5582  0.5206  0.6172
 6299SOL    HW230534   1.165   1.535   8.039 -1.4354 -0.3270  1.1407
 6300SOL     OW30535   1.804   3.167   8.411  0.0432 -0.1571 -1.0832
 6300SOL    HW130536   1.866   3.175   8.484 -0.7189  0.4354 -0.4988
 6300SOL    HW230537   1.724   3.187   8.460  1.1456 -3.4233  2.0954
 6301SOL     OW30538   4.535   0.415   2.411 -0.6695  1.2990  0.1596
 6301SOL    HW130539   4.628   0.425   2.392  0.2437 -0.2587  3.8308
 6301SOL    HW230540   4.497   0.381   2.330 -1.9620 -1.9762  2.1258
 6302SOL     OW30541   0.680   0.373   4.287  0.5756 -0.7469 -0.3193
 6302SOL    HW130542   0.742   0.439   4.316  0.1498 -0.4373 -0.1075
 6302SOL    HW230543   0.627   0.359   4.365 -0.9670  0.4549 -1.1510
 6303SOL     OW30544   2.928   3.649   6.448 -0.2373  0.2371 -0.5157
 6303SOL    HW130545   2.881   3.731   6.434  0.6856  0.5720 -1.6978
 6303SOL    HW230546   2.877   3.587   6.397  0.7369 -1.7119  0.9125
 6304SOL     OW30547   3.370   4.369   8.041 -0.2369 -0.4712 -0.2268
 6304SOL    HW130548   3.291   4.408   8.078 -0.0082  2.0139 -2.3992
 6304SOL    HW230549   3.442   4.403   8.093 -0.6378 -0.6823  0.4685
 6305SOL     OW30550   2.415   2.551   7.499 -0.3068 -0.7088 -0.6415
 6305SOL    HW130551   2.481   2.488   7.471  1.1202  0.9434 -0.9632
 6305SOL    HW230552   2.425   2.622   7.436 -0.4813  2.0019  2.3912
 6306SOL     OW30553   1.050   3.173   6.646 -0.5816  0.0732 -0.3683
 6306SOL    HW130554   1.074   3.132   6.729  0.0991  0.0497 -0.5815
 6306SOL    HW230555   1.069   3.265   6.665  0.0868 -0.4616  1.6069
 6307SOL     OW30556   1.658   0.873   1.000 -0.5459 -0.2624 -0.1945
 6307SOL    HW130557   1.658   0.942   0.934 -0.4649  0.0875  0.1750
 6307SOL    HW230558   1.739   0.823   0.990 -0.5309 -0.6453  1.7942
 6308SOL     OW30559   0.891   1.736   4.447 -0.3782  0.0756  0.6864
 6308SOL    HW130560   0.908   1.667   4.383  0.0959  0.9198 -0.1167
 6308SOL    HW230561   0.796   1.733   4.448 -0.3438 -0.7456  1.3054
 6309SOL     OW30562   2.009   3.570   6.721 -0.0090  0.1473  0.1648
 6309SOL    HW130563   2.030   3.533   6.635 -1.6599 -0.6055  0.0809
 6309SOL    HW230564   2.082   3.630   6.730  0.7884 -1.4182  3.9824
 6310SOL     OW30565   4.656   2.836  10.261  0.5417 -0.0336  0.1551
 6310SOL    HW130566   4.609   2.919  10.274  1.1277  0.5608 -1.5213
 6310SOL    HW230567   4.601   2.790  10.198 -0.9519 -0.6392  1.9172
 6311SOL     OW30568   4.023   0.286   5.338 -0.1028 -0.2852 -0.6764
 6311SOL    HW130569   3.995   0.378   5.334 -3.1460 -1.2061 -0.2835
 6311SOL    HW230570   4.104   0.282   5.389  0.3741 -1.3690 -1.5291
 6312SOL     OW30571   0.706   0.729  17.623  0.2142  0.5151 -0.0271
 6312SOL    HW130572   0.757   0.683  17.690  0.0396  0.4381  0.0531
 6312SOL    HW230573   0.764   0.789  17.576 -0.6787 -0.2652 -2.1074
 6313SOL     OW30574   3.840   2.015   3.104  0.3307  0.0349  0.8632
 6313SOL    HW130575   3.864   1.930   3.141 -3.3566 -0.8135  1.2889
 6313SOL    HW230576   3.764   1.984   3.055  1.2042 -1.0145  0.1633
 6314SOL     OW30577   0.626   0.636   7.253 -0.0446  0.0491  0.6321
 6314SOL    HW130578   0.704   0.602   7.297 -1.0885 -0.4949  2.0483
 6314SOL    HW230579   0.556   0.576   7.277 -0.1914  0.0042  0.0955
 6315SOL     OW30580   3.780   1.787   5.909  0.6691  0.3726 -0.3867
 6315SOL    HW130581   3.778   1.870   5.957  1.0918 -1.7433  3.2679
 6315SOL    HW230582   3.726   1.813   5.834  0.1328 -1.1865 -0.5376
 6316SOL     OW30583   2.147   4.485   8.788  0.0226 -0.1132  0.7668
 6316SOL    HW130584   2.095   4.477   8.708  0.0983  0.5491  0.6524
 6316SOL    HW230585   2.235   4.501   8.754 -0.2168 -0.5945 -0.0891
 6317SOL     OW30586   0.000   1.818   2.612  0.0040  0.0588 -0.2361
 6317SOL    HW130587   0.089   1.789   2.591  1.0552  2.2454  1.3216
 6317SOL    HW230588   4.702   1.736   2.646 -0.9389  0.6199  0.0891
 6318SOL     OW30589   2.326   2.179   4.483 -0.1599 -0.4187 -0.0887
 6318SOL    HW130590   2.272   2.155   4.559  0.3983  1.7050  0.9624
 6318SOL    HW230591   2.280   2.262   4.472 -2.3892 -1.4628  1.1270
 6319SOL     OW30592   0.834   2.529  17.175  0.4343  0.4173  1.1493
 6319SOL    HW130593   0.817   2.539  17.081  1.6181 -1.1298  0.7666
 6319SOL    HW230594   0.754   2.564  17.214 -1.3444 -1.0102 -1.1664
 6320SOL     OW30595   0.821   0.738   7.459 -0.0348 -0.4935  0.2182
 6320SOL    HW130596   0.834   0.652   7.499 -0.8516 -0.0398  1.4903
 6320SOL    HW230597   0.880   0.729   7.385 -1.0000 -0.1892 -0.5883
 6321SOL     OW30598   2.780   0.252   5.062 -0.1519  0.1247 -0.0597
 6321SOL    HW130599   2.685   0.242   5.062 -0.0435 -0.9259  1.2417
 6321SOL    HW230600   2.796   0.251   5.157 -0.2927  1.1331 -0.0287
 6322SOL     OW30601   4.100   3.964   3.625  0.3464  0.4535 -0.6515
 6322SOL    HW130602   4.118   3.896   3.560  0.6540  1.0545 -1.1945
 6322SOL    HW230603   4.008   3.980   3.603  0.9281  1.1012 -2.5653
 6323SOL     OW30604   3.570   1.445   0.195 -0.1169 -0.0422 -0.0004
 6323SOL    HW130605   3.513   1.398   0.134 -1.3047 -0.1853  1.2295
 6323SOL    HW230606   3.586   1.515   0.132 -1.3765  0.1435 -0.0950
 6324SOL     OW30607   3.820   0.043   4.413  0.1408  0.3521 -0.0339
 6324SOL    HW130608   3.828   0.090   4.330  0.5010  0.4458  0.0540
 6324SOL    HW230609   3.750   0.092   4.456 -1.8750 -0.1549 -2.7861
 6325SOL     OW30610   2.505   3.071   1.681  0.4731  0.4500 -0.0638
 6325SOL    HW130611   2.525   3.116   1.599  0.9412  2.4371  1.1368
 6325SOL    HW230612   2.498   2.978   1.658 -1.0985  0.1356  1.6477
 6326SOL     OW30613   4.366   0.199   7.045  0.4573  0.7100 -0.2138
 6326SOL    HW130614   4.459   0.185   7.031  0.4095  0.0094  0.1333
 6326SOL    HW230615   4.371   0.294   7.060 -0.2486  0.3221  2.5664
 6327SOL     OW30616   3.685   1.055   0.327  0.4818 -0.1220  0.0424
 6327SOL    HW130617   3.655   1.060   0.236  0.0390  0.9332  0.2478
 6327SOL    HW230618   3.619   1.006   0.375  0.2766 -0.4653 -0.5916
 6328SOL     OW30619   4.022   2.360   8.835 -0.0816 -0.5904 -0.0616
 6328SOL    HW130620   4.072   2.308   8.898  2.7169 -1.2094 -2.8204
 6328SOL    HW230621   4.017   2.295   8.765 -0.8305  0.7526 -1.2431
 6329SOL     OW30622   4.127   1.654   4.440 -0.1945  0.4190 -0.2523
 6329SOL    HW130623   4.122   1.671   4.534 -2.6675  0.4418 -0.3784
 6329SOL    HW230624   4.209   1.607   4.424 -0.4976 -0.4754  0.8404
 6330SOL     OW30625   0.077   4.232  14.765 -0.0571 -0.1815 -0.4598
 6330SOL    HW130626   0.115   4.242  14.677 -0.0408 -1.6958 -0.6312
 6330SOL    HW230627   0.147   4.186  14.810  0.9893 -1.0849 -3.0234
 6331SOL     OW30628   2.547   4.593   7.011 -0.7168 -0.2955 -0.1671
 6331SOL    HW130629   2.531   4.581   6.917 -1.7516  0.9400 -0.1485
 6331SOL    HW230630   2.565   4.504   7.042  0.2341 -0.0336  0.0511
 6332SOL     OW30631   1.784   2.062  12.458  0.0577  0.3363  0.1062
 6332SOL    HW130632   1.753   1.988  12.405 -2.0754  0.0263  1.7714
 6332SOL    HW230633   1.704   2.090  12.502  0.2354  3.9878 -1.8499
 6333SOL     OW30634   2.072   2.400  12.278  0.3772  0.0860 -0.5496
 6333SOL    HW130635   2.091   2.384  12.185 -0.9021 -1.3332 -0.5631
 6333SOL    HW230636   2.029   2.315  12.292  1.3776 -0.0065  1.9769
 6334SOL     OW30637   3.165   4.173  17.686 -0.3849  0.3009 -0.2248
 6334SOL    HW130638   3.122   4.091  17.662  0.5403 -0.3082  0.1725
 6334SOL    HW230639   3.192   4.151   0.024 -0.3824 -4.0365 -1.2890
 6335SOL     OW30640   3.680   0.335  16.879  0.0638  0.0943 -0.0297
 6335SOL    HW130641   3.611   0.360  16.817  1.3252  1.3966 -0.9097
 6335SOL    HW230642   3.651   0.257  16.925  0.7710 -0.2446 -0.1568
 6336SOL     OW30643   3.441   2.418   9.157  0.4622  0.5652 -0.2329
 6336SOL    HW130644   3.441   2.325   9.177 -2.7853  0.6785  0.2490
 6336SOL    HW230645   3.350   2.438   9.179 -0.1962  1.4955 -3.7822
 6337SOL     OW30646   0.900   4.443   8.587 -0.4279 -0.4172  0.5653
 6337SOL    HW130647   0.829   4.434   8.524  0.9957  0.4078 -1.1524
 6337SOL    HW230648   0.922   4.351   8.605  0.2483 -0.1718  0.9752
 6338SOL     OW30649   2.462   3.288   7.591  0.0540 -0.0520 -0.0643
 6338SOL    HW130650   2.405   3.325   7.523  0.8924 -0.0643 -0.7870
 6338SOL    HW230651   2.499   3.365   7.635  0.9590 -0.9646  0.7741
 6339SOL     OW30652   0.193   0.634   3.058 -0.2261  0.5998 -0.0507
 6339SOL    HW130653   0.209   0.666   2.969  0.5713 -1.5991 -0.7017
 6339SOL    HW230654   0.258   0.682   3.109 -1.4028  2.1357 -0.0046
 6340SOL     OW30655   2.570   4.158   3.267 -0.6237 -0.3174 -0.9715
 6340SOL    HW130656   2.507   4.154   3.340 -0.1144  1.4545 -0.4378
 6340SOL    HW230657   2.638   4.217   3.298 -1.0261 -0.1108 -0.4766
 6341SOL     OW30658   1.360   0.947   2.171  0.4032  0.6171 -0.1632
 6341SOL    HW130659   1.445   0.946   2.128  0.7166  1.4786  0.4407
 6341SOL    HW230660   1.324   1.035   2.155  0.3603  0.2966 -1.7747
 6342SOL     OW30661   1.715   3.661   7.885  0.0218 -0.0404 -0.0552
 6342SOL    HW130662   1.710   3.742   7.935  1.7771  0.5622 -0.8538
 6342SOL    HW230663   1.799   3.632   7.922  0.5237  1.4891 -0.0115
 6343SOL     OW30664   3.405   1.605   5.584  0.4206  0.4810 -0.0404
 6343SOL    HW130665   3.338   1.541   5.560 -0.4324  2.0849 -1.9690
 6343SOL    HW230666   3.359   1.681   5.549  3.5337  2.0352 -0.7424
 6344SOL     OW30667   2.660   2.186  14.099 -0.1609 -0.5686  0.2744
 6344SOL    HW130668   2.752   2.158  14.094  0.7553  2.4492  0.1012
 6344SOL    HW230669   2.667   2.213  14.190  0.2313 -2.2726  0.7515
 6345SOL     OW30670   2.207   0.920   5.194 -0.4862  0.0532  0.2726
 6345SOL    HW130671   2.222   1.014   5.203  0.5292 -0.1040  0.2476
 6345SOL    HW230672   2.153   0.897   5.270 -0.6517 -1.3348 -0.2693
 6346SOL     OW30673   1.103   2.576   2.447  0.0551 -0.2792 -1.1000
 6346SOL    HW130674   1.058   2.656   2.420 -2.7573 -1.2843  0.6809
 6346SOL    HW230675   1.104   2.524   2.366  0.0664 -0.5380 -0.9350
 6347SOL     OW30676   0.540   0.463  15.541 -0.3214 -0.6354  0.0300
 6347SOL    HW130677   0.452   0.429  15.552 -0.9399  0.0824 -2.7703
 6347SOL    HW230678   0.585   0.418  15.614  0.2082 -0.5557 -0.2439
 6348SOL     OW30679   3.982   4.493   9.568 -0.3640  0.0751  0.1911
 6348SOL    HW130680   4.012   4.582   9.584  2.0746 -0.4986 -1.1646
 6348SOL    HW230681   3.893   4.516   9.541  0.2095  0.8972 -0.9596
 6349SOL     OW30682   4.688   2.444  15.476 -0.6599 -0.0005  0.9359
 6349SOL    HW130683   0.012   2.386  15.519 -3.5684 -2.7186  1.4433
 6349SOL    HW230684   4.612   2.386  15.471 -1.0124  0.6958 -1.9035
 6350SOL     OW30685   1.414   3.655  17.134  0.2268 -0.4511  0.0482
 6350SOL    HW130686   1.381   3.615  17.215  1.6859  0.6620  1.1967
 6350SOL    HW230687   1.487   3.601  17.103  0.5076 -0.4341  0.6781
 6351SOL     OW30688   3.992   0.091  17.745 -0.0328 -0.5871 -0.2760
 6351SOL    HW130689   3.967   0.015  17.693  0.3446 -1.0555  0.2352
 6351SOL    HW230690   4.086   0.088  17.726 -0.4069 -1.4209 -2.0316
 6352SOL     OW30691   4.045   4.108   4.735  0.1859  0.2473  0.0694
 6352SOL    HW130692   4.055   4.018   4.705 -0.2099  0.0907  0.4238
 6352SOL    HW230693   4.060   4.161   4.657 -0.0415  0.0208 -0.1286
 6353SOL     OW30694   3.905   1.811   7.506 -0.1421  0.6840 -0.5507
 6353SOL    HW130695   3.968   1.855   7.449  0.0821 -0.7242 -1.4060
 6353SOL    HW230696   3.938   1.823   7.595 -1.6976 -1.1968  0.2760
 6354SOL     OW30697   4.217   0.562   2.635  0.0143  0.4530 -0.8350
 6354SOL    HW130698   4.309   0.587   2.624 -0.2447 -0.1189 -4.1068
 6354SOL    HW230699   4.224   0.478   2.680 -0.6300  1.6090  1.4230
 6355SOL     OW30700   0.779   0.143   9.933 -0.2228  0.1014  0.1986
 6355SOL    HW130701   0.705   0.135   9.992  0.5217 -1.8271  0.8593
 6355SOL    HW230702   0.813   0.230   9.956 -0.0533 -0.1631  0.9589
 6356SOL     OW30703   3.121   4.370  12.661  0.3713  0.5441  0.2290
 6356SOL    HW130704   3.066   4.316  12.717 -0.0453  0.4633 -0.2622
 6356SOL    HW230705   3.110   4.451  12.710 -1.6851 -0.4559  1.3948
 6357SOL     OW30706   0.872   3.503   1.629  0.4679 -0.9191 -0.0317
 6357SOL    HW130707   0.789   3.550   1.637 -0.9998 -3.7350  1.3007
 6357SOL    HW230708   0.891   3.522   1.537 -1.2843  3.3512  0.4745
 6358SOL     OW30709   1.765   1.385  11.494  0.1190  0.2344  0.2576
 6358SOL    HW130710   1.681   1.394  11.539  0.1435  2.6827 -0.2051
 6358SOL    HW230711   1.831   1.412  11.558  0.1611  2.3336 -0.6805
 6359SOL     OW30712   2.960   4.450   5.004  0.3317 -0.5207 -0.2830
 6359SOL    HW130713   2.997   4.496   4.929 -1.1154  1.1959  0.0508
 6359SOL    HW230714   3.017   4.373   4.995 -1.5146 -2.1460  1.7313
 6360SOL     OW30715   3.114   4.230   2.254 -0.7355  0.3139  0.3290
 6360SOL    HW130716   3.063   4.249   2.176 -1.8926  0.0394  1.0120
 6360SOL    HW230717   3.100   4.135   2.260 -1.4609  0.3704 -0.5859
 6361SOL     OW30718   0.187   0.177   7.067 -0.0760 -0.3762 -0.4985
 6361SOL    HW130719   0.189   0.264   7.028 -0.0043  0.2820  1.0032
 6361SOL    HW230720   0.259   0.138   7.017  0.6718 -0.3498  0.5639
 6362SOL     OW30721   0.744   0.209   5.792 -0.4205  0.0358 -0.0505
 6362SOL    HW130722   0.720   0.273   5.858 -0.3884  0.4870 -0.4738
 6362SOL    HW230723   0.808   0.160   5.843 -1.2003 -1.3578 -0.4114
 6363SOL     OW30724   2.367   0.716   5.302  0.0252 -0.6351  0.3956
 6363SOL    HW130725   2.339   0.774   5.231 -0.4589  0.0962  1.1688
 6363SOL    HW230726   2.341   0.761   5.383 -0.7205 -2.0610  0.9408
 6364SOL     OW30727   0.881   2.953  10.715  0.9387  0.2339 -0.6088
 6364SOL    HW130728   0.835   2.869  10.712  0.5817  0.4184 -0.2743
 6364SOL    HW230729   0.916   2.944  10.803 -0.2389  0.0334 -0.1606
 6365SOL     OW30730   2.865   3.848   4.352  0.3826 -0.6578 -0.1370
 6365SOL    HW130731   2.782   3.832   4.397 -0.3895 -2.1845 -2.1151
 6365SOL    HW230732   2.863   3.944   4.348 -0.7757 -0.6257  1.0361
 6366SOL     OW30733   0.828   1.599   3.298 -0.3078 -0.5832 -0.1165
 6366SOL    HW130734   0.747   1.556   3.272  0.4561 -0.5709 -2.5461
 6366SOL    HW230735   0.893   1.529   3.287 -1.6094 -2.1514  2.2383
 6367SOL     OW30736   1.069   1.906  14.095  0.1349 -0.0855  0.0784
 6367SOL    HW130737   1.087   1.845  14.166 -0.7806 -1.3590 -0.7711
 6367SOL    HW230738   1.135   1.974  14.109 -0.4921  0.2878  1.2250
 6368SOL     OW30739   0.587   1.603   5.795 -0.2899  0.4513 -0.5684
 6368SOL    HW130740   0.642   1.676   5.823  1.1171 -0.9666  0.4033
 6368SOL    HW230741   0.523   1.598   5.867 -0.8939 -1.2551 -1.2256
 6369SOL     OW30742   1.117   1.080   7.007 -0.1523  0.6950 -0.3751
 6369SOL    HW130743   1.171   1.005   6.983 -0.7183  0.0983  0.2047
 6369SOL    HW230744   1.149   1.138   6.938 -0.1326  0.0659 -0.8957
 6370SOL     OW30745   0.561   2.902   2.252  0.1365  0.0407  0.1371
 6370SOL    HW130746   0.499   2.857   2.195 -0.4715 -0.3899  1.1349
 6370SOL    HW230747   0.635   2.842   2.237 -0.9831 -1.4217  0.5156
 6371SOL     OW30748   1.495   2.124   4.809 -0.4476 -0.0297 -0.6245
 6371SOL    HW130749   1.409   2.083   4.798 -0.4898  0.3420 -1.6576
 6371SOL    HW230750   1.544   2.048   4.840 -0.2419  0.1682 -0.4663
 6372SOL     OW30751   1.540   3.233   5.579  0.3098 -0.2652 -0.3548
 6372SOL    HW130752   1.529   3.185   5.497 -0.4929  0.6817 -0.8004
 6372SOL    HW230753   1.516   3.318   5.542  0.8694 -0.3680 -0.9663
 6373SOL     OW30754   1.615   4.416   3.614 -0.1108  0.2759  0.5923
 6373SOL    HW130755   1.562   4.443   3.688  0.9546  2.2946  0.6106
 6373SOL    HW230756   1.560   4.340   3.599 -2.8633  1.9174  2.4334
 6374SOL     OW30757   1.788   3.025   7.055 -0.7923 -0.2803 -0.1498
 6374SOL    HW130758   1.801   3.043   6.962  0.5461 -0.0496  0.0746
 6374SOL    HW230759   1.821   3.107   7.091 -1.0355 -0.5511  0.6895
 6375SOL     OW30760   2.705   1.091   6.466  0.5890 -0.4340 -0.4965
 6375SOL    HW130761   2.626   1.081   6.520  1.6738  0.5832  1.2703
 6375SOL    HW230762   2.696   1.185   6.446 -1.6337 -0.9537 -1.9524
 6376SOL     OW30763   1.214   0.818   7.307  0.3097 -0.6735 -0.9674
 6376SOL    HW130764   1.279   0.755   7.279 -0.6273 -3.2531  2.6425
 6376SOL    HW230765   1.269   0.877   7.359 -0.8575 -0.8137  0.4566
 6377SOL     OW30766   2.653   3.862   3.256  0.4588  0.5119  0.0730
 6377SOL    HW130767   2.676   3.903   3.173  0.5664  0.3810  0.0387
 6377SOL    HW230768   2.581   3.915   3.290  0.6396 -0.4965  2.0765
 6378SOL     OW30769   0.431   3.286  15.824 -0.0069  0.1845  0.0714
 6378SOL    HW130770   0.378   3.246  15.756 -3.2679  0.3418  2.5035
 6378SOL    HW230771   0.361   3.326  15.876  1.0188  2.6494 -0.4230
 6379SOL     OW30772   4.006   3.578  13.250  0.0980 -0.6836 -0.3817
 6379SOL    HW130773   3.913   3.599  13.251  0.7274  2.0737 -1.3392
 6379SOL    HW230774   4.021   3.557  13.158 -1.5478  1.0168 -1.0460
 6380SOL     OW30775   2.567   3.918   1.020  0.1737 -0.2915  0.0157
 6380SOL    HW130776   2.483   3.939   1.061 -0.4103  3.5693 -3.1449
 6380SOL    HW230777   2.610   4.003   1.021 -0.8452  0.2292 -0.6045
 6381SOL     OW30778   0.791   0.712   9.341 -0.7396 -0.4492 -0.0781
 6381SOL    HW130779   0.825   0.708   9.251 -0.4136  2.2425 -0.0726
 6381SOL    HW230780   0.877   0.722   9.381 -0.7421 -1.0445  0.0731
 6382SOL     OW30781   2.778   1.020   3.364 -0.4699 -0.3627  0.6401
 6382SOL    HW130782   2.865   1.016   3.405 -0.7997 -1.1660  1.2401
 6382SOL    HW230783   2.729   1.076   3.424 -1.0888 -1.5587  1.2501
 6383SOL     OW30784   2.164   0.510  14.922  0.2877 -0.7748  0.3363
 6383SOL    HW130785   2.156   0.593  14.970 -0.7927 -1.9574  2.1892
 6383SOL    HW230786   2.250   0.472  14.939 -0.5401 -2.5862  0.4151
 6384SOL     OW30787   1.484   4.319   5.701  0.0676 -0.1684  0.6638
 6384SOL    HW130788   1.564   4.273   5.675  0.0046 -1.5782  2.9709
 6384SOL    HW230789   1.461   4.260   5.773  0.4813 -0.1466  0.8119
 6385SOL     OW30790   2.976   1.052   3.585 -0.3921  0.2596 -0.3490
 6385SOL    HW130791   2.940   1.139   3.602 -0.1173 -0.0328  1.7354
 6385SOL    HW230792   2.988   1.025   3.676  1.4719 -1.1927 -1.0164
 6386SOL     OW30793   1.660   4.571   4.975  0.3302 -0.4460 -0.0144
 6386SOL    HW130794   1.706   4.490   4.952 -1.1976 -1.1540 -0.5518
 6386SOL    HW230795   1.678   4.626   4.899 -0.3976  1.3157  1.0870
 6387SOL     OW30796   0.621   1.182   8.463 -0.5617  0.8560 -0.3305
 6387SOL    HW130797   0.612   1.185   8.368 -1.1000  0.9595 -0.2736
 6387SOL    HW230798   0.636   1.089   8.478  2.3941  1.2654 -0.6252
 6388SOL     OW30799   1.942   0.678   5.178  0.3298  0.0624  0.4805
 6388SOL    HW130800   1.853   0.651   5.154 -0.3657  1.7649  1.1408
 6388SOL    HW230801   1.946   0.767   5.144 -3.7065  0.5382  1.2049
 6389SOL     OW30802   4.499   0.076   5.062 -0.7271  0.3275  0.2480
 6389SOL    HW130803   4.476   0.165   5.037 -3.3932  0.1257  1.9704
 6389SOL    HW230804   4.409   0.048   5.079 -0.1079 -1.1684  1.0923
 6390SOL     OW30805   0.406   0.810   7.074  0.0092 -0.7180 -0.8189
 6390SOL    HW130806   0.426   0.891   7.028 -0.6031 -0.4004 -0.5314
 6390SOL    HW230807   0.485   0.759   7.055  1.3584  0.5356  1.5515
 6391SOL     OW30808   4.173   3.916   7.153  0.5422  0.1137 -0.5200
 6391SOL    HW130809   4.227   3.899   7.076 -0.6807  1.1442 -1.5951
 6391SOL    HW230810   4.087   3.882   7.129  0.1305 -0.5005  1.7695
 6392SOL     OW30811   1.278   3.668  16.549 -0.6970  0.3667  0.4185
 6392SOL    HW130812   1.369   3.639  16.541 -0.6796  1.1763 -2.1823
 6392SOL    HW230813   1.295   3.744  16.605 -1.7797 -1.4060  3.1280
 6393SOL     OW30814   0.703   0.874  13.947 -0.3306  0.1881  0.3450
 6393SOL    HW130815   0.637   0.943  13.954  0.8196  1.1216  1.8613
 6393SOL    HW230816   0.671   0.811  14.011 -1.1971  1.4041  1.1094
 6394SOL     OW30817   3.021   2.713   1.019 -0.4188  0.4564  0.3909
 6394SOL    HW130818   3.005   2.637   0.961  1.9014  0.4477 -0.2513
 6394SOL    HW230819   3.025   2.670   1.104  2.0553  0.1491  0.1223
 6395SOL     OW30820   4.695   0.880  11.301  0.5831  0.1468  0.1043
 6395SOL    HW130821   0.045   0.855  11.326  0.2039 -0.4213  0.8710
 6395SOL    HW230822   4.641   0.825  11.358  2.1027 -1.4017  0.0510
 6396SOL     OW30823   1.500   0.803   2.539  0.1841  0.5655 -0.4488
 6396SOL    HW130824   1.590   0.807   2.506  0.5204  0.0086  0.4103
 6396SOL    HW230825   1.451   0.781   2.460 -0.4569  0.6777 -0.0871
 6397SOL     OW30826   4.694   2.625  14.335 -0.2865  0.1077 -0.2236
 6397SOL    HW130827   4.644   2.549  14.305 -1.7854  0.6487  0.8888
 6397SOL    HW230828   4.631   2.666  14.395  0.7921  1.4289  0.0098
 6398SOL     OW30829   4.239   4.115   7.528  0.0223  0.2206  0.5821
 6398SOL    HW130830   4.273   4.136   7.615  0.1654 -2.3363  1.1488
 6398SOL    HW230831   4.149   4.147   7.532 -1.1667 -3.1684  1.2216
 6399SOL     OW30832   0.387   3.246  17.463  0.0058  0.7761  0.1085
 6399SOL    HW130833   0.456   3.307  17.490 -1.6674  1.9990  1.5303
 6399SOL    HW230834   0.341   3.294  17.395 -0.4391  1.0864  0.6353
 6400SOL     OW30835   3.953   2.183   8.652  0.3417 -0.5492  0.4189
 6400SOL    HW130836   3.959   2.237   8.574 -1.1689 -0.9600  0.0237
 6400SOL    HW230837   3.982   2.097   8.621  2.8807  0.9197 -1.2428
 6401SOL     OW30838   2.083   1.751   6.749  0.2927 -0.2851 -0.1247
 6401SOL    HW130839   2.084   1.727   6.842  0.1983  0.7151  0.1460
 6401SOL    HW230840   2.008   1.811   6.749  0.2801 -0.2995  0.2687
 6402SOL     OW30841   0.328   2.692   3.767 -0.4209  0.6381 -0.0897
 6402SOL    HW130842   0.423   2.688   3.775 -0.6023  1.1640  2.3363
 6402SOL    HW230843   0.304   2.611   3.723 -1.5366  1.4353 -0.9666
 6403SOL     OW30844   4.122   1.984   6.715  0.0924 -0.2117  0.3485
 6403SOL    HW130845   4.210   1.954   6.736  0.8242  1.3587 -0.4896
 6403SOL    HW230846   4.145   2.053   6.653 -0.2029 -1.0311 -0.6817
 6404SOL     OW30847   1.969   1.825  13.514 -0.1229  0.2148  0.2060
 6404SOL    HW130848   2.061   1.804  13.531  0.8567  3.4188 -1.2313
 6404SOL    HW230849   1.988   1.918  13.507 -1.4207  0.1647 -3.9725
 6405SOL     OW30850   4.225   2.003   3.733  0.2983  0.3377 -0.2537
 6405SOL    HW130851   4.311   2.002   3.776 -0.3152 -0.1105  0.9808
 6405SOL    HW230852   4.180   2.068   3.787  1.4501  2.4687 -1.8604
 6406SOL     OW30853   0.412   0.036   9.205  0.1445  0.1866 -0.3636
 6406SOL    HW130854   0.450   0.081   9.281 -1.5620 -0.8053  1.0687
 6406SOL    HW230855   0.350   0.092   9.158  0.8334  1.0519 -0.2418
 6407SOL     OW30856   0.255   0.431   2.003 -0.0687 -0.1608 -0.0036
 6407SOL    HW130857   0.160   0.420   2.003 -0.1279  0.3336  1.8334
 6407SOL    HW230858   0.251   0.492   2.077  0.5553  0.0072 -0.1129
 6408SOL     OW30859   0.202   1.231   0.680  0.8194  0.0323 -0.2739
 6408SOL    HW130860   0.239   1.166   0.620  0.5794 -0.0222 -0.3649
 6408SOL    HW230861   0.167   1.176   0.751  1.5328  2.8978  2.2906
 6409SOL     OW30862   3.253   0.193   2.063 -0.2230  0.4658 -0.0483
 6409SOL    HW130863   3.276   0.283   2.084 -0.1446  0.4954 -0.2651
 6409SOL    HW230864   3.185   0.174   2.128 -2.1699  1.2360 -1.8765
 6410SOL     OW30865   1.166   2.711   4.077 -0.0002  0.0858 -0.1878
 6410SOL    HW130866   1.171   2.795   4.031 -1.7363 -1.4565 -3.2248
 6410SOL    HW230867   1.231   2.661   4.028  1.7023  0.5848  1.5545
 6411SOL     OW30868   1.346   0.559   5.570 -0.3190 -0.3342  0.1444
 6411SOL    HW130869   1.405   0.501   5.523 -1.2883 -0.0155 -1.4579
 6411SOL    HW230870   1.307   0.617   5.505 -0.5199  0.7165  1.1855
 6412SOL     OW30871   4.165   1.119   9.488 -0.1422 -0.1653  0.0765
 6412SOL    HW130872   4.090   1.061   9.480  0.6024 -0.8146 -2.1778
 6412SOL    HW230873   4.177   1.132   9.394 -0.5187  0.3943  0.1079
 6413SOL     OW30874   3.113   2.127   1.681  0.7249  0.0178  0.2064
 6413SOL    HW130875   3.136   2.160   1.768  0.1775 -0.0435  0.3758
 6413SOL    HW230876   3.045   2.185   1.647  0.8443  0.8757  1.4425
 6414SOL     OW30877   3.810   1.053   6.553 -0.0132 -0.1232  0.1255
 6414SOL    HW130878   3.888   1.009   6.518 -0.3564 -1.5472  1.1387
 6414SOL    HW230879   3.803   1.005   6.636 -0.0450  0.7151  0.6024
 6415SOL     OW30880   2.083   2.584  15.397  0.0718  0.3256  0.5211
 6415SOL    HW130881   2.014   2.583  15.330  1.0755 -1.3046 -0.5152
 6415SOL    HW230882   2.138   2.508  15.376 -1.0911 -0.1429 -0.8438
 6416SOL     OW30883   1.364   0.861   8.521  0.6111  0.0411  0.1446
 6416SOL    HW130884   1.378   0.831   8.611  1.7471 -1.8845 -0.6864
 6416SOL    HW230885   1.337   0.776   8.488 -0.2016 -0.2103  1.4193
 6417SOL     OW30886   1.773   2.862   3.877  0.1159  0.3968 -0.0325
 6417SOL    HW130887   1.712   2.841   3.947  3.0519 -3.1183  1.4944
 6417SOL    HW230888   1.715   2.851   3.802  0.6014  1.2682 -0.5270
 6418SOL     OW30889   0.323   2.831  16.485  0.3009  0.2660 -0.0140
 6418SOL    HW130890   0.356   2.765  16.546 -0.4745 -0.3653 -0.2742
 6418SOL    HW230891   0.401   2.825  16.429  1.1580 -1.6436  1.4058
 6419SOL     OW30892   1.991   4.574   9.813 -0.1117  0.2098 -0.2565
 6419SOL    HW130893   2.072   4.574   9.762  0.2567 -1.7322  0.3119
 6419SOL    HW230894   1.933   4.627   9.759 -0.2822  0.4200  0.1370
 6420SOL     OW30895   4.601   2.997   1.058 -0.0710 -0.3330  0.1050
 6420SOL    HW130896   4.672   2.943   1.023  0.4838  0.0118  0.7094
 6420SOL    HW230897   4.632   3.012   1.147 -0.7214 -0.3186  0.3291
 6421SOL     OW30898   4.736   2.786   8.277  0.4830 -0.7604  0.3368
 6421SOL    HW130899   4.735   2.693   8.255 -1.5506 -0.7571  0.4687
 6421SOL    HW230900   0.087   2.798   8.311  0.7390 -0.1356 -0.5592
 6422SOL     OW30901   4.450   0.339   9.934 -0.1444  0.5515 -0.3044
 6422SOL    HW130902   4.481   0.259   9.977  5.4442  1.9930 -1.5944
 6422SOL    HW230903   4.395   0.381   9.999 -1.1262  0.2963 -0.9640
 6423SOL     OW30904   3.495   1.077   5.612 -0.1379 -0.2474  0.0485
 6423SOL    HW130905   3.559   1.134   5.568 -0.2115  0.3285  0.6877
 6423SOL    HW230906   3.449   1.143   5.664 -0.3054 -0.3417  0.0162
 6424SOL     OW30907   0.331   3.542   7.337  0.3094  0.4653 -0.4211
 6424SOL    HW130908   0.277   3.478   7.382  0.9411  0.8286  0.8448
 6424SOL    HW230909   0.330   3.617   7.397  1.2113  0.4496 -0.3926
 6425SOL     OW30910   2.297   1.521   8.452  0.0982 -0.0107  0.2308
 6425SOL    HW130911   2.273   1.465   8.379  0.2443  0.2914 -0.0478
 6425SOL    HW230912   2.375   1.475   8.481  0.6792  0.6108 -0.3366
 6426SOL     OW30913   3.151   4.114   4.174 -0.4018 -0.5895 -0.0303
 6426SOL    HW130914   3.152   4.099   4.269  0.9020  0.0083  0.0522
 6426SOL    HW230915   3.196   4.199   4.177  0.0992 -0.8673  0.3467
 6427SOL     OW30916   4.060   4.167   6.657 -0.6060  0.1558 -0.1201
 6427SOL    HW130917   4.115   4.163   6.735 -0.4387 -3.0397 -0.3696
 6427SOL    HW230918   4.097   4.237   6.604 -0.8959 -0.6727 -1.4225
 6428SOL     OW30919   1.563   3.376   4.645 -0.1958  0.5420  0.5487
 6428SOL    HW130920   1.496   3.387   4.712 -0.1317 -0.5572  0.7948
 6428SOL    HW230921   1.511   3.310   4.600 -2.3387  1.0436  2.3112
 6429SOL     OW30922   2.434   4.448  10.750 -0.0170  0.2537  0.3464
 6429SOL    HW130923   2.439   4.377  10.815 -1.9857  0.6780  0.9504
 6429SOL    HW230924   2.384   4.407  10.680 -0.2281 -0.3095  0.8243
 6430SOL     OW30925   0.841   2.506  13.082  0.4622  0.4056  0.1608
 6430SOL    HW130926   0.822   2.413  13.086  0.9597  0.2839 -0.3517
 6430SOL    HW230927   0.789   2.538  13.009  0.1350 -0.4445  0.0257
 6431SOL     OW30928   2.385   0.578   4.659  0.6840 -0.0270 -0.3561
 6431SOL    HW130929   2.335   0.596   4.738 -0.8002 -0.7363 -1.1411
 6431SOL    HW230930   2.309   0.576   4.602  0.9987  0.2842 -0.7769
 6432SOL     OW30931   2.273   3.587   3.449  0.4723  0.4399  0.4242
 6432SOL    HW130932   2.291   3.557   3.360 -0.6643 -1.8201  0.9607
 6432SOL    HW230933   2.352   3.553   3.493 -0.2580 -0.0853  1.3358
 6433SOL     OW30934   2.906   4.695   5.442  0.1251  0.4514 -0.3805
 6433SOL    HW130935   2.930   4.629   5.377 -0.8546 -2.2785  2.0513
 6433SOL    HW230936   2.812   4.678   5.442  0.2180 -0.0281  0.3479
 6434SOL     OW30937   0.205   1.645  11.315  0.0718 -0.3395  0.2102
 6434SOL    HW130938   0.137   1.608  11.371 -2.1232 -1.0596 -3.0026
 6434SOL    HW230939   0.161   1.655  11.231 -0.6451  0.8361  0.7410
 6435SOL     OW30940   4.326   4.230   7.752  0.0203  0.3012 -1.1120
 6435SOL    HW130941   4.351   4.320   7.772  2.9974 -1.0948  1.4682
 6435SOL    HW230942   4.390   4.179   7.802  0.4477  0.0675 -1.9047
 6436SOL     OW30943   3.926   3.778  16.906 -0.3202  0.0400  0.2589
 6436SOL    HW130944   3.989   3.833  16.952  1.0468 -0.7802 -0.6276
 6436SOL    HW230945   3.842   3.806  16.944 -1.5505 -0.1403 -2.2849
 6437SOL     OW30946   4.186   1.179   2.252 -0.0206 -0.6495  0.2844
 6437SOL    HW130947   4.180   1.190   2.347  2.0588 -0.1634  0.3471
 6437SOL    HW230948   4.211   1.270   2.236  2.5247 -0.9326  2.6683
 6438SOL     OW30949   0.916   3.230   4.391 -0.6248 -0.6039  0.3634
 6438SOL    HW130950   0.825   3.243   4.363 -1.0707 -0.8907  1.6483
 6438SOL    HW230951   0.962   3.312   4.376  0.0658 -1.2148 -0.8116
 6439SOL     OW30952   0.468   4.150   7.850 -0.1894 -0.5140 -0.2571
 6439SOL    HW130953   0.392   4.153   7.908 -0.1403  1.3768 -0.2963
 6439SOL    HW230954   0.502   4.060   7.853 -0.6797 -0.7787 -2.1330
 6440SOL     OW30955   1.038   3.505  17.435 -0.2214 -0.2618  0.7730
 6440SOL    HW130956   0.964   3.445  17.445  1.3952 -2.0388  2.1180
 6440SOL    HW230957   1.007   3.582  17.484 -0.1639  2.0458 -2.7930
 6441SOL     OW30958   1.191   1.554   7.745  0.0588  0.3170 -0.3298
 6441SOL    HW130959   1.284   1.540   7.733 -0.1195 -1.0396 -0.1324
 6441SOL    HW230960   1.160   1.476   7.700 -0.0381  0.5210 -0.6174
 6442SOL     OW30961   2.632   2.810   1.003 -0.2751 -0.5908  0.0640
 6442SOL    HW130962   2.648   2.902   1.027  0.5221 -0.5893 -0.4789
 6442SOL    HW230963   2.564   2.807   0.936 -1.0610  0.3348  0.8364
 6443SOL     OW30964   1.478   4.119   9.007 -0.0395  0.4407 -0.1035
 6443SOL    HW130965   1.539   4.152   9.073  0.0894  0.5776 -0.2912
 6443SOL    HW230966   1.429   4.054   9.058  2.5597  0.6615  2.6860
 6444SOL     OW30967   2.868   4.056   7.254 -0.6453  0.2704  0.1800
 6444SOL    HW130968   2.856   4.138   7.207 -0.3133  0.1020 -0.2006
 6444SOL    HW230969   2.946   4.026   7.208 -2.4418 -2.7972 -0.8981
 6445SOL     OW30970   2.631   0.801   5.181 -0.0417 -0.2841  0.9113
 6445SOL    HW130971   2.692   0.755   5.237  0.2888 -1.6499 -0.5667
 6445SOL    HW230972   2.557   0.740   5.183 -0.2719  0.1021  3.7300
 6446SOL     OW30973   0.350   2.772   5.878 -0.2116 -0.0562  0.1028
 6446SOL    HW130974   0.428   2.722   5.901 -0.8903 -0.5280  1.3507
 6446SOL    HW230975   0.289   2.728   5.937 -2.2693  0.1155 -1.9306
 6447SOL     OW30976   0.238   0.780  12.499 -0.0235  0.8414  0.2177
 6447SOL    HW130977   0.221   0.696  12.458  0.9752  0.6126  0.2634
 6447SOL    HW230978   0.166   0.831  12.462 -1.6658 -2.0339 -0.5258
 6448SOL     OW30979   1.954   2.480   6.471  0.0206 -0.2224 -0.4509
 6448SOL    HW130980   1.895   2.413   6.507  0.3164 -0.5592 -0.6042
 6448SOL    HW230981   1.941   2.471   6.377 -0.6752 -0.1939 -0.3597
 6449SOL     OW30982   1.898   0.959   5.095  0.5288  1.3748  0.7378
 6449SOL    HW130983   1.918   1.051   5.078 -0.3844  1.6584  1.2153
 6449SOL    HW230984   1.902   0.973   5.190 -1.7739  2.1879  0.7137
 6450SOL     OW30985   4.545   3.267   2.315 -0.2599  0.4147  0.3197
 6450SOL    HW130986   4.615   3.266   2.381  1.0007  2.9190 -0.9732
 6450SOL    HW230987   4.480   3.316   2.366  0.4675  1.1128  0.5755
 6451SOL     OW30988   3.523   2.966   7.510 -0.2055  0.3222 -0.0054
 6451SOL    HW130989   3.547   2.894   7.451 -3.3443  2.2396 -3.5806
 6451SOL    HW230990   3.429   2.951   7.517 -0.3764  1.9791  1.2974
 6452SOL     OW30991   3.289   3.896   8.416  0.0214 -0.1924  0.4642
 6452SOL    HW130992   3.250   3.918   8.500  0.0995  0.4792  0.3255
 6452SOL    HW230993   3.369   3.853   8.447  0.8971  0.3622 -0.9925
 6453SOL     OW30994   3.771   1.220  12.374  0.5980  0.1838  0.0945
 6453SOL    HW130995   3.830   1.238  12.300  0.7479  0.9358  0.4000
 6453SOL    HW230996   3.696   1.174  12.336  1.7952 -0.4991 -1.4504
 6454SOL     OW30997   0.056   3.819   0.715 -0.4101  0.8552  0.0668
 6454SOL    HW130998   0.004   3.739   0.712  1.0887 -0.0402 -2.0280
 6454SOL    HW230999   0.111   3.801   0.792  0.6028 -0.0654 -0.8790
 6455SOL     OW31000   0.535   0.305  15.986  0.6174  0.5720  0.1655
 6455SOL    HW131001   0.607   0.344  16.035  2.2686 -0.3224 -1.5656
 6455SOL    HW231002   0.491   0.377  15.941  0.4368  0.7688  0.6627
 6456SOL     OW31003   2.537   2.126   8.242  0.6840  0.6109 -0.4233
 6456SOL    HW131004   2.629   2.119   8.265 -0.6631 -1.5653  4.3840
 6456SOL    HW231005   2.500   2.131   8.330 -0.5867  1.4766 -1.0009
 6457SOL     OW31006   1.959   1.572   5.096 -0.5221 -0.2929  0.3140
 6457SOL    HW131007   2.014   1.517   5.040 -1.2586 -1.2176  0.4916
 6457SOL    HW231008   1.982   1.659   5.063 -1.3170  0.1042  0.8098
 6458SOL     OW31009   2.595   0.107   6.289  0.3044  0.2582  0.1613
 6458SOL    HW131010   2.515   0.090   6.239  0.8399 -0.4768 -0.4399
 6458SOL    HW231011   2.585   0.197   6.321 -3.7907 -0.1494  0.0653
 6459SOL     OW31012   1.072   1.629   0.777 -0.1768 -0.1080 -0.1472
 6459SOL    HW131013   0.991   1.589   0.745 -0.2304 -0.8159  0.8863
 6459SOL    HW231014   1.080   1.591   0.864 -0.6584  0.3598  0.1087
 6460SOL     OW31015   0.571   2.566   5.761 -0.0227  0.2595  0.3457
 6460SOL    HW131016   0.487   2.521   5.747 -0.6421  1.2741  0.7791
 6460SOL    HW231017   0.561   2.579   5.855  2.3633 -0.2296  0.6620
 6461SOL     OW31018   2.002   3.199   4.338 -0.0897 -0.2462 -0.3348
 6461SOL    HW131019   1.969   3.282   4.301 -0.1062 -0.9686 -1.9486
 6461SOL    HW231020   1.937   3.175   4.405  0.1239  0.6249  0.1864
 6462SOL     OW31021   3.399   0.868   4.949 -0.0535  0.1324 -0.0583
 6462SOL    HW131022   3.386   0.817   4.869  1.1219 -3.3767  1.9633
 6462SOL    HW231023   3.306   0.870   4.971  0.1742  2.3923  0.6736
 6463SOL     OW31024   1.545   4.467   6.649 -0.0074  0.2636  0.6086
 6463SOL    HW131025   1.607   4.520   6.600 -1.4697 -0.0865 -1.6308
 6463SOL    HW231026   1.466   4.520   6.637 -0.9638 -1.1659  0.5349
 6464SOL     OW31027   1.184   2.947   3.044 -0.2430 -0.5561 -0.1072
 6464SOL    HW131028   1.219   2.878   3.099  1.3018  0.7708  0.5723
 6464SOL    HW231029   1.206   2.913   2.957 -0.9790  1.6181 -1.1493
 6465SOL     OW31030   0.200   3.315  12.938  0.1122 -0.3945  0.5399
 6465SOL    HW131031   0.194   3.234  12.990  1.4794 -1.3000 -0.7146
 6465SOL    HW231032   0.137   3.314  12.866  1.0650  1.5715 -0.3245
 6466SOL     OW31033   1.415   0.571   0.579 -0.5385  0.0708 -0.4130
 6466SOL    HW131034   1.445   0.647   0.630 -0.2348 -0.4184  0.1314
 6466SOL    HW231035   1.342   0.618   0.538 -1.6110 -0.6568  0.6715
 6467SOL     OW31036   2.635   0.704   0.732 -0.1596  0.3146 -0.0354
 6467SOL    HW131037   2.676   0.720   0.647 -0.9440  0.5550 -0.3659
 6467SOL    HW231038   2.710   0.706   0.791  0.4979  3.2736 -0.9594
 6468SOL     OW31039   1.836   0.753   6.079 -0.1690 -0.1942  0.7267
 6468SOL    HW131040   1.804   0.710   6.158  1.6204 -0.9929  1.0202
 6468SOL    HW231041   1.882   0.682   6.034 -0.5126 -0.1764  0.3487
 6469SOL     OW31042   1.753   2.774  13.977 -0.2800 -0.0571 -0.2083
 6469SOL    HW131043   1.831   2.719  13.985  0.2037  0.7897  0.7241
 6469SOL    HW231044   1.758   2.822  14.059  1.9397 -0.6806  0.0090
 6470SOL     OW31045   0.760   1.370   2.787  0.0211 -0.1025 -0.8030
 6470SOL    HW131046   0.790   1.460   2.773 -0.0283 -0.0867 -0.8074
 6470SOL    HW231047   0.820   1.332   2.852 -0.2401  0.6626 -0.1000
 6471SOL     OW31048   1.933   2.338   3.166  0.2649  0.5689  0.1545
 6471SOL    HW131049   2.025   2.352   3.146 -0.5692  0.5753 -3.7946
 6471SOL    HW231050   1.904   2.317   3.077  1.2041  2.9732 -0.7422
 6472SOL     OW31051   0.091   2.833   6.309 -0.3372  0.1401 -0.1675
 6472SOL    HW131052   0.113   2.923   6.330  0.4965 -0.0719 -0.1251
 6472SOL    HW231053   0.010   2.863   6.267  0.0480 -0.2136 -1.1859
 6473SOL     OW31054   2.243   2.067   5.802  0.3684  0.0116  0.0976
 6473SOL    HW131055   2.183   2.024   5.863  1.0546 -1.7545 -0.4631
 6473SOL    HW231056   2.190   2.057   5.723 -0.4466  2.4114  0.3486
 6474SOL     OW31057   1.711   3.451   2.810 -0.2855  1.1333  0.2620
 6474SOL    HW131058   1.639   3.473   2.751  0.7680  1.0176 -1.0749
 6474SOL    HW231059   1.750   3.380   2.760  0.7579  2.1380 -0.3488
 6475SOL     OW31060   4.351   1.406   8.187 -0.0166 -0.1658  0.3181
 6475SOL    HW131061   4.259   1.410   8.212  0.3427  0.6656  1.5363
 6475SOL    HW231062   4.352   1.365   8.101  2.5887 -0.0041  0.2747
 6476SOL     OW31063   2.884   4.285   5.989  0.5311 -0.6961  0.6620
 6476SOL    HW131064   2.856   4.254   5.903  0.8862  1.3895 -0.2070
 6476SOL    HW231065   2.955   4.340   5.955 -0.1471 -1.4594 -2.0173
 6477SOL     OW31066   3.266   0.731   9.525 -0.4393  0.7975  0.3266
 6477SOL    HW131067   3.240   0.643   9.552 -0.7103  0.7352 -0.1449
 6477SOL    HW231068   3.192   0.759   9.471  1.5451  0.5657 -2.5205
 6478SOL     OW31069   1.810   4.350   2.958 -0.2041 -0.1495  0.0244
 6478SOL    HW131070   1.758   4.340   3.038 -0.2621  0.1528  0.0231
 6478SOL    HW231071   1.820   4.445   2.951 -0.9441  0.1343  2.8379
 6479SOL     OW31072   4.083   1.774   5.792  0.2517 -0.5686  0.0507
 6479SOL    HW131073   4.047   1.841   5.735 -0.8072 -1.8975 -0.8401
 6479SOL    HW231074   4.077   1.832   5.868  1.0338  0.9407 -1.0422
 6480SOL     OW31075   4.347   2.475  14.551 -0.6587 -0.2015  0.4852
 6480SOL    HW131076   4.397   2.394  14.561  1.0530  0.9327  0.9791
 6480SOL    HW231077   4.413   2.541  14.534 -1.1143  0.1204 -0.0496
 6481SOL     OW31078   3.514   0.207   3.679 -1.1042 -0.1631 -0.0000
 6481SOL    HW131079   3.498   0.121   3.716 -0.4708 -0.9005 -1.4550
 6481SOL    HW231080   3.606   0.201   3.655 -0.8050  2.9360  0.3186
 6482SOL     OW31081   0.028   0.425   1.242  0.2878  0.7307  0.1679
 6482SOL    HW131082   4.727   0.499   1.289  0.3155 -0.8935  2.7334
 6482SOL    HW231083   0.101   0.396   1.297  1.5886 -1.7303 -2.8347
 6483SOL     OW31084   3.624   2.358   6.895 -0.3232  0.0263  0.0711
 6483SOL    HW131085   3.550   2.326   6.842  0.0741  0.0629 -0.5115
 6483SOL    HW231086   3.658   2.430   6.841 -2.0654 -0.7429 -2.0495
 6484SOL     OW31087   3.766   1.870   4.964 -0.7987 -0.0554  0.0559
 6484SOL    HW131088   3.738   1.958   4.941 -0.7095 -0.3730 -1.3032
 6484SOL    HW231089   3.847   1.856   4.914 -1.1753 -2.6299  0.1235
 6485SOL     OW31090   4.296   4.702   3.619  0.2990  0.2168  0.3532
 6485SOL    HW131091   4.208   4.718   3.586  0.5485 -0.5902 -0.7341
 6485SOL    HW231092   4.319   0.030   3.684 -1.1332  1.4680 -0.4246
 6486SOL     OW31093   0.192   0.241   7.712 -0.2238  0.2467  0.1494
 6486SOL    HW131094   0.283   0.246   7.683 -0.6922 -2.6489 -1.8766
 6486SOL    HW231095   0.162   0.162   7.665 -0.4229  0.5657 -0.2566
 6487SOL     OW31096   2.946   0.018   6.757 -0.2514 -0.1521 -0.1535
 6487SOL    HW131097   2.938   0.030   6.662  1.1282 -1.1775 -0.3992
 6487SOL    HW231098   3.024   4.701   6.757 -0.9501 -1.1221 -1.7178
 6488SOL     OW31099   1.930   3.505  13.163 -0.2671  0.1126  0.4705
 6488SOL    HW131100   1.968   3.590  13.180  3.2734 -2.1880  3.9713
 6488SOL    HW231101   1.852   3.508  13.219 -2.0370 -0.2398 -1.9214
 6489SOL     OW31102   4.193   0.866  14.330 -0.2681 -0.7261  0.0296
 6489SOL    HW131103   4.135   0.844  14.403 -0.6785 -0.5768 -0.2508
 6489SOL    HW231104   4.145   0.837  14.252  0.1207  1.2634 -0.9577
 6490SOL     OW31105   0.967   3.974   6.773 -0.1989  0.0413  0.1136
 6490SOL    HW131106   1.001   4.051   6.728  0.0232 -0.2624 -0.2389
 6490SOL    HW231107   0.900   4.008   6.833  0.1998  0.7334  0.1667
 6491SOL     OW31108   3.631   2.752   0.100 -0.0456 -0.2015 -0.2314
 6491SOL    HW131109   3.612   2.791   0.015 -0.2740 -0.7369 -0.4257
 6491SOL    HW231110   3.707   2.803   0.129  1.4038 -2.0398 -0.8220
 6492SOL     OW31111   4.713   1.638  14.702  0.0778  0.4046  0.1492
 6492SOL    HW131112   0.056   1.602  14.669 -0.0688 -1.2628  1.6520
 6492SOL    HW231113   0.014   1.663  14.786  0.3870 -0.1129  0.1563
 6493SOL     OW31114   0.673   1.582   2.501 -0.3308 -0.5810  0.2989
 6493SOL    HW131115   0.663   1.537   2.417  1.8861 -3.0380  1.3516
 6493SOL    HW231116   0.766   1.565   2.509 -0.0550  0.5374 -0.6033
 6494SOL     OW31117   0.369   0.941  17.215  0.7279 -0.4862 -0.2637
 6494SOL    HW131118   0.350   0.914  17.305  0.8543 -1.9280 -0.6736
 6494SOL    HW231119   0.321   1.024  17.209  0.6842 -0.3447  2.0716
 6495SOL     OW31120   0.837   1.789  10.553 -0.0524  0.1770 -0.2985
 6495SOL    HW131121   0.841   1.794  10.457 -0.0017 -0.5514 -0.3290
 6495SOL    HW231122   0.908   1.853  10.558 -0.5435  0.7153 -0.0743
 6496SOL     OW31123   2.364   1.423   3.649  0.0607 -0.0079 -0.1889
 6496SOL    HW131124   2.297   1.375   3.599  1.1495 -0.5413 -1.1273
 6496SOL    HW231125   2.379   1.355   3.715 -0.1651  1.3135  1.2129
 6497SOL     OW31126   3.477   3.012   2.694  0.4706  0.5975 -0.1014
 6497SOL    HW131127   3.554   2.957   2.689  2.4020  3.4112 -1.4303
 6497SOL    HW231128   3.413   2.948   2.662  0.4071 -1.2987  3.9081
 6498SOL     OW31129   2.978   3.232  13.403 -0.4849  0.6453 -0.5767
 6498SOL    HW131130   3.002   3.295  13.335 -1.8018  0.6296 -1.0671
 6498SOL    HW231131   2.882   3.233  13.401 -0.4731  1.3228 -0.5088
 6499SOL     OW31132   3.083   3.920  16.375  0.3465 -0.7544 -0.0520
 6499SOL    HW131133   3.029   3.844  16.397  0.8129 -1.0828 -0.0357
 6499SOL    HW231134   3.011   3.982  16.361  1.6456  0.8987  0.5731
 6500SOL     OW31135   3.629   3.556   7.169 -0.2657 -0.1412 -0.6461
 6500SOL    HW131136   3.643   3.531   7.260  1.4923  0.4537 -0.7600
 6500SOL    HW231137   3.602   3.482   7.114  1.8943 -1.0290 -0.4971
 6501SOL     OW31138   3.035   1.363   5.124  0.0466 -0.3717  0.3295
 6501SOL    HW131139   2.972   1.419   5.080  0.2148 -0.4082  0.0436
 6501SOL    HW231140   3.040   1.284   5.070 -0.5554  0.9892 -1.6736
 6502SOL     OW31141   1.194   4.670   5.001  0.7187  0.5696 -0.5691
 6502SOL    HW131142   1.175   4.674   4.907  2.0887 -1.6120 -0.9195
 6502SOL    HW231143   1.107   4.650   5.037 -0.2853  1.6100 -2.3860
 6503SOL     OW31144   1.687   1.972   7.221 -0.3375  0.6870 -0.3778
 6503SOL    HW131145   1.691   2.016   7.307  0.9241 -0.4610  0.1468
 6503SOL    HW231146   1.653   1.883   7.229 -0.4013  0.8551  1.3999
 6504SOL     OW31147   3.922   3.828   2.824  0.0029  0.0455  0.2029
 6504SOL    HW131148   3.895   3.740   2.797 -0.7033  0.4292 -0.3431
 6504SOL    HW231149   3.925   3.882   2.745  0.9344 -0.3327 -0.0196
 6505SOL     OW31150   4.682   1.837   6.765 -0.1675  0.0589 -0.0942
 6505SOL    HW131151   4.720   1.787   6.838  1.0128  0.7549 -0.2274
 6505SOL    HW231152   4.701   1.763   6.707 -3.8888 -1.1947  0.2723
 6506SOL     OW31153   0.042   1.647  12.030  0.3801 -0.3436 -0.4137
 6506SOL    HW131154   0.132   1.615  12.040  0.8142  1.6025  1.6547
 6506SOL    HW231155   0.038   1.732  12.073  0.4634 -0.6262  0.1516
 6507SOL     OW31156   0.956   0.085   6.735 -0.3467 -0.3797 -0.2151
 6507SOL    HW131157   1.003   0.002   6.728  1.4281  0.4969  1.2758
 6507SOL    HW231158   0.990   0.111   6.821  0.6730 -1.5017 -0.2808
 6508SOL     OW31159   0.948   2.591   4.251  0.1286  0.1710 -0.0848
 6508SOL    HW131160   0.971   2.683   4.265  0.0536  0.0937  0.5687
 6508SOL    HW231161   1.032   2.564   4.215 -0.4251 -0.5864 -0.8301
 6509SOL     OW31162   1.726   4.066   3.339  0.0821  0.1670  0.2664
 6509SOL    HW131163   1.710   3.996   3.402  0.1808  1.9001  2.2410
 6509SOL    HW231164   1.739   4.021   3.256 -0.1044 -0.2485  0.4643
 6510SOL     OW31165   4.533   0.811   0.403  0.2482  0.0845 -0.4641
 6510SOL    HW131166   4.576   0.727   0.388  0.5559  0.2951 -0.7757
 6510SOL    HW231167   4.591   0.853   0.467  0.7351  0.4520 -1.1364
 6511SOL     OW31168   0.146   3.647  15.698  0.4889 -0.0141 -0.6590
 6511SOL    HW131169   0.069   3.612  15.653 -0.8295  0.3990  1.2369
 6511SOL    HW231170   0.191   3.696  15.629 -1.7829  0.0264 -2.1002
 6512SOL     OW31171   1.589   0.082   3.369 -0.1029 -0.0468  0.7874
 6512SOL    HW131172   1.505   0.071   3.413 -0.2171 -3.3940 -0.2354
 6512SOL    HW231173   1.644   0.034   3.431  0.2530 -0.1630  0.3871
 6513SOL     OW31174   1.841   1.525   3.090 -0.6269 -0.2429  0.2312
 6513SOL    HW131175   1.889   1.489   3.164  0.0591 -0.2382 -0.2138
 6513SOL    HW231176   1.878   1.613   3.081 -0.1010 -0.2174  2.7983
 6514SOL     OW31177   4.693   1.386  16.531  0.5333 -0.1114 -0.1754
 6514SOL    HW131178   0.006   1.345  16.462 -0.6850 -1.6480 -0.1647
 6514SOL    HW231179   0.007   1.368  16.610  0.6353 -0.6433 -0.3624
 6515SOL     OW31180   2.161   1.441   8.044 -0.2647 -0.7243  0.1570
 6515SOL    HW131181   2.208   1.361   8.019 -0.8825 -1.1745  0.4357
 6515SOL    HW231182   2.231   1.506   8.056  1.6354 -2.8758  0.7923
 6516SOL     OW31183   4.450   3.346  15.854 -0.7330 -0.3713  0.5995
 6516SOL    HW131184   4.374   3.287  15.852 -0.1325 -1.0071 -4.0546
 6516SOL    HW231185   4.522   3.285  15.868  1.3891  1.8672 -0.4170
 6517SOL     OW31186   0.788   4.228   6.606 -0.3373 -0.5644  0.2665
 6517SOL    HW131187   0.757   4.316   6.584 -0.1666 -0.7556 -0.7142
 6517SOL    HW231188   0.843   4.249   6.682 -2.9421  0.0338  1.9773
 6518SOL     OW31189   1.858   1.162   5.487 -0.2241  0.2081  0.2881
 6518SOL    HW131190   1.913   1.236   5.461 -0.7506 -0.1487 -1.8811
 6518SOL    HW231191   1.773   1.197   5.458 -0.3277 -0.2401  0.0601
 6519SOL     OW31192   4.308   1.274   7.545 -0.1273 -0.9130 -0.4921
 6519SOL    HW131193   4.241   1.209   7.524 -1.3039  0.4992 -1.1149
 6519SOL    HW231194   4.386   1.220   7.535  2.0536  2.2383 -0.7322
 6520SOL     OW31195   1.765   0.860   0.712  0.5756 -0.1615  0.0487
 6520SOL    HW131196   1.809   0.852   0.797  1.2415  1.8712 -0.1118
 6520SOL    HW231197   1.820   0.802   0.660  1.8193  1.9493 -0.9776
 6521SOL     OW31198   2.725   3.154   9.744 -0.1709  0.3367  0.4493
 6521SOL    HW131199   2.719   3.164   9.649 -0.5502 -0.5120  0.3928
 6521SOL    HW231200   2.787   3.218   9.779 -0.7855  0.2629  1.6593
 6522SOL     OW31201   3.545   0.156   5.720 -0.1380  0.1720 -0.2657
 6522SOL    HW131202   3.631   0.195   5.737 -1.9020  3.4014  1.2008
 6522SOL    HW231203   3.490   0.235   5.723 -1.4459 -0.7676  0.7255
 6523SOL     OW31204   0.729   0.306   8.084  0.0575  0.0988 -0.6036
 6523SOL    HW131205   0.704   0.215   8.072 -0.1535  0.0289  0.3968
 6523SOL    HW231206   0.711   0.339   7.996  0.8402 -0.9647 -1.1624
 6524SOL     OW31207   3.463   0.735   1.825  0.3356 -0.2126 -0.0225
 6524SOL    HW131208   3.511   0.818   1.829 -3.5581  1.9853  0.9606
 6524SOL    HW231209   3.508   0.687   1.894  0.7752  2.4404  1.5183
 6525SOL     OW31210   0.816   0.107   8.466 -0.1859  0.0384  0.6591
 6525SOL    HW131211   0.841   0.179   8.524  0.6642  0.6080 -0.4028
 6525SOL    HW231212   0.730   0.087   8.504  0.3051 -1.3007  1.0618
 6526SOL     OW31213   4.015   0.345   2.989 -0.6531  0.7927 -0.7867
 6526SOL    HW131214   3.944   0.332   3.052  0.7472  0.4585  0.7381
 6526SOL    HW231215   4.098   0.323   3.031 -1.9053 -1.6783  0.4305
 6527SOL     OW31216   1.798   4.000  15.184 -0.0204 -0.1253  0.1867
 6527SOL    HW131217   1.891   4.002  15.203  0.1240 -2.4356 -0.3159
 6527SOL    HW231218   1.764   3.951  15.259 -1.7178  0.2433 -0.3402
 6528SOL     OW31219   3.755   2.085   7.387 -0.4999 -0.3849 -0.0136
 6528SOL    HW131220   3.752   2.176   7.358  0.1367 -0.7987 -1.3487
 6528SOL    HW231221   3.764   2.090   7.482  0.6705 -0.3759 -0.1275
 6529SOL     OW31222   2.237   1.501   7.640 -0.3511  0.2256  0.6804
 6529SOL    HW131223   2.314   1.478   7.693  1.0229  1.1066 -0.9069
 6529SOL    HW231224   2.289   1.548   7.575 -2.7027  0.6184 -0.8940
 6530SOL     OW31225   1.510   4.453   3.848  0.0404 -0.0477 -0.2810
 6530SOL    HW131226   1.530   4.378   3.904 -3.0110  1.3576  2.6302
 6530SOL    HW231227   1.532   4.521   3.911  1.3273 -0.5057 -0.2265
 6531SOL     OW31228   0.372   1.135   5.678  0.6090 -0.0139  0.5731
 6531SOL    HW131229   0.386   1.138   5.773 -3.0855 -1.3774  1.1352
 6531SOL    HW231230   0.454   1.177   5.653  0.5719 -0.7752 -0.8173
 6532SOL     OW31231   2.027   0.785   4.392 -0.3168 -0.3183  0.0735
 6532SOL    HW131232   2.064   0.821   4.472 -1.8991  1.6759 -0.0932
 6532SOL    HW231233   2.107   0.756   4.349  0.0863 -0.9523  1.2646
 6533SOL     OW31234   1.890   1.241   6.675 -0.0221  0.0609 -0.1840
 6533SOL    HW131235   1.872   1.197   6.759  0.8211 -1.0046 -0.5559
 6533SOL    HW231236   1.804   1.232   6.634  0.5084 -0.4266 -1.1833
 6534SOL     OW31237   3.214   0.451   1.506 -0.2266 -0.1483  0.2204
 6534SOL    HW131238   3.296   0.499   1.516  1.4121 -2.9517  0.3851
 6534SOL    HW231239   3.252   0.379   1.558  1.1096 -2.0648 -3.4103
 6535SOL     OW31240   1.254   1.556  14.330 -0.0181 -0.4175  0.0201
 6535SOL    HW131241   1.348   1.554  14.311 -0.2184 -1.1964 -0.8839
 6535SOL    HW231242   1.237   1.463  14.345  0.6432 -0.7770 -1.4523
 6536SOL     OW31243   1.419   2.436   7.180  0.0886 -0.2618  0.1417
 6536SOL    HW131244   1.478   2.503   7.216  0.8995 -1.3125  0.7624
 6536SOL    HW231245   1.484   2.375   7.145 -0.0307 -0.2334 -0.1320
 6537SOL     OW31246   3.663   3.977   6.484  0.3656 -0.3896 -0.4854
 6537SOL    HW131247   3.758   3.982   6.481  0.3637  0.1760  0.3135
 6537SOL    HW231248   3.638   3.901   6.432  0.1775 -0.9663  0.4509
 6538SOL     OW31249   1.907   0.364  16.578  0.2379  0.3211  0.2212
 6538SOL    HW131250   1.881   0.400  16.662  0.0909 -1.3507  0.9044
 6538SOL    HW231251   1.848   0.408  16.516  0.0304 -0.3522 -0.0639
 6539SOL     OW31252   4.381   2.810   2.004 -0.3355 -0.4020  0.2210
 6539SOL    HW131253   4.341   2.741   2.057  0.5976 -0.2474  1.1146
 6539SOL    HW231254   4.427   2.860   2.071 -0.7428  0.0816  0.1410
 6540SOL     OW31255   3.298   4.047  15.958  0.3469  0.3697  0.1203
 6540SOL    HW131256   3.222   4.074  16.008 -0.1721  0.1547 -0.5426
 6540SOL    HW231257   3.374   4.085  16.002  0.3889  2.0314 -1.3968
 6541SOL     OW31258   4.624   0.666  14.995  0.1245 -0.0906  0.0827
 6541SOL    HW131259   4.709   0.627  15.011  0.4946  1.1239  1.0835
 6541SOL    HW231260   4.577   0.583  14.986 -0.7825  0.4762 -0.3810
 6542SOL     OW31261   2.931   2.553   6.727 -0.4729  0.3974 -0.6708
 6542SOL    HW131262   2.885   2.575   6.646  1.3552  1.0479 -1.5186
 6542SOL    HW231263   2.909   2.629   6.780 -2.4556  1.4690 -3.0271
 6543SOL     OW31264   2.842   2.154  12.222  0.2719  0.5424  0.0683
 6543SOL    HW131265   2.756   2.167  12.181  0.5319  1.9471 -0.0529
 6543SOL    HW231266   2.851   2.060  12.208  0.6527  0.5494  0.2540
 6544SOL     OW31267   2.015   2.795  17.103  0.1320 -0.0382 -0.3734
 6544SOL    HW131268   2.004   2.864  17.037 -2.8801 -0.1209  0.0386
 6544SOL    HW231269   1.922   2.772  17.114 -0.0540  0.3930 -1.0528
 6545SOL     OW31270   0.094   3.485   5.568 -0.5462  0.0268 -0.3455
 6545SOL    HW131271   0.122   3.546   5.500  0.4298  0.3220  0.3210
 6545SOL    HW231272   0.084   3.404   5.519 -2.0466  0.9865 -1.6228
 6546SOL     OW31273   4.089   3.570   8.125  0.0511 -0.1609  0.4974
 6546SOL    HW131274   4.147   3.639   8.092 -0.6294 -0.7824 -2.0327
 6546SOL    HW231275   4.077   3.612   8.210  2.3284  1.1918  0.1565
 6547SOL     OW31276   3.700   0.411  11.473  0.0544 -0.2935  0.0849
 6547SOL    HW131277   3.738   0.363  11.400 -0.1644  0.6783 -0.6646
 6547SOL    HW231278   3.627   0.354  11.496  0.0967 -0.6470 -0.6718
 6548SOL     OW31279   4.178   1.206  14.360  0.2656 -0.0147 -0.0421
 6548SOL    HW131280   4.215   1.247  14.438 -1.8322 -0.9176  1.4360
 6548SOL    HW231281   4.119   1.141  14.398  0.4814 -0.6356 -0.7675
 6549SOL     OW31282   2.393   3.379  14.847  0.4511  0.1210 -0.1161
 6549SOL    HW131283   2.432   3.462  14.874 -0.4293  0.0878  1.2717
 6549SOL    HW231284   2.473   3.337  14.816  1.3906  1.4363  0.5242
 6550SOL     OW31285   0.945   1.457  15.852  0.4935  0.2571 -0.1280
 6550SOL    HW131286   1.005   1.458  15.926 -0.7321 -0.5734  0.8703
 6550SOL    HW231287   0.894   1.531  15.883  1.0439  0.6182 -0.0786
 6551SOL     OW31288   2.925   4.559   0.959 -0.2590 -0.4232  0.3046
 6551SOL    HW131289   2.907   4.653   0.953 -0.8436 -0.5858 -0.4356
 6551SOL    HW231290   2.900   4.541   0.868 -1.7922 -0.2989  0.7038
 6552SOL     OW31291   4.521   1.122   3.819  0.0698 -0.0024  0.2542
 6552SOL    HW131292   4.583   1.112   3.747  1.1257 -1.3645  1.3407
 6552SOL    HW231293   4.548   1.042   3.865 -2.2034 -1.0899 -0.2986
 6553SOL     OW31294   1.617   3.840  12.595  0.1441 -0.0828 -0.6437
 6553SOL    HW131295   1.696   3.878  12.556  0.4331  1.4272  1.3701
 6553SOL    HW231296   1.551   3.908  12.583 -1.3081 -1.7492 -1.9860
 6554SOL     OW31297   4.695   0.060  16.594  0.2031 -0.0269  0.4221
 6554SOL    HW131298   0.018   4.728  16.611 -0.1885 -0.9732 -2.0318
 6554SOL    HW231299   0.015   0.132  16.571  0.0358 -0.4981 -1.5282
 6555SOL     OW31300   2.145   4.369   7.624  0.1391  0.3544  0.6043
 6555SOL    HW131301   2.226   4.393   7.668 -1.6058  2.9593  2.4065
 6555SOL    HW231302   2.076   4.412   7.675  1.7349 -0.4060  3.3946
 6556SOL     OW31303   1.136   0.661  10.409 -0.2830 -0.8905 -0.4593
 6556SOL    HW131304   1.083   0.632  10.483 -1.9083  0.7885 -0.9608
 6556SOL    HW231305   1.171   0.739  10.452  0.9675 -0.8477 -1.5541
 6557SOL     OW31306   1.517   4.708  10.407 -0.4204  0.2350  0.2802
 6557SOL    HW131307   1.553   4.660  10.333 -1.2436 -0.4169  0.2994
 6557SOL    HW231308   1.541   0.050  10.361  0.4963  0.3034  0.8771
 6558SOL     OW31309   2.035   2.688   5.292  0.6096 -0.7282 -0.3388
 6558SOL    HW131310   2.102   2.624   5.314 -0.5429 -2.6602 -2.4079
 6558SOL    HW231311   2.057   2.750   5.361 -0.0341  1.7943 -2.3642
 6559SOL     OW31312   2.384   3.293   5.126  0.4096  0.5042 -0.5197
 6559SOL    HW131313   2.443   3.336   5.189  1.4079 -0.6135 -0.6838
 6559SOL    HW231314   2.308   3.351   5.119 -0.7462 -1.0209 -0.5455
 6560SOL     OW31315   1.722   1.637   8.347  0.3795  0.2944 -0.1605
 6560SOL    HW131316   1.718   1.613   8.440 -0.4529 -0.1107 -0.2974
 6560SOL    HW231317   1.639   1.600   8.318  0.5032  1.2420 -1.7199
 6561SOL     OW31318   2.979   2.367   4.663 -0.2968 -0.3934 -0.0326
 6561SOL    HW131319   3.006   2.281   4.633  2.6020  0.2107  0.8438
 6561SOL    HW231320   2.937   2.404   4.585 -1.5109 -2.4380 -0.3271
 6562SOL     OW31321   3.701   2.626  10.640 -0.2877 -0.3403 -0.4035
 6562SOL    HW131322   3.682   2.649  10.730 -0.5230 -0.7135 -0.3590
 6562SOL    HW231323   3.704   2.530  10.648  2.1201 -0.2593 -0.1726
 6563SOL     OW31324   1.412   3.932  10.503 -0.8821  0.3399 -0.2004
 6563SOL    HW131325   1.449   3.914  10.417  0.8033 -0.3386  0.6620
 6563SOL    HW231326   1.450   3.864  10.558 -3.1715 -0.9247 -0.1846
 6564SOL     OW31327   0.649   3.276   4.318 -0.1294  0.1263 -0.2567
 6564SOL    HW131328   0.626   3.336   4.247  1.0646 -0.3046 -1.0080
 6564SOL    HW231329   0.594   3.206   4.283 -0.0527 -1.0484  1.9686
 6565SOL     OW31330   3.019   2.707   3.067  0.4172 -0.4782 -0.8235
 6565SOL    HW131331   3.003   2.616   3.041 -0.2776 -0.0433 -1.9137
 6565SOL    HW231332   3.097   2.736   3.019  1.1106 -0.9567  0.0041
 6566SOL     OW31333   1.689   1.836   1.637 -0.1720 -0.8978  0.7183
 6566SOL    HW131334   1.674   1.891   1.561  2.1874 -1.6246 -0.2619
 6566SOL    HW231335   1.666   1.890   1.712  1.4335  3.5152 -2.0065
 6567SOL     OW31336   4.154   0.917   4.667 -0.5489  0.0175 -0.0953
 6567SOL    HW131337   4.244   0.898   4.692  0.1535  0.0635 -2.5892
 6567SOL    HW231338   4.168   1.002   4.624  2.1633  0.4469  1.6272
 6568SOL     OW31339   1.370   0.857   5.796  0.0882  0.0590 -0.3574
 6568SOL    HW131340   1.301   0.884   5.855 -1.9246  0.9054 -3.0950
 6568SOL    HW231341   1.454   0.846   5.841  0.0794  0.2851 -0.2881
 6569SOL     OW31342   1.973   1.352   3.252 -0.2287 -0.3196 -0.4218
 6569SOL    HW131343   1.972   1.290   3.178 -0.7195 -3.0295  1.8636
 6569SOL    HW231344   2.067   1.369   3.259 -0.1674 -0.6706 -0.3749
 6570SOL     OW31345   3.083   2.962   6.906  0.0648  0.2321 -0.3234
 6570SOL    HW131346   3.079   2.934   6.997  2.9276  1.6155  0.2199
 6570SOL    HW231347   3.034   3.045   6.908 -0.8417 -0.2860 -1.2608
 6571SOL     OW31348   4.025   0.852   7.974  0.4116  0.2975 -0.4644
 6571SOL    HW131349   3.940   0.838   7.934  0.3921  1.6359 -0.9114
 6571SOL    HW231350   4.005   0.922   8.036 -0.8470  1.4166 -2.1375
 6572SOL     OW31351   3.955   1.138   7.306  0.2544  0.2131  0.5222
 6572SOL    HW131352   4.027   1.139   7.244  0.6135 -1.1394  0.9191
 6572SOL    HW231353   3.885   1.099   7.254  0.5757  2.6826 -1.7748
 6573SOL     OW31354   0.342   3.089  14.468 -0.3511  0.1104  0.5871
 6573SOL    HW131355   0.325   3.094  14.374 -0.7389 -1.3801  0.5802
 6573SOL    HW231356   0.292   3.012  14.493  0.0413 -0.7026 -1.1326
 6574SOL     OW31357   1.254   3.414   7.089 -0.3746 -0.3452 -0.3135
 6574SOL    HW131358   1.279   3.381   7.176 -0.7031 -1.0032 -0.4664
 6574SOL    HW231359   1.239   3.329   7.048 -3.3129 -0.1540  0.3716
 6575SOL     OW31360   4.332   3.378  10.724 -0.1840  0.0569 -0.0655
 6575SOL    HW131361   4.381   3.311  10.770  1.3547  1.9784  1.0873
 6575SOL    HW231362   4.288   3.423  10.796  0.5635  0.1759  0.3093
 6576SOL     OW31363   4.251   4.633   4.462 -0.5392  0.0103 -0.1351
 6576SOL    HW131364   4.266   4.670   4.549 -0.6821  0.3466 -0.2547
 6576SOL    HW231365   4.242   4.541   4.487 -0.5318 -0.0503 -0.3582
 6577SOL     OW31366   2.901   4.041   8.652  0.4933  0.1403 -0.2368
 6577SOL    HW131367   2.976   4.069   8.599  1.3446  0.9729  1.4105
 6577SOL    HW231368   2.833   4.082   8.597  1.4053 -0.6310 -1.9500
 6578SOL     OW31369   0.877   0.349   0.644 -0.2446  0.0428  0.3998
 6578SOL    HW131370   0.857   0.432   0.687  0.0458  0.2073  0.2157
 6578SOL    HW231371   0.971   0.342   0.658 -0.0655 -0.6783 -1.1393
 6579SOL     OW31372   2.362   4.310   3.994 -0.7540 -0.1659  0.0247
 6579SOL    HW131373   2.276   4.274   4.014 -1.0617  1.2329  1.2036
 6579SOL    HW231374   2.361   4.364   3.916 -1.8428 -0.8549 -0.4313
 6580SOL     OW31375   1.412   0.679   1.293  0.5252 -0.2760  0.0067
 6580SOL    HW131376   1.410   0.750   1.229 -1.2303 -0.2176  0.1332
 6580SOL    HW231377   1.402   0.609   1.229  0.5574  1.0680 -1.4605
 6581SOL     OW31378   4.560   1.641   7.084  0.5094  0.5689  0.3147
 6581SOL    HW131379   4.535   1.718   7.135 -0.1490 -0.0959  0.9913
 6581SOL    HW231380   4.473   1.607   7.064  0.5229  0.7284 -0.0047
 6582SOL     OW31381   2.580   0.709  17.457 -0.6934 -0.2467 -0.0617
 6582SOL    HW131382   2.600   0.731  17.548  0.0047 -2.6681  0.3568
 6582SOL    HW231383   2.505   0.766  17.442  0.5363  1.5400  0.5832
 6583SOL     OW31384   3.944   3.140   8.379 -0.3431  0.1877  0.1851
 6583SOL    HW131385   3.928   3.056   8.336 -0.9973  1.2465 -1.6285
 6583SOL    HW231386   4.039   3.131   8.391  0.0986  0.8133 -2.9971
 6584SOL     OW31387   1.150   0.637   7.039  0.4425  0.6778  0.3361
 6584SOL    HW131388   1.121   0.588   6.962 -0.5482 -0.2549  1.3184
 6584SOL    HW231389   1.210   0.580   7.088  1.0433  0.3724 -0.7446
 6585SOL     OW31390   4.547   1.845   8.840  0.3985 -0.1805  0.3832
 6585SOL    HW131391   4.551   1.767   8.896  2.1070 -0.6544 -0.4174
 6585SOL    HW231392   4.569   1.813   8.753  2.5059 -2.8145  1.8580
 6586SOL     OW31393   1.731   0.431   8.265  0.0798  0.1047  0.5444
 6586SOL    HW131394   1.781   0.451   8.186 -2.5359 -3.0164 -1.8806
 6586SOL    HW231395   1.671   0.505   8.267 -0.2270 -0.1341 -0.2197
 6587SOL     OW31396   3.004   1.207   3.092  0.2617  0.0923 -0.0183
 6587SOL    HW131397   3.007   1.121   3.134  1.7514 -1.0678 -2.5369
 6587SOL    HW231398   2.967   1.261   3.162  0.7331  0.0066  0.2961
 6588SOL     OW31399   1.331   1.683  13.504 -0.2362  0.1547 -0.5451
 6588SOL    HW131400   1.380   1.750  13.551  0.6089 -1.8460  1.4116
 6588SOL    HW231401   1.403   1.644  13.454 -0.1171  0.1681 -0.3828
 6589SOL     OW31402   2.460   3.434   7.332 -0.3032 -0.0355 -0.3840
 6589SOL    HW131403   2.521   3.508   7.322  1.6146 -1.1979  2.7824
 6589SOL    HW231404   2.395   3.450   7.264  0.8587 -1.4401 -1.8277
 6590SOL     OW31405   3.160   1.422   7.114  0.2554 -0.5369  0.1483
 6590SOL    HW131406   3.087   1.360   7.107 -1.0487  1.1350 -1.0003
 6590SOL    HW231407   3.223   1.368   7.162 -1.4380 -3.5750 -1.0215
 6591SOL     OW31408   1.667   4.176   9.205  0.5634 -0.5009 -0.0077
 6591SOL    HW131409   1.731   4.248   9.207 -1.2353  1.0976 -0.9731
 6591SOL    HW231410   1.712   4.095   9.182 -1.6548 -1.6649 -0.1500
 6592SOL     OW31411   2.566   1.948   8.627  0.2472  0.0085 -0.6775
 6592SOL    HW131412   2.471   1.943   8.633  0.3708 -1.3145  0.1358
 6592SOL    HW231413   2.591   1.889   8.556 -0.0694  2.1140 -2.5352
 6593SOL     OW31414   0.708   4.233   4.441  0.1288  0.4970 -0.1474
 6593SOL    HW131415   0.686   4.324   4.424 -0.3825  0.0961 -1.6586
 6593SOL    HW231416   0.752   4.229   4.527 -0.1150  0.5855 -0.0187
 6594SOL     OW31417   0.508   4.434  12.929  0.3987  0.6442 -0.0946
 6594SOL    HW131418   0.561   4.366  12.887 -1.0328 -0.4422 -0.1310
 6594SOL    HW231419   0.426   4.401  12.893 -0.5591  1.1263  1.6473
 6595SOL     OW31420   1.236   1.845   0.219 -0.3671 -0.6073 -0.5821
 6595SOL    HW131421   1.189   1.767   0.188 -1.4685  0.6663 -2.0609
 6595SOL    HW231422   1.283   1.808   0.294  1.6426  0.8487 -1.1577
 6596SOL     OW31423   4.516   0.508  12.552 -0.6026  0.4166 -0.1380
 6596SOL    HW131424   4.536   0.423  12.591 -0.7807  1.0282  1.3068
 6596SOL    HW231425   4.433   0.484  12.511 -1.6679  2.9567  0.5091
 6597SOL     OW31426   1.502   2.981   7.007  0.2317 -0.1055  0.6339
 6597SOL    HW131427   1.500   3.053   6.944  1.0413 -0.6453 -0.0064
 6597SOL    HW231428   1.586   2.988   7.054  0.1533  0.3916  0.6959
 6598SOL     OW31429   3.675   1.650  10.312 -0.1653  0.1275 -0.0646
 6598SOL    HW131430   3.602   1.594  10.339 -1.9321  2.4044 -0.0851
 6598SOL    HW231431   3.657   1.658  10.219 -0.2203 -0.7620 -0.1282
 6599SOL     OW31432   3.898   0.987   6.085  0.0412  0.1746 -0.1336
 6599SOL    HW131433   3.808   0.963   6.106  0.0454  2.2978  2.2677
 6599SOL    HW231434   3.887   1.081   6.077 -0.8219  0.0370 -0.4671
 6600SOL     OW31435   1.017   2.983  16.163 -0.3392  0.1776 -0.3818
 6600SOL    HW131436   0.985   3.041  16.095 -0.4399 -0.1437 -0.6088
 6600SOL    HW231437   1.058   3.036  16.231 -2.3837  0.2125  0.8413
 6601SOL     OW31438   2.283   4.605   6.118  0.5302 -0.0228  0.0091
 6601SOL    HW131439   2.315   4.564   6.199  2.4605  0.6124 -0.4387
 6601SOL    HW231440   2.292   4.698   6.136  1.8389  0.0540 -0.9793
 6602SOL     OW31441   0.156   3.967   7.301 -0.6537  0.2064 -0.5636
 6602SOL    HW131442   0.101   4.045   7.310  1.3752  2.1550 -5.4245
 6602SOL    HW231443   0.199   3.979   7.386  1.0003  0.8555 -1.5154
 6603SOL     OW31444   2.107   1.438  12.881  0.6161 -0.1944  0.0840
 6603SOL    HW131445   2.090   1.482  12.798 -0.1344 -3.0880 -1.2604
 6603SOL    HW231446   2.180   1.383  12.852 -0.2501 -1.6275  0.6724
 6604SOL     OW31447   1.809   3.298   8.019  0.7184  0.0347  0.2916
 6604SOL    HW131448   1.721   3.262   8.005 -0.6282  1.9048  3.6819
 6604SOL    HW231449   1.819   3.351   7.940 -2.7732  1.1210  0.5450
 6605SOL     OW31450   4.022   0.203   4.587  0.1826  0.0563 -0.2013
 6605SOL    HW131451   3.962   0.275   4.605 -0.6807 -0.6137 -0.3949
 6605SOL    HW231452   3.978   0.145   4.525 -1.1722  1.2361 -0.3341
 6606SOL     OW31453   0.331   2.878   0.614 -0.0576 -0.5776  0.1983
 6606SOL    HW131454   0.280   2.927   0.678 -2.1425 -0.4248 -1.5698
 6606SOL    HW231455   0.299   2.790   0.631  2.1516 -1.2451  0.8700
 6607SOL     OW31456   1.441   4.153   5.968  0.1269 -0.0704  0.2593
 6607SOL    HW131457   1.381   4.173   6.040  0.2250  1.2582 -0.0233
 6607SOL    HW231458   1.405   4.073   5.930 -0.1281  0.0023  0.3454
 6608SOL     OW31459   1.969   3.232  10.041  0.2269  0.0061 -0.1072
 6608SOL    HW131460   1.931   3.262   9.958 -0.6335 -2.1032 -0.4709
 6608SOL    HW231461   1.906   3.165  10.069  0.7967 -1.1183 -1.5198
 6609SOL     OW31462   3.776   0.820   1.694 -0.3333  0.1764 -0.4049
 6609SOL    HW131463   3.714   0.754   1.663 -0.2120 -0.3150  0.3923
 6609SOL    HW231464   3.858   0.770   1.692  0.1555  1.0160 -1.5473
 6610SOL     OW31465   4.442   1.442  15.985  0.1447  0.0970 -1.7103
 6610SOL    HW131466   4.461   1.437  15.891 -0.7757 -0.7330 -1.8493
 6610SOL    HW231467   4.361   1.392  15.985  1.0136 -1.3069  1.3421
 6611SOL     OW31468   1.121   3.570   5.539  0.4036 -0.0546 -0.7709
 6611SOL    HW131469   1.125   3.650   5.487  0.4697 -0.9218 -2.0944
 6611SOL    HW231470   1.077   3.506   5.483 -0.7707  1.0801 -1.1563
 6612SOL     OW31471   0.638   0.780   9.728 -0.0698 -0.0699  0.2437
 6612SOL    HW131472   0.678   0.834   9.659 -2.8039  0.2334 -1.0828
 6612SOL    HW231473   0.667   0.827   9.807  1.2339 -0.4218 -0.0220
 6613SOL     OW31474   3.980   1.261   4.982  0.5040 -0.2587 -1.1333
 6613SOL    HW131475   4.068   1.230   4.959  0.3817 -1.6971  0.3698
 6613SOL    HW231476   3.992   1.272   5.077 -1.8589 -0.0229 -0.8754
 6614SOL     OW31477   0.702   1.591   6.729  0.3007 -0.2131 -0.0866
 6614SOL    HW131478   0.654   1.615   6.808 -2.4742  2.3067 -2.4972
 6614SOL    HW231479   0.747   1.514   6.763  1.8950  2.3296  3.4750
 6615SOL     OW31480   3.489   2.507  11.683 -0.5388  0.9539 -0.2606
 6615SOL    HW131481   3.417   2.567  11.662  0.1467  1.3181 -1.5876
 6615SOL    HW231482   3.433   2.429  11.680  0.8538 -0.0960  1.1802
 6616SOL     OW31483   1.618   1.701   5.532 -1.3313  0.2708  0.5580
 6616SOL    HW131484   1.574   1.644   5.468 -1.1448  0.2638  0.4359
 6616SOL    HW231485   1.708   1.698   5.500 -1.2617 -2.0103  0.9117
 6617SOL     OW31486   3.463   2.352   1.024 -0.2381 -0.0285 -0.1536
 6617SOL    HW131487   3.417   2.279   1.065  1.1639  0.3700  2.0992
 6617SOL    HW231488   3.553   2.346   1.054 -0.3351 -1.3285 -0.1510
 6618SOL     OW31489   3.011   4.199   9.454 -0.4672 -0.0195 -0.3014
 6618SOL    HW131490   2.920   4.225   9.438 -0.8239  0.0223  1.7897
 6618SOL    HW231491   3.007   4.107   9.429 -2.2926  0.3775 -1.5246
 6619SOL     OW31492   1.243   0.081  13.465 -0.3457 -0.2015 -0.6339
 6619SOL    HW131493   1.329   0.053  13.432 -0.5779 -0.6781 -0.8347
 6619SOL    HW231494   1.185   0.025  13.413 -0.0118 -0.5879 -0.5924
 6620SOL     OW31495   3.848   1.653  10.540 -0.2685 -0.2427  0.3852
 6620SOL    HW131496   3.797   1.665  10.460 -1.8296  0.8788  1.5450
 6620SOL    HW231497   3.914   1.722  10.531 -0.2523 -0.1623  1.1322
 6621SOL     OW31498   1.320   2.013  16.349  0.2419 -0.0393  0.2233
 6621SOL    HW131499   1.232   1.979  16.332 -0.5997  1.4626  1.5360
 6621SOL    HW231500   1.296   2.094  16.395 -0.5418  0.0873 -0.3987
 6622SOL     OW31501   0.311   1.649  12.104 -0.5878  0.3940  0.4915
 6622SOL    HW131502   0.320   1.633  12.198 -0.5960 -2.8011 -0.0399
 6622SOL    HW231503   0.380   1.713  12.091 -0.6380  0.1339 -1.0233
 6623SOL     OW31504   1.523   1.152  12.650  0.8663  0.0581  0.5494
 6623SOL    HW131505   1.561   1.234  12.682 -0.9913  0.7598  0.9478
 6623SOL    HW231506   1.521   1.166  12.555  0.9764  2.2751  0.8784
 6624SOL     OW31507   2.191   3.682  10.089  0.3021 -0.2817 -0.5434
 6624SOL    HW131508   2.241   3.632  10.025  2.1473 -1.8469  2.0864
 6624SOL    HW231509   2.244   3.652  10.163  1.5264  1.2958 -0.7809
 6625SOL     OW31510   2.552   0.993   6.690 -0.8538  0.1573 -0.5758
 6625SOL    HW131511   2.466   0.954   6.701 -0.3119 -0.8963 -0.0826
 6625SOL    HW231512   2.555   1.055   6.763  0.4983  0.9985 -1.3503
 6626SOL     OW31513   1.548   1.897   8.811  0.2898 -0.3088 -0.3946
 6626SOL    HW131514   1.545   1.839   8.887 -2.6667 -0.0928 -0.3431
 6626SOL    HW231515   1.460   1.884   8.778 -0.8867 -1.6425  3.2443
 6627SOL     OW31516   0.856   3.113   2.576 -0.0363  0.3099 -0.1504
 6627SOL    HW131517   0.839   3.120   2.482  1.5294 -1.5399 -0.5791
 6627SOL    HW231518   0.913   3.187   2.595 -0.1171  0.3655 -0.1261
 6628SOL     OW31519   1.051   3.733   9.331 -0.1730 -0.4475  0.9611
 6628SOL    HW131520   1.091   3.647   9.340 -1.0894 -1.1513 -1.5325
 6628SOL    HW231521   1.096   3.752   9.248 -1.3066  1.1022  0.6764
 6629SOL     OW31522   1.751   2.854  14.429 -0.4240 -0.3059 -0.1708
 6629SOL    HW131523   1.718   2.826  14.344 -0.0279  0.0033 -0.4290
 6629SOL    HW231524   1.844   2.869  14.409 -0.3096 -2.9845 -1.6735
 6630SOL     OW31525   4.653   0.232   6.199  0.4187  0.4565 -0.4220
 6630SOL    HW131526   4.557   0.226   6.205  0.1970  3.1931 -0.9557
 6630SOL    HW231527   4.683   0.220   6.289  0.7343  0.4773 -0.5241
 6631SOL     OW31528   0.501   1.963  11.789  0.3578 -0.0096  0.0968
 6631SOL    HW131529   0.459   1.932  11.708  0.4734 -0.6764  0.2893
 6631SOL    HW231530   0.558   2.028  11.750  0.6272 -0.9702 -1.1359
 6632SOL     OW31531   1.439   1.471  14.000 -0.0524 -0.2335 -0.0182
 6632SOL    HW131532   1.441   1.376  14.012 -1.3000 -0.3931 -0.9858
 6632SOL    HW231533   1.469   1.497  14.087 -2.0221  1.7996  0.0371
 6633SOL     OW31534   4.006   4.005   5.962  0.0106 -0.2463  0.3277
 6633SOL    HW131535   4.033   4.039   6.047  0.6957  2.3069 -0.9015
 6633SOL    HW231536   3.999   4.087   5.913 -0.1587 -1.4642 -1.6954
 6634SOL     OW31537   3.857   2.705   0.525 -0.0085 -0.0811  0.0651
 6634SOL    HW131538   3.839   2.631   0.467  0.8584  0.6081 -1.0863
 6634SOL    HW231539   3.862   2.662   0.610  0.6170 -1.2716 -0.5697
 6635SOL     OW31540   3.332   4.528  15.355  0.1027 -0.2269  0.1245
 6635SOL    HW131541   3.402   4.478  15.396 -0.3957 -0.7102  0.3743
 6635SOL    HW231542   3.378   4.611  15.340 -0.6597 -0.0607 -1.3369
 6636SOL     OW31543   2.741   2.683  13.538  0.3776  0.0411 -0.5058
 6636SOL    HW131544   2.802   2.750  13.568 -0.2780  0.2240  0.4128
 6636SOL    HW231545   2.691   2.672  13.619 -1.0449 -2.7223 -1.7556
 6637SOL     OW31546   2.234   1.022   3.148 -0.3050 -0.4315  0.1506
 6637SOL    HW131547   2.171   1.013   3.219 -0.6445  0.7806 -0.0034
 6637SOL    HW231548   2.286   1.096   3.179 -0.3858 -0.5136  0.4795
 6638SOL     OW31549   3.016   3.417  13.237 -0.3029  0.2761  0.4334
 6638SOL    HW131550   3.089   3.403  13.176  0.0974  0.7919  0.7949
 6638SOL    HW231551   2.983   3.495  13.193 -0.9745  2.0781  4.1196
 6639SOL     OW31552   2.661   1.215   3.524  0.2609 -0.1827 -0.6335
 6639SOL    HW131553   2.617   1.249   3.602  1.5324  1.9810 -0.8741
 6639SOL    HW231554   2.733   1.278   3.515  0.5132 -0.2167  1.2405
 6640SOL     OW31555   0.095   2.279   3.152  0.0243 -0.0315  0.3815
 6640SOL    HW131556   0.044   2.231   3.086 -0.1590 -1.0641  1.2818
 6640SOL    HW231557   0.125   2.206   3.207  0.3420  0.8886  1.4147
 6641SOL     OW31558   1.083   2.928   3.902  0.5493  0.2250 -0.2926
 6641SOL    HW131559   1.034   2.990   3.955  0.1308 -2.9788  3.0966
 6641SOL    HW231560   1.047   2.935   3.814 -3.1485  0.3303  1.2365
 6642SOL     OW31561   3.348   3.786  15.879  0.2605 -0.1720 -0.2470
 6642SOL    HW131562   3.404   3.820  15.809 -1.8673  1.2395 -1.2553
 6642SOL    HW231563   3.304   3.864  15.912  0.2807  0.9348 -2.7914
 6643SOL     OW31564   4.625   4.264   2.390 -1.1727 -0.0626  0.4041
 6643SOL    HW131565   4.563   4.283   2.461  0.3821  0.8101  1.5252
 6643SOL    HW231566   4.703   4.282   2.442 -1.0550 -0.1282  0.2468
 6644SOL     OW31567   1.447   1.205   3.817 -0.3518  0.1579 -0.1596
 6644SOL    HW131568   1.354   1.221   3.805 -0.4399  1.0227  1.6818
 6644SOL    HW231569   1.466   1.265   3.889  1.4505  0.3017 -0.7375
 6645SOL     OW31570   2.341   1.659   7.436  0.2641  0.8082 -0.2263
 6645SOL    HW131571   2.277   1.728   7.453 -1.2436 -0.4121 -0.9164
 6645SOL    HW231572   2.427   1.702   7.432  1.5648 -1.7420  0.1004
 6646SOL     OW31573   1.571   1.006  12.261  0.2025  0.0654 -0.5481
 6646SOL    HW131574   1.487   1.007  12.307 -0.6764  0.9927 -2.1659
 6646SOL    HW231575   1.586   1.098  12.282  0.0791 -0.3198  1.2146
 6647SOL     OW31576   3.977   2.895  14.867 -0.1721  0.6811 -0.2399
 6647SOL    HW131577   3.917   2.833  14.908 -0.3317  1.1500  0.2435
 6647SOL    HW231578   3.968   2.888  14.772  1.0526 -1.7684 -0.1701
 6648SOL     OW31579   3.859   4.156   8.211 -0.0993  0.1663  0.5405
 6648SOL    HW131580   3.869   4.245   8.178  3.0722  0.5082  2.3892
 6648SOL    HW231581   3.951   4.128   8.207 -0.1427  0.0247  0.5341
 6649SOL     OW31582   2.513   2.215   5.618 -0.2066  0.5409  0.0850
 6649SOL    HW131583   2.609   2.216   5.607 -0.1963  0.7869  0.1844
 6649SOL    HW231584   2.514   2.205   5.713  0.0089  0.0651  0.0309
 6650SOL     OW31585   1.115   1.767   4.945 -0.1587 -0.4984  0.5115
 6650SOL    HW131586   1.038   1.713   4.960 -0.3024 -0.5189 -0.3203
 6650SOL    HW231587   1.088   1.819   4.870  0.3362  0.8336  1.2651
 6651SOL     OW31588   3.781   4.582   9.421  0.6107  0.6862 -0.4304
 6651SOL    HW131589   3.691   4.549   9.420  1.0322 -0.4850  0.5188
 6651SOL    HW231590   3.800   4.597   9.329  2.1213  1.5253  0.0301
 6652SOL     OW31591   4.186   2.102  15.418  0.0065 -0.2455 -0.7064
 6652SOL    HW131592   4.149   2.107  15.506  0.9066 -0.8270 -0.2942
 6652SOL    HW231593   4.188   2.006  15.414  2.6276 -0.2644  0.9912
 6653SOL     OW31594   1.952   3.246   5.875 -0.2052 -0.2889  0.0127
 6653SOL    HW131595   2.030   3.299   5.856 -0.1443  0.6730  2.9637
 6653SOL    HW231596   1.889   3.315   5.896 -0.9517 -0.8940 -0.2827
 6654SOL     OW31597   3.777   0.283   1.705 -0.3381  0.1371 -0.5623
 6654SOL    HW131598   3.703   0.222   1.699 -0.1889 -0.1630  0.6306
 6654SOL    HW231599   3.840   0.244   1.644 -0.3534 -2.0824  0.8338
 6655SOL     OW31600   0.315   4.270  16.090  0.1490 -0.5517 -0.3878
 6655SOL    HW131601   0.336   4.329  16.017 -0.0673  0.5496  0.4471
 6655SOL    HW231602   0.350   4.314  16.166  0.8741  0.0614 -1.0828
 6656SOL     OW31603   1.553   2.232  16.446 -0.2872 -0.4458 -0.5030
 6656SOL    HW131604   1.624   2.287  16.417 -0.5574 -0.7843 -1.7902
 6656SOL    HW231605   1.476   2.282  16.420 -0.7809 -1.5156 -1.1221
 6657SOL     OW31606   4.512   4.143   6.941 -0.5083  0.1766 -0.5455
 6657SOL    HW131607   4.530   4.185   7.025  2.5149 -2.3935  0.1036
 6657SOL    HW231608   4.568   4.066   6.952 -0.3133  0.3171 -0.5472
 6658SOL     OW31609   3.939   2.145   0.471  0.1224  0.3576 -0.1135
 6658SOL    HW131610   3.974   2.223   0.513  0.0466  0.3755 -0.0855
 6658SOL    HW231611   4.018   2.104   0.435  0.4557  0.7127  0.2068
 6659SOL     OW31612   2.144   3.990   3.598 -0.0481  0.6063 -0.8371
 6659SOL    HW131613   2.093   3.917   3.562 -0.0477  0.9813 -1.5926
 6659SOL    HW231614   2.203   3.943   3.656 -0.4172  1.3314  0.1211
 6660SOL     OW31615   0.505   0.398   2.722 -0.1896 -0.1312 -0.1937
 6660SOL    HW131616   0.575   0.394   2.788  0.7094 -2.7627 -1.2808
 6660SOL    HW231617   0.431   0.416   2.779 -0.2384  2.8962 -1.2473
 6661SOL     OW31618   3.783   3.887   3.049 -0.0593 -0.4119 -0.0247
 6661SOL    HW131619   3.811   3.977   3.064 -0.3746 -0.5353  1.3643
 6661SOL    HW231620   3.847   3.861   2.983 -0.2251  2.3482 -1.2960
 6662SOL     OW31621   2.906   1.971   8.037 -0.2225  0.3605 -0.1425
 6662SOL    HW131622   2.869   2.050   7.997  1.3043  0.8397 -0.5986
 6662SOL    HW231623   2.964   2.013   8.100 -0.0087 -0.7784  0.4321
 6663SOL     OW31624   4.106   4.196   3.502 -0.0041  0.0445 -0.4397
 6663SOL    HW131625   4.133   4.113   3.541  0.6236  0.0132 -0.9292
 6663SOL    HW231626   4.190   4.242   3.496  1.0235 -1.8848 -1.1178
 6664SOL     OW31627   1.582   3.485   7.371  0.4739 -0.3277  0.6005
 6664SOL    HW131628   1.632   3.409   7.341 -2.0187 -2.0254  0.8033
 6664SOL    HW231629   1.551   3.467   7.459  0.2881 -0.5982  0.4786
 6665SOL     OW31630   3.394   4.409   8.991  0.2182  0.3070 -0.5259
 6665SOL    HW131631   3.349   4.326   9.001  1.7816 -0.5676 -0.7853
 6665SOL    HW231632   3.360   4.424   8.902 -3.8901 -2.2993  0.6419
 6666SOL     OW31633   0.282   2.354   6.887 -0.0011  0.1543 -0.2549
 6666SOL    HW131634   0.279   2.291   6.959  1.3618 -0.0444 -0.3664
 6666SOL    HW231635   0.376   2.361   6.870  0.4943 -0.7231  2.0247
 6667SOL     OW31636   2.374   0.377   7.875  0.1030 -0.1150 -0.0047
 6667SOL    HW131637   2.450   0.432   7.897  1.4296 -2.0535  0.2084
 6667SOL    HW231638   2.313   0.447   7.851  1.5054  2.2313  3.3327
 6668SOL     OW31639   3.096   3.704   7.838 -0.1669  0.3730 -0.2323
 6668SOL    HW131640   3.130   3.786   7.873  0.4970  0.0118 -0.0230
 6668SOL    HW231641   3.164   3.643   7.868  1.4173  2.2573 -0.0324
 6669SOL     OW31642   0.629   2.766   7.158  0.1976  0.2155  0.5230
 6669SOL    HW131643   0.670   2.852   7.152  0.7647  0.0408  1.8257
 6669SOL    HW231644   0.626   2.756   7.253  0.5869  0.5434  0.5704
 6670SOL     OW31645   1.009   3.878   5.939 -0.1160  0.2296 -0.1186
 6670SOL    HW131646   0.926   3.854   5.899  0.7915 -0.0231 -1.8313
 6670SOL    HW231647   1.066   3.853   5.867 -0.4823 -0.3004 -0.2202
 6671SOL     OW31648   3.116   3.317   0.579  0.5704 -0.2532 -0.2443
 6671SOL    HW131649   3.112   3.341   0.672  1.5156  1.7463 -0.7107
 6671SOL    HW231650   3.027   3.286   0.562  0.5559 -1.2221  1.5375
 6672SOL     OW31651   2.780   2.953  14.271 -0.2610  0.2581  0.4238
 6672SOL    HW131652   2.767   3.048  14.273 -2.6419 -0.1106  2.0595
 6672SOL    HW231653   2.838   2.955  14.195  0.5409 -1.3775  0.9825
 6673SOL     OW31654   3.490   2.377  12.536  0.4802  0.4589 -0.8072
 6673SOL    HW131655   3.489   2.394  12.442 -2.7287  0.1544 -0.8067
 6673SOL    HW231656   3.506   2.282  12.538  1.5787  0.7011  1.3375
 6674SOL     OW31657   3.541   0.561  16.336  0.5300  0.3431  0.1101
 6674SOL    HW131658   3.547   0.649  16.373  0.8750  1.1806 -1.9007
 6674SOL    HW231659   3.498   0.586  16.254  1.1540  0.0193 -0.3179
 6675SOL     OW31660   3.502   2.718  12.086 -0.2910 -0.0456 -0.4457
 6675SOL    HW131661   3.421   2.678  12.055 -1.6242  2.4051 -0.1745
 6675SOL    HW231662   3.480   2.811  12.084  1.2633  0.3497  0.4888
 6676SOL     OW31663   1.579   0.208   5.282 -0.3195  0.3255 -0.4299
 6676SOL    HW131664   1.508   0.182   5.223 -0.9277 -0.5727  0.6977
 6676SOL    HW231665   1.628   0.126   5.275 -1.4447 -0.2466 -1.6046
 6677SOL     OW31666   2.915   4.142   2.564 -0.2944  0.2773  0.2918
 6677SOL    HW131667   2.916   4.142   2.660 -0.4331  1.9794  0.2926
 6677SOL    HW231668   2.827   4.112   2.545  0.1494 -0.7335 -0.1704
 6678SOL     OW31669   3.773   0.850  13.117  0.4981  0.1684  0.6274
 6678SOL    HW131670   3.816   0.907  13.180  0.1197  1.0773  0.0484
 6678SOL    HW231671   3.853   0.820  13.075  1.8888  1.5154  2.3477
 6679SOL     OW31672   4.614   1.565   2.347 -0.2512 -0.3077  0.2586
 6679SOL    HW131673   4.620   1.486   2.293 -1.0371  0.4222 -0.9033
 6679SOL    HW231674   4.627   1.531   2.435 -0.9885 -0.3816  0.3330
 6680SOL     OW31675   0.912   3.955   4.916 -0.1364 -0.0426 -0.0950
 6680SOL    HW131676   0.843   3.918   4.970 -1.3716  3.5962  0.7872
 6680SOL    HW231677   0.928   4.039   4.958  3.4564 -1.3324  1.1905
 6681SOL     OW31678   1.684   2.500   3.621  0.5193  0.4721  0.0023
 6681SOL    HW131679   1.684   2.596   3.612  0.3125  0.4953  0.2573
 6681SOL    HW231680   1.726   2.472   3.539  1.8219  0.6024  0.6179
 6682SOL     OW31681   4.728   1.136  12.300 -0.4287  0.4409  0.1249
 6682SOL    HW131682   4.736   1.173  12.212 -1.4420 -0.5250 -0.3598
 6682SOL    HW231683   0.001   1.215  12.353 -0.9374  1.1756 -0.8584
 6683SOL     OW31684   2.893   1.324   2.877  0.1918  0.5557 -0.4390
 6683SOL    HW131685   2.800   1.302   2.865  0.3047 -0.7762  1.0775
 6683SOL    HW231686   2.915   1.262   2.946  1.4842  1.4354 -0.0701
 6684SOL     OW31687   4.125   2.556   2.170  0.3391 -0.4712 -0.2467
 6684SOL    HW131688   4.169   2.619   2.227  1.9218 -0.3217 -1.6149
 6684SOL    HW231689   4.047   2.603   2.141  0.5409  0.6867  1.0972
 6685SOL     OW31690   2.763   3.742   2.921  0.2187 -0.0622  0.3077
 6685SOL    HW131691   2.684   3.698   2.952 -0.8074  1.5550 -0.0017
 6685SOL    HW231692   2.761   3.832   2.953 -1.5544 -0.5671  1.6007
 6686SOL     OW31693   3.614   3.831   0.525 -0.6469  0.5047  0.0618
 6686SOL    HW131694   3.676   3.891   0.484 -0.0856 -1.1545 -1.5686
 6686SOL    HW231695   3.671   3.754   0.517 -1.2147 -0.1283  2.4030
 6687SOL     OW31696   2.206   2.423   3.502  0.8434  0.0436  0.5588
 6687SOL    HW131697   2.191   2.504   3.453  3.6762 -1.2009 -2.3935
 6687SOL    HW231698   2.296   2.407   3.474  0.1092 -0.7751 -1.3150
 6688SOL     OW31699   2.602   0.677   3.808 -0.1137  0.0237  0.2553
 6688SOL    HW131700   2.603   0.650   3.900 -0.2524 -0.3944  0.1361
 6688SOL    HW231701   2.510   0.671   3.781 -0.1256  0.4650  0.2026
 6689SOL     OW31702   0.809   2.932   4.218  0.0609 -0.0809 -0.4312
 6689SOL    HW131703   0.787   2.878   4.141  0.2619 -1.2148  0.2998
 6689SOL    HW231704   0.722   2.966   4.236 -0.7654 -1.1556 -2.3690
 6690SOL     OW31705   2.762   3.909   2.667 -0.3808  0.2256  0.2001
 6690SOL    HW131706   2.723   3.847   2.728  1.4786 -2.0147 -0.9114
 6690SOL    HW231707   2.792   3.843   2.605  1.2897  0.0856  1.1627
 6691SOL     OW31708   0.618   0.510  13.248  0.4766 -0.7135  0.4990
 6691SOL    HW131709   0.649   0.419  13.249  1.5181 -0.3744 -0.9309
 6691SOL    HW231710   0.603   0.515  13.343 -0.3412 -1.5412  0.4179
 6692SOL     OW31711   0.298   1.675  13.492  0.2424  0.1216  0.6870
 6692SOL    HW131712   0.205   1.665  13.509  0.6938 -1.9824  1.8924
 6692SOL    HW231713   0.324   1.586  13.516  1.1745  0.0284 -0.6389
 6693SOL     OW31714   0.445   2.066   4.635  0.1949  0.1150 -0.7312
 6693SOL    HW131715   0.445   2.067   4.730 -0.9978 -0.8838 -0.7166
 6693SOL    HW231716   0.362   2.020   4.625 -0.7970  1.5904  0.8607
 6694SOL     OW31717   4.139   3.429   3.447 -0.7429  0.0911  0.1351
 6694SOL    HW131718   4.205   3.404   3.512  0.4593  1.3795 -0.5688
 6694SOL    HW231719   4.087   3.349   3.450  0.1928 -0.5437 -0.4998
 6695SOL     OW31720   3.253   3.383  12.568 -0.3162  0.1911 -0.5049
 6695SOL    HW131721   3.298   3.467  12.558 -2.5956  1.5720  0.8374
 6695SOL    HW231722   3.163   3.404  12.542 -0.3323 -0.2099 -0.7749
 6696SOL     OW31723   4.147   4.039   3.885  0.3680 -0.5682  0.3866
 6696SOL    HW131724   4.146   4.024   3.790 -3.7324  1.2102  0.1241
 6696SOL    HW231725   4.067   3.991   3.906  0.2852 -0.2031  0.9194
 6697SOL     OW31726   1.796   1.744   6.090  0.5510 -0.2159  0.2247
 6697SOL    HW131727   1.868   1.736   6.153  0.2452  2.7931  0.9698
 6697SOL    HW231728   1.800   1.652   6.064 -4.0154 -0.6479  1.0096
 6698SOL     OW31729   3.656   1.856   2.974  0.3386  0.9513  0.4704
 6698SOL    HW131730   3.615   1.777   3.010  0.3196  0.6250 -0.2591
 6698SOL    HW231731   3.694   1.816   2.895 -0.2744 -0.7589  1.0431
 6699SOL     OW31732   0.549   3.769   2.219  0.5704 -0.6455  0.4624
 6699SOL    HW131733   0.500   3.722   2.287  1.9053  0.8397  2.4734
 6699SOL    HW231734   0.541   3.859   2.251  0.6282 -0.6277  0.4257
 6700SOL     OW31735   2.213   4.338  12.531  0.0016  0.1258 -0.3309
 6700SOL    HW131736   2.210   4.420  12.481  2.4919 -0.1715 -0.9637
 6700SOL    HW231737   2.190   4.367  12.619 -1.2500  0.1502 -0.6598
 6701SOL     OW31738   4.076   4.586  12.553  0.1378  0.1255 -0.2726
 6701SOL    HW131739   3.989   4.546  12.552  0.0631  0.3185 -1.6735
 6701SOL    HW231740   4.114   4.526  12.618 -1.2960  0.3989  0.8197
 6702SOL     OW31741   0.736   1.166  13.857 -0.1038 -0.0609 -0.4422
 6702SOL    HW131742   0.812   1.111  13.876  0.7081  0.9178 -0.8579
 6702SOL    HW231743   0.769   1.249  13.891  0.5944 -0.8101  0.7019
 6703SOL     OW31744   1.365   3.002   9.952 -0.0759  0.4299 -0.4087
 6703SOL    HW131745   1.413   2.940   9.897  2.1487  1.1956  0.6645
 6703SOL    HW231746   1.279   3.003   9.911  0.1272 -0.4120 -0.8478
 6704SOL     OW31747   3.575   1.589   3.934 -0.3140  0.5237 -0.0010
 6704SOL    HW131748   3.592   1.684   3.938  4.7933 -0.2991 -1.6180
 6704SOL    HW231749   3.573   1.580   3.839 -0.5171 -1.5097  0.2008
 6705SOL     OW31750   4.089   3.865   1.844 -0.0860 -0.5419 -0.0719
 6705SOL    HW131751   4.013   3.921   1.831  0.4203  0.3664  0.9210
 6705SOL    HW231752   4.159   3.906   1.895 -0.5894  0.2196 -0.0049
 6706SOL     OW31753   2.661   4.341  13.039  0.1291  0.8963  0.1919
 6706SOL    HW131754   2.651   4.422  13.089 -1.2929  0.5565  0.4685
 6706SOL    HW231755   2.595   4.353  12.971 -0.1266 -0.2157  0.2524
 6707SOL     OW31756   4.493   0.910   2.801 -0.3324  0.4058  0.3474
 6707SOL    HW131757   4.517   1.000   2.780 -0.9430  0.6265  0.6006
 6707SOL    HW231758   4.451   0.879   2.721 -0.9630  0.0024  0.8276
 6708SOL     OW31759   4.515   1.579  16.524 -0.6527 -0.3779 -0.0294
 6708SOL    HW131760   4.579   1.646  16.549 -0.3107 -0.5599 -0.4038
 6708SOL    HW231761   4.576   1.505  16.531 -0.7890 -0.4874  0.0014
 6709SOL     OW31762   1.098   1.673  15.583  0.4039  0.2328  0.2931
 6709SOL    HW131763   1.115   1.731  15.657 -0.3175  1.7574 -0.7600
 6709SOL    HW231764   1.146   1.597  15.618  0.5274 -0.4987 -1.4998
 6710SOL     OW31765   3.870   4.303   3.467 -0.4861 -0.1492  0.1810
 6710SOL    HW131766   3.949   4.257   3.496 -0.4208  0.1434  0.4718
 6710SOL    HW231767   3.923   4.372   3.428  0.6115 -1.4698 -0.6746
 6711SOL     OW31768   1.019   3.507   4.277 -0.2907 -0.1241 -0.3878
 6711SOL    HW131769   1.006   3.593   4.237 -0.5559  0.0491  0.0670
 6711SOL    HW231770   0.957   3.450   4.231 -0.9539  0.0172  0.3210
 6712SOL     OW31771   2.296   1.050   7.613  0.2136  0.3321  0.4081
 6712SOL    HW131772   2.236   1.098   7.670  0.2465 -0.2281  0.9178
 6712SOL    HW231773   2.235   0.993   7.567  0.5882 -0.1004  0.4481
 6713SOL     OW31774   3.175   3.544   6.601 -0.3341 -0.1113  0.6062
 6713SOL    HW131775   3.165   3.591   6.684  0.5621 -2.1245  1.8542
 6713SOL    HW231776   3.100   3.573   6.550 -0.5370 -1.4453  0.1669
 6714SOL     OW31777   4.621   1.140   2.711  0.1388  0.3379  0.6633
 6714SOL    HW131778   4.591   1.170   2.625  0.7997 -0.4360  0.1647
 6714SOL    HW231779   4.636   1.223   2.757 -1.6928  1.3813 -0.6592
 6715SOL     OW31780   1.047   1.359   6.860  0.6773  0.3640  0.7110
 6715SOL    HW131781   1.031   1.427   6.925 -1.0638  1.7626 -1.2094
 6715SOL    HW231782   1.123   1.390   6.811  0.7443 -0.8520  0.0369
 6716SOL     OW31783   4.297   1.966   7.945 -0.6040 -0.1636 -0.4633
 6716SOL    HW131784   4.285   1.883   7.992 -0.8610 -0.5131 -1.1493
 6716SOL    HW231785   4.209   1.996   7.967  1.0208  2.9323  1.7881
 6717SOL     OW31786   3.054   3.872   3.224  0.4585  0.2570  0.1556
 6717SOL    HW131787   2.981   3.813   3.242  0.1028  0.7805  0.4449
 6717SOL    HW231788   3.128   3.814   3.206  0.9245  0.8936  0.0131
 6718SOL     OW31789   0.553   3.044   3.847  0.4584 -0.5186  0.1402
 6718SOL    HW131790   0.530   2.973   3.788 -2.0985  0.9708 -0.6389
 6718SOL    HW231791   0.599   2.986   3.908 -1.2563 -1.0685  0.9230
 6719SOL     OW31792   0.357   3.281   7.711 -0.1928 -0.8469 -0.6471
 6719SOL    HW131793   0.412   3.236   7.647  2.7472 -0.0881  1.3356
 6719SOL    HW231794   0.378   3.374   7.699 -0.6971 -0.7401 -0.6785
 6720SOL     OW31795   2.356   1.635   8.051 -0.0579  0.6138 -0.1637
 6720SOL    HW131796   2.436   1.589   8.075 -1.5565 -2.1494 -0.3835
 6720SOL    HW231797   2.343   1.696   8.123 -1.5070 -1.1155  1.0398
 6721SOL     OW31798   1.242   4.314   8.575  0.5329  0.4036 -0.2039
 6721SOL    HW131799   1.293   4.335   8.653  0.1816 -0.5724  0.2869
 6721SOL    HW231800   1.218   4.226   8.603 -0.6711  1.1167  1.0169
 6722SOL     OW31801   1.125   0.263   5.170 -0.3014  0.1871  0.4461
 6722SOL    HW131802   1.198   0.204   5.190 -2.4473 -2.4806  0.4149
 6722SOL    HW231803   1.062   0.250   5.240 -1.0882  0.3917 -0.2198
 6723SOL     OW31804   1.885   0.044   5.740 -0.2342 -0.0221  0.3579
 6723SOL    HW131805   1.934   0.120   5.771  1.5734 -1.4337  0.9788
 6723SOL    HW231806   1.803   0.080   5.706 -0.4679  0.4428  1.4176
 6724SOL     OW31807   1.319   3.613   2.751 -0.1642  0.3165  0.3928
 6724SOL    HW131808   1.274   3.583   2.830  0.0346 -0.7002  0.1299
 6724SOL    HW231809   1.256   3.595   2.681  1.5477  1.6433 -1.4725
 6725SOL     OW31810   0.572   0.142  12.970 -0.2158 -0.1206 -0.3507
 6725SOL    HW131811   0.512   0.173  13.038  1.3247  0.3251  0.8078
 6725SOL    HW231812   0.566   0.048  12.987  0.5006 -0.1168 -0.0693
 6726SOL     OW31813   1.049   1.687   9.104 -0.1455 -0.2174  0.1459
 6726SOL    HW131814   1.017   1.742   9.033  0.3054 -3.2023 -2.3710
 6726SOL    HW231815   1.002   1.718   9.182  0.1898 -2.2717  1.1530
 6727SOL     OW31816   2.297   2.618   0.560  0.5715  0.4740  0.1446
 6727SOL    HW131817   2.348   2.615   0.479 -0.5932 -0.6194 -0.5374
 6727SOL    HW231818   2.294   2.526   0.589  1.1103  0.4664  0.1892
 6728SOL     OW31819   1.387   2.832   3.733 -0.1274  0.4661 -0.6551
 6728SOL    HW131820   1.458   2.795   3.681  1.5396  0.6807  1.4577
 6728SOL    HW231821   1.347   2.895   3.673 -0.5875 -0.7533 -1.6398
 6729SOL     OW31822   4.676   2.515   7.481 -0.5512 -0.7495 -0.1492
 6729SOL    HW131823   4.622   2.552   7.551 -0.6799 -1.1229 -0.0516
 6729SOL    HW231824   4.599   2.490   7.430 -1.6373  0.5373  0.8440
 6730SOL     OW31825   4.461   4.006  10.026  0.0981  0.1758  0.5603
 6730SOL    HW131826   4.481   3.916  10.001 -0.6705  0.6418 -1.7403
 6730SOL    HW231827   4.427   3.992  10.114 -0.6160 -2.7747 -0.1903
 6731SOL     OW31828   1.630   4.626  10.787  0.2482  0.5581  0.1757
 6731SOL    HW131829   1.706   4.675  10.818  0.0293  1.0261 -0.0352
 6731SOL    HW231830   1.662   4.595  10.702 -0.8638  0.5877 -0.2531
 6732SOL     OW31831   1.705   3.819  15.026  0.4487  0.7072  0.2798
 6732SOL    HW131832   1.632   3.775  15.070  1.8771 -1.4255  0.5446
 6732SOL    HW231833   1.718   3.894  15.084 -1.3754  1.1187  0.1631
 6733SOL     OW31834   0.199   3.712   2.056 -0.3100  0.1913  0.5117
 6733SOL    HW131835   0.137   3.699   2.127 -3.2538  0.1324 -2.0622
 6733SOL    HW231836   0.239   3.784   2.105  0.7242 -0.2201  0.2779
 6734SOL     OW31837   0.821   3.654   9.502 -0.1415  0.6967 -0.0556
 6734SOL    HW131838   0.864   3.677   9.420  2.4127 -1.6296  0.6290
 6734SOL    HW231839   0.744   3.615   9.462 -0.6502  1.5976  0.0411
 6735SOL     OW31840   1.272   0.708   4.523  0.2513  0.0477 -0.1633
 6735SOL    HW131841   1.182   0.688   4.550  0.1097  2.1216  0.8742
 6735SOL    HW231842   1.301   0.620   4.498 -0.3180 -0.1877 -0.0018
 6736SOL     OW31843   3.813   3.285   8.559  0.3063 -0.5197 -0.1559
 6736SOL    HW131844   3.728   3.314   8.526 -0.3221 -1.0061  1.0552
 6736SOL    HW231845   3.849   3.229   8.489 -1.8973 -2.3112  0.1644
 6737SOL     OW31846   4.458   3.376   7.709 -0.5115  0.6050 -0.1577
 6737SOL    HW131847   4.420   3.350   7.625  1.5808  2.4374 -1.7025
 6737SOL    HW231848   4.461   3.288   7.745 -0.1278  0.7908  0.2630
 6738SOL     OW31849   3.234   1.659  15.115 -0.1160 -0.2718 -0.3588
 6738SOL    HW131850   3.142   1.630  15.118 -0.5322  1.1578  1.1376
 6738SOL    HW231851   3.229   1.678  15.022 -0.8820 -0.2708 -0.3226
 6739SOL     OW31852   1.129   2.729   8.832  0.2522  0.2873  0.3731
 6739SOL    HW131853   1.220   2.731   8.801 -0.2657 -0.1284 -1.1678
 6739SOL    HW231854   1.142   2.729   8.927  1.0554 -1.0473  0.2580
 6740SOL     OW31855   2.617   4.046  13.326  0.1247 -0.2398  0.0044
 6740SOL    HW131856   2.548   4.084  13.271 -0.3665 -1.0372  0.0583
 6740SOL    HW231857   2.687   4.046  13.261 -0.6241 -2.4404 -0.8083
 6741SOL     OW31858   3.127   3.824   5.449  0.1319  0.2716  0.0983
 6741SOL    HW131859   3.183   3.885   5.401  0.5850 -0.3005 -0.0995
 6741SOL    HW231860   3.102   3.771   5.374  1.2238 -1.6426  1.0802
 6742SOL     OW31861   2.682   1.610  16.207 -0.2936 -0.4478 -0.2140
 6742SOL    HW131862   2.695   1.693  16.160  0.3172 -0.0139  0.7044
 6742SOL    HW231863   2.629   1.562  16.144 -1.3240  5.4528 -3.8652
 6743SOL     OW31864   3.897   0.665   7.127 -0.0101 -0.6043 -0.5781
 6743SOL    HW131865   3.964   0.734   7.130 -2.4981  1.6797  3.4815
 6743SOL    HW231866   3.815   0.704   7.096  1.3532  3.7002  1.2481
 6744SOL     OW31867   1.637   3.348   8.576  0.0820 -0.2107 -0.0097
 6744SOL    HW131868   1.700   3.419   8.587 -1.0329  0.4768  1.9081
 6744SOL    HW231869   1.574   3.393   8.520 -0.1382  0.4533  0.7768
 6745SOL     OW31870   1.305   2.260   3.783 -0.2568  0.0582  0.1439
 6745SOL    HW131871   1.226   2.209   3.800  0.2906 -1.4178 -1.8630
 6745SOL    HW231872   1.273   2.301   3.703  1.3088 -0.3518 -0.6720
 6746SOL     OW31873   0.890   3.671   8.203  0.1904 -0.1104  0.1289
 6746SOL    HW131874   0.941   3.723   8.266  0.3390 -0.2481  0.1230
 6746SOL    HW231875   0.962   3.626   8.158 -0.0825  0.2113 -0.6237
 6747SOL     OW31876   3.461   0.294  16.359 -0.1040  0.5610 -0.3235
 6747SOL    HW131877   3.514   0.369  16.331 -1.4880  1.0710 -1.5726
 6747SOL    HW231878   3.406   0.271  16.284 -0.6992 -0.7034  0.5047
 6748SOL     OW31879   1.243   1.848   8.149  0.1243  0.5998 -0.1948
 6748SOL    HW131880   1.227   1.930   8.103 -0.8056 -0.5579 -1.9535
 6748SOL    HW231881   1.189   1.784   8.102  1.4452 -0.3894 -0.3561
 6749SOL     OW31882   2.877   0.554  17.504  0.4019 -0.6164 -0.0569
 6749SOL    HW131883   2.879   0.469  17.462  0.1568 -0.5386 -0.2190
 6749SOL    HW231884   2.944   0.605  17.458 -1.0977  1.1686 -0.2655
 6750SOL     OW31885   0.780   4.678   3.805 -0.3054  0.1185  0.3547
 6750SOL    HW131886   0.715   4.703   3.739  0.3712  0.4497 -0.1832
 6750SOL    HW231887   0.716   4.634   3.862 -0.4711 -0.7503 -0.4922
 6751SOL     OW31888   4.048   4.017   3.184  0.0263  0.4185 -0.1279
 6751SOL    HW131889   3.962   4.056   3.201  1.3466  2.4483  1.7556
 6751SOL    HW231890   4.106   4.070   3.238  0.0989  0.5871 -0.3688
 6752SOL     OW31891   4.383   0.583   3.144 -0.3923 -0.1392  0.2627
 6752SOL    HW131892   4.397   0.492   3.118 -1.9835 -0.6138  1.0769
 6752SOL    HW231893   4.468   0.618   3.117 -0.3839 -0.6440 -0.3795
 6753SOL     OW31894   4.618   0.700   9.470  0.2471 -0.3483 -0.0447
 6753SOL    HW131895   4.544   0.749   9.435 -0.3796 -1.8872 -0.8801
 6753SOL    HW231896   4.687   0.760   9.497 -1.5214  0.5988  2.3626
 6754SOL     OW31897   1.321   3.669  10.194 -0.1114  1.0136  0.0466
 6754SOL    HW131898   1.333   3.595  10.253 -1.1234 -0.7505 -1.9772
 6754SOL    HW231899   1.402   3.665  10.144 -0.9479 -0.2619 -1.2044
 6755SOL     OW31900   4.310   4.045   4.106  0.1153 -0.2301 -0.0130
 6755SOL    HW131901   4.279   4.047   4.015  0.1612 -0.5485 -0.0337
 6755SOL    HW231902   4.349   4.132   4.111 -0.8095  0.2845 -1.5671
 6756SOL     OW31903   4.101   1.723  11.589 -0.0270  0.5167  0.1831
 6756SOL    HW131904   4.113   1.629  11.574 -2.1037  0.2134  0.4642
 6756SOL    HW231905   4.125   1.757  11.503  2.7016 -0.5617  0.5211
 6757SOL     OW31906   1.617   1.197   7.406 -0.3504  0.3117 -0.4619
 6757SOL    HW131907   1.655   1.221   7.490 -0.3049  1.0596 -0.6971
 6757SOL    HW231908   1.596   1.282   7.367 -0.6056  1.0918  1.4038
 6758SOL     OW31909   0.767   1.518   7.942 -0.8325  0.1069  0.0088
 6758SOL    HW131910   0.739   1.442   7.992  1.8064  1.0859  2.9984
 6758SOL    HW231911   0.848   1.540   7.989 -1.6544 -0.4583  1.6877
 6759SOL     OW31912   1.831   1.305  12.803  0.0038 -0.5423  0.1466
 6759SOL    HW131913   1.868   1.391  12.781  1.6383 -1.2688  0.1101
 6759SOL    HW231914   1.748   1.318  12.756 -0.8422 -3.6004  0.8414
 6760SOL     OW31915   1.668   4.404   8.707  0.1133 -0.4717  0.3744
 6760SOL    HW131916   1.727   4.382   8.636  1.3942  0.7489  1.0719
 6760SOL    HW231917   1.706   4.342   8.770  0.6556 -0.6436 -0.1262
 6761SOL     OW31918   4.609   2.731  16.734 -0.4396  0.1860 -0.8569
 6761SOL    HW131919   4.532   2.697  16.688 -2.2767  1.3877  1.2989
 6761SOL    HW231920   4.607   2.663  16.801 -0.4583  0.3000 -0.7428
 6762SOL     OW31921   4.432   2.941   1.324 -0.1212  0.2887  0.4094
 6762SOL    HW131922   4.524   2.928   1.304 -0.3688 -1.6671  0.4731
 6762SOL    HW231923   4.443   2.998   1.400  0.6300  1.3903 -0.5391
 6763SOL     OW31924   0.359   0.372  10.935 -0.3554 -0.1397  0.2587
 6763SOL    HW131925   0.450   0.366  10.907 -0.2155  0.9705  0.4409
 6763SOL    HW231926   0.322   0.437  10.875  2.2220 -0.3287 -1.5381
 6764SOL     OW31927   4.313   4.277   5.642  1.1894 -0.0982  0.2282
 6764SOL    HW131928   4.238   4.217   5.633  1.7071 -0.7467  0.2643
 6764SOL    HW231929   4.306   4.304   5.734 -0.3593  0.4350 -0.0418
 6765SOL     OW31930   2.617   2.459   2.981 -0.4033  0.1191  0.1077
 6765SOL    HW131931   2.532   2.475   2.939  0.0545 -1.0527 -1.2752
 6765SOL    HW231932   2.599   2.498   3.067  2.1457  1.1922  0.1546
 6766SOL     OW31933   0.425   2.114  17.028  0.3499  0.3276  0.0492
 6766SOL    HW131934   0.500   2.173  17.034  0.7281  0.0571 -1.9308
 6766SOL    HW231935   0.439   2.060  17.105  1.8001  1.1965  0.3853
 6767SOL     OW31936   0.262   3.635  17.412 -0.2148  0.1071  0.0602
 6767SOL    HW131937   0.277   3.712  17.358 -2.4916  0.5293  0.0462
 6767SOL    HW231938   0.281   3.568  17.345 -1.4729  0.6757 -0.8613
 6768SOL     OW31939   4.534   0.228  12.572 -0.2971  0.0399  0.0312
 6768SOL    HW131940   4.484   0.158  12.613  0.4862 -1.5246 -1.7297
 6768SOL    HW231941   4.515   0.212  12.480  1.4813  0.2723 -0.3738
 6769SOL     OW31942   4.257   0.234   6.438  0.5982 -0.0180  0.7218
 6769SOL    HW131943   4.168   0.267   6.429  0.1315 -1.7072 -0.9273
 6769SOL    HW231944   4.296   0.280   6.513 -1.0818 -1.0641  2.2250
 6770SOL     OW31945   0.712   0.985   6.590  0.1109  0.3156 -0.4582
 6770SOL    HW131946   0.768   1.008   6.664 -1.4846  1.2855  0.4756
 6770SOL    HW231947   0.729   1.045   6.518  0.5904 -0.4792 -0.9906
 6771SOL     OW31948   3.221   4.340   6.569  0.1768  0.0195  0.1803
 6771SOL    HW131949   3.313   4.320   6.552 -0.0267  2.2609 -3.5563
 6771SOL    HW231950   3.177   4.366   6.488  0.1953 -2.0660 -0.5035
 6772SOL     OW31951   4.231   2.467   3.256  0.7477 -0.6507 -0.2970
 6772SOL    HW131952   4.236   2.407   3.331  1.4824  1.0090  0.9852
 6772SOL    HW231953   4.324   2.481   3.238  1.0493  0.2377  1.9809
 6773SOL     OW31954   4.103   3.315  13.330 -0.3875  0.0434  0.3900
 6773SOL    HW131955   4.048   3.339  13.404 -1.0193  0.9892 -0.3981
 6773SOL    HW231956   4.089   3.392  13.275  0.7323  1.3186  1.9004
 6774SOL     OW31957   3.812   3.305   3.220 -0.2166 -0.3292 -0.4871
 6774SOL    HW131958   3.802   3.222   3.268  2.5576 -1.5150 -1.9576
 6774SOL    HW231959   3.822   3.365   3.294 -4.3084 -0.9824  0.6004
 6775SOL     OW31960   0.232   3.966   6.923 -0.2286 -0.3473 -0.3112
 6775SOL    HW131961   0.280   3.883   6.925  1.3804  0.5248 -2.3218
 6775SOL    HW231962   0.302   4.030   6.933  0.1936 -0.9446  0.5033
 6776SOL     OW31963   4.709   1.842   1.197  0.0450  0.3894 -0.4940
 6776SOL    HW131964   0.021   1.817   1.275 -3.3453  0.8278  1.8551
 6776SOL    HW231965   4.699   1.937   1.199 -1.4489  0.2672 -2.9340
 6777SOL     OW31966   2.904   4.318  12.864  0.1839  0.5953 -0.0295
 6777SOL    HW131967   2.847   4.372  12.919 -0.0485 -0.6306  0.9326
 6777SOL    HW231968   2.969   4.299  12.931  0.2779 -0.0621 -0.3147
 6778SOL     OW31969   0.165   0.506   5.619 -0.0587  0.1676 -0.5604
 6778SOL    HW131970   0.143   0.500   5.712  0.1343 -0.7577 -0.5709
 6778SOL    HW231971   0.160   0.411   5.610 -0.2076  0.3823 -2.7725
 6779SOL     OW31972   0.095   4.613  10.128  0.4399  0.5660  0.0363
 6779SOL    HW131973   0.096   4.636  10.035 -2.6506  1.7595  0.3037
 6779SOL    HW231974   0.073   4.521  10.117  0.2220  0.4643  1.3269
 6780SOL     OW31975   3.013   0.989   3.885 -0.0268 -0.3068  0.0907
 6780SOL    HW131976   2.947   0.970   3.951  2.5540  0.3272  2.8472
 6780SOL    HW231977   3.057   0.905   3.891  0.1589 -0.2762 -0.7645
 6781SOL     OW31978   2.639   2.967  13.115  0.7439  0.0222  0.3490
 6781SOL    HW131979   2.645   3.056  13.080  2.6156  0.4782  1.7904
 6781SOL    HW231980   2.647   2.978  13.210 -1.1781  0.7339  0.4385
 6782SOL     OW31981   3.141   0.835   2.218  0.5857  0.4000  0.2621
 6782SOL    HW131982   3.103   0.754   2.183  3.3547 -1.6901  2.1091
 6782SOL    HW231983   3.162   0.813   2.309  1.1300  0.8589  0.2527
 6783SOL     OW31984   3.040   1.208   2.642  0.3593 -0.1146 -0.3030
 6783SOL    HW131985   2.977   1.147   2.604  0.6482  0.0761 -1.1086
 6783SOL    HW231986   2.979   1.275   2.671 -0.5509 -2.1158  2.3833
 6784SOL     OW31987   3.992   2.189   5.457  0.0433 -0.2906  0.8883
 6784SOL    HW131988   3.949   2.211   5.375 -0.8263 -0.2327  1.3571
 6784SOL    HW231989   4.084   2.194   5.430 -1.3758  1.0700 -3.6088
 6785SOL     OW31990   4.018   4.227   2.587  0.2371 -0.3927  0.2227
 6785SOL    HW131991   4.060   4.228   2.500  0.2686  0.1357  0.2434
 6785SOL    HW231992   3.962   4.304   2.582  0.5134 -0.0983  1.6130
 6786SOL     OW31993   4.172   2.990   2.901 -0.2370  1.0239  0.8837
 6786SOL    HW131994   4.163   2.898   2.928 -1.6020  0.6027 -1.0044
 6786SOL    HW231995   4.086   2.991   2.860  0.9034  0.8882 -1.4815
 6787SOL     OW31996   2.024   4.549   1.073 -0.1140 -0.4538  0.2873
 6787SOL    HW131997   2.114   4.555   1.041  0.2619  0.3457  1.4997
 6787SOL    HW231998   2.036   4.462   1.113 -2.9558 -0.6704  0.6362
 6788SOL     OW31999   2.271   3.372  13.800  0.3476 -0.4654  0.3465
 6788SOL    HW132000   2.194   3.387  13.854  0.7382 -0.7202  0.9844
 6788SOL    HW232001   2.253   3.417  13.718 -0.5221 -1.5788 -0.0686
 6789SOL     OW32002   3.627   2.377   1.437 -0.0154  0.4218 -0.0513
 6789SOL    HW132003   3.595   2.357   1.525 -1.5608  2.0916 -0.2191
 6789SOL    HW232004   3.653   2.468   1.455 -0.3158  0.4538  0.2195
 6790SOL     OW32005   0.154   4.524  12.933  0.7346  0.4529 -0.3212
 6790SOL    HW132006   0.230   4.527  12.991  1.4935 -0.3115 -1.2719
 6790SOL    HW232007   0.086   4.541  12.999  0.6947  0.7652 -0.4398
 6791SOL     OW32008   0.387   3.939   9.523 -0.2091 -0.4678 -0.0557
 6791SOL    HW132009   0.325   4.001   9.561 -2.7949 -2.3753 -1.1895
 6791SOL    HW232010   0.422   3.995   9.453 -1.4471 -1.5239 -1.5111
 6792SOL     OW32011   3.064   1.404   7.516 -0.0273  0.4649  0.0331
 6792SOL    HW132012   3.000   1.367   7.456 -1.4845 -2.5294  3.4150
 6792SOL    HW232013   3.071   1.492   7.480  0.3993  1.2538  2.0351
 6793SOL     OW32014   1.501   0.277   4.142  0.4133 -0.0884 -0.1911
 6793SOL    HW132015   1.432   0.340   4.159  0.8285 -0.2545  2.0546
 6793SOL    HW232016   1.586   0.318   4.157 -0.0062 -0.3899  2.9078
 6794SOL     OW32017   4.212   1.174   1.975 -0.0425 -0.4667  0.5359
 6794SOL    HW132018   4.211   1.153   2.068 -2.0639  0.0216  0.6284
 6794SOL    HW232019   4.125   1.214   1.971 -0.0373 -0.5311 -0.3793
 6795SOL     OW32020   4.666   2.937   6.114  0.1464 -0.4291 -0.1301
 6795SOL    HW132021   4.732   2.932   6.045 -0.0889  0.1589 -0.4028
 6795SOL    HW232022   4.614   3.008   6.074  3.9242  2.6596  0.4738
 6796SOL     OW32023   4.251   1.221   6.230 -0.0804  0.3497  0.5020
 6796SOL    HW132024   4.341   1.187   6.226 -1.4180 -2.9054 -2.6896
 6796SOL    HW232025   4.212   1.137   6.255  1.4410 -0.7862 -0.8690
 6797SOL     OW32026   1.629   2.619   3.324  0.4472 -0.1044  0.2984
 6797SOL    HW132027   1.564   2.554   3.350 -1.5078  1.5785 -0.4346
 6797SOL    HW232028   1.698   2.562   3.360 -0.7480 -2.6961 -1.5808
 6798SOL     OW32029   0.394   3.945  10.454 -0.6182 -0.1972  0.1043
 6798SOL    HW132030   0.459   3.933  10.384 -1.6617 -0.4527 -0.8183
 6798SOL    HW232031   0.438   4.005  10.514  2.3366 -1.4754 -0.7787
 6799SOL     OW32032   2.502   4.440  12.304  0.5366 -0.0722 -0.3980
 6799SOL    HW132033   2.432   4.504  12.289  0.2490 -0.5893 -1.2794
 6799SOL    HW232034   2.571   4.458  12.241  1.8626  0.8991  1.3131
 6800SOL     OW32035   0.162   1.497   2.948 -0.1603 -0.3536 -0.3754
 6800SOL    HW132036   0.186   1.408   2.923  2.9291  0.2725  0.4050
 6800SOL    HW232037   0.091   1.505   2.884 -1.3135  1.1642  1.0759
 6801SOL     OW32038   3.092   1.488   6.777 -0.6857  0.8731  0.3764
 6801SOL    HW132039   3.146   1.492   6.698  1.5885 -2.1931  1.7419
 6801SOL    HW232040   3.106   1.575   6.813 -0.2877  0.8506  0.2785
 6802SOL     OW32041   4.332   3.768  16.518 -0.7711 -0.2110  0.2088
 6802SOL    HW132042   4.268   3.824  16.474  0.7086  0.8280 -0.6115
 6802SOL    HW232043   4.394   3.745  16.449 -0.4489  1.6219 -0.1183
 6803SOL     OW32044   2.686   1.707   6.353 -0.3319 -0.0832  0.2922
 6803SOL    HW132045   2.600   1.726   6.315  0.2007  1.6763 -0.0130
 6803SOL    HW232046   2.728   1.670   6.276  0.5295  0.8491  0.3170
 6804SOL     OW32047   0.495   1.523   4.284 -0.2040  0.4249 -0.0228
 6804SOL    HW132048   0.437   1.591   4.318 -0.1453  0.3674  0.1904
 6804SOL    HW232049   0.545   1.502   4.363 -1.4691 -0.2470  0.6021
 6805SOL     OW32050   4.513   4.220  10.801 -0.6241 -0.6109 -0.4975
 6805SOL    HW132051   4.572   4.183  10.736 -0.0634  0.8980 -0.8616
 6805SOL    HW232052   4.500   4.154  10.868 -1.0151 -1.0111 -0.9664
 6806SOL     OW32053   1.380   3.573   7.993  0.5539  0.2820  0.2711
 6806SOL    HW132054   1.427   3.578   8.076 -0.3184  0.5857  0.7519
 6806SOL    HW232055   1.391   3.664   7.968  3.1439 -0.0206  0.3408
 6807SOL     OW32056   0.609   0.009   5.644 -0.2256 -0.0853 -0.1666
 6807SOL    HW132057   0.656   4.699   5.711  0.6683 -0.1931 -0.8739
 6807SOL    HW232058   0.644   0.096   5.663 -0.0843 -0.2332  0.2475
 6808SOL     OW32059   4.174   1.260  15.992  0.9822 -0.1020 -0.1083
 6808SOL    HW132060   4.163   1.276  16.086 -0.3192  3.6854 -0.9114
 6808SOL    HW232061   4.101   1.315  15.965 -0.7650 -2.1303  0.4402
 6809SOL     OW32062   3.644   0.618  13.642  0.1159  0.2030  0.1347
 6809SOL    HW132063   3.732   0.594  13.614 -1.1588 -2.2386 -1.8229
 6809SOL    HW232064   3.620   0.697  13.594  2.2147  0.1190 -1.0118
 6810SOL     OW32065   1.720   0.251   4.712 -0.0666  0.2271 -0.4007
 6810SOL    HW132066   1.707   0.303   4.632  1.0853 -0.7888 -1.2592
 6810SOL    HW232067   1.625   0.254   4.726 -0.1359 -1.0144 -0.5970
 6811SOL     OW32068   3.060   4.031  14.838  0.4332  0.3683  0.1009
 6811SOL    HW132069   3.073   3.938  14.859  1.4812  1.1345  2.7418
 6811SOL    HW232070   3.099   4.042  14.751 -0.5191 -0.2681 -0.4185
 6812SOL     OW32071   0.668   1.517   8.786 -0.4020 -0.1174  0.3114
 6812SOL    HW132072   0.592   1.459   8.786  0.8764 -1.7803 -0.6930
 6812SOL    HW232073   0.638   1.607   8.770  0.2199 -0.1637 -1.1404
 6813SOL     OW32074   0.391   4.407  16.315  0.1625 -0.1624  0.3305
 6813SOL    HW132075   0.426   4.487  16.277  0.0652 -0.4717 -0.4248
 6813SOL    HW232076   0.452   4.383  16.385  0.8554 -0.4644 -0.3720
 6814SOL     OW32077   1.020   1.171  16.100 -0.3063  0.3955 -0.1447
 6814SOL    HW132078   0.927   1.171  16.080 -0.3751  1.4980  0.1903
 6814SOL    HW232079   1.042   1.080  16.123  0.1879  0.3730 -0.6962
 6815SOL     OW32080   4.097   0.878   1.294  0.3869 -0.2274  0.2233
 6815SOL    HW132081   4.189   0.905   1.301  0.9969 -1.8584 -1.4013
 6815SOL    HW232082   4.061   0.962   1.265 -1.8552 -0.2195  3.1025
 6816SOL     OW32083   3.926   0.627   3.904  0.3253 -0.1948  0.3733
 6816SOL    HW132084   3.913   0.625   3.809  0.2960  0.4897  0.3615
 6816SOL    HW232085   3.931   0.533   3.921  0.1128  0.0669  1.8317
 6817SOL     OW32086   3.047   2.749  14.602 -1.0618  0.9110  0.1983
 6817SOL    HW132087   3.073   2.767  14.692  2.5541 -1.7683 -0.3116
 6817SOL    HW232088   3.036   2.653  14.601 -1.1159  0.9031  1.6513
 6818SOL     OW32089   2.814   2.668   2.048  0.4417  0.2228 -0.2275
 6818SOL    HW132090   2.808   2.611   1.972  2.7175  0.6991 -0.7727
 6818SOL    HW232091   2.907   2.686   2.060  0.2581  0.7902  0.3866
 6819SOL     OW32092   3.139   0.173   5.372  0.9950  0.0367  0.0345
 6819SOL    HW132093   3.077   0.101   5.384  2.4424 -1.6019 -2.2683
 6819SOL    HW232094   3.192   0.139   5.300  1.6473 -1.1144  1.0648
 6820SOL     OW32095   2.967   3.677  10.390  0.0983 -0.0004 -0.3726
 6820SOL    HW132096   2.878   3.641  10.384 -0.2285  0.5153  1.5376
 6820SOL    HW232097   2.992   3.636  10.472  0.7380 -0.4421 -0.7950
 6821SOL     OW32098   1.195   1.639   8.711 -0.0073 -0.5309 -0.5020
 6821SOL    HW132099   1.111   1.599   8.690  0.4592 -0.5030 -2.4536
 6821SOL    HW232100   1.253   1.563   8.700 -3.8254 -3.6112  0.7580
 6822SOL     OW32101   2.341   1.345   0.716 -0.5910  0.1748  0.4430
 6822SOL    HW132102   2.331   1.382   0.628 -2.2436 -1.1912  0.0508
 6822SOL    HW232103   2.253   1.358   0.753 -0.1634  0.0286  1.5261
 6823SOL     OW32104   3.815   4.663   9.151  0.1065 -0.0127  0.2604
 6823SOL    HW132105   3.817   4.738   9.091 -0.6585  0.8941  1.3825
 6823SOL    HW232106   3.746   4.606   9.117 -0.3582  0.7640 -0.0781
 6824SOL     OW32107   0.464   1.822  14.265 -0.0911 -0.1875  0.5680
 6824SOL    HW132108   0.377   1.859  14.277  0.2675  1.9452 -3.2216
 6824SOL    HW232109   0.459   1.735  14.305 -1.4957 -0.2884  0.1669
 6825SOL     OW32110   1.323   0.189   1.345 -0.3117 -0.0992  0.8356
 6825SOL    HW132111   1.378   0.204   1.423  0.5788 -0.4841  0.2836
 6825SOL    HW232112   1.377   0.139   1.284 -1.3036 -0.3268  0.1442
 6826SOL     OW32113   0.737   4.248   7.576 -0.2048  0.1674 -0.3235
 6826SOL    HW132114   0.772   4.196   7.648 -1.3846  0.2744  0.3329
 6826SOL    HW232115   0.812   4.306   7.558  0.9661 -1.1087  0.4810
 6827SOL     OW32116   3.073   2.728   1.980  0.3018 -0.2150  0.6184
 6827SOL    HW132117   3.163   2.724   2.013  1.1402  3.2550 -1.1786
 6827SOL    HW232118   3.089   2.675   1.902  2.6732  0.2861  0.7555
 6828SOL     OW32119   0.164   1.585   2.314  0.0868 -0.2893 -0.0242
 6828SOL    HW132120   0.088   1.538   2.280 -0.4147  0.8937 -0.5486
 6828SOL    HW232121   0.166   1.548   2.403  1.8478  1.3098  0.6008
 6829SOL     OW32122   2.365   4.262   4.349  0.5682  0.1789  1.0757
 6829SOL    HW132123   2.356   4.312   4.430 -0.1808 -0.9541  1.6970
 6829SOL    HW232124   2.316   4.315   4.285  1.1196 -0.3494  0.2214
 6830SOL     OW32125   0.926   1.410   9.216  0.3723  0.3068 -0.0721
 6830SOL    HW132126   0.919   1.502   9.190  1.4138  0.3308 -0.2846
 6830SOL    HW232127   0.992   1.428   9.282  0.2536  1.3382 -0.2328
 6831SOL     OW32128   4.699   0.924   3.261  0.3571 -0.0791  0.3159
 6831SOL    HW132129   0.049   0.958   3.247  0.4774 -0.3568  0.4175
 6831SOL    HW232130   4.676   0.891   3.174 -1.4964  1.4430  0.2144
 6832SOL     OW32131   0.085   2.765   3.657  0.0694 -0.1270 -0.1110
 6832SOL    HW132132   0.019   2.782   3.590 -0.2095  0.8471  0.3972
 6832SOL    HW232133   0.157   2.739   3.600 -1.0389  2.0223 -2.4840
 6833SOL     OW32134   4.350   1.854  13.691 -0.2320  0.4696  0.6253
 6833SOL    HW132135   4.306   1.825  13.771  2.0305 -2.2586  0.8996
 6833SOL    HW232136   4.279   1.869  13.630  0.1107  0.8068  0.3093
 6834SOL     OW32137   1.690   2.094  15.608  0.2334  0.9451 -0.4088
 6834SOL    HW132138   1.644   2.166  15.652  2.8780  0.1426  3.6727
 6834SOL    HW232139   1.768   2.136  15.572  1.3236 -0.1572  0.6974
 6835SOL     OW32140   3.549   0.188  11.513  0.3881  0.7130  0.1728
 6835SOL    HW132141   3.494   0.110  11.522  1.8028 -0.0398  2.3080
 6835SOL    HW232142   3.631   0.148  11.543  0.1331  0.9716  1.1833
 6836SOL     OW32143   4.029   2.882   6.774  0.4527 -0.0456  0.0799
 6836SOL    HW132144   4.069   2.871   6.860  0.0050 -0.9883  0.1694
 6836SOL    HW232145   4.062   2.801   6.735  0.0507  0.6560 -1.7353
 6837SOL     OW32146   2.426   3.985   5.974 -0.7339 -0.3943 -0.0436
 6837SOL    HW132147   2.474   3.903   5.962  1.3665  0.5512  1.9384
 6837SOL    HW232148   2.500   4.043   5.958 -0.9499 -0.2375 -0.4581
 6838SOL     OW32149   3.643   1.099   8.953  0.0390 -0.1809 -0.0847
 6838SOL    HW132150   3.672   1.014   8.919  0.5282 -0.0240 -0.0636
 6838SOL    HW232151   3.561   1.077   8.996  0.2865 -1.8196 -0.4773
 6839SOL     OW32152   4.351   3.421   2.119  0.5245 -0.0046 -0.8063
 6839SOL    HW132153   4.282   3.379   2.068  0.1690  0.1513 -0.4563
 6839SOL    HW232154   4.337   3.389   2.208  5.0379  1.0808  0.2659
 6840SOL     OW32155   0.235   3.903   3.206  0.5928 -0.6022  0.4554
 6840SOL    HW132156   0.207   3.927   3.295  0.9308 -0.0198  0.4034
 6840SOL    HW232157   0.297   3.975   3.194 -1.4499  0.4708 -3.6352
 6841SOL     OW32158   0.967   2.259   8.064  0.0890 -0.3441 -0.3752
 6841SOL    HW132159   0.894   2.218   8.110 -0.5592  0.7992 -0.3822
 6841SOL    HW232160   0.979   2.341   8.113  1.8921  0.8114 -2.7478
 6842SOL     OW32161   3.779   1.227   4.068  0.0364 -0.3295  0.4447
 6842SOL    HW132162   3.785   1.306   4.014  0.6619  0.2258  1.3349
 6842SOL    HW232163   3.833   1.244   4.145  1.5344  1.4924 -1.0282
 6843SOL     OW32164   3.677   3.095   0.370  0.9908 -0.1592 -0.1470
 6843SOL    HW132165   3.712   3.049   0.446  2.1938  0.2171 -0.4596
 6843SOL    HW232166   3.728   3.050   0.302  2.0970 -0.6006  0.9879
 6844SOL     OW32167   0.304   0.947  12.161 -0.7420 -0.1186 -0.8052
 6844SOL    HW132168   0.290   1.021  12.102  0.4296 -0.8251 -1.9933
 6844SOL    HW232169   0.359   0.889  12.108  1.0837  0.5300  0.3852
 6845SOL     OW32170   1.315   3.256   2.207 -0.3760 -0.5319  0.4653
 6845SOL    HW132171   1.278   3.223   2.289 -1.1856 -1.8179 -0.4319
 6845SOL    HW232172   1.240   3.302   2.170 -1.1299 -2.5056 -0.4554
 6846SOL     OW32173   2.047   0.156   3.561 -0.8594 -0.0457  0.1332
 6846SOL    HW132174   1.967   0.164   3.613 -1.5953 -0.9487 -0.8569
 6846SOL    HW232175   2.099   0.220   3.608 -1.5446  1.6280 -1.3918
 6847SOL     OW32176   2.479   0.663   8.624 -0.0769  0.5373  0.0831
 6847SOL    HW132177   2.397   0.632   8.661 -0.3479 -0.2180 -1.1500
 6847SOL    HW232178   2.465   0.754   8.651  0.3487  1.1106 -1.5702
 6848SOL     OW32179   3.809   1.379   0.725 -0.4411 -0.0586  0.2865
 6848SOL    HW132180   3.738   1.329   0.764 -1.2859  0.1964 -0.9088
 6848SOL    HW232181   3.752   1.429   0.666 -1.4411  0.1592  1.4374
 6849SOL     OW32182   2.036   3.071   7.422 -0.0879  0.4988 -0.1907
 6849SOL    HW132183   2.071   2.982   7.411  0.4881  0.6646  0.3657
 6849SOL    HW232184   1.972   3.051   7.490 -0.6833 -0.5267 -1.0450
 6850SOL     OW32185   1.601   0.240   8.088  0.4957 -0.2978  0.5558
 6850SOL    HW132186   1.663   0.230   8.017 -0.3632  0.2196 -0.2656
 6850SOL    HW232187   1.636   0.309   8.144  0.0935 -1.2358  1.9775
 6851SOL     OW32188   1.176   3.944   1.632 -0.7243  0.4475  0.0318
 6851SOL    HW132189   1.120   3.892   1.690  0.5776 -0.3127  0.6197
 6851SOL    HW232190   1.117   3.999   1.580  0.2907  1.6907  0.1820
 6852SOL     OW32191   4.544   4.441   6.593 -0.4220  0.2193  0.4395
 6852SOL    HW132192   4.626   4.437   6.544 -0.1337  0.3293  0.9133
 6852SOL    HW232193   4.570   4.495   6.667  0.6841  0.2980  0.0025
 6853SOL     OW32194   1.613   0.313   6.380  0.6986 -0.6119 -0.1599
 6853SOL    HW132195   1.570   0.258   6.315 -0.6597  0.1045  0.1215
 6853SOL    HW232196   1.536   0.334   6.433  0.3659 -0.8308 -0.5629
 6854SOL     OW32197   2.342   4.393   0.382 -0.0713 -0.2787  0.4324
 6854SOL    HW132198   2.293   4.472   0.405 -1.4446 -0.6637 -1.2219
 6854SOL    HW232199   2.272   4.341   0.422  1.0888 -2.0568  0.1544
 6855SOL     OW32200   0.467   3.546  13.524  0.4999  0.9366  0.3409
 6855SOL    HW132201   0.529   3.503  13.583 -0.6970  0.8648  1.5729
 6855SOL    HW232202   0.525   3.608  13.481  0.7684  0.0845 -0.5276
 6856SOL     OW32203   3.816   2.987   4.743  0.2109  0.9225 -0.2967
 6856SOL    HW132204   3.815   3.048   4.669  3.4462  2.0886  0.6021
 6856SOL    HW232205   3.908   2.961   4.740  0.5506  2.0513  0.1833
 6857SOL     OW32206   0.192   2.389   3.683 -0.0947 -0.5337  0.1496
 6857SOL    HW132207   0.204   2.311   3.736  0.0316 -0.7969 -0.2628
 6857SOL    HW232208   0.232   2.364   3.599 -2.1470  0.1946 -1.0440
 6858SOL     OW32209   0.222   1.725  10.373  0.1352 -0.0816 -0.6756
 6858SOL    HW132210   0.149   1.706  10.313  0.5943 -1.9437 -0.6345
 6858SOL    HW232211   0.218   1.654  10.436  1.3968 -0.7565 -1.3739
 6859SOL     OW32212   3.093   1.920   5.943 -0.0837 -0.5960  0.5761
 6859SOL    HW132213   3.067   1.905   6.034  0.2225  2.2710  1.1240
 6859SOL    HW232214   3.023   1.865   5.909 -0.9636  0.8643  0.0465
 6860SOL     OW32215   1.847   3.675   3.205 -0.3372 -0.4984  0.6763
 6860SOL    HW132216   1.835   3.635   3.119 -1.6555 -0.7924  0.9901
 6860SOL    HW232217   1.825   3.768   3.196  3.6178  0.2659 -1.0793
 6861SOL     OW32218   1.492   3.014   7.824  0.3587 -0.6913 -0.0048
 6861SOL    HW132219   1.468   3.064   7.903 -0.0119 -0.7954 -0.0506
 6861SOL    HW232220   1.534   3.082   7.771 -1.3177 -0.3292 -0.8558
 6862SOL     OW32221   2.132   3.645   7.803  0.1169 -0.5209 -0.0247
 6862SOL    HW132222   2.087   3.726   7.781  1.2145  0.9704  3.2519
 6862SOL    HW232223   2.196   3.633   7.733 -1.4202  0.0749 -1.5297
 6863SOL     OW32224   0.301   4.231   9.163  0.9254 -0.3140 -0.7406
 6863SOL    HW132225   0.309   4.272   9.077 -0.4069  0.1930 -0.6295
 6863SOL    HW232226   0.241   4.159   9.143  1.3507 -1.5134  2.2165
 6864SOL     OW32227   2.458   1.811   7.733  0.1473  0.0442 -0.1082
 6864SOL    HW132228   2.411   1.856   7.663 -0.5111 -2.1866 -1.1354
 6864SOL    HW232229   2.468   1.881   7.796  1.0734  0.6444 -0.9257
 6865SOL     OW32230   3.857   1.025  14.434 -0.1023 -0.0319 -0.4455
 6865SOL    HW132231   3.856   1.090  14.504  0.4372  0.1981 -0.6518
 6865SOL    HW232232   3.907   0.954  14.475  0.7236  0.0371 -1.3380
 6866SOL     OW32233   3.114   4.054  14.514  0.1041  0.7063  0.0362
 6866SOL    HW132234   3.061   4.133  14.528 -0.4515  0.2796  0.3513
 6866SOL    HW232235   3.099   4.046  14.420  0.1177 -1.5703  0.2268
 6867SOL     OW32236   4.031   1.892  16.703 -0.4272 -1.0532  0.4002
 6867SOL    HW132237   4.088   1.903  16.779 -1.1636  2.6836  0.3765
 6867SOL    HW232238   4.096   1.912  16.636 -0.1792 -1.6213  0.4682
 6868SOL     OW32239   4.151   4.653   4.225 -0.6504  0.0902 -0.1969
 6868SOL    HW132240   4.204   4.636   4.303 -1.1231 -0.3207  0.0317
 6868SOL    HW232241   4.169   0.004   4.196  0.1632  0.0721  0.2589
 6869SOL     OW32242   3.806   1.521  12.397 -0.2832  0.1695 -0.0326
 6869SOL    HW132243   3.820   1.434  12.358  0.8844  0.2971  0.1153
 6869SOL    HW232244   3.840   1.499  12.484 -0.4368  2.3042  0.5540
 6870SOL     OW32245   3.702   3.095   0.784 -0.0149  0.7822  0.2587
 6870SOL    HW132246   3.747   3.167   0.828 -1.4112  1.1559  1.0627
 6870SOL    HW232247   3.632   3.133   0.731 -0.6668 -1.2951 -0.3623
 6871SOL     OW32248   2.149   3.616   2.469  0.9557  0.3378 -0.1076
 6871SOL    HW132249   2.056   3.634   2.479  1.4208  0.3796  3.8521
 6871SOL    HW232250   2.166   3.563   2.547  0.0935  0.7077  0.3327
 6872SOL     OW32251   1.647   1.149   3.165  0.3769 -0.4810 -0.3071
 6872SOL    HW132252   1.561   1.107   3.163 -0.4874  1.3434 -1.1514
 6872SOL    HW232253   1.655   1.191   3.250  1.4528 -0.2317 -0.5316
 6873SOL     OW32254   1.589   2.495  11.544  0.4846 -0.0904 -0.6648
 6873SOL    HW132255   1.632   2.548  11.477 -0.0428  0.7174 -0.3682
 6873SOL    HW232256   1.501   2.530  11.537  0.0901 -0.5052  1.9421
 6874SOL     OW32257   2.684   2.894   6.622  0.0771 -0.6349 -0.1885
 6874SOL    HW132258   2.780   2.895   6.616  0.1224 -1.7525  0.3427
 6874SOL    HW232259   2.660   2.915   6.532  1.7491  0.4760 -0.3784
 6875SOL     OW32260   3.125   0.140   7.661 -0.6713 -0.3345  0.1566
 6875SOL    HW132261   3.139   0.223   7.616 -0.9393  0.0882  0.8576
 6875SOL    HW232262   3.164   0.152   7.747 -1.0131  1.0906  0.1022
 6876SOL     OW32263   1.721   2.440   5.800 -0.0960  0.5741  0.0460
 6876SOL    HW132264   1.710   2.412   5.891  1.9797  3.9767  1.3544
 6876SOL    HW232265   1.631   2.468   5.784  0.2146  1.9071  0.5925
 6877SOL     OW32266   3.668   2.002  14.449  0.1275  0.0369  0.2941
 6877SOL    HW132267   3.572   2.001  14.441  0.1004  0.1863  0.6095
 6877SOL    HW232268   3.683   2.042  14.535 -2.0598 -0.3729  0.8823
 6878SOL     OW32269   1.354   1.096   5.994 -0.1739 -0.1078 -0.2467
 6878SOL    HW132270   1.404   1.131   6.068 -1.2236  1.5604 -0.3317
 6878SOL    HW232271   1.404   1.127   5.919 -1.5435 -0.1782 -1.1760
 6879SOL     OW32272   3.174   1.632   7.407  0.4281 -0.4555  0.3527
 6879SOL    HW132273   3.261   1.614   7.442  0.5489  2.2266  1.3909
 6879SOL    HW232274   3.201   1.656   7.319  0.4377  1.5592  0.9037
 6880SOL     OW32275   0.500   2.723   3.241 -0.0556  0.3154  0.1968
 6880SOL    HW132276   0.545   2.681   3.168  1.2899 -1.5231  2.1118
 6880SOL    HW232277   0.421   2.751   3.195  1.0581  1.8495 -0.7848
 6881SOL     OW32278   4.548   2.519  14.853 -0.6465 -0.4168 -0.7602
 6881SOL    HW132279   4.470   2.574  14.853  0.8719  1.7300 -1.3010
 6881SOL    HW232280   4.533   2.480  14.939  2.8622  1.6368  0.7764
 6882SOL     OW32281   3.681   3.393  11.485  0.2351 -0.0832  0.0888
 6882SOL    HW132282   3.697   3.451  11.559  0.4780  1.2163 -0.9815
 6882SOL    HW232283   3.646   3.315  11.529 -1.6858  1.1496  0.7479
 6883SOL     OW32284   1.414   3.536   9.291  0.1449 -0.2854 -0.3543
 6883SOL    HW132285   1.433   3.628   9.272  0.4203  0.2365  2.4740
 6883SOL    HW232286   1.500   3.495   9.282 -0.7742 -2.0271 -1.0615
 6884SOL     OW32287   1.259   2.345   2.979 -0.5628 -0.2528 -0.0528
 6884SOL    HW132288   1.236   2.338   2.886  1.6520  2.1420 -0.7928
 6884SOL    HW232289   1.236   2.260   3.017  1.1544 -1.8902 -2.6548
 6885SOL     OW32290   0.380   3.568  16.892 -0.1108  0.3352 -0.0776
 6885SOL    HW132291   0.310   3.573  16.826  1.3078  1.1024 -1.5291
 6885SOL    HW232292   0.337   3.494  16.935 -0.7013  1.9114  2.0510
 6886SOL     OW32293   4.121   3.687   4.122 -0.2227 -0.2148  0.1097
 6886SOL    HW132294   4.111   3.634   4.201 -0.2519  0.7537  0.7556
 6886SOL    HW232295   4.113   3.772   4.167  1.2508 -1.2072  2.2696
 6887SOL     OW32296   2.242   2.841   8.411  0.3718 -0.0315 -0.6668
 6887SOL    HW132297   2.167   2.804   8.365  0.8108 -0.0460 -1.3730
 6887SOL    HW232298   2.273   2.770   8.467 -1.5908 -0.1062  0.3117
 6888SOL     OW32299   1.650   0.485  12.068  0.2696 -0.4202 -0.1717
 6888SOL    HW132300   1.662   0.391  12.056 -0.4377 -0.4364 -0.7500
 6888SOL    HW232301   1.604   0.513  11.989  1.7616  1.2718 -0.4321
 6889SOL     OW32302   1.254   1.117  12.706 -0.0491  0.3808 -0.6992
 6889SOL    HW132303   1.256   1.033  12.660  2.0313  0.3743 -0.6324
 6889SOL    HW232304   1.346   1.144  12.715  0.0069 -0.1187  0.2240
 6890SOL     OW32305   0.515   3.618   8.801 -0.9252 -0.6494  0.2504
 6890SOL    HW132306   0.436   3.602   8.748  0.0523 -1.2456 -1.0368
 6890SOL    HW232307   0.480   3.605   8.889 -1.0413  1.2452  0.4721
 6891SOL     OW32308   1.414   0.020   7.893 -0.5142 -0.0353  0.0042
 6891SOL    HW132309   1.467   0.055   7.821 -2.0853  1.5319 -0.3962
 6891SOL    HW232310   1.404   0.109   7.924  0.5294 -0.4477  1.5156
 6892SOL     OW32311   2.312   3.254   2.082 -0.3186 -0.3251 -0.3228
 6892SOL    HW132312   2.355   3.208   2.009  1.9722  0.7343  0.3475
 6892SOL    HW232313   2.329   3.186   2.148 -0.7108 -0.8397 -0.7475
 6893SOL     OW32314   2.583   3.516   7.711  0.1429 -0.1605 -0.4632
 6893SOL    HW132315   2.588   3.599   7.665  0.9490 -0.4340 -0.8787
 6893SOL    HW232316   2.676   3.490   7.708  0.6417  1.4418  1.6498
 6894SOL     OW32317   0.506   0.712  10.082 -0.0496 -0.4207  0.2304
 6894SOL    HW132318   0.505   0.766  10.161 -0.0216 -0.0627 -0.0143
 6894SOL    HW232319   0.413   0.691  10.080 -0.0795 -0.1624 -0.9102
 6895SOL     OW32320   1.318   2.468  15.221 -0.0046 -0.4607 -0.9424
 6895SOL    HW132321   1.320   2.526  15.297 -2.7095 -1.9429  0.2382
 6895SOL    HW232322   1.402   2.424  15.236  0.0976  0.0229 -0.0644
 6896SOL     OW32323   4.533   3.911   8.211 -0.3152  0.1244  0.6702
 6896SOL    HW132324   4.595   3.984   8.200  1.5050 -1.6163 -0.5307
 6896SOL    HW232325   4.588   3.838   8.185 -0.6222 -0.0302  0.4553
 6897SOL     OW32326   1.876   0.912   2.289  0.1645  0.2839 -0.1872
 6897SOL    HW132327   1.859   0.821   2.266  1.5651  0.1213 -0.6116
 6897SOL    HW232328   1.950   0.908   2.351  0.3145  1.3987 -0.2907
 6898SOL     OW32329   4.466   0.423  15.875 -0.4203  0.5684  0.1614
 6898SOL    HW132330   4.482   0.352  15.937  0.6837  0.0545 -0.7083
 6898SOL    HW232331   4.405   0.377  15.817 -0.4284 -0.5034  1.0351
 6899SOL     OW32332   1.899   2.297   7.742  0.1046 -0.0223 -0.3656
 6899SOL    HW132333   1.931   2.387   7.739  0.3960 -0.2269 -3.2142
 6899SOL    HW232334   1.888   2.277   7.649 -0.9747 -0.5717 -0.1206
 6900SOL     OW32335   4.581   0.479   2.757  0.0608 -0.0443 -0.0857
 6900SOL    HW132336   4.491   0.449   2.769 -0.0647  0.7172  0.9403
 6900SOL    HW232337   4.572   0.519   2.670 -0.6410 -0.1828 -0.0825
 6901SOL     OW32338   3.393   1.308   0.057  0.0245 -0.3247 -0.2927
 6901SOL    HW132339   3.389   1.213   0.061  1.1206 -0.3048  1.4058
 6901SOL    HW232340   3.316   1.321   0.001 -2.1165 -1.6574  2.3163
 6902SOL     OW32341   2.235   1.398  17.308 -0.4304 -0.3577  0.1408
 6902SOL    HW132342   2.208   1.425  17.220  2.2766 -0.3800 -0.7015
 6902SOL    HW232343   2.150   1.405  17.353 -1.0589 -2.5392 -0.7257
 6903SOL     OW32344   4.579   3.885  16.771  0.3822  0.3064 -0.0771
 6903SOL    HW132345   4.650   3.898  16.708  0.7693  0.1458  0.3282
 6903SOL    HW232346   4.563   3.976  16.797 -2.6794 -0.5850  1.0829
 6904SOL     OW32347   0.011   4.726   1.395 -0.2278 -0.1629 -0.2413
 6904SOL    HW132348   4.727   4.665   1.325 -0.0253 -1.3221  0.7069
 6904SOL    HW232349   4.665   0.025   1.417  0.4531  0.9216  0.5359
 6905SOL     OW32350   0.232   1.328  13.277  0.1864  0.2698 -0.2492
 6905SOL    HW132351   0.264   1.247  13.237  0.2995 -1.3032  3.0130
 6905SOL    HW232352   0.314   1.365  13.307 -0.3217  1.9087 -0.8871
 6906SOL     OW32353   3.933   3.688  15.852 -0.0628 -0.0639 -0.2038
 6906SOL    HW132354   3.926   3.697  15.947  1.8303  0.6070 -0.1325
 6906SOL    HW232355   4.026   3.709  15.844  0.2460 -1.5231 -0.4308
 6907SOL     OW32356   4.544   1.785   5.499  0.0569 -0.6650  0.5750
 6907SOL    HW132357   4.489   1.760   5.573  0.4377 -0.1699  1.0285
 6907SOL    HW232358   4.552   1.700   5.456 -0.1905 -0.3710 -0.0527
 6908SOL     OW32359   0.894   4.624  11.803 -0.8549  0.2061  0.8568
 6908SOL    HW132360   0.811   4.629  11.850 -1.1581 -0.0015  0.3519
 6908SOL    HW232361   0.966   4.645  11.863  0.3072 -0.4538 -0.2967
 6909SOL     OW32362   1.802   1.501  14.883 -0.7009 -0.0014  0.7091
 6909SOL    HW132363   1.779   1.505  14.976 -0.2095  0.6350  0.7984
 6909SOL    HW232364   1.852   1.582  14.877  1.1849 -1.4570 -2.8339
 6910SOL     OW32365   3.319   2.365   4.358 -0.5084  0.0708 -0.6135
 6910SOL    HW132366   3.258   2.397   4.425 -1.2308 -0.3467 -1.0659
 6910SOL    HW232367   3.312   2.431   4.289 -1.5489  1.6408  0.9818
 6911SOL     OW32368   4.436   1.635   6.716  0.1581 -0.0639  0.5247
 6911SOL    HW132369   4.460   1.544   6.734  1.2881  0.1063 -0.1631
 6911SOL    HW232370   4.378   1.621   6.641  0.6253 -3.1773  0.7310
 6912SOL     OW32371   4.597   1.260   4.206  0.3000  0.2049 -0.4271
 6912SOL    HW132372   4.642   1.184   4.168 -2.1718 -1.3682 -0.2799
 6912SOL    HW232373   4.527   1.212   4.251  0.3680  1.0789  0.6076
 6913SOL     OW32374   2.778   1.743   2.125  0.0352 -0.0978  0.8615
 6913SOL    HW132375   2.862   1.760   2.083  0.6374  2.6504  3.1359
 6913SOL    HW232376   2.803   1.668   2.179  0.3018  0.7304  1.8873
 6914SOL     OW32377   4.664   0.646   0.802  0.5002 -0.1209 -1.0832
 6914SOL    HW132378   4.711   0.598   0.870  0.0302  2.3589  0.9689
 6914SOL    HW232379   4.573   0.636   0.832  1.1909  2.4199  1.7623
 6915SOL     OW32380   1.585   3.265   3.713 -0.2994 -0.3035 -0.4267
 6915SOL    HW132381   1.558   3.259   3.804  2.1917 -0.2275  0.3304
 6915SOL    HW232382   1.497   3.252   3.678 -0.4979 -0.9051  0.3024
 6916SOL     OW32383   4.569   2.019   7.897 -0.6782  0.4823  0.5383
 6916SOL    HW132384   4.478   1.997   7.879 -0.9350  0.8183  1.3828
 6916SOL    HW232385   4.569   2.113   7.876  0.8378  0.8551  2.2167
 6917SOL     OW32386   3.155   1.875   0.058  0.4426 -0.3343  0.0235
 6917SOL    HW132387   3.143   1.807   0.124 -2.4942 -0.3721 -0.5419
 6917SOL    HW232388   3.109   1.952   0.091 -1.3996 -0.6091 -1.8502
 6918SOL     OW32389   1.502   3.663   7.689  0.1805  0.2412  0.4605
 6918SOL    HW132390   1.476   3.754   7.705  3.1499  1.0174  1.0118
 6918SOL    HW232391   1.580   3.674   7.745 -0.2282 -1.3752  1.3408
 6919SOL     OW32392   1.907   1.334   7.970  0.4535  0.3505  0.5144
 6919SOL    HW132393   1.879   1.421   7.940  1.0938 -0.1522 -1.5662
 6919SOL    HW232394   1.984   1.349   8.023  0.8534 -0.3440  0.1297
 6920SOL     OW32395   3.839   0.429   9.319 -0.2968 -0.4690  0.1074
 6920SOL    HW132396   3.890   0.457   9.395 -2.7604 -0.6822  1.8224
 6920SOL    HW232397   3.857   0.335   9.325 -1.3997 -0.7036 -0.3887
 6921SOL     OW32398   1.634   0.413   6.928 -0.3951 -0.2851  0.0935
 6921SOL    HW132399   1.722   0.436   6.897 -0.7281 -1.7213 -1.9320
 6921SOL    HW232400   1.581   0.399   6.850 -2.8548  2.4299  1.2826
 6922SOL     OW32401   1.480   3.925   3.718 -0.7734 -0.1648  0.3814
 6922SOL    HW132402   1.499   3.898   3.808 -0.2565 -1.5386 -0.1584
 6922SOL    HW232403   1.404   3.871   3.696  0.0656 -0.1324 -2.5430
 6923SOL     OW32404   2.394   2.477   6.899 -0.1877 -0.3836  0.0792
 6923SOL    HW132405   2.482   2.495   6.867  0.5298 -1.4132  1.4790
 6923SOL    HW232406   2.352   2.466   6.814  1.1050  1.7238 -0.8237
 6924SOL     OW32407   1.144   3.893  14.085  0.5203  0.3580  0.6726
 6924SOL    HW132408   1.128   3.800  14.099  0.9054  0.2941  0.7106
 6924SOL    HW232409   1.056   3.920  14.059  0.5233  0.5598  0.8706
 6925SOL     OW32410   2.108   2.467  10.494  0.1782 -0.5637 -0.0391
 6925SOL    HW132411   2.186   2.453  10.441 -0.8417 -0.5377 -1.5380
 6925SOL    HW232412   2.139   2.527  10.562 -0.0080  1.9117 -2.1375
 6926SOL     OW32413   2.722   0.345   8.062  0.3670  0.2077  0.1847
 6926SOL    HW132414   2.682   0.429   8.039  2.1174  1.3154  1.1980
 6926SOL    HW232415   2.713   0.336   8.157  2.9738  0.3786  0.4450
 6927SOL     OW32416   3.753   2.912   8.259 -0.1366  0.1495 -0.6793
 6927SOL    HW132417   3.725   2.822   8.269  1.1436  0.0161  1.6913
 6927SOL    HW232418   3.767   2.926   8.165  1.0878  1.7801 -0.2662
 6928SOL     OW32419   0.985   2.687   4.684  0.0684  0.0626  0.2514
 6928SOL    HW132420   0.896   2.702   4.715  0.8489  2.7631  1.2362
 6928SOL    HW232421   0.975   2.686   4.589 -2.6411 -0.3622  0.5593
 6929SOL     OW32422   3.792   0.168   3.674 -0.1506 -0.3446  0.2324
 6929SOL    HW132423   3.880   0.179   3.710  0.3959  0.9250 -1.4612
 6929SOL    HW232424   3.808   0.094   3.615  1.5970  0.6787 -0.6007
 6930SOL     OW32425   4.687   4.251   3.239  0.8280  0.1285 -0.1448
 6930SOL    HW132426   4.638   4.241   3.157  0.2315 -2.0903  0.4958
 6930SOL    HW232427   4.695   4.166   3.281 -0.6963 -0.5077 -1.1178
 6931SOL     OW32428   4.415   0.480   0.530 -0.1928  0.2111 -0.8598
 6931SOL    HW132429   4.477   0.423   0.484 -1.5366 -0.4456 -1.8876
 6931SOL    HW232430   4.447   0.563   0.496  0.9932  0.9443  2.0863
 6932SOL     OW32431   4.597   1.863   7.270  0.3796 -0.2222  0.7041
 6932SOL    HW132432   4.659   1.885   7.340  1.5062 -1.3596  0.0749
 6932SOL    HW232433   4.530   1.841   7.334 -1.5401  1.3219 -0.7765
 6933SOL     OW32434   4.481   3.954   7.523  0.0063 -0.2121 -0.1318
 6933SOL    HW132435   4.442   3.877   7.565  0.3538  0.3946  1.3111
 6933SOL    HW232436   4.399   4.004   7.520  2.0607  3.1670 -0.1266
 6934SOL     OW32437   3.833   3.795   7.570  0.1647  0.2612  0.0498
 6934SOL    HW132438   3.926   3.813   7.588 -0.3281  2.5572  0.2462
 6934SOL    HW232439   3.839   3.700   7.560 -1.3476  0.3502 -1.6858
 6935SOL     OW32440   4.608   2.798   7.546  0.1128  0.2149  0.4600
 6935SOL    HW132441   4.549   2.811   7.472 -0.1604 -0.8700  0.4897
 6935SOL    HW232442   4.559   2.807   7.627  0.3215 -0.0726  0.6182
 6936SOL     OW32443   3.576   3.719  11.958  0.4276 -0.3388  0.2863
 6936SOL    HW132444   3.507   3.688  11.899 -0.1452  0.9109  0.2904
 6936SOL    HW232445   3.654   3.727  11.904 -0.1864 -0.6455 -0.6361
 6937SOL     OW32446   2.789   2.056   0.342 -0.0089  0.0582 -0.1508
 6937SOL    HW132447   2.702   2.020   0.328 -0.8232  1.9925 -0.0430
 6937SOL    HW232448   2.790   2.118   0.415 -0.0459 -0.8645  0.6302
 6938SOL     OW32449   4.715   3.400  12.698  0.0654 -0.0420 -0.6924
 6938SOL    HW132450   4.699   3.307  12.685 -1.1055 -0.1089  1.2626
 6938SOL    HW232451   4.644   3.442  12.649 -0.8674 -0.0797  0.6060
 6939SOL     OW32452   2.856   1.943   3.551 -0.1992 -0.1407 -0.2715
 6939SOL    HW132453   2.809   2.025   3.564  0.8674  0.6327 -1.2723
 6939SOL    HW232454   2.792   1.877   3.577  2.7302 -2.5912  0.7751
 6940SOL     OW32455   2.386   2.194   2.665 -0.0988  0.1554  0.3230
 6940SOL    HW132456   2.352   2.284   2.662 -0.7268 -0.1722 -2.4066
 6940SOL    HW232457   2.309   2.162   2.711  0.2290  1.2561  1.6433
 6941SOL     OW32458   0.334   3.631  14.986 -0.1517 -0.4920 -0.1463
 6941SOL    HW132459   0.368   3.653  14.899  1.2184 -1.4636  0.1381
 6941SOL    HW232460   0.253   3.680  14.976  0.0231  0.0648  1.1135
 6942SOL     OW32461   0.845   3.217  13.613 -0.8373  0.1536 -0.6718
 6942SOL    HW132462   0.753   3.233  13.594 -1.5569  0.1972  2.7455
 6942SOL    HW232463   0.860   3.125  13.590  0.5787  0.3910 -0.6894
 6943SOL     OW32464   2.466   2.593  17.181  0.3200  0.9826 -0.1374
 6943SOL    HW132465   2.394   2.632  17.231  0.1583  0.8982 -0.3042
 6943SOL    HW232466   2.459   2.633  17.094  1.9733  0.7082 -0.4084
 6944SOL     OW32467   1.548   2.759  13.525  0.5165 -0.1889  0.0159
 6944SOL    HW132468   1.599   2.812  13.464  0.0575 -0.7626 -0.8721
 6944SOL    HW232469   1.577   2.802  13.606  0.9006 -0.5044  0.0446
 6945SOL     OW32470   3.779   1.323   3.622 -0.6737 -0.3642  0.1668
 6945SOL    HW132471   3.768   1.249   3.681 -1.1921  2.0909  3.1645
 6945SOL    HW232472   3.874   1.331   3.627 -0.7082 -0.6651  1.3887
 6946SOL     OW32473   4.260   4.228  16.058 -0.4362 -0.6995  0.0421
 6946SOL    HW132474   4.318   4.156  16.034  1.3351 -0.3482  3.2823
 6946SOL    HW232475   4.315   4.304  16.074 -0.3701 -1.0843  1.7099
 6947SOL     OW32476   2.046   4.533   6.444  0.7623 -0.4209  0.4480
 6947SOL    HW132477   2.026   4.440   6.432 -1.3246  0.0892 -0.1021
 6947SOL    HW232478   2.103   4.536   6.521 -0.0065  0.4683  0.9926
 6948SOL     OW32479   2.943   2.815   5.558 -0.4001 -0.0870 -0.5823
 6948SOL    HW132480   2.970   2.906   5.550  0.1050 -0.1346  0.5043
 6948SOL    HW232481   2.871   2.810   5.496  1.1122  1.8211 -2.4846
 6949SOL     OW32482   0.283   2.037   8.595  0.0320 -0.2409 -0.0546
 6949SOL    HW132483   0.280   2.093   8.517 -0.9282  1.0616  0.9361
 6949SOL    HW232484   0.205   1.989   8.568  0.1584 -0.8471  0.6639
 6950SOL     OW32485   1.292   1.982  13.850 -0.1993 -0.1723  0.1139
 6950SOL    HW132486   1.351   1.915  13.817  0.1183 -0.8221  2.0154
 6950SOL    HW232487   1.208   1.936  13.856 -0.3735  0.2649  1.1106
 6951SOL     OW32488   2.416   2.894   5.813 -0.3639 -0.2862 -0.3677
 6951SOL    HW132489   2.332   2.939   5.804 -0.9482 -0.8779  1.9535
 6951SOL    HW232490   2.406   2.802   5.790  1.4578 -0.8778  1.1770
 6952SOL     OW32491   3.576   2.301   4.416  0.0602 -0.5518 -0.0628
 6952SOL    HW132492   3.607   2.379   4.461  3.3354 -2.6208  1.2540
 6952SOL    HW232493   3.482   2.318   4.408  0.2597 -0.4607 -2.1485
 6953SOL     OW32494   0.426   3.850   3.846  0.1603 -0.5010 -0.3373
 6953SOL    HW132495   0.362   3.921   3.854  1.1298  0.3142  0.2574
 6953SOL    HW232496   0.504   3.905   3.850 -0.6784  0.5215  1.6746
 6954SOL     OW32497   2.345   0.204   1.081 -0.6210 -0.2992  0.2324
 6954SOL    HW132498   2.355   0.289   1.124 -2.2626  0.3354 -0.6334
 6954SOL    HW232499   2.286   0.163   1.144  2.1331 -1.3529  2.1096
 6955SOL     OW32500   2.826   1.188   6.164 -0.3517  0.7665 -0.6794
 6955SOL    HW132501   2.783   1.240   6.232 -2.5707 -0.8025 -0.8827
 6955SOL    HW232502   2.899   1.248   6.154  0.4290  0.0733  0.8675
 6956SOL     OW32503   4.482   3.431   3.353 -0.0345  0.1016  0.1979
 6956SOL    HW132504   4.552   3.480   3.310  0.3769  0.0573  0.8104
 6956SOL    HW232505   4.422   3.497   3.388  0.9788  1.1145  0.0490
 6957SOL     OW32506   4.158   2.923   1.729 -0.7389 -0.0855  0.0797
 6957SOL    HW132507   4.081   2.867   1.724  0.2656 -1.6352  2.1354
 6957SOL    HW232508   4.138   2.993   1.667 -0.6350  0.2789  0.4627
 6958SOL     OW32509   4.574   2.630   4.483 -0.3523  0.2545  0.2597
 6958SOL    HW132510   4.482   2.609   4.501 -0.4236 -0.0932 -0.5077
 6958SOL    HW232511   4.551   2.700   4.421  0.5751 -0.8504 -1.3277
 6959SOL     OW32512   0.257   2.183   6.675 -0.6227 -0.4276 -0.1686
 6959SOL    HW132513   0.244   2.268   6.717 -1.4017 -0.3437 -0.5832
 6959SOL    HW232514   0.274   2.123   6.747 -0.2575  0.5773  0.5856
 6960SOL     OW32515   3.122   2.521   3.551  0.1264  0.2360  0.6191
 6960SOL    HW132516   3.072   2.510   3.632  1.3261 -1.4535  1.1166
 6960SOL    HW232517   3.066   2.480   3.484 -1.3074  0.1298  1.8790
 6961SOL     OW32518   3.485   1.632   4.313 -0.1221 -0.0539  0.2334
 6961SOL    HW132519   3.486   1.725   4.335 -2.5831  0.4889 -1.9470
 6961SOL    HW232520   3.413   1.639   4.250  0.5412 -2.0274 -0.7544
 6962SOL     OW32521   2.383   4.384   5.323 -0.0961  0.1010  0.4798
 6962SOL    HW132522   2.316   4.387   5.391  0.2276 -0.3542  0.8203
 6962SOL    HW232523   2.413   4.473   5.306 -0.7775  0.3444  0.5453
 6963SOL     OW32524   0.008   1.519   2.589  0.3743  0.7884  0.2135
 6963SOL    HW132525   4.696   1.483   2.661 -1.9042  1.0180 -1.2748
 6963SOL    HW232526   0.090   1.472   2.605 -0.4387  0.6316  3.9322
 6964SOL     OW32527   3.746   3.684   4.081  0.1787 -0.0453 -0.5009
 6964SOL    HW132528   3.656   3.700   4.053  0.1927  1.8545  0.5899
 6964SOL    HW232529   3.741   3.679   4.176  1.0988  0.7948 -0.4070
 6965SOL     OW32530   0.553   4.559   6.720 -0.0467  0.1793 -0.0564
 6965SOL    HW132531   0.480   4.619   6.705  0.4260  0.4245 -1.3497
 6965SOL    HW232532   0.560   4.505   6.641 -0.4494  0.5468 -0.3396
 6966SOL     OW32533   3.813   3.829   2.060 -0.1940 -0.5015  0.3657
 6966SOL    HW132534   3.818   3.912   2.108  0.3897 -0.3897  0.1118
 6966SOL    HW232535   3.895   3.789   2.088  0.0579 -0.9040 -0.9404
 6967SOL     OW32536   2.558   2.231   2.165 -0.0818  0.0376 -0.4844
 6967SOL    HW132537   2.479   2.282   2.153  1.1632  2.4487  1.6599
 6967SOL    HW232538   2.592   2.239   2.075 -0.9655  2.2038 -0.6171
 6968SOL     OW32539   4.599   1.458   1.538 -0.7264 -0.2771 -0.4608
 6968SOL    HW132540   4.591   1.465   1.443 -1.1190  0.2838 -0.3868
 6968SOL    HW232541   4.636   1.543   1.561  2.4761 -0.8288 -3.6097
 6969SOL     OW32542   4.618   2.097   4.682  0.5176  0.1558  0.2855
 6969SOL    HW132543   4.698   2.149   4.678  0.6775 -0.4238 -3.5336
 6969SOL    HW232544   4.643   2.009   4.709 -2.5635 -0.7445  0.1580
 6970SOL     OW32545   0.333   3.133   4.546 -0.8034 -0.0701  0.4863
 6970SOL    HW132546   0.313   3.041   4.564 -0.0249 -0.4567 -0.6504
 6970SOL    HW232547   0.276   3.178   4.609  0.0059  0.2230  1.0109
 6971SOL     OW32548   0.279   2.958   7.443 -0.2675 -0.4293  0.4957
 6971SOL    HW132549   0.213   2.891   7.426  3.2192 -3.9149  0.8475
 6971SOL    HW232550   0.242   2.996   7.523 -0.8272 -0.0025  0.0350
 6972SOL     OW32551   3.600   0.630   3.483  1.0240 -0.4942 -0.5981
 6972SOL    HW132552   3.567   0.550   3.442 -0.2047 -1.4206  2.1803
 6972SOL    HW232553   3.573   0.701   3.426 -0.0543 -0.7976 -0.4598
 6973SOL     OW32554   3.739   0.774   5.283 -0.2445  0.7388  0.2658
 6973SOL    HW132555   3.669   0.825   5.323 -0.9448 -0.5092  0.6135
 6973SOL    HW232556   3.812   0.835   5.289  0.3256  0.1923 -1.1999
 6974SOL     OW32557   1.558   0.590   6.180  0.4558  0.3799  0.3974
 6974SOL    HW132558   1.634   0.588   6.238 -0.3362 -1.3724  1.3409
 6974SOL    HW232559   1.483   0.604   6.237 -0.1643 -0.3662 -0.2433
 6975SOL     OW32560   3.589   3.600   3.354  0.1212 -0.6297  0.2750
 6975SOL    HW132561   3.668   3.593   3.407  0.8487 -0.3274 -0.7772
 6975SOL    HW232562   3.535   3.549   3.415  0.0432 -0.8380  0.0314
 6976SOL     OW32563   2.825   0.281   3.076  0.2122  0.1973 -0.3263
 6976SOL    HW132564   2.770   0.340   3.127  1.5329  2.4135 -1.4465
 6976SOL    HW232565   2.755   0.230   3.036  0.8056 -0.5176 -0.4599
 6977SOL     OW32566   2.073   4.569   5.821 -0.4002 -0.1370  0.1390
 6977SOL    HW132567   2.007   4.638   5.822  0.0431  0.2632  1.1298
 6977SOL    HW232568   2.026   4.511   5.761 -2.0838  3.5473 -2.0891
 6978SOL     OW32569   3.896   1.467  12.626 -0.3440  0.3580 -0.2909
 6978SOL    HW132570   3.983   1.507  12.620  0.1969 -0.9392 -0.9656
 6978SOL    HW232571   3.862   1.499  12.709  0.6681 -1.0902  0.6837
 6979SOL     OW32572   1.015   2.280   7.799  0.2058 -0.1040  0.0266
 6979SOL    HW132573   0.984   2.370   7.795  1.2148  0.2863  0.8239
 6979SOL    HW232574   1.006   2.258   7.892 -1.3490 -1.4461 -0.4467
 6980SOL     OW32575   4.718   1.446  17.279 -0.3860  0.5115  0.4974
 6980SOL    HW132576   4.711   1.371  17.220 -1.9751  2.5911 -1.9169
 6980SOL    HW232577   0.045   1.498  17.232 -0.5579  0.4632  0.2056
 6981SOL     OW32578   1.430   0.223   5.725 -0.4125 -0.3810 -0.5655
 6981SOL    HW132579   1.466   0.196   5.809 -0.7448 -2.3984 -1.0712
 6981SOL    HW232580   1.473   0.307   5.707  2.0262 -1.2210  1.3805
 6982SOL     OW32581   3.434   3.278   1.342 -0.3690  0.2911 -0.1463
 6982SOL    HW132582   3.421   3.204   1.402  3.3690  0.6790  1.1793
 6982SOL    HW232583   3.511   3.323   1.377  0.2149 -0.3850 -0.5498
 6983SOL     OW32584   2.415   4.065   5.021 -0.5350 -0.6142 -0.1015
 6983SOL    HW132585   2.461   3.982   5.028  0.7026  0.2502  2.3044
 6983SOL    HW232586   2.457   4.115   5.091 -0.6091 -0.9790  0.2002
 6984SOL     OW32587   3.276   2.635   7.032  0.2625 -0.9258  0.2852
 6984SOL    HW132588   3.341   2.626   7.101  1.8555 -0.0122 -1.0947
 6984SOL    HW232589   3.303   2.712   6.981 -2.1914 -0.6151 -0.5397
 6985SOL     OW32590   4.462   2.536   1.945 -0.5704  0.4775  0.1090
 6985SOL    HW132591   4.486   2.510   1.855 -1.7141 -1.7298  0.4314
 6985SOL    HW232592   4.542   2.557   1.993  0.0433  2.9126 -1.9841
 6986SOL     OW32593   1.941   1.848   8.637  0.0649  0.0395 -0.3406
 6986SOL    HW132594   1.912   1.769   8.682 -0.0312  0.6825  0.7196
 6986SOL    HW232595   1.957   1.807   8.551  1.8321 -0.7832  0.3808
 6987SOL     OW32596   3.215   1.399   4.525 -0.5005 -0.5778  0.3745
 6987SOL    HW132597   3.241   1.319   4.569 -2.1641 -0.5769  1.3298
 6987SOL    HW232598   3.225   1.359   4.438  2.1251  4.6361 -1.7348
 6988SOL     OW32599   3.234   0.431   6.880 -0.3958 -0.0466 -0.0517
 6988SOL    HW132600   3.314   0.482   6.866  0.3182 -1.3241 -0.5608
 6988SOL    HW232601   3.245   0.362   6.815 -1.4322  0.4307 -0.7236
 6989SOL     OW32602   1.902   2.135   8.302 -0.3702  0.1764  0.2145
 6989SOL    HW132603   1.857   2.091   8.374 -2.5700  1.1365 -0.5801
 6989SOL    HW232604   1.982   2.084   8.291  1.2644  2.6747  0.3734
 6990SOL     OW32605   1.780   3.833   0.899  0.0387 -0.0069  0.0580
 6990SOL    HW132606   1.696   3.865   0.932  0.0071 -0.3480  0.3067
 6990SOL    HW232607   1.846   3.863   0.961  1.6493 -0.0493 -1.6247
 6991SOL     OW32608   2.860   3.257   2.320 -0.3758 -0.2798  0.6452
 6991SOL    HW132609   2.901   3.270   2.406 -0.5414 -0.1377  0.7025
 6991SOL    HW232610   2.818   3.175   2.345 -0.8543 -0.3485 -0.4048
 6992SOL     OW32611   1.856   1.619   7.915  0.0369 -0.2333 -0.1673
 6992SOL    HW132612   1.841   1.706   7.876  1.9985 -1.0569 -2.7358
 6992SOL    HW232613   1.903   1.642   7.995 -2.4015  0.2239  1.1434
 6993SOL     OW32614   1.388   0.417   4.931 -0.1852  1.0531  0.1668
 6993SOL    HW132615   1.463   0.471   4.908  0.3420  0.0313 -0.5033
 6993SOL    HW232616   1.387   0.438   5.025 -0.6375 -1.8462  0.8184
 6994SOL     OW32617   1.787   4.029  12.453 -0.0222  0.3007 -0.0712
 6994SOL    HW132618   1.842   3.992  12.384  0.7919 -0.0688  0.7784
 6994SOL    HW232619   1.825   4.117  12.455 -0.4177  0.5382 -3.1311
 6995SOL     OW32620   0.522   2.654  14.007  0.2022 -0.1398 -0.1934
 6995SOL    HW132621   0.602   2.668  14.057 -1.1022 -0.4338  1.9787
 6995SOL    HW232622   0.545   2.680  13.918 -0.0894  0.0922 -0.2022
 6996SOL     OW32623   4.411   0.653   6.570  0.1390  0.2149  0.1815
 6996SOL    HW132624   4.469   0.679   6.498  0.3121  1.1962  0.6728
 6996SOL    HW232625   4.456   0.684   6.648  0.4351  0.4075 -0.0636
 6997SOL     OW32626   3.893   3.315   7.217 -0.5223  0.6393 -0.4907
 6997SOL    HW132627   3.832   3.306   7.145 -0.7888  1.0453 -0.3126
 6997SOL    HW232628   3.896   3.410   7.228  1.7030  0.3559  1.3991
 6998SOL     OW32629   3.626   3.289   6.197 -0.0098  0.0180 -0.1109
 6998SOL    HW132630   3.637   3.194   6.183  2.0907  0.1950  0.3382
 6998SOL    HW232631   3.706   3.300   6.249 -0.4096  0.8069  0.3339
 6999SOL     OW32632   3.217   4.013   4.921 -0.0953 -0.1389  0.3017
 6999SOL    HW132633   3.279   3.943   4.945  1.7123  1.7165  1.0975
 6999SOL    HW232634   3.249   4.029   4.832 -0.3068  2.3987  0.6832
 7000SOL     OW32635   0.795   2.854   7.746  0.2733 -0.0444  0.1913
 7000SOL    HW132636   0.802   2.935   7.695  0.2549 -0.8623 -1.1123
 7000SOL    HW232637   0.858   2.877   7.815  0.2894 -0.2220  0.2375
 7001SOL     OW32638   0.782   2.348   2.310  0.1510  0.2987  0.1985
 7001SOL    HW132639   0.721   2.418   2.334 -1.9428 -0.2751 -3.4715
 7001SOL    HW232640   0.729   2.278   2.347  0.8982 -0.7704 -0.7646
 7002SOL     OW32641   0.139   4.306  15.160 -0.1151  0.8078 -0.8912
 7002SOL    HW132642   0.131   4.237  15.094 -1.6645  0.1756 -0.0515
 7002SOL    HW232643   0.201   4.358  15.109  0.0592  2.3417  0.8954
 7003SOL     OW32644   4.101   3.235   2.229 -0.3980 -0.3125  0.0770
 7003SOL    HW132645   4.008   3.219   2.245 -0.3558  0.3288  0.9357
 7003SOL    HW232646   4.119   3.286   2.308  1.8686 -0.5513 -0.2808
 7004SOL     OW32647   3.088   0.516   2.184  0.1507 -0.0616  0.1782
 7004SOL    HW132648   3.121   0.492   2.271 -0.7231  0.6839  0.7196
 7004SOL    HW232649   2.999   0.481   2.191  0.1579 -0.4609 -1.7692
 7005SOL     OW32650   2.145   1.249   7.744  0.5943  0.1083  0.2268
 7005SOL    HW132651   2.170   1.315   7.809  1.5046  1.1301 -1.1567
 7005SOL    HW232652   2.142   1.312   7.672 -0.6951  2.9373  2.7528
 7006SOL     OW32653   2.280   3.482   1.282 -1.0203 -0.4030  0.3168
 7006SOL    HW132654   2.261   3.461   1.191 -1.5735  0.4004  0.2517
 7006SOL    HW232655   2.355   3.542   1.276 -1.6505  0.4349  0.8904
 7007SOL     OW32656   1.911   1.284   8.987  0.0860  0.1708 -0.5400
 7007SOL    HW132657   2.003   1.308   8.983 -0.2724  1.5172 -0.8282
 7007SOL    HW232658   1.897   1.255   8.896 -1.2506 -0.5385 -0.1108
 7008SOL     OW32659   0.274   3.608  16.574  0.0680 -0.0490 -0.1298
 7008SOL    HW132660   0.281   3.647  16.487 -2.8537  0.5042 -0.1168
 7008SOL    HW232661   0.305   3.518  16.561 -0.4633 -0.3147  0.4554
 7009SOL     OW32662   2.693   0.371   9.671  0.3801  0.4264  0.3006
 7009SOL    HW132663   2.620   0.350   9.729 -0.4233 -0.1773 -0.9435
 7009SOL    HW232664   2.766   0.325   9.713  2.2358 -0.0540 -3.5431
 7010SOL     OW32665   0.775   3.818   2.046 -0.2938  0.3316 -0.1531
 7010SOL    HW132666   0.746   3.783   2.131 -1.7419  1.2460 -0.2704
 7010SOL    HW232667   0.707   3.779   1.992  2.5758 -1.0757 -2.7624
 7011SOL     OW32668   0.060   3.893   6.635  0.7591 -0.8853 -0.4988
 7011SOL    HW132669   0.023   3.823   6.581  1.6670 -0.1132 -2.1315
 7011SOL    HW232670   0.085   3.832   6.704  0.2155 -0.4162  0.1116
 7012SOL     OW32671   1.923   0.135   3.879  0.1840 -0.2058 -0.2220
 7012SOL    HW132672   1.880   0.081   3.946 -0.6829  0.7578 -0.0019
 7012SOL    HW232673   1.855   0.143   3.812 -1.2575  1.1681  1.4109
 7013SOL     OW32674   4.229   2.189   5.341 -0.2186 -0.5098 -0.4445
 7013SOL    HW132675   4.298   2.256   5.345  0.1839 -0.9765  0.3909
 7013SOL    HW232676   4.269   2.115   5.295  0.6617 -0.0993 -0.3523
 7014SOL     OW32677   4.321   1.622   3.932 -0.6819  0.0009  0.4312
 7014SOL    HW132678   4.310   1.574   4.014  2.0920 -2.7292 -0.8126
 7014SOL    HW232679   4.393   1.570   3.897  1.0002  2.2158  0.5635
 7015SOL     OW32680   3.291   1.297   5.488 -0.0666  0.4481 -0.5227
 7015SOL    HW132681   3.212   1.343   5.516  0.9591 -0.2334  3.5817
 7015SOL    HW232682   3.328   1.272   5.573  2.0485  1.1623 -1.2466
 7016SOL     OW32683   1.698   2.549  15.013  0.2122 -0.1324  0.3730
 7016SOL    HW132684   1.711   2.461  14.977  0.5750  0.3012 -0.5380
 7016SOL    HW232685   1.627   2.584  14.959 -0.0537 -0.1221  0.7303
 7017SOL     OW32686   4.392   2.275   6.305  0.3293 -0.5995  0.2334
 7017SOL    HW132687   4.475   2.293   6.261  1.3172 -1.1887  1.8544
 7017SOL    HW232688   4.402   2.318   6.389 -1.3798  0.4053 -0.0836
 7018SOL     OW32689   0.235   3.510   8.123 -0.3052  0.5692  0.8450
 7018SOL    HW132690   0.326   3.497   8.148 -0.4220  0.4829  1.2332
 7018SOL    HW232691   0.196   3.423   8.131 -0.2711  0.4318 -0.5043
 7019SOL     OW32692   0.453   3.243   5.624  0.1351  0.0413 -0.3122
 7019SOL    HW132693   0.539   3.203   5.614 -0.4562 -1.3830  0.1812
 7019SOL    HW232694   0.411   3.204   5.547 -1.8873 -1.5845  1.6119
 7020SOL     OW32695   2.431   0.307   3.963  0.2250 -0.2199  0.0328
 7020SOL    HW132696   2.429   0.263   4.048  2.8449  1.2256  0.8478
 7020SOL    HW232697   2.342   0.310   3.927  0.4693  3.4123 -0.2281
 7021SOL     OW32698   4.267   4.264   5.930 -0.1388  0.5276  0.2323
 7021SOL    HW132699   4.273   4.265   6.026  1.8842 -2.5924  0.1482
 7021SOL    HW232700   4.178   4.297   5.916 -1.7165 -2.0947  3.9941
 7022SOL     OW32701   1.790   3.784   8.294 -0.2250  0.1661 -0.1740
 7022SOL    HW132702   1.836   3.852   8.343 -1.5182  1.7341 -1.1065
 7022SOL    HW232703   1.860   3.734   8.254 -0.4899  1.3146 -2.0458
 7023SOL     OW32704   2.542   4.282   3.586 -0.1569 -0.1346  0.6195
 7023SOL    HW132705   2.548   4.218   3.657 -2.0490  1.0794  1.8875
 7023SOL    HW232706   2.474   4.243   3.531  0.1553  0.4966 -0.2140
 7024SOL     OW32707   3.069   2.955  16.397  0.9386  0.4871 -0.2670
 7024SOL    HW132708   3.070   2.976  16.491 -0.1001  0.2482 -0.2053
 7024SOL    HW232709   3.019   3.023  16.353  1.0042 -0.3079 -1.5464
 7025SOL     OW32710   2.547   4.381   9.641 -0.3660  0.0665  0.0719
 7025SOL    HW132711   2.638   4.364   9.665 -1.2348 -2.2308  1.7900
 7025SOL    HW232712   2.513   4.292   9.632  0.3402 -0.3328  1.4566
 7026SOL     OW32713   0.777   0.500   1.780  0.6366 -0.7784  0.2266
 7026SOL    HW132714   0.695   0.547   1.789  0.1297 -1.2278 -1.9412
 7026SOL    HW232715   0.840   0.547   1.725 -0.0091 -1.1039 -0.8044
 7027SOL     OW32716   0.590   0.631   6.772  0.0048 -0.3103  0.1910
 7027SOL    HW132717   0.578   0.699   6.838  0.6555 -1.1402  1.1792
 7027SOL    HW232718   0.614   0.549   6.817 -0.4351 -0.6535 -0.1979
 7028SOL     OW32719   2.904   1.264   9.360  0.3201  0.4765 -0.4723
 7028SOL    HW132720   2.959   1.250   9.438 -1.8783  1.9776  1.3430
 7028SOL    HW232721   2.844   1.332   9.390  0.7957  0.8193 -0.2991
 7029SOL     OW32722   2.420   0.159   3.415  1.0872  0.2550 -0.2578
 7029SOL    HW132723   2.427   0.116   3.500  0.8686 -0.0364 -0.3873
 7029SOL    HW232724   2.494   0.118   3.369  1.0242  1.0237 -1.0481
 7030SOL     OW32725   0.596   3.971   3.112  0.2932 -0.2815 -0.2427
 7030SOL    HW132726   0.569   4.056   3.145  0.0596  0.2859 -1.8859
 7030SOL    HW232727   0.633   3.929   3.189  1.0141 -1.8712 -1.4505
 7031SOL     OW32728   3.612   4.165   3.647  0.2772 -0.6436  0.6335
 7031SOL    HW132729   3.601   4.198   3.558 -0.7672  2.0921  1.7967
 7031SOL    HW232730   3.661   4.239   3.683  0.3290  1.0673 -2.9845
 7032SOL     OW32731   0.586   3.103   5.268  0.5957  0.0740  0.0944
 7032SOL    HW132732   0.616   3.013   5.250  1.7261  0.6430 -0.8853
 7032SOL    HW232733   0.495   3.111   5.238  0.5936 -2.1271 -0.4916
 7033SOL     OW32734   2.656   1.690   5.254 -0.4212  0.0179 -0.0685
 7033SOL    HW132735   2.657   1.658   5.163  0.2650  0.6241 -0.2721
 7033SOL    HW232736   2.712   1.767   5.250 -0.6322  0.2092  0.8302
 7034SOL     OW32737   4.709   2.821   5.166 -0.3204 -0.1573 -0.7955
 7034SOL    HW132738   4.689   2.915   5.167 -0.9570 -0.2888 -0.9574
 7034SOL    HW232739   0.066   2.824   5.163 -0.3222 -0.4954 -1.2193
 7035SOL     OW32740   2.926   0.491   7.012 -0.3043  0.5257 -0.2478
 7035SOL    HW132741   2.951   0.399   7.013  0.0373  0.6277  0.4117
 7035SOL    HW232742   2.842   0.464   7.049 -0.2949 -0.2846 -0.8229
 7036SOL     OW32743   0.423   2.081   5.824 -0.4278 -0.1773 -0.4192
 7036SOL    HW132744   0.399   2.014   5.888  1.4526 -0.0577  0.4016
 7036SOL    HW232745   0.480   2.132   5.881 -3.0941  0.2922  1.8398
 7037SOL     OW32746   2.181   3.672   0.945 -0.2123 -0.6316  0.5509
 7037SOL    HW132747   2.157   3.762   0.966  1.4377  0.0592 -0.5631
 7037SOL    HW232748   2.096   3.626   0.946 -0.5987  0.0537 -1.0895
 7038SOL     OW32749   0.451   2.361   3.959  0.6077  0.0762 -0.5744
 7038SOL    HW132750   0.503   2.328   3.885  0.7688 -0.4201 -0.2416
 7038SOL    HW232751   0.502   2.440   3.979  0.8253  0.4145 -2.4691
 7039SOL     OW32752   0.285   3.361   1.974  0.2457  0.4064 -0.1027
 7039SOL    HW132753   0.206   3.317   1.944  0.0497  1.0763 -0.5598
 7039SOL    HW232754   0.288   3.442   1.924  2.5498  0.6849  0.4578
 7040SOL     OW32755   0.069   3.738   5.149  0.8872  0.1560  1.1151
 7040SOL    HW132756   0.093   3.749   5.242  0.6913  0.6493  1.1059
 7040SOL    HW232757   0.067   3.643   5.144 -1.5371  0.3809 -1.6037
 7041SOL     OW32758   3.252   2.910  11.558 -0.1057 -0.1560  0.4706
 7041SOL    HW132759   3.236   2.995  11.598  1.7840 -0.7719  2.5232
 7041SOL    HW232760   3.326   2.926  11.501 -0.5509 -0.4536 -0.1928
 7042SOL     OW32761   1.628   1.854  12.344 -0.4152  0.4096 -0.0943
 7042SOL    HW132762   1.678   1.792  12.398 -0.8107  0.4704  0.3437
 7042SOL    HW232763   1.655   1.820  12.258 -0.5653 -0.1058  0.0606
 7043SOL     OW32764   4.052   1.859   7.020  0.5583 -0.1378  0.5172
 7043SOL    HW132765   3.994   1.916   7.070 -0.5089  1.2980 -2.3205
 7043SOL    HW232766   4.048   1.911   6.939 -1.3734  3.2269  2.7974
 7044SOL     OW32767   4.112   1.890  12.573  0.1747 -0.0954 -0.2131
 7044SOL    HW132768   4.089   1.797  12.585 -0.2193 -0.0812 -0.8366
 7044SOL    HW232769   4.038   1.928  12.525  0.6865  0.8699 -0.2233
 7045SOL     OW32770   2.788   4.124   2.129 -0.0751 -0.1879  0.5333
 7045SOL    HW132771   2.699   4.143   2.158 -0.4910 -1.8023  0.3598
 7045SOL    HW232772   2.778   4.029   2.126 -1.7227  0.0310 -0.9910
 7046SOL     OW32773   4.626   1.658   0.988  0.2545 -0.2445  0.0082
 7046SOL    HW132774   4.650   1.711   1.064 -0.4027  0.6976 -0.4400
 7046SOL    HW232775   4.580   1.590   1.038  1.8633  0.2563  2.1525
 7047SOL     OW32776   3.354   1.806  12.804  0.4250 -0.6018 -0.0908
 7047SOL    HW132777   3.401   1.875  12.851 -0.1679 -1.7115  2.1227
 7047SOL    HW232778   3.393   1.809  12.717 -1.0119 -1.4367 -0.7672
 7048SOL     OW32779   1.555   2.475   2.340 -0.0428 -0.7002  0.2568
 7048SOL    HW132780   1.646   2.501   2.355 -0.9204  2.3673  0.3862
 7048SOL    HW232781   1.511   2.542   2.393  0.0282  0.8972 -1.7140
 7049SOL     OW32782   1.311   1.869   2.242 -0.2997  0.2286 -0.0519
 7049SOL    HW132783   1.380   1.935   2.241 -0.3224  0.2395 -0.8598
 7049SOL    HW232784   1.364   1.793   2.218 -1.6353 -0.9669  0.7781
 7050SOL     OW32785   3.615   2.440   2.570 -0.3928  0.3219 -0.0051
 7050SOL    HW132786   3.624   2.481   2.656  2.2151  0.6094 -0.4113
 7050SOL    HW232787   3.690   2.381   2.575 -1.4189 -0.9711 -0.0560
 7051SOL     OW32788   2.829   4.476  14.908  0.2186 -0.0555 -0.2630
 7051SOL    HW132789   2.749   4.505  14.864  0.8157  0.4029 -1.0537
 7051SOL    HW232790   2.809   4.481  15.001  2.1409  2.4696  0.0393
 7052SOL     OW32791   4.193   1.635  17.274 -0.1624  0.2676  0.5765
 7052SOL    HW132792   4.272   1.582  17.258 -1.9953 -1.6635 -2.1455
 7052SOL    HW232793   4.183   1.686  17.194 -1.0195  0.9286  1.1199
 7053SOL     OW32794   0.707   1.055   5.074  0.5752 -0.7957 -0.9949
 7053SOL    HW132795   0.704   1.140   5.031  3.8297 -1.1849 -1.9739
 7053SOL    HW232796   0.731   1.087   5.161  0.0372  0.7804 -1.4253
 7054SOL     OW32797   1.250   0.654  14.826 -0.0366  0.2264 -0.3250
 7054SOL    HW132798   1.180   0.707  14.788  1.3956  0.2297 -2.9867
 7054SOL    HW232799   1.327   0.712  14.832  0.6123 -0.5364 -1.2115
 7055SOL     OW32800   4.517   3.821  16.192 -0.2449 -0.2681  0.1292
 7055SOL    HW132801   4.501   3.872  16.272  0.1833 -0.8219  0.5648
 7055SOL    HW232802   4.604   3.783  16.201  0.2082  1.0529  1.2701
 7056SOL     OW32803   1.325   1.505  16.445 -0.2699 -0.9733  0.1810
 7056SOL    HW132804   1.356   1.415  16.450 -2.1789 -1.5263  2.0754
 7056SOL    HW232805   1.356   1.525  16.357  0.3507 -1.7377  0.2268
 7057SOL     OW32806   2.494   1.374   1.540  0.0616  0.0035 -0.6948
 7057SOL    HW132807   2.533   1.354   1.455  0.4131 -0.1270 -0.5017
 7057SOL    HW232808   2.570   1.377   1.598 -0.2468 -1.0616 -0.2329
 7058SOL     OW32809   2.984   0.248   5.613 -0.1412  0.2116 -0.0375
 7058SOL    HW132810   3.038   0.252   5.535 -2.6522 -1.0615 -1.8520
 7058SOL    HW232811   2.974   0.341   5.635 -1.9572  0.2715 -1.1285
 7059SOL     OW32812   1.974   2.086   0.207 -0.0001 -0.1120 -0.0488
 7059SOL    HW132813   1.883   2.058   0.215  0.3118  0.0339  3.7885
 7059SOL    HW232814   2.009   2.070   0.295 -0.0777 -2.9548 -0.5213
 7060SOL     OW32815   3.980   2.217   3.025 -0.0869 -0.3443  0.0644
 7060SOL    HW132816   3.918   2.150   3.055 -0.5480 -0.6448 -1.5912
 7060SOL    HW232817   4.040   2.169   2.969  1.5862  2.4215 -0.5030
 7061SOL     OW32818   0.766   3.658   4.520  0.4494 -0.9401 -0.3890
 7061SOL    HW132819   0.730   3.576   4.555 -3.6498  0.0804 -2.1826
 7061SOL    HW232820   0.706   3.719   4.561  0.0952  0.2216 -2.6259
 7062SOL     OW32821   3.111   0.694   4.427  0.2843 -0.4250  0.0355
 7062SOL    HW132822   3.115   0.690   4.332  0.2479 -0.0887  0.0203
 7062SOL    HW232823   3.028   0.663   4.464  1.0686  0.5236  2.6131
 7063SOL     OW32824   3.031   0.666   6.128  0.0114 -0.7037 -0.8247
 7063SOL    HW132825   3.082   0.674   6.047  3.1503 -0.8266  1.1213
 7063SOL    HW232826   3.080   0.729   6.181 -1.7294 -2.8285  3.2925
 7064SOL     OW32827   1.189   4.123  17.433 -0.2590  0.4222 -1.1087
 7064SOL    HW132828   1.254   4.171  17.485 -0.8058  0.5619 -0.5547
 7064SOL    HW232829   1.249   4.052  17.410  1.7622  1.8675 -0.3197
 7065SOL     OW32830   1.177   2.886   5.287 -0.0534  0.8313  0.1536
 7065SOL    HW132831   1.226   2.818   5.332  2.1746  0.4378 -2.9594
 7065SOL    HW232832   1.091   2.882   5.330 -0.3736  2.3417 -0.3360
 7066SOL     OW32833   3.394   1.622   6.984 -0.1799  0.2665  0.1109
 7066SOL    HW132834   3.356   1.537   6.960  1.0622 -0.6565  1.4068
 7066SOL    HW232835   3.436   1.638   6.899  1.7463 -2.1262  0.6064
 7067SOL     OW32836   4.480   3.012  17.282  0.0596  0.3563 -0.0711
 7067SOL    HW132837   4.431   3.088  17.253 -0.7120  0.3920  1.3612
 7067SOL    HW232838   4.549   3.029  17.217 -0.1760 -2.2338 -0.9981
 7068SOL     OW32839   4.362   4.479  15.802 -0.3518 -0.3374  0.5688
 7068SOL    HW132840   4.327   4.566  15.822 -2.8686 -1.4241  0.7790
 7068SOL    HW232841   4.441   4.487  15.856  0.4038  0.0797 -0.5788
 7069SOL     OW32842   4.638   1.261   4.531  0.0031 -0.2680 -0.3848
 7069SOL    HW132843   4.662   1.354   4.532  0.7972 -0.4754  0.6099
 7069SOL    HW232844   4.714   1.229   4.483  0.9846  0.3003  0.7586
 7070SOL     OW32845   0.684   2.044   3.050  0.5846 -0.1666 -0.8217
 7070SOL    HW132846   0.632   2.084   3.120  1.4310  1.9190 -1.3813
 7070SOL    HW232847   0.707   1.964   3.097  1.5347 -0.2094 -1.3626
 7071SOL     OW32848   4.199   4.304   3.048 -0.0271 -0.6361 -0.2816
 7071SOL    HW132849   4.234   4.392   3.036 -0.5462 -0.3259  0.4580
 7071SOL    HW232850   4.111   4.337   3.066  1.1619  0.7850  2.9530
 7072SOL     OW32851   1.423   1.907  16.113 -0.1374 -0.4878  0.3973
 7072SOL    HW132852   1.418   1.958  16.195 -1.1854  1.0104 -0.6027
 7072SOL    HW232853   1.342   1.859  16.128  0.0263 -1.1245 -0.8018
 7073SOL     OW32854   1.371   0.542   0.241  0.5435  0.0369  0.0341
 7073SOL    HW132855   1.345   0.617   0.295 -0.9913  1.5678 -2.8729
 7073SOL    HW232856   1.303   0.475   0.256  0.2075  0.0009 -1.6613
 7074SOL     OW32857   1.079   4.497  14.987 -0.2967  0.8907 -0.2681
 7074SOL    HW132858   1.096   4.588  15.013 -1.6023  1.2373 -0.6114
 7074SOL    HW232859   1.148   4.480  14.923 -0.3930 -0.4935 -0.0122
 7075SOL     OW32860   3.731   0.608   5.609  0.4281 -0.4694 -0.6175
 7075SOL    HW132861   3.766   0.675   5.549 -1.6691 -1.3217 -2.8006
 7075SOL    HW232862   3.680   0.658   5.673 -0.9394  1.8384 -3.4657
 7076SOL     OW32863   3.621   4.322   5.416 -0.5142  0.6743 -0.0643
 7076SOL    HW132864   3.617   4.418   5.418  0.0256  0.7083 -0.6652
 7076SOL    HW232865   3.655   4.309   5.328 -0.8466 -0.2624 -0.0595
 7077SOL     OW32866   2.094   1.682   4.436  0.1975  0.0273 -0.5076
 7077SOL    HW132867   2.044   1.726   4.505  1.3386  1.6319 -0.7107
 7077SOL    HW232868   2.072   1.734   4.359 -1.7011  0.9550  0.6611
 7078SOL     OW32869   3.656   4.709   1.208 -0.3247 -0.4911 -0.2784
 7078SOL    HW132870   3.623   0.060   1.201 -0.2334 -0.2760  2.2589
 7078SOL    HW232871   3.731   4.712   1.267  1.2518 -0.4987 -2.2567
 7079SOL     OW32872   2.637   1.766   8.431  0.0429  0.4109 -0.4389
 7079SOL    HW132873   2.636   1.699   8.501 -1.4285  1.4290  0.4966
 7079SOL    HW232874   2.600   1.720   8.356  0.7485 -0.2769 -0.3684
 7080SOL     OW32875   4.465   0.083   5.353 -0.8160  0.0266 -0.0712
 7080SOL    HW132876   4.377   0.065   5.319 -0.0004 -0.6925 -1.8068
 7080SOL    HW232877   4.501   0.000   5.321 -0.2550  0.8694 -1.6325
 7081SOL     OW32878   2.245   3.847   6.828  0.2949 -0.2678 -0.4640
 7081SOL    HW132879   2.272   3.865   6.918  1.5490 -1.8078 -0.5175
 7081SOL    HW232880   2.168   3.903   6.826 -0.1674 -0.8865 -0.2895
 7082SOL     OW32881   0.455   4.336   3.966 -0.1833  0.4895  0.4205
 7082SOL    HW132882   0.436   4.322   3.873  0.1225 -0.0490  0.4430
 7082SOL    HW232883   0.376   4.381   3.997  0.8380  1.1566  2.0478
 7083SOL     OW32884   4.124   2.875   5.898  0.1769  0.3146 -0.3749
 7083SOL    HW132885   4.209   2.878   5.853  0.8195 -0.4539  0.7966
 7083SOL    HW232886   4.127   2.958   5.945 -0.0876  0.9023 -1.4020
 7084SOL     OW32887   1.778   1.708   1.901  0.9231  0.1837  0.5028
 7084SOL    HW132888   1.859   1.760   1.901  0.7655  0.4297 -0.8539
 7084SOL    HW232889   1.802   1.641   1.837  0.8009 -0.1326  0.7899
 7085SOL     OW32890   0.321   1.329   4.507 -0.9985 -0.0377  0.2697
 7085SOL    HW132891   0.265   1.266   4.461 -2.2602  1.6788 -0.5453
 7085SOL    HW232892   0.333   1.407   4.452  1.2131 -0.0577  0.7418
 7086SOL     OW32893   3.757   2.068  12.386  0.0170 -0.6430 -0.2810
 7086SOL    HW132894   3.823   2.000  12.397 -0.4343 -1.1399 -0.6406
 7086SOL    HW232895   3.677   2.034  12.427 -0.6417 -1.3110 -2.1191
 7087SOL     OW32896   4.233   3.373   3.696  0.6688  0.3645 -0.0825
 7087SOL    HW132897   4.272   3.441   3.752  1.4494  0.7685 -1.1271
 7087SOL    HW232898   4.263   3.297   3.746 -1.1119  0.6282  1.3909
 7088SOL     OW32899   4.609   0.283   6.756  0.2302  0.0797 -0.2252
 7088SOL    HW132900   4.603   0.193   6.787  0.4097  0.4058  0.7686
 7088SOL    HW232901   4.604   0.266   6.662 -2.3460  1.1041 -0.2763
 7089SOL     OW32902   2.717   2.920   9.897 -0.0808  0.1454  0.2873
 7089SOL    HW132903   2.631   2.921   9.941  0.5939  1.6890  1.5388
 7089SOL    HW232904   2.724   2.994   9.837  1.4740 -1.4315 -1.4934
 7090SOL     OW32905   2.289   2.239   5.455  0.6640 -0.1118  0.1037
 7090SOL    HW132906   2.353   2.191   5.403 -0.4226 -1.8243  0.3229
 7090SOL    HW232907   2.348   2.240   5.530 -1.4463 -1.2302  1.7852
 7091SOL     OW32908   3.630   1.347   4.671 -0.3313 -0.2430 -0.7510
 7091SOL    HW132909   3.556   1.292   4.646 -0.5018 -0.3255 -0.0711
 7091SOL    HW232910   3.700   1.330   4.608 -0.7638  0.8831 -1.5221
 7092SOL     OW32911   4.703   0.523   7.099  0.3483  0.9342 -0.5732
 7092SOL    HW132912   0.035   0.479   7.051 -0.1255 -2.3429  1.7574
 7092SOL    HW232913   0.011   0.601   7.129  3.1284 -0.9876  0.1316
 7093SOL     OW32914   4.321   4.057  17.398  0.2473 -0.2914  0.3364
 7093SOL    HW132915   4.376   4.134  17.390  2.9707 -2.2921 -0.2450
 7093SOL    HW232916   4.264   4.065  17.321  0.2630  1.7179  0.5415
 7094SOL     OW32917   0.817   1.752   8.468 -0.3496 -0.7355  0.1087
 7094SOL    HW132918   0.802   1.771   8.561  1.0479  0.9384  0.0103
 7094SOL    HW232919   0.905   1.790   8.457  0.3620 -1.6852  2.5572
 7095SOL     OW32920   3.739   2.817   2.278  0.0886  0.2783 -0.3478
 7095SOL    HW132921   3.758   2.864   2.197 -0.1978  0.5143 -0.2782
 7095SOL    HW232922   3.799   2.854   2.343  2.0222 -4.2184  0.3772
 7096SOL     OW32923   2.665   1.168  13.308  0.5957  0.5481 -0.1752
 7096SOL    HW132924   2.671   1.112  13.386 -1.0349  1.4141  0.5861
 7096SOL    HW232925   2.743   1.222  13.319  0.1128  0.7723  2.0992
 7097SOL     OW32926   2.901   0.759   6.510 -0.1114  0.1579  0.2677
 7097SOL    HW132927   2.928   0.844   6.475  1.6123 -0.7470 -0.5952
 7097SOL    HW232928   2.939   0.762   6.598  0.5438 -0.7901  0.0196
 7098SOL     OW32929   3.012   3.455   8.782 -0.1116  0.4311 -0.2005
 7098SOL    HW132930   3.020   3.537   8.732  1.1367  0.8139  0.6171
 7098SOL    HW232931   3.090   3.412   8.748  0.8230  1.6714  0.3406
 7099SOL     OW32932   2.642   2.892   3.270 -0.3093 -0.6442  0.5012
 7099SOL    HW132933   2.733   2.862   3.268  0.0699  0.3654  2.1426
 7099SOL    HW232934   2.653   2.952   3.344 -1.4657  1.6854 -1.1941
 7100SOL     OW32935   3.709   3.667   0.196 -0.3057 -0.9553  0.0687
 7100SOL    HW132936   3.775   3.736   0.210 -0.4838 -0.3035 -2.3974
 7100SOL    HW232937   3.639   3.713   0.150  1.1939  0.5132 -0.7366
 7101SOL     OW32938   3.334   0.140  14.139  0.0991  0.2674  0.0101
 7101SOL    HW132939   3.294   0.124  14.225 -0.2870 -1.6257 -0.5287
 7101SOL    HW232940   3.409   0.192  14.167  0.5235 -0.2175 -0.2242
 7102SOL     OW32941   1.978   4.154   9.127  0.1183  1.1660  0.1208
 7102SOL    HW132942   2.000   4.062   9.109  3.4769  2.2656 -1.4416
 7102SOL    HW232943   2.023   4.196   9.054  0.7237 -0.0515 -0.2138
 7103SOL     OW32944   2.690   0.008   3.421 -0.5309 -0.1007  0.6047
 7103SOL    HW132945   2.757   0.004   3.353  0.3928 -1.0118  1.5809
 7103SOL    HW232946   2.729   0.073   3.480  1.2088 -2.4351  1.9888
 7104SOL     OW32947   1.470   3.964   7.700 -0.4004  0.1775 -0.0743
 7104SOL    HW132948   1.423   4.035   7.658 -2.1554 -0.7594  0.2854
 7104SOL    HW232949   1.561   3.981   7.676 -0.5781  2.0415  0.5771
 7105SOL     OW32950   4.283   2.733   2.323  0.6706 -0.1468 -0.2689
 7105SOL    HW132951   4.275   2.826   2.342 -2.0982 -0.2381 -1.0116
 7105SOL    HW232952   4.273   2.689   2.408 -2.5333 -0.3062 -0.7238
 7106SOL     OW32953   3.810   3.639   8.139  0.0349 -0.3341 -0.5540
 7106SOL    HW132954   3.872   3.641   8.066 -0.9008 -0.7611 -1.3677
 7106SOL    HW232955   3.867   3.649   8.215  0.2195 -0.4805 -0.6743
 7107SOL     OW32956   0.527   3.270   4.782  0.3054 -0.1739  0.7019
 7107SOL    HW132957   0.435   3.246   4.772  0.3170  0.7650 -1.5810
 7107SOL    HW232958   0.561   3.181   4.786  0.2663 -0.2851 -1.3681
 7108SOL     OW32959   4.551   4.407   2.009  0.6281  0.0850 -0.2139
 7108SOL    HW132960   4.634   4.455   2.008  1.0551 -0.7005 -1.3700
 7108SOL    HW232961   4.541   4.390   1.916 -0.7992 -1.7308  0.2821
 7109SOL     OW32962   3.500   1.871   3.979 -0.0476  0.3185  0.1816
 7109SOL    HW132963   3.588   1.883   4.016  1.3805 -0.0275 -3.1122
 7109SOL    HW232964   3.474   1.961   3.962  0.3404  0.3615 -0.1817
 7110SOL     OW32965   1.086   1.895   1.129 -0.0665 -0.3732 -0.5356
 7110SOL    HW132966   1.086   1.800   1.115  0.1428 -0.3627 -0.6139
 7110SOL    HW232967   0.995   1.919   1.149  0.3675 -1.5487  2.6724
 7111SOL     OW32968   1.247   1.534   2.708  0.0418 -0.0314  0.3398
 7111SOL    HW132969   1.294   1.600   2.657 -0.6680 -0.3743 -0.7348
 7111SOL    HW232970   1.316   1.467   2.713  0.3719  0.4168  1.7503
 7112SOL     OW32971   0.511   1.961   9.884  0.2524 -0.4923  0.5605
 7112SOL    HW132972   0.529   2.046   9.925 -2.1014 -1.3519  3.4041
 7112SOL    HW232973   0.503   1.979   9.791  1.0324  2.7360  1.1241
 7113SOL     OW32974   0.864   0.056   3.181  0.5981 -0.7320 -0.0444
 7113SOL    HW132975   0.784   0.016   3.216  0.7453  1.1639  2.4073
 7113SOL    HW232976   0.927   0.043   3.252  0.9681  3.2284  0.3203
 7114SOL     OW32977   2.153   1.556   3.938 -0.2369  0.1329 -0.5697
 7114SOL    HW132978   2.119   1.518   3.857  0.7597  1.3084 -1.5534
 7114SOL    HW232979   2.205   1.631   3.906  0.6780 -0.4442 -0.4371
 7115SOL     OW32980   4.339   3.979  10.261 -0.4803 -0.7504  0.6057
 7115SOL    HW132981   4.400   3.952  10.330  1.1175  0.0347 -0.5015
 7115SOL    HW232982   4.258   3.986  10.312 -0.7974 -0.5371  0.0747
 7116SOL     OW32983   1.763   3.465   6.266  0.1195 -0.1155  0.3616
 7116SOL    HW132984   1.846   3.484   6.310  0.9958  1.1884 -1.8831
 7116SOL    HW232985   1.764   3.369   6.267 -1.5687 -0.1193  1.0460
 7117SOL     OW32986   2.514   0.974  15.990 -0.2782 -0.1660  0.5982
 7117SOL    HW132987   2.482   1.047  15.937 -0.4310  1.9514  3.5726
 7117SOL    HW232988   2.488   0.898  15.938  1.3066 -0.3802  0.1368
 7118SOL     OW32989   0.425   3.600   4.635  0.2506  0.7881 -0.0627
 7118SOL    HW132990   0.492   3.532   4.632 -0.8072 -0.1521 -2.3595
 7118SOL    HW232991   0.399   3.596   4.543 -0.8880 -0.1930  0.3072
 7119SOL     OW32992   1.727   1.603  13.139  0.2523  0.5182  0.0429
 7119SOL    HW132993   1.772   1.519  13.139 -0.3488  0.1935  1.0138
 7119SOL    HW232994   1.665   1.577  13.070  0.3895  0.0637  0.0926
 7120SOL     OW32995   0.602   1.573  17.471  0.1972 -0.0438  0.3292
 7120SOL    HW132996   0.624   1.660  17.437  0.4348 -0.0342  0.5038
 7120SOL    HW232997   0.617   1.582  17.565  0.4650  0.3056  0.2545
 7121SOL     OW32998   2.540   1.453   7.014 -0.3381  0.4645 -0.0348
 7121SOL    HW132999   2.539   1.472   7.107 -0.4830  1.6768 -0.2919
 7121SOL    HW233000   2.467   1.507   6.985 -0.8762  0.4288  1.2782
 7122SOL     OW33001   0.066   3.442   7.789 -0.0448 -0.1012  0.0277
 7122SOL    HW133002   0.054   3.393   7.871 -2.1003  0.1885 -0.1246
 7122SOL    HW233003   4.716   3.469   7.767 -0.7022  0.7773  3.6634
 7123SOL     OW33004   4.185   2.444  13.552  0.5490 -0.0471  0.8480
 7123SOL    HW133005   4.097   2.410  13.568 -0.0288  1.5995  1.1774
 7123SOL    HW233006   4.200   2.437  13.458  1.2394  3.6037  0.6942
 7124SOL     OW33007   2.873   1.477   4.193 -0.1554  0.0656  0.3559
 7124SOL    HW133008   2.966   1.474   4.216  0.2193  0.4087 -1.0837
 7124SOL    HW233009   2.848   1.386   4.203  1.0043  0.0530  3.0702
 7125SOL     OW33010   1.383   2.222   5.962 -1.0543  0.2217  0.3388
 7125SOL    HW133011   1.423   2.236   6.047 -0.4478 -0.9946  0.2487
 7125SOL    HW233012   1.291   2.207   5.983 -1.3444  4.4192  1.9599
 7126SOL     OW33013   4.243   4.362   8.070  0.1355  0.2821  0.0350
 7126SOL    HW133014   4.294   4.443   8.074 -1.7480  1.6009 -2.3942
 7126SOL    HW233015   4.306   4.296   8.100 -1.2933 -0.6679  0.8778
 7127SOL     OW33016   0.383   0.721   3.281 -0.0217 -0.1047 -0.0307
 7127SOL    HW133017   0.472   0.703   3.252  0.1259 -1.1332  1.0522
 7127SOL    HW233018   0.386   0.807   3.323  0.5721  0.8081 -1.9660
 7128SOL     OW33019   1.982   0.941   5.391  0.8033 -0.4931  0.5195
 7128SOL    HW133020   1.929   1.011   5.430  0.6392  0.8489 -2.0551
 7128SOL    HW233021   2.011   0.904   5.474 -0.3280 -1.1910  0.5899
 7129SOL     OW33022   3.744   0.471   7.968 -0.3458 -0.0941 -0.0138
 7129SOL    HW133023   3.703   0.400   8.016 -0.5297  1.0585  1.5070
 7129SOL    HW233024   3.783   0.417   7.899  1.7000 -0.0180  1.0808
 7130SOL     OW33025   3.483   4.427   4.808 -0.1414 -0.1266 -0.2568
 7130SOL    HW133026   3.512   4.502   4.757  1.9188  0.0981  1.2281
 7130SOL    HW233027   3.505   4.448   4.899 -1.3298 -0.0869  0.0283
 7131SOL     OW33028   1.164   0.932   7.828 -0.0365  0.0727 -0.6260
 7131SOL    HW133029   1.218   0.964   7.756  1.6910  0.0225  0.6252
 7131SOL    HW233030   1.133   1.012   7.872  0.2491  0.6310 -1.4488
 7132SOL     OW33031   3.903   1.923   3.782  0.4235 -0.1416  0.1503
 7132SOL    HW133032   3.983   1.974   3.793  0.0742  0.7196 -1.3175
 7132SOL    HW233033   3.833   1.987   3.781 -0.2583 -0.9072 -0.8312
 7133SOL     OW33034   2.404   1.421   2.593 -0.0759 -0.2264  0.1572
 7133SOL    HW133035   2.383   1.396   2.503  0.6149 -2.6975  0.6788
 7133SOL    HW233036   2.316   1.428   2.631 -0.3325  1.4329 -0.7461
 7134SOL     OW33037   2.632   4.584   7.744  0.4738  0.7601  0.2744
 7134SOL    HW133038   2.717   4.625   7.731  1.8262 -1.6336  1.4190
 7134SOL    HW233039   2.579   4.661   7.727  0.3999  1.0161  1.6619
 7135SOL     OW33040   0.229   2.722   7.116 -0.2246  0.8924 -0.5194
 7135SOL    HW133041   0.186   2.696   7.198 -2.3571  0.4596 -1.7791
 7135SOL    HW233042   0.160   2.727   7.050 -0.7142 -1.8822 -0.2197
 7136SOL     OW33043   2.512   4.132   2.188 -0.0207  0.1565  0.3626
 7136SOL    HW133044   2.441   4.152   2.249  1.2047  2.9936  0.8383
 7136SOL    HW233045   2.478   4.053   2.144  1.3222 -0.7255  0.9185
 7137SOL     OW33046   2.528   4.353  12.741  0.0680  0.4927  0.1796
 7137SOL    HW133047   2.510   4.346  12.648  2.2854 -1.8153 -0.0759
 7137SOL    HW233048   2.612   4.399  12.745  0.2284  0.2092  0.0961
 7138SOL     OW33049   3.539   1.911   0.129 -0.3385  0.8990 -0.2563
 7138SOL    HW133050   3.527   1.899   0.223  1.1076 -3.0245 -0.6080
 7138SOL    HW233051   3.572   1.825   0.103 -0.9747  1.1717 -1.9991
 7139SOL     OW33052   1.303   4.550   9.466  1.4736 -0.4892  0.2370
 7139SOL    HW133053   1.262   4.625   9.510  2.4350  1.4089 -2.1113
 7139SOL    HW233054   1.268   4.562   9.378 -0.5267 -0.4568  1.0279
 7140SOL     OW33055   0.816   0.928   9.599 -0.0194 -0.1179 -0.0456
 7140SOL    HW133056   0.890   0.907   9.543  1.9212 -0.6295  2.7446
 7140SOL    HW233057   0.857   0.965   9.678 -1.0637  3.2492 -1.0808
 7141SOL     OW33058   1.315   1.187  17.576 -0.8782 -0.3048 -0.5767
 7141SOL    HW133059   1.280   1.251  17.514 -0.7410 -0.9361 -1.3115
 7141SOL    HW233060   1.408   1.209  17.579 -1.5015  1.8317  2.2338
 7142SOL     OW33061   0.533   1.787   2.572  0.0764 -0.0578  0.3941
 7142SOL    HW133062   0.610   1.829   2.611  0.1848 -0.5509  0.7104
 7142SOL    HW233063   0.575   1.710   2.534 -0.5125 -0.1885 -0.0026
 7143SOL     OW33064   0.847   3.991   6.472 -0.2084 -0.0108  0.2845
 7143SOL    HW133065   0.939   4.016   6.477 -0.9733  3.2399 -1.8341
 7143SOL    HW233066   0.818   4.064   6.527  2.6390  1.6221 -0.4219
 7144SOL     OW33067   2.032   4.017   6.799 -0.0502  0.5181 -0.4518
 7144SOL    HW133068   1.959   3.984   6.746  2.2870 -2.4436 -1.8063
 7144SOL    HW233069   2.019   3.992   6.890  1.9568  3.3119  0.5905
 7145SOL     OW33070   0.516   4.207  16.507 -0.5317  0.3976  0.5517
 7145SOL    HW133071   0.517   4.172  16.596 -0.8806 -2.0883 -0.4464
 7145SOL    HW233072   0.482   4.134  16.456  2.2100 -0.8826  0.5203
 7146SOL     OW33073   2.149   2.677   5.957 -0.1127 -0.0796  0.7974
 7146SOL    HW133074   2.054   2.686   5.968 -0.1920 -1.5827  1.3173
 7146SOL    HW233075   2.152   2.684   5.862  0.8540  0.2462  0.8551
 7147SOL     OW33076   0.558   2.649  15.155 -0.2187 -0.0457  0.0197
 7147SOL    HW133077   0.563   2.582  15.088 -1.5709  1.6339 -1.7647
 7147SOL    HW233078   0.462   2.651  15.154 -0.1869  0.0479 -1.7247
 7148SOL     OW33079   4.569   1.557   4.274  0.1518 -0.1485 -0.2232
 7148SOL    HW133080   4.482   1.557   4.234 -1.0553 -1.3609  2.4253
 7148SOL    HW233081   4.588   1.471   4.309  3.1243  0.7838  0.4566
 7149SOL     OW33082   2.766   0.881   7.595  0.2600 -0.2159  0.0814
 7149SOL    HW133083   2.839   0.908   7.539 -0.6283 -1.6109 -1.7324
 7149SOL    HW233084   2.711   0.957   7.614 -0.9965 -1.0204 -0.3129
 7150SOL     OW33085   4.584   0.837   7.346  0.3485 -0.0550  0.3444
 7150SOL    HW133086   4.637   0.912   7.372  1.3603 -0.1010 -1.6240
 7150SOL    HW233087   4.623   0.805   7.265 -1.7684 -0.1354 -0.6526
 7151SOL     OW33088   2.770   4.440  12.634 -0.5378  0.7901 -0.5024
 7151SOL    HW133089   2.789   4.408  12.545  1.2541  0.0822  0.1511
 7151SOL    HW233090   2.806   4.368  12.684 -3.4010 -1.2397 -1.3638
 7152SOL     OW33091   4.353   3.880   6.494 -0.3829  0.0866 -0.1726
 7152SOL    HW133092   4.299   3.926   6.430 -3.5735 -2.1405  0.9428
 7152SOL    HW233093   4.292   3.882   6.568 -0.2396  0.9126 -0.0827
 7153SOL     OW33094   4.269   1.565   8.604  0.1571  0.4216  0.4021
 7153SOL    HW133095   4.230   1.557   8.691  2.4982 -2.6593  1.1624
 7153SOL    HW233096   4.266   1.474   8.575  2.0853  0.7857 -0.9554
 7154SOL     OW33097   1.404   3.616  16.826  0.0862 -0.3918  0.5337
 7154SOL    HW133098   1.406   3.706  16.795  0.8567 -0.5219  0.2228
 7154SOL    HW233099   1.406   3.631  16.921 -0.2461 -1.7530  0.7616
 7155SOL     OW33100   1.809   0.560   9.331  0.1529  0.4902 -0.4059
 7155SOL    HW133101   1.773   0.504   9.400  2.6760  1.0500  1.3983
 7155SOL    HW233102   1.883   0.502   9.314  0.4328  0.0273  2.2762
 7156SOL     OW33103   3.018   1.374  10.440 -0.3245  0.0140 -0.7963
 7156SOL    HW133104   2.991   1.303  10.499 -2.0868  1.3476  0.0197
 7156SOL    HW233105   3.056   1.326  10.367  1.4437 -1.2698  0.9428
 7157SOL     OW33106   2.489   3.186   9.015  0.3659 -0.2644  0.5370
 7157SOL    HW133107   2.555   3.117   9.005 -0.1926 -1.0332  2.2373
 7157SOL    HW233108   2.450   3.187   8.927  2.9369 -0.7641 -0.6017
 7158SOL     OW33109   1.056   1.089   4.458  0.0217  0.1890  0.3411
 7158SOL    HW133110   1.053   1.012   4.400  3.4191  0.0592  0.3267
 7158SOL    HW233111   0.969   1.124   4.439 -0.0442  0.6679  1.5280
 7159SOL     OW33112   0.265   4.187   9.614 -0.2345  0.3204 -0.2271
 7159SOL    HW133113   0.228   4.154   9.696  3.1185 -1.2343  0.6612
 7159SOL    HW233114   0.189   4.237   9.583 -0.9296 -1.3398 -1.2355
 7160SOL     OW33115   4.081   3.954   7.760  0.3084 -0.8039 -0.4077
 7160SOL    HW133116   4.090   4.049   7.755 -0.2000 -0.7260  0.1135
 7160SOL    HW233117   4.056   3.940   7.852  1.4648 -3.0333 -0.4349
 7161SOL     OW33118   0.300   4.384   7.442 -0.4027  0.2067 -0.1044
 7161SOL    HW133119   0.368   4.416   7.384 -0.2502 -0.8128 -0.4868
 7161SOL    HW233120   0.350   4.363   7.522 -0.4979 -2.0002 -0.6192
 7162SOL     OW33121   4.568   3.767   4.790 -0.0688 -0.6087 -0.0618
 7162SOL    HW133122   4.503   3.770   4.719 -1.4162  0.8338  1.2048
 7162SOL    HW233123   4.571   3.673   4.807 -0.4891 -0.5905  0.1123
 7163SOL     OW33124   0.738   1.223   5.879 -0.0241  0.1194  0.1011
 7163SOL    HW133125   0.689   1.162   5.823  1.2466 -0.3903 -0.4539
 7163SOL    HW233126   0.772   1.168   5.950  1.5034 -0.0999 -0.8100
 7164SOL     OW33127   0.457   4.049   4.996  0.1049  0.6248 -0.0356
 7164SOL    HW133128   0.390   4.066   5.062  0.3106  1.1430  0.0413
 7164SOL    HW233129   0.417   3.970   4.961 -2.0974  2.4232 -1.5377
 7165SOL     OW33130   2.851   1.828   5.119  0.2170  0.1869 -0.1991
 7165SOL    HW133131   2.894   1.824   5.033  0.3785  1.2571 -0.1670
 7165SOL    HW233132   2.927   1.817   5.176 -0.3757  0.4354  0.6402
 7166SOL     OW33133   3.685   2.996   6.878  0.3969  0.5933 -0.1873
 7166SOL    HW133134   3.673   2.916   6.826  0.1354 -0.0279  0.8256
 7166SOL    HW233135   3.620   2.978   6.946 -0.2013  1.2854 -0.5688
 7167SOL     OW33136   0.474   0.716   3.610 -0.3129  0.1890  0.1485
 7167SOL    HW133137   0.383   0.695   3.632  0.3004 -3.5008 -0.8810
 7167SOL    HW233138   0.471   0.807   3.580  1.0132 -0.5215 -2.1371
 7168SOL     OW33139   2.178   3.890   2.639 -0.0182  0.0772 -0.1314
 7168SOL    HW133140   2.272   3.879   2.649 -0.6854 -2.1737  3.5731
 7168SOL    HW233141   2.159   3.831   2.565  3.1578  0.5997 -1.3562
 7169SOL     OW33142   2.780   2.667   1.172 -0.3596 -0.2292 -0.0310
 7169SOL    HW133143   2.711   2.722   1.135  1.0805  0.6333 -1.4353
 7169SOL    HW233144   2.840   2.685   1.099 -1.7147  1.2245 -0.7774
 7170SOL     OW33145   0.810   4.271  16.760 -0.3347 -0.6655  0.5327
 7170SOL    HW133146   0.863   4.193  16.739  1.7160  0.8340  0.0823
 7170SOL    HW233147   0.830   4.278  16.853  0.7198  0.4968  0.2093
 7171SOL     OW33148   3.937   1.622   6.064  0.7047  0.5066  0.1340
 7171SOL    HW133149   4.000   1.575   6.010  1.5346 -0.8876  2.3480
 7171SOL    HW233150   3.887   1.667   5.996 -0.4459 -1.1828 -0.1177
 7172SOL     OW33151   1.387   3.624   5.964 -0.0402  0.0770 -0.1196
 7172SOL    HW133152   1.371   3.583   6.049  0.7388 -0.8635 -0.4307
 7172SOL    HW233153   1.342   3.559   5.911  0.7308 -0.4673 -0.0997
 7173SOL     OW33154   3.959   0.515   7.347  0.3374  0.0595  0.2648
 7173SOL    HW133155   3.935   0.569   7.272  2.2915  1.0119  0.3044
 7173SOL    HW233156   3.999   0.443   7.298 -0.1426 -0.4573  0.6367
 7174SOL     OW33157   4.723   3.871  10.572 -0.0139  0.1151  0.0303
 7174SOL    HW133158   0.026   3.817  10.505  2.0504  0.7639  0.7947
 7174SOL    HW233159   4.694   3.805  10.635  1.3318  0.8279  1.3884
 7175SOL     OW33160   4.248   0.254   1.876 -0.1336  0.4594 -0.5390
 7175SOL    HW133161   4.192   0.242   1.953 -1.0149 -1.7259 -1.5262
 7175SOL    HW233162   4.321   0.197   1.900 -0.2270 -0.6245 -2.7849
 7176SOL     OW33163   2.360   4.589   3.421  0.4305 -0.1777  0.4248
 7176SOL    HW133164   2.411   4.620   3.346  0.9751 -2.1520 -0.0064
 7176SOL    HW233165   2.328   4.506   3.386 -0.2525  0.0774  0.4297
 7177SOL     OW33166   3.172   4.533  15.129 -0.2638  0.5138  0.1554
 7177SOL    HW133167   3.204   4.493  15.210  0.6762 -0.6146 -0.7741
 7177SOL    HW233168   3.189   4.626  15.144 -0.4968  0.5534  0.1664
 7178SOL     OW33169   0.766   4.026   4.256  0.6464  0.4786  0.3131
 7178SOL    HW133170   0.780   4.091   4.325 -2.7725  0.3843  1.0953
 7178SOL    HW233171   0.673   4.042   4.243  0.4601 -1.8359 -1.1070
 7179SOL     OW33172   1.899   2.725   5.895  0.3846 -0.0845  0.5494
 7179SOL    HW133173   1.863   2.650   5.848  1.8198  0.0986 -0.8693
 7179SOL    HW233174   1.841   2.795   5.867 -0.9767 -1.4709 -0.1025
 7180SOL     OW33175   0.577   0.271   3.586 -0.3264  0.1813 -0.2477
 7180SOL    HW133176   0.597   0.350   3.536  0.8834 -0.4431 -0.7421
 7180SOL    HW233177   0.542   0.329   3.654 -3.2283  0.0957 -1.6926
 7181SOL     OW33178   2.942   2.890   0.826  0.1005  0.2970 -0.2156
 7181SOL    HW133179   2.922   2.959   0.889  1.2628 -0.1643  0.6578
 7181SOL    HW233180   2.983   2.830   0.888 -0.1826  0.4609  0.1304
 7182SOL     OW33181   2.788   1.573   3.073  0.7275 -0.0429  0.1061
 7182SOL    HW133182   2.774   1.635   3.002  0.3847 -1.1166 -0.7521
 7182SOL    HW233183   2.884   1.581   3.076  0.8055 -1.1344  0.5379
 7183SOL     OW33184   0.165   4.457  13.246  0.5463 -0.1675 -0.2741
 7183SOL    HW133185   0.101   4.495  13.186  1.6267  1.5916 -0.3367
 7183SOL    HW233186   0.231   4.519  13.215  0.0204  0.6116  0.1736
 7184SOL     OW33187   1.160   1.852  14.370  0.5983 -0.0678 -0.2542
 7184SOL    HW133188   1.236   1.886  14.416 -1.4337  1.2806  2.1161
 7184SOL    HW233189   1.184   1.767  14.333 -2.2153 -1.2945  0.7737
 7185SOL     OW33190   2.792   3.953   7.901 -0.2593  0.1600  0.0612
 7185SOL    HW133191   2.847   3.940   7.978  1.4948  0.6078 -1.1095
 7185SOL    HW233192   2.706   3.922   7.928  0.2229 -1.6817 -0.5312
 7186SOL     OW33193   0.477   3.920  13.692 -0.1790  0.8112 -0.2262
 7186SOL    HW133194   0.445   3.962  13.772 -0.0473  2.7466 -1.1729
 7186SOL    HW233195   0.403   3.864  13.668 -0.0984  0.9278 -0.7589
 7187SOL     OW33196   1.660   3.842   4.330  0.5259  0.0279 -0.1295
 7187SOL    HW133197   1.662   3.747   4.346 -0.1265 -0.0963 -0.7719
 7187SOL    HW233198   1.570   3.855   4.299  1.2930 -0.5339 -2.5504
 7188SOL     OW33199   4.332   3.645   3.505 -0.0478 -0.8868  0.0735
 7188SOL    HW133200   4.311   3.727   3.461 -0.2704 -0.9657  0.0315
 7188SOL    HW233201   4.245   3.608   3.523  0.8373 -2.1134  1.8738
 7189SOL     OW33202   3.570   3.096   8.376  0.2769  0.3981 -0.1850
 7189SOL    HW133203   3.546   3.180   8.337 -1.0227  0.9167  1.7616
 7189SOL    HW233204   3.617   3.048   8.308  0.4384  0.1056  0.1326
 7190SOL     OW33205   3.725   4.024   4.302  0.5124  0.2641 -0.2656
 7190SOL    HW133206   3.725   4.085   4.376 -0.3577  0.4030 -0.3740
 7190SOL    HW233207   3.801   4.063   4.258  1.4679 -1.7513 -0.3944
 7191SOL     OW33208   1.703   3.631   8.554  0.1475 -0.6299  0.4412
 7191SOL    HW133209   1.619   3.674   8.572 -0.3044 -0.5895 -1.7435
 7191SOL    HW233210   1.719   3.657   8.463  1.1082 -0.8710  0.5471
 7192SOL     OW33211   1.076   3.830   4.513  0.1164 -0.2968 -0.0172
 7192SOL    HW133212   1.032   3.815   4.429  1.3845  0.7357 -0.8771
 7192SOL    HW233213   1.027   3.900   4.556  0.8605  0.6358 -0.6834
 7193SOL     OW33214   0.402   1.691  13.757 -0.1039  0.2687  0.8614
 7193SOL    HW133215   0.362   1.730  13.679  2.3110 -0.5481 -0.7862
 7193SOL    HW233216   0.490   1.706  13.722 -0.6033  0.5341 -0.2774
 7194SOL     OW33217   3.456   1.266   4.457  0.0582 -0.3706 -0.1233
 7194SOL    HW133218   3.515   1.311   4.396  2.5170 -1.9577  1.0506
 7194SOL    HW233219   3.452   1.175   4.429 -0.6803 -0.3765  0.0099
 7195SOL     OW33220   3.090   4.641   2.448 -0.1972 -0.3777  0.0429
 7195SOL    HW133221   3.066   4.552   2.473  0.5812 -0.7883 -0.6915
 7195SOL    HW233222   3.185   4.634   2.442 -0.1244  1.0168 -0.5664
 7196SOL     OW33223   4.559   4.372   5.127  0.5572  0.2675  0.1566
 7196SOL    HW133224   4.635   4.319   5.105  0.1139  0.4547 -1.8473
 7196SOL    HW233225   4.494   4.302   5.124 -0.5326  1.2828 -0.1139
 7197SOL     OW33226   2.987   3.076   5.540 -0.3356 -0.6295 -0.3629
 7197SOL    HW133227   3.007   3.160   5.497 -3.1147  0.9421  1.4024
 7197SOL    HW233228   3.026   3.102   5.624  0.9286 -1.2197 -0.7795
 7198SOL     OW33229   2.026   4.100   4.365  0.1496  0.0427  0.2026
 7198SOL    HW133230   1.942   4.083   4.407 -0.1295  0.3364 -0.2400
 7198SOL    HW233231   2.085   4.127   4.436  3.1700  0.2995 -2.3802
 7199SOL     OW33232   4.327   0.077   1.409 -0.2264 -0.1102 -0.2745
 7199SOL    HW133233   4.329   0.119   1.323 -1.5594  1.8360  0.6223
 7199SOL    HW233234   4.309   0.154   1.464  2.7203  0.8505 -0.6872
 7200SOL     OW33235   1.789   3.465   4.785  0.1020 -0.0773  0.3707
 7200SOL    HW133236   1.797   3.412   4.865 -0.5607  0.2147  0.6316
 7200SOL    HW233237   1.740   3.405   4.728  0.6201 -1.7283  1.6410
 7201SOL     OW33238   3.055   4.327   3.538  0.5535 -0.0625  0.2165
 7201SOL    HW133239   3.071   4.280   3.456  1.8771  1.1048 -0.1967
 7201SOL    HW233240   3.014   4.412   3.522  3.4848  1.5667  1.3203
 7202SOL     OW33241   4.032   1.143   5.408  0.7735  0.0375 -0.0289
 7202SOL    HW133242   4.012   1.050   5.396 -2.1640  0.8111 -1.1411
 7202SOL    HW233243   4.081   1.133   5.489  2.2990  2.3241 -0.6743
 7203SOL     OW33244   2.461   3.163   1.095  0.3374 -0.5218 -0.3266
 7203SOL    HW133245   2.393   3.197   1.037  0.2458 -0.7702 -0.3655
 7203SOL    HW233246   2.420   3.082   1.124 -1.3470  0.2124 -0.6410
 7204SOL     OW33247   3.849   0.454  15.527  0.3919  0.0206 -0.2405
 7204SOL    HW133248   3.912   0.401  15.576  0.2847  0.8178  0.7611
 7204SOL    HW233249   3.898   0.501  15.460  0.9286 -1.1629 -0.6818
 7205SOL     OW33250   0.982   0.142   3.809  0.6215 -0.3078  0.1189
 7205SOL    HW133251   1.035   0.069   3.842 -1.1652 -1.7167 -0.1522
 7205SOL    HW233252   0.901   0.097   3.790 -0.3632  0.5713  2.1672
 7206SOL     OW33253   2.030   1.510   6.510  0.3363  0.1369 -0.1705
 7206SOL    HW133254   2.092   1.565   6.461  0.0360 -0.7977 -1.5899
 7206SOL    HW233255   2.091   1.468   6.571  0.6886 -3.3313 -2.9133
 7207SOL     OW33256   1.912   0.154  15.261 -0.1808 -0.1131  0.0328
 7207SOL    HW133257   1.895   0.077  15.315 -2.4029 -0.6697 -1.4383
 7207SOL    HW233258   1.870   0.128  15.179 -2.3249 -0.9952  1.3964
 7208SOL     OW33259   0.009   4.707   5.744  0.2499  0.0641  0.2122
 7208SOL    HW133260   4.665   4.735   5.703 -0.0998  0.0282  0.8964
 7208SOL    HW233261   0.002   4.732   5.836 -0.9147 -1.3791  0.5219
 7209SOL     OW33262   1.743   2.547   5.536  0.4741  0.7300 -0.3790
 7209SOL    HW133263   1.753   2.513   5.625 -2.0381  1.5855  0.2402
 7209SOL    HW233264   1.791   2.629   5.535  1.0799  0.3677 -2.1517
 7210SOL     OW33265   0.706   4.026   1.698  0.0025 -0.8076 -0.1688
 7210SOL    HW133266   0.662   4.111   1.695 -1.5653 -1.6215 -0.5046
 7210SOL    HW233267   0.642   3.968   1.657  0.8806 -1.5467 -0.4810
 7211SOL     OW33268   3.796   4.363   1.814 -0.2400 -0.1052 -0.0151
 7211SOL    HW133269   3.809   4.396   1.903 -0.0211 -0.5178  0.1034
 7211SOL    HW233270   3.867   4.395   1.759 -0.9096 -2.4059 -2.1788
 7212SOL     OW33271   4.368   0.504   6.007  0.2826 -0.4566  0.6180
 7212SOL    HW133272   4.379   0.415   6.042  1.5085 -0.7209 -0.4508
 7212SOL    HW233273   4.278   0.509   5.974 -0.7529  0.7129  3.6309
 7213SOL     OW33274   2.786   2.422   6.988  0.5283 -0.4907  0.4449
 7213SOL    HW133275   2.768   2.513   6.964 -0.5428 -0.0867  2.7781
 7213SOL    HW233276   2.702   2.382   6.967 -0.0545 -0.8808  3.4747
 7214SOL     OW33277   1.544   4.021   2.125 -0.0634  0.1705 -0.1717
 7214SOL    HW133278   1.453   4.044   2.142 -0.4764  0.4548 -2.6887
 7214SOL    HW233279   1.572   4.077   2.052  1.1936 -0.2696 -0.0141
 7215SOL     OW33280   0.894   2.834  13.176  0.3097 -0.4658 -0.0572
 7215SOL    HW133281   0.901   2.926  13.202 -0.8285 -0.2857 -0.3765
 7215SOL    HW233282   0.958   2.825  13.105  0.6831 -0.7869  0.3210
 7216SOL     OW33283   2.995   2.274   7.008 -0.0055 -0.1653 -0.2673
 7216SOL    HW133284   2.911   2.320   7.009  0.7499  1.1710  0.7082
 7216SOL    HW233285   3.048   2.344   6.970  0.8957 -0.5790  0.2230
 7217SOL     OW33286   3.460   2.832   5.292  0.0347  0.2074 -0.0831
 7217SOL    HW133287   3.539   2.794   5.330  0.5198 -0.2644 -1.5473
 7217SOL    HW233288   3.461   2.791   5.205  3.7662 -0.2126  0.1928
 7218SOL     OW33289   0.223   2.190   0.917  0.3657 -0.3248  0.4954
 7218SOL    HW133290   0.196   2.232   0.999  2.5904  2.0378 -0.0086
 7218SOL    HW233291   0.147   2.131   0.907 -0.3953  0.7042  0.2539
 7219SOL     OW33292   4.575   0.284   3.970  0.1973 -0.6514  0.0518
 7219SOL    HW133293   4.480   0.271   3.963  0.1020 -0.5080  1.0327
 7219SOL    HW233294   4.577   0.376   3.999  1.6900 -0.9108  0.7709
 7220SOL     OW33295   3.903   0.379   8.206  0.1149  0.3314  0.2929
 7220SOL    HW133296   3.939   0.326   8.134 -1.8797  2.3881 -2.2030
 7220SOL    HW233297   3.809   0.361   8.211 -0.2558  1.7548 -1.6069
 7221SOL     OW33298   1.707   2.576  14.340  0.3074  0.5874 -0.4101
 7221SOL    HW133299   1.696   2.508  14.274 -3.3743  1.4093 -0.5998
 7221SOL    HW233300   1.689   2.655  14.289  1.6213  1.2917  0.2006
 7222SOL     OW33301   3.424   2.678   5.077 -0.0255  0.0783 -0.2068
 7222SOL    HW133302   3.498   2.617   5.070  0.6744  0.6704  2.1544
 7222SOL    HW233303   3.347   2.637   5.038 -0.3778 -0.8073  1.4359
 7223SOL     OW33304   3.764   2.937  10.885 -0.0719 -0.0814  0.5258
 7223SOL    HW133305   3.815   2.963  10.809  0.8328  1.8815  1.8176
 7223SOL    HW233306   3.754   2.842  10.873 -0.2549  0.0096 -0.0083
 7224SOL     OW33307   2.895   0.230   4.014 -0.4057 -0.1521  0.7442
 7224SOL    HW133308   2.962   0.212   4.079 -2.3961 -1.3249  2.4779
 7224SOL    HW233309   2.843   0.150   4.015 -2.4984  1.1551 -1.4810
 7225SOL     OW33310   0.468   3.487   0.113  0.3205  0.3627 -0.4815
 7225SOL    HW133311   0.427   3.542   0.047  0.9331  0.1345 -1.0462
 7225SOL    HW233312   0.510   3.413   0.068 -0.6795 -0.9843  0.7794
 7226SOL     OW33313   3.419   3.545   6.970  0.5632 -0.0722 -0.1934
 7226SOL    HW133314   3.388   3.571   7.057 -0.3140  1.0367 -0.8527
 7226SOL    HW233315   3.353   3.480   6.944  1.5530 -1.0769 -0.2298
 7227SOL     OW33316   1.474   4.274   8.065  0.3462  0.3431  0.3799
 7227SOL    HW133317   1.495   4.224   8.144  1.4452 -0.5712 -0.5149
 7227SOL    HW233318   1.478   4.362   8.105 -1.7341 -0.2869  2.0100
 7228SOL     OW33319   2.284   3.837   8.231 -0.0465  0.2137 -0.2550
 7228SOL    HW133320   2.320   3.852   8.319  0.0568  2.4602 -0.6690
 7228SOL    HW233321   2.326   3.908   8.183 -2.3491  0.1198 -2.3768
 7229SOL     OW33322   2.120   0.368   3.884  0.5190 -0.0542  0.2835
 7229SOL    HW133323   2.063   0.296   3.858 -1.0759  1.6847 -1.0614
 7229SOL    HW233324   2.121   0.413   3.799  1.3967 -0.1094  0.2615
 7230SOL     OW33325   3.802   2.507   8.886  0.2674 -0.3989 -0.3897
 7230SOL    HW133326   3.886   2.479   8.848  0.7338  0.2883  0.1300
 7230SOL    HW233327   3.817   2.457   8.966  1.0069  1.4248  0.6095
 7231SOL     OW33328   3.846   0.808  13.834  0.5531 -0.7426 -0.2589
 7231SOL    HW133329   3.904   0.794  13.759 -1.5141  0.5057 -2.0818
 7231SOL    HW233330   3.863   0.731  13.888 -0.0980 -1.2645 -0.8004
 7232SOL     OW33331   3.151   1.980   9.156 -1.1256  0.5330 -0.1864
 7232SOL    HW133332   3.111   1.894   9.168  0.3854 -0.1909 -0.4903
 7232SOL    HW233333   3.107   2.025   9.228 -1.1887  0.1242  0.0301
 7233SOL     OW33334   1.656   0.602   7.130  0.1660 -0.2616  0.1888
 7233SOL    HW133335   1.649   0.532   7.065 -0.7467  1.7891 -1.9426
 7233SOL    HW233336   1.743   0.579   7.161  0.4204 -0.2900 -0.5457
 7234SOL     OW33337   3.478   3.512   6.262 -0.0369 -0.5959 -0.1066
 7234SOL    HW133338   3.515   3.425   6.247  1.9195  0.6182 -2.4583
 7234SOL    HW233339   3.408   3.495   6.325 -1.7960  1.0535 -1.6123
 7235SOL     OW33340   0.102   1.734   1.440 -0.3173  0.2762 -0.4170
 7235SOL    HW133341   0.039   1.742   1.512 -0.3998  0.8381 -0.5442
 7235SOL    HW233342   0.184   1.745   1.488 -0.3506  0.0435 -0.3101
 7236SOL     OW33343   3.756   0.961  11.027  0.4733  0.5493  0.0430
 7236SOL    HW133344   3.678   0.937  10.976  0.7452 -0.2055 -0.0159
 7236SOL    HW233345   3.806   0.994  10.953 -0.8950  0.3860 -0.9458
 7237SOL     OW33346   2.358   1.381   5.828  0.4799  0.0161 -1.0383
 7237SOL    HW133347   2.265   1.373   5.804 -0.0361 -0.4639  1.1023
 7237SOL    HW233348   2.386   1.301   5.873 -0.4261 -0.5186 -1.4247
 7238SOL     OW33349   4.289   3.030   2.242  0.5940 -0.5998  0.0242
 7238SOL    HW133350   4.325   3.056   2.327  0.0538 -1.0900  0.4060
 7238SOL    HW233351   4.226   3.101   2.230 -0.0044 -0.7345  2.3335
 7239SOL     OW33352   1.816   4.381   1.594 -0.2688 -0.1945 -0.7123
 7239SOL    HW133353   1.776   4.468   1.585 -0.4321  0.0488  2.2412
 7239SOL    HW233354   1.857   4.363   1.509  1.9756  2.6011 -0.2248
 7240SOL     OW33355   4.328   3.754   2.598 -0.0329 -0.8825  0.7285
 7240SOL    HW133356   4.312   3.800   2.680  1.7172 -0.2807  0.7120
 7240SOL    HW233357   4.245   3.706   2.593 -1.0995  1.0802 -0.5636
 7241SOL     OW33358   0.478   4.319   4.911 -0.1807 -0.4217 -0.0267
 7241SOL    HW133359   0.569   4.305   4.937  0.0417 -1.6676 -1.4918
 7241SOL    HW233360   0.439   4.234   4.929 -1.3866  0.2383  0.4641
 7242SOL     OW33361   0.468   3.652  17.599  0.3880 -0.0690  0.4408
 7242SOL    HW133362   0.408   3.668  17.526  1.5374  0.2418 -0.4345
 7242SOL    HW233363   0.483   3.741  17.630 -0.0637 -0.2310  1.1158
 7243SOL     OW33364   2.394   2.836   8.804 -0.5594 -0.2094 -0.5726
 7243SOL    HW133365   2.436   2.877   8.728  0.6451  0.4362  0.4319
 7243SOL    HW233366   2.312   2.808   8.764 -0.7530 -0.7091  0.1923
 7244SOL     OW33367   3.674   2.784  11.801  0.1654  0.0334  0.7254
 7244SOL    HW133368   3.702   2.732  11.725 -2.3721 -1.5536  0.8837
 7244SOL    HW233369   3.632   2.715  11.852  2.6283 -1.9646  0.0836
 7245SOL     OW33370   0.455   4.486   8.739 -0.4855  0.0529  0.3761
 7245SOL    HW133371   0.407   4.567   8.759  0.4481  1.1322 -1.8014
 7245SOL    HW233372   0.543   4.495   8.777 -1.2223 -0.8141  2.2921
 7246SOL     OW33373   1.156   0.565   2.899 -0.3187 -0.4446 -0.3581
 7246SOL    HW133374   1.159   0.498   2.830  2.2126 -1.2136  0.5084
 7246SOL    HW233375   1.182   0.524   2.981  1.1180 -0.5499 -0.8652
 7247SOL     OW33376   1.440   4.468   1.922 -0.8421 -0.1036  0.0880
 7247SOL    HW133377   1.347   4.448   1.925 -1.1255  0.8335 -2.0940
 7247SOL    HW233378   1.432   4.557   1.887 -1.6037  0.0548  0.6777
 7248SOL     OW33379   1.128   4.135   5.461  0.4816  0.0132 -0.2755
 7248SOL    HW133380   1.213   4.103   5.431  1.0258  1.0822  0.1434
 7248SOL    HW233381   1.155   4.217   5.501  0.0840  0.9313 -1.8723
 7249SOL     OW33382   2.208   0.647   8.706 -0.0267 -0.1864  0.4538
 7249SOL    HW133383   2.202   0.727   8.654 -1.6403 -0.6061 -0.0003
 7249SOL    HW233384   2.143   0.672   8.772 -0.5976 -0.5930  0.0467
 7250SOL     OW33385   4.124   3.924  17.030 -0.0989  0.0836 -0.2686
 7250SOL    HW133386   4.209   3.892  17.001  0.9745  0.2573  2.7385
 7250SOL    HW233387   4.120   3.873  17.111  0.6588 -2.0354 -1.5481
 7251SOL     OW33388   4.616   0.823   6.327  0.2308  0.4207  0.4186
 7251SOL    HW133389   4.604   0.741   6.376 -1.3114  0.2009 -0.3092
 7251SOL    HW233390   4.533   0.811   6.279  0.3840 -1.4129  0.5989
 7252SOL     OW33391   0.390   0.819   4.792  0.1363 -0.1170  0.1498
 7252SOL    HW133392   0.455   0.804   4.862  3.2523 -0.4561 -2.8027
 7252SOL    HW233393   0.310   0.775   4.819 -0.3293  0.9855  0.5644
 7253SOL     OW33394   0.983   3.985   8.914 -0.2172  0.6914  0.3996
 7253SOL    HW133395   0.986   3.911   8.975  2.3155  0.5908  0.1826
 7253SOL    HW233396   0.894   4.019   8.921 -0.2416  0.9680 -1.4145
 7254SOL     OW33397   0.319   4.516  15.073 -0.5513  0.4266 -0.3115
 7254SOL    HW133398   0.325   4.587  15.137 -2.5069 -0.8749  1.3210
 7254SOL    HW233399   0.407   4.478  15.070 -0.5440  0.3450  0.7280
 7255SOL     OW33400   3.891   4.683   1.858 -0.4194 -0.0657 -0.4936
 7255SOL    HW133401   3.827   4.651   1.922 -0.3887  2.2635  0.6974
 7255SOL    HW233402   3.937   0.019   1.897 -1.1568  1.2475 -2.0916
 7256SOL     OW33403   0.722   3.431  14.686 -0.4787 -0.3323 -0.0751
 7256SOL    HW133404   0.816   3.438  14.702 -0.4252 -1.0806 -0.0337
 7256SOL    HW233405   0.727   3.398  14.596 -1.3212  1.7360 -0.8689
 7257SOL     OW33406   1.380   3.792   5.299 -0.8699 -0.0588 -0.4435
 7257SOL    HW133407   1.366   3.715   5.245 -0.8687  0.9612 -1.8883
 7257SOL    HW233408   1.317   3.854   5.263 -0.8667 -0.6902 -1.5262
 7258SOL     OW33409   1.589   2.202   8.524  0.5214 -0.1646  0.5361
 7258SOL    HW133410   1.618   2.111   8.532  2.4938  0.4534  0.3828
 7258SOL    HW233411   1.509   2.181   8.475  0.3549 -1.1694  1.2420
 7259SOL     OW33412   0.088   1.329  12.570 -0.2619 -0.1232  0.0113
 7259SOL    HW133413   0.171   1.374  12.558 -0.8073  0.8401 -0.1520
 7259SOL    HW233414   0.037   1.387  12.627 -1.5966 -0.7025 -0.5717
 7260SOL     OW33415   0.824   3.234   9.280 -0.0848  0.3690 -0.0513
 7260SOL    HW133416   0.739   3.271   9.259  0.3521  1.3163 -0.1960
 7260SOL    HW233417   0.817   3.250   9.374 -0.5556 -2.2610  0.3300
 7261SOL     OW33418   1.727   0.743   1.287 -0.1690  0.0770 -0.0708
 7261SOL    HW133419   1.706   0.739   1.194  1.2662 -0.1772 -0.3970
 7261SOL    HW233420   1.719   0.649   1.300 -1.4583  0.2704  0.5594
 7262SOL     OW33421   0.605   2.592   5.382 -0.0616 -0.4411 -0.3699
 7262SOL    HW133422   0.592   2.515   5.438  1.1957  0.2652  0.8931
 7262SOL    HW233423   0.648   2.553   5.306  0.1283 -2.2850  0.6740
 7263SOL     OW33424   1.723   1.126   2.373  0.0640  0.0626  0.1563
 7263SOL    HW133425   1.801   1.163   2.416  1.6537 -0.8858 -1.9397
 7263SOL    HW233426   1.763   1.044   2.344  3.3589  1.5980  0.3935
 7264SOL     OW33427   1.236   1.358   1.725 -0.7198 -0.4201  0.6752
 7264SOL    HW133428   1.211   1.273   1.762  0.7203  0.3790  3.4291
 7264SOL    HW233429   1.189   1.420   1.781 -1.3266  0.0785 -0.3813
 7265SOL     OW33430   0.645   1.063   6.929 -0.1599 -0.1878  0.0494
 7265SOL    HW133431   0.665   1.033   7.017 -0.1562  0.7821  0.3731
 7265SOL    HW233432   0.734   1.078   6.897 -0.8476 -1.9486 -2.7464
 7266SOL     OW33433   0.823   4.377  14.938  0.1852 -0.2494 -0.5431
 7266SOL    HW133434   0.835   4.365  14.844 -0.1678  0.3184 -0.6615
 7266SOL    HW233435   0.905   4.420  14.962  0.9355 -0.2557 -3.0875
 7267SOL     OW33436   1.038   1.853  13.832  0.3041 -0.1090 -0.1401
 7267SOL    HW133437   0.957   1.802  13.833 -1.2282  2.3167  0.6874
 7267SOL    HW233438   1.050   1.858  13.927  3.3808  0.7444 -0.5567
 7268SOL     OW33439   3.933   4.589  17.657  0.5568 -0.5602 -0.3353
 7268SOL    HW133440   3.869   4.526  17.690  0.9126 -0.9866 -0.4500
 7268SOL    HW233441   3.972   4.536  17.588 -0.1503 -1.2029 -0.2343
 7269SOL     OW33442   0.571   2.400   3.087  0.4608 -0.0938  0.4567
 7269SOL    HW133443   0.569   2.334   3.019  1.6600  1.7456 -1.3732
 7269SOL    HW233444   0.612   2.466   3.031 -0.3551  0.6608  0.7307
 7270SOL     OW33445   0.351   2.387   8.827 -0.0616 -0.0204 -0.4803
 7270SOL    HW133446   0.271   2.398   8.775 -0.8665 -1.6211  0.4172
 7270SOL    HW233447   0.407   2.460   8.801 -2.8691  1.5218 -2.2712
 7271SOL     OW33448   0.170   4.024   3.481  0.4621 -0.0170  0.2718
 7271SOL    HW133449   0.181   4.119   3.485  0.7351  0.0121 -1.4649
 7271SOL    HW233450   0.091   4.006   3.533  1.0455 -1.0214  0.7995
 7272SOL     OW33451   2.898   4.517   2.990 -0.4133 -0.5276 -0.3919
 7272SOL    HW133452   2.903   4.612   2.985 -1.5376 -0.5827 -2.7001
 7272SOL    HW233453   2.922   4.493   2.900 -0.5567  0.1183 -0.6012
 7273SOL     OW33454   1.300   0.600   3.578 -0.2594  0.5567  0.0600
 7273SOL    HW133455   1.354   0.549   3.518  3.5617  1.2642  2.9028
 7273SOL    HW233456   1.302   0.685   3.536 -1.2556  0.0367 -1.0462
 7274SOL     OW33457   4.674   1.829   4.723  0.0774 -0.6155  0.0808
 7274SOL    HW133458   4.618   1.783   4.660  0.0494  0.0796 -0.4098
 7274SOL    HW233459   4.638   1.788   4.802  0.7967  1.1161  1.3184
 7275SOL     OW33460   1.701   1.660   4.931  0.5281  0.1499  0.2576
 7275SOL    HW133461   1.662   1.589   4.982 -2.4952 -1.0728 -3.7221
 7275SOL    HW233462   1.772   1.692   4.987  0.0926 -0.2613  1.0384
 7276SOL     OW33463   3.348   1.045  17.699 -0.3630  0.3579  0.4168
 7276SOL    HW133464   3.281   0.989  17.660  0.2187 -0.2707  0.3172
 7276SOL    HW233465   3.414   1.058  17.631 -2.4227 -1.5067 -1.9235
 7277SOL     OW33466   4.089   2.650   6.659  0.4107 -0.0560  0.7376
 7277SOL    HW133467   4.057   2.564   6.636 -1.2512  0.4028  1.3707
 7277SOL    HW233468   4.181   2.622   6.660 -0.0861 -1.6985 -0.4551
 7278SOL     OW33469   3.252   4.429   5.282  0.0019  0.3908  0.3827
 7278SOL    HW133470   3.291   4.352   5.242 -1.8194 -0.5270  0.3838
 7278SOL    HW233471   3.284   4.498   5.224 -0.8868  0.0188 -0.5349
 7279SOL     OW33472   1.407   2.573   3.567  0.1459 -0.1118  0.5379
 7279SOL    HW133473   1.348   2.498   3.558  1.0141 -0.4189 -2.4826
 7279SOL    HW233474   1.492   2.531   3.579  1.3138  1.7293 -1.4167
 7280SOL     OW33475   1.951   0.858   3.005 -0.8402 -0.2457  0.2769
 7280SOL    HW133476   1.858   0.854   2.982 -0.4820 -0.7049 -1.0699
 7280SOL    HW233477   1.933   0.909   3.084 -0.4545  1.0451 -0.4691
 7281SOL     OW33478   3.633   2.972   9.162  0.6528  0.2256  0.2919
 7281SOL    HW133479   3.671   3.057   9.182  0.7680 -0.1706  1.8162
 7281SOL    HW233480   3.581   2.967   9.242  2.3544 -0.9263  1.3566
 7282SOL     OW33481   3.496   4.306   6.596 -0.0884 -0.1108  0.3602
 7282SOL    HW133482   3.482   4.211   6.588 -0.1330 -0.3134  2.9102
 7282SOL    HW233483   3.460   4.316   6.684 -2.0852 -1.4110 -0.2839
 7283SOL     OW33484   1.148   0.375  16.591  0.0118 -0.2837 -0.3698
 7283SOL    HW133485   1.145   0.432  16.668 -1.4321  0.0513 -0.6612
 7283SOL    HW233486   1.055   0.357  16.580 -0.2283  1.1828 -0.7764
 7284SOL     OW33487   4.378   3.916  15.705  0.6631  0.1699  0.0972
 7284SOL    HW133488   4.455   3.974  15.708 -0.6136  1.9634 -1.9565
 7284SOL    HW233489   4.354   3.939  15.616 -4.3774 -0.6448  1.2465
 7285SOL     OW33490   4.564   2.385  15.098 -0.1247  0.6428  0.1989
 7285SOL    HW133491   4.537   2.312  15.153 -1.8097 -0.1823 -1.7433
 7285SOL    HW233492   4.656   2.389  15.124  0.5376 -1.7201 -1.8361
 7286SOL     OW33493   0.735   3.048   7.583 -0.3247  0.0677 -0.3496
 7286SOL    HW133494   0.648   3.060   7.543 -0.7203  2.0052  1.0805
 7286SOL    HW233495   0.762   3.140   7.572  1.4025 -0.3814  0.1988
 7287SOL     OW33496   1.549   1.080   8.543  0.7860 -0.1203  0.5272
 7287SOL    HW133497   1.509   0.996   8.520  1.0828  0.0099 -0.4459
 7287SOL    HW233498   1.513   1.087   8.631 -1.1341  2.3671 -0.4398
 7288SOL     OW33499   2.069   0.414   9.722  0.6091 -0.1844  0.0672
 7288SOL    HW133500   2.145   0.440   9.774  0.0359  0.6001  0.5177
 7288SOL    HW233501   2.006   0.412   9.794 -1.4987  0.3338 -1.7515
 7289SOL     OW33502   2.908   1.773   4.854 -0.6652  0.3262  0.4276
 7289SOL    HW133503   2.825   1.803   4.818 -0.6286 -1.7334 -1.3907
 7289SOL    HW233504   2.954   1.775   4.770 -1.5126  1.0339 -0.0238
 7290SOL     OW33505   0.665   1.721   5.034  0.3138 -0.5329 -0.1630
 7290SOL    HW133506   0.694   1.808   5.008  1.3108 -0.3012  1.7320
 7290SOL    HW233507   0.591   1.709   4.974  1.7115 -0.8330 -1.8349
 7291SOL     OW33508   1.212   4.529  11.994  0.0656  0.1454 -0.4889
 7291SOL    HW133509   1.178   4.616  12.014 -0.5961  0.3029 -2.2890
 7291SOL    HW233510   1.299   4.539  11.955 -0.1633 -2.1475 -1.5501
 7292SOL     OW33511   3.775   4.402   4.767 -0.3439  0.3210 -0.3149
 7292SOL    HW133512   3.828   4.329   4.799 -0.2999  1.0683  1.2655
 7292SOL    HW233513   3.696   4.398   4.820 -1.6613  1.7945 -2.1604
 7293SOL     OW33514   2.480   1.360   3.970 -0.2706 -0.6240  0.0477
 7293SOL    HW133515   2.394   1.348   4.012 -1.3041  3.0410 -1.0116
 7293SOL    HW233516   2.532   1.304   4.028 -0.9810 -1.6177 -0.2629
 7294SOL     OW33517   4.036   4.237   4.481 -0.4199  0.2659  0.1895
 7294SOL    HW133518   4.105   4.223   4.415 -1.1972 -0.0852 -0.5476
 7294SOL    HW233519   4.011   4.326   4.455 -1.0287 -0.7573 -2.7764
 7295SOL     OW33520   4.715   1.355   5.951  0.7031  0.3029 -0.1014
 7295SOL    HW133521   4.703   1.449   5.947 -1.5854  0.0168  0.3330
 7295SOL    HW233522   4.676   1.331   5.867  0.4916  0.2073  0.0242
 7296SOL     OW33523   1.162   4.596  10.634 -0.1974 -0.4187  0.0534
 7296SOL    HW133524   1.213   4.567  10.709 -1.0543  1.0078  1.1859
 7296SOL    HW233525   1.078   4.611  10.678 -0.1460  0.8443 -0.2911
 7297SOL     OW33526   2.181   4.656   8.031 -0.5113  0.0825  0.8293
 7297SOL    HW133527   2.271   4.660   7.998 -0.3079 -2.0583  1.1235
 7297SOL    HW233528   2.198   4.595   8.102 -0.5528 -0.0229  0.7493
 7298SOL     OW33529   3.048   2.417  12.025 -0.1168 -0.3340  0.6240
 7298SOL    HW133530   3.051   2.344  11.962  0.6208  0.8188 -0.6780
 7298SOL    HW233531   2.963   2.451  11.998 -0.2029  0.4621  1.9496
 7299SOL     OW33532   3.074   3.305   5.402  0.2556  0.0904  0.1310
 7299SOL    HW133533   3.142   3.346   5.454  1.9540 -2.0511 -0.3698
 7299SOL    HW233534   3.106   3.295   5.312  0.5130  0.7878  0.1513
 7300SOL     OW33535   0.696   0.048   9.119 -0.2974 -0.1626 -0.4363
 7300SOL    HW133536   0.611   0.023   9.155  0.0678 -0.0693  0.4980
 7300SOL    HW233537   0.751   4.734   9.177 -0.9858  0.4299  0.7709
 7301SOL     OW33538   4.142   4.376  13.513 -0.1319 -0.7820  0.8957
 7301SOL    HW133539   4.229   4.413  13.530 -0.6950  0.3486  1.3935
 7301SOL    HW233540   4.163   4.303  13.455 -1.8569 -1.1273  0.7247
 7302SOL     OW33541   1.058   4.094   6.085  0.1669 -0.3504 -0.1204
 7302SOL    HW133542   0.998   4.143   6.028  0.0501  0.5271  0.7605
 7302SOL    HW233543   1.069   4.019   6.027  2.1841 -0.7623  0.7802
 7303SOL     OW33544   4.424   2.264   4.348 -0.2239 -0.0873 -0.4989
 7303SOL    HW133545   4.460   2.177   4.335  1.0489  0.0526  2.2280
 7303SOL    HW233546   4.369   2.239   4.422  2.3788 -1.7426  0.8725
 7304SOL     OW33547   1.554   3.904   1.059 -0.2918  0.4279 -0.0263
 7304SOL    HW133548   1.593   3.884   1.144  3.1233  0.3228 -1.6362
 7304SOL    HW233549   1.468   3.932   1.091 -0.0192  0.9708  0.2172
 7305SOL     OW33550   1.291   2.791   7.278  0.3117 -0.4558 -0.2875
 7305SOL    HW133551   1.246   2.728   7.222 -0.9255 -0.6979  0.9776
 7305SOL    HW233552   1.323   2.739   7.352 -5.0053 -1.9548  0.9618
 7306SOL     OW33553   3.319   3.563   5.113 -0.3067  0.1610  0.1375
 7306SOL    HW133554   3.288   3.478   5.146  0.6423  0.3013  1.3758
 7306SOL    HW233555   3.361   3.540   5.031  0.1920  3.6464 -0.5836
 7307SOL     OW33556   0.124   0.052  17.340 -0.1641 -0.1953  0.2888
 7307SOL    HW133557   0.162   4.722  17.393 -0.9688  0.0159  1.1372
 7307SOL    HW233558   0.090   0.115  17.403  0.9772  0.9197 -0.2033
 7308SOL     OW33559   3.377   4.710   8.791  0.2177  0.4661 -0.3929
 7308SOL    HW133560   3.332   0.026   8.855  0.1089  0.6716 -0.6437
 7308SOL    HW233561   3.425   0.042   8.747  0.7892  1.5524  1.9744
 7309SOL     OW33562   4.327   0.379  11.270  0.1279  0.1516 -0.5039
 7309SOL    HW133563   4.313   0.309  11.205 -1.1244  0.0059 -0.0713
 7309SOL    HW233564   4.396   0.340  11.323 -0.2192 -0.3367 -0.4090
 7310SOL     OW33565   4.299   4.548  11.837 -0.2399 -0.6438 -0.7063
 7310SOL    HW133566   4.371   4.610  11.845 -0.7645 -0.0006 -0.9445
 7310SOL    HW233567   4.340   4.464  11.856  1.4801  0.1150 -1.0012
 7311SOL     OW33568   2.776   2.387   2.770 -0.4251  0.4849 -0.1393
 7311SOL    HW133569   2.711   2.369   2.837  1.1861  0.5611  1.4426
 7311SOL    HW233570   2.722   2.385   2.691 -2.1499 -1.2922  1.0887
 7312SOL     OW33571   2.376   3.240   8.097 -0.4108  0.0448  0.1304
 7312SOL    HW133572   2.297   3.288   8.073 -1.5266 -2.1468 -0.5716
 7312SOL    HW233573   2.340   3.176   8.158 -1.0291  2.4689  2.3122
 7313SOL     OW33574   0.431   3.334  13.371 -0.1170 -0.3145  0.5425
 7313SOL    HW133575   0.441   3.413  13.423  3.3960 -0.8679  0.7533
 7313SOL    HW233576   0.412   3.365  13.282  0.1311 -0.2845  0.4996
 7314SOL     OW33577   4.370   0.316   5.074 -0.1737 -0.4370  0.3787
 7314SOL    HW133578   4.413   0.372   5.139  2.1122 -0.8129 -0.7840
 7314SOL    HW233579   4.361   0.386   5.010  0.1331 -1.8140 -1.1646
 7315SOL     OW33580   0.380   2.501   2.868 -0.4638 -0.2761  0.2411
 7315SOL    HW133581   0.469   2.537   2.872 -0.7315  0.2387  1.5149
 7315SOL    HW233582   0.371   2.517   2.774  0.3347  0.4836  0.2890
 7316SOL     OW33583   0.217   0.060   0.804 -0.4519  0.1153  0.5153
 7316SOL    HW133584   0.187   0.050   0.894  0.3284  0.6504  0.8272
 7316SOL    HW233585   0.258   4.717   0.773 -0.6211  0.1164  0.2839
 7317SOL     OW33586   2.434   0.588   6.704 -0.8388  0.1316 -0.5318
 7317SOL    HW133587   2.491   0.515   6.728  0.1271  1.0005 -0.1781
 7317SOL    HW233588   2.493   0.654   6.669 -0.3419  0.3314  0.6720
 7318SOL     OW33589   1.862   2.507   8.915 -0.5575  0.2485 -0.6778
 7318SOL    HW133590   1.797   2.439   8.934 -0.6751  1.1284  2.0517
 7318SOL    HW233591   1.822   2.529   8.831 -0.3441  2.6422 -0.1635
 7319SOL     OW33592   4.316   1.414  13.755 -0.0826 -0.2021 -0.3003
 7319SOL    HW133593   4.238   1.359  13.764 -0.1326 -0.2222 -0.8167
 7319SOL    HW233594   4.275   1.488  13.709  0.0409 -0.8516 -1.4664
 7320SOL     OW33595   3.743   2.859   2.714 -0.1044 -0.5692  0.3109
 7320SOL    HW133596   3.809   2.923   2.741 -0.2489 -1.3611  2.5754
 7320SOL    HW233597   3.770   2.841   2.624 -1.1478  2.8128 -0.6856
 7321SOL     OW33598   2.625   1.009   2.357  0.4332 -0.2005  0.5883
 7321SOL    HW133599   2.576   1.091   2.349  0.3258 -0.1911  1.3204
 7321SOL    HW233600   2.556   0.958   2.400 -0.1198  0.2889  0.2907
 7322SOL     OW33601   0.986   3.526   4.654 -0.4504 -0.0345 -0.4665
 7322SOL    HW133602   0.910   3.577   4.626 -0.0229  0.5452 -0.5942
 7322SOL    HW233603   0.947   3.439   4.660 -0.6638  0.1341  0.4560
 7323SOL     OW33604   1.834   3.500  10.141 -0.0941  0.0919 -0.1614
 7323SOL    HW133605   1.873   3.414  10.159 -0.7869 -0.7232 -2.6306
 7323SOL    HW233606   1.894   3.534  10.074  0.8885 -0.4393  0.4435
 7324SOL     OW33607   0.119   4.053   6.414  0.0348 -0.3044  0.0507
 7324SOL    HW133608   0.144   3.995   6.486  1.3269  1.6462  1.1802
 7324SOL    HW233609   0.024   4.058   6.425  0.2585  1.9147  1.0149
 7325SOL     OW33610   4.582   1.298   8.533 -0.5570 -0.6145 -0.3021
 7325SOL    HW133611   4.571   1.203   8.528 -2.0983 -0.3861 -1.3523
 7325SOL    HW233612   4.503   1.328   8.489  2.0423  4.4150 -1.5598
 7326SOL     OW33613   4.577   0.766   3.648  0.1829  0.4387 -0.1474
 7326SOL    HW133614   4.598   0.673   3.634  0.9807  0.8126 -1.4430
 7326SOL    HW233615   4.555   0.790   3.558 -3.1227 -1.5610  0.1268
 7327SOL     OW33616   2.814   0.405   9.272  0.1321 -0.1155 -0.2861
 7327SOL    HW133617   2.866   0.326   9.260  0.0207 -0.5861  2.2790
 7327SOL    HW233618   2.744   0.363   9.321  0.4654 -0.6991 -0.3166
 7328SOL     OW33619   2.152   2.134  13.776 -0.3742 -0.1272 -0.0692
 7328SOL    HW133620   2.133   2.120  13.684  1.0099 -1.0131 -0.2163
 7328SOL    HW233621   2.233   2.185  13.771 -2.3306  3.2040  1.9441
 7329SOL     OW33622   2.600   1.917   4.188 -0.4649 -0.1552  0.5037
 7329SOL    HW133623   2.521   1.969   4.202  1.7403  3.0105  1.1999
 7329SOL    HW233624   2.664   1.978   4.151 -1.7248  1.1064  0.4212
 7330SOL     OW33625   0.976   4.250   6.866  0.1015 -0.0741 -0.3363
 7330SOL    HW133626   0.980   4.335   6.911  2.7572 -0.5597  0.3284
 7330SOL    HW233627   0.946   4.200   6.942 -0.2262  0.4530 -0.1156
 7331SOL     OW33628   0.045   1.544   8.055  0.1930 -0.0690 -0.0263
 7331SOL    HW133629   0.058   1.635   8.026 -0.0171  0.1392  0.5355
 7331SOL    HW233630   4.726   1.518   7.982 -0.5778  0.4709  0.3851
 7332SOL     OW33631   2.608   1.876  14.748 -0.1455  1.0126  0.0354
 7332SOL    HW133632   2.643   1.937  14.812  1.3426 -0.1410  0.3248
 7332SOL    HW233633   2.604   1.934  14.672 -2.9043  1.5548  0.6008
 7333SOL     OW33634   0.617   4.638   5.386 -0.4894  0.2188 -0.0915
 7333SOL    HW133635   0.617   4.681   5.472 -1.6005  0.2536 -0.1029
 7333SOL    HW233636   0.635   4.712   5.328 -0.7864 -0.0422 -0.5166
 7334SOL     OW33637   3.735   1.736   1.665  0.6385  0.4196  0.2089
 7334SOL    HW133638   3.804   1.671   1.655  1.0647  0.8167  0.5329
 7334SOL    HW233639   3.693   1.709   1.584 -0.9405  0.9604  0.8483
 7335SOL     OW33640   0.797   3.264   5.990 -0.3502 -0.2204  0.4484
 7335SOL    HW133641   0.779   3.228   5.903  1.2739  1.8715 -0.7492
 7335SOL    HW233642   0.878   3.313   5.981 -0.1303 -0.5770  0.5008
 7336SOL     OW33643   2.933   1.500   1.980  0.3410  0.1839 -0.5493
 7336SOL    HW133644   2.882   1.429   2.018  0.6349 -0.1954 -0.8641
 7336SOL    HW233645   2.961   1.540   2.062  1.3352  0.1322 -0.8588
 7337SOL     OW33646   1.861   1.079   8.174 -0.0040  0.0517 -0.5625
 7337SOL    HW133647   1.950   1.110   8.160  0.0008 -1.2752 -3.3690
 7337SOL    HW233648   1.868   0.997   8.126 -0.6625 -1.5242  2.0033
 7338SOL     OW33649   3.822   3.401   6.612 -0.1276  0.0473  0.0669
 7338SOL    HW133650   3.767   3.468   6.570  1.1634  0.5820 -0.7606
 7338SOL    HW233651   3.806   3.435   6.700  0.6931  0.3971  0.0805
 7339SOL     OW33652   2.229   0.544   5.627  0.7247 -0.1407 -0.4768
 7339SOL    HW133653   2.175   0.534   5.549 -0.1288  0.3834  0.0533
 7339SOL    HW233654   2.310   0.533   5.578  0.2854 -0.6867 -1.0708
 7340SOL     OW33655   3.121   1.210  10.223  0.2200 -0.3293  0.3001
 7340SOL    HW133656   3.126   1.155  10.145 -0.3174  1.1808 -0.8138
 7340SOL    HW233657   3.171   1.291  10.213 -0.1718  0.0215  1.1514
 7341SOL     OW33658   4.472   2.626  15.168  0.0569 -0.0320 -0.0930
 7341SOL    HW133659   4.390   2.645  15.122 -0.0032  2.8385  1.1949
 7341SOL    HW233660   4.481   2.534  15.142 -0.2879  0.5420 -2.2488
 7342SOL     OW33661   3.312   2.201   1.510 -0.4492 -0.1444 -0.2783
 7342SOL    HW133662   3.323   2.295   1.526  1.1756 -0.7980  2.4730
 7342SOL    HW233663   3.238   2.183   1.568 -1.0555 -5.2903 -2.6613
 7343SOL     OW33664   2.689   1.101   2.857 -0.1321 -0.0234  0.4689
 7343SOL    HW133665   2.665   1.184   2.814  1.4777 -0.0787 -0.5558
 7343SOL    HW233666   2.611   1.083   2.908 -0.8068 -0.0468 -0.5727
 7344SOL     OW33667   0.548   3.898   7.858  0.5220  0.3040 -0.1441
 7344SOL    HW133668   0.605   3.886   7.935  0.8317 -1.9655 -0.7145
 7344SOL    HW233669   0.595   3.856   7.786  1.9997 -1.9635  2.1553
 7345SOL     OW33670   2.272   4.014  11.975 -0.0575 -0.3601  0.2516
 7345SOL    HW133671   2.332   3.962  12.027  0.2734 -0.4395 -0.2101
 7345SOL    HW233672   2.298   4.102  12.003  1.6343 -1.0476  0.8004
 7346SOL     OW33673   4.250   1.653   3.247 -0.4027 -0.4078  0.1613
 7346SOL    HW133674   4.184   1.721   3.263 -0.4068 -0.2442 -0.5520
 7346SOL    HW233675   4.312   1.655   3.319 -1.2106 -0.6949  0.8686
 7347SOL     OW33676   0.089   1.406   4.267  0.3575 -0.0844 -0.2671
 7347SOL    HW133677   0.073   1.436   4.357  0.9490  2.6174 -1.0624
 7347SOL    HW233678   0.016   1.346   4.253  0.0685  0.4923 -1.1985
 7348SOL     OW33679   2.734   0.757  17.687  0.2023  0.1709 -0.5588
 7348SOL    HW133680   2.787   0.836  17.675 -0.3277  0.7699  1.0032
 7348SOL    HW233681   2.793   0.694  17.646  0.7468 -0.0453  0.5726
 7349SOL     OW33682   1.879   2.957   2.976  0.4518  0.7844  0.0112
 7349SOL    HW133683   1.926   3.032   3.013  0.7341  0.4968  0.2277
 7349SOL    HW233684   1.948   2.892   2.968  1.2086  1.9405 -2.9831
 7350SOL     OW33685   1.357   3.472   3.976 -0.0317 -0.0378  0.6783
 7350SOL    HW133686   1.273   3.428   3.963 -0.3312  0.5284  0.6689
 7350SOL    HW233687   1.417   3.397   3.974 -0.3632 -0.3969  3.9868
 7351SOL     OW33688   0.047   1.133  15.415  0.1740  0.1829 -0.1005
 7351SOL    HW133689   0.030   1.041  15.393  0.8399  0.5327 -2.1198
 7351SOL    HW233690   0.142   1.134  15.405  0.3426  0.5719  1.5086
 7352SOL     OW33691   1.782   3.113  10.417 -0.3545 -0.4140 -0.4437
 7352SOL    HW133692   1.718   3.080  10.481  0.2816  0.2718  0.5525
 7352SOL    HW233693   1.739   3.119  10.332  0.5693  2.2226 -0.7394
 7353SOL     OW33694   2.156   4.637   0.020  0.1263  0.5856 -0.4737
 7353SOL    HW133695   2.114   4.598  17.695 -0.3381 -3.9930  2.1356
 7353SOL    HW233696   2.242   4.596   0.015 -1.6023 -3.0691 -0.3907
 7354SOL     OW33697   4.714   4.474   3.072 -0.1614  0.0241 -0.2107
 7354SOL    HW133698   4.686   4.428   3.152  1.0025 -0.4597 -0.0883
 7354SOL    HW233699   0.036   4.538   3.109 -0.5510 -0.8067  1.9029
 7355SOL     OW33700   3.579   1.436  17.362  0.5207  0.1182 -0.0536
 7355SOL    HW133701   3.503   1.474  17.317  1.4866  2.0210 -0.0758
 7355SOL    HW233702   3.632   1.515  17.377  0.0240  0.4769 -0.1661
 7356SOL     OW33703   3.639   4.633   6.929 -0.3076 -0.7851 -0.0727
 7356SOL    HW133704   3.677   4.570   6.868 -0.7379 -0.5353 -0.5946
 7356SOL    HW233705   3.712   4.695   6.932 -2.2066  1.3183  2.4321
 7357SOL     OW33706   3.097   0.583   2.603 -0.3806  0.3971 -0.1057
 7357SOL    HW133707   3.147   0.579   2.684  0.8278 -2.2432 -0.9603
 7357SOL    HW233708   3.014   0.627   2.624  0.1051  0.3252  1.9760
 7358SOL     OW33709   4.331   0.142  11.979  0.0029  0.3157  0.3115
 7358SOL    HW133710   4.265   0.135  12.048 -0.1602  0.0841  0.1327
 7358SOL    HW233711   4.281   0.196  11.918 -1.3246 -2.1606 -0.7938
 7359SOL     OW33712   3.187   2.784   0.307  0.4424 -0.6410  0.3221
 7359SOL    HW133713   3.159   2.867   0.347  0.9214 -0.6937  0.7648
 7359SOL    HW233714   3.280   2.793   0.327 -0.2441  0.8986  2.8388
 7360SOL     OW33715   0.161   2.120   3.756  0.1265 -0.4049  0.2122
 7360SOL    HW133716   0.251   2.091   3.737  0.1572 -0.1174 -0.0938
 7360SOL    HW233717   0.123   2.065   3.824 -0.5987  0.9651  0.9231
 7361SOL     OW33718   4.719   3.624   3.247 -0.3400 -0.3335  0.3364
 7361SOL    HW133719   0.028   3.615   3.164 -0.8896 -0.6992  0.0634
 7361SOL    HW233720   0.054   3.634   3.308 -1.2304 -0.9258  1.4903
 7362SOL     OW33721   2.380   3.803   7.098 -0.2433  0.1353  0.5184
 7362SOL    HW133722   2.470   3.834   7.114  0.0013  0.5804 -1.7030
 7362SOL    HW233723   2.394   3.719   7.054 -0.4589 -0.2208  1.1420
 7363SOL     OW33724   4.550   1.285   4.803  0.0192  0.6623  0.2159
 7363SOL    HW133725   4.602   1.235   4.741 -1.9293 -1.9077  0.6562
 7363SOL    HW233726   4.474   1.309   4.750  0.3358  0.6709 -0.2263
 7364SOL     OW33727   1.688   1.450   5.111  0.5230  0.6211  0.0332
 7364SOL    HW133728   1.737   1.401   5.045  1.4852  2.3604 -0.5445
 7364SOL    HW233729   1.755   1.499   5.158 -1.5966  2.7636  0.8456
 7365SOL     OW33730   2.471   3.664   1.286  0.1319  0.0820 -0.0770
 7365SOL    HW133731   2.473   3.759   1.277  0.1609  0.0071 -0.8755
 7365SOL    HW233732   2.556   3.651   1.243  0.6989 -1.4284  1.4993
 7366SOL     OW33733   4.474   4.497   2.302 -0.0745 -0.0892  0.3837
 7366SOL    HW133734   4.487   4.522   2.210  0.4193 -0.3232  0.3893
 7366SOL    HW233735   4.547   4.438   2.322  0.3991  1.4415  3.0604
 7367SOL     OW33736   2.797   1.659  14.729 -0.1604 -0.5958 -0.0871
 7367SOL    HW133737   2.727   1.723  14.739 -0.8105 -0.9776 -2.2461
 7367SOL    HW233738   2.863   1.724  14.705 -1.1180  0.3692 -0.1234
 7368SOL     OW33739   2.100   3.530  16.422 -0.1052 -0.3926 -0.3799
 7368SOL    HW133740   2.047   3.467  16.372 -0.9903 -0.0883  0.1815
 7368SOL    HW233741   2.064   3.609  16.382 -1.1156  0.6876  2.7004
 7369SOL     OW33742   4.591   4.071  17.135  0.2697  0.0941  0.6356
 7369SOL    HW133743   4.574   4.142  17.198  0.4371  2.2455 -1.7183
 7369SOL    HW233744   4.576   4.119  17.053  1.6820  0.6186  0.6931
 7370SOL     OW33745   4.299   4.346   3.363  1.0852  0.6316 -0.2346
 7370SOL    HW133746   4.241   4.399   3.307  1.2505 -1.0105 -1.9683
 7370SOL    HW233747   4.324   4.284   3.295 -0.2933  1.7184 -1.7443
 7371SOL     OW33748   0.918   0.705   2.973  0.4610  0.6151 -0.5598
 7371SOL    HW133749   0.922   0.686   3.067  0.3057  2.4885 -0.1771
 7371SOL    HW233750   0.995   0.659   2.940  2.4878  2.1217  2.0285
 7372SOL     OW33751   1.748   4.417   6.230 -0.1565  0.5468  0.1225
 7372SOL    HW133752   1.741   4.332   6.187  0.9467  0.9809 -0.9141
 7372SOL    HW233753   1.776   4.467   6.154 -0.1439  2.4137  1.3569
 7373SOL     OW33754   0.521   2.308   6.065  0.1567  0.5214  0.1227
 7373SOL    HW133755   0.448   2.302   6.126  1.7459  1.3277  2.1043
 7373SOL    HW233756   0.483   2.376   6.009 -1.4134  0.6998  1.4032
 7374SOL     OW33757   1.261   1.432   4.213 -0.4813 -0.1095 -0.5366
 7374SOL    HW133758   1.203   1.477   4.151 -1.6987 -0.3468  0.4353
 7374SOL    HW233759   1.292   1.364   4.153 -0.2400 -0.3786 -0.1012
 7375SOL     OW33760   2.385   0.011   3.645 -0.4307 -0.2230  0.0486
 7375SOL    HW133761   2.380   4.683   3.576 -0.2850  0.0097 -0.1841
 7375SOL    HW233762   2.344   4.696   3.714 -1.3984 -0.4198 -0.6730
 7376SOL     OW33763   0.556   4.193   3.443 -0.2484 -0.1098  0.2116
 7376SOL    HW133764   0.517   4.204   3.356  1.1936  0.6196 -0.3446
 7376SOL    HW233765   0.514   4.111   3.467 -1.2087  0.9403  2.0840
 7377SOL     OW33766   0.332   4.423   3.311  0.5148 -0.1269  0.3702
 7377SOL    HW133767   0.277   4.474   3.251  1.9729 -0.3215 -1.1225
 7377SOL    HW233768   0.280   4.408   3.390  2.2161  0.5931  1.6170
 7378SOL     OW33769   1.938   4.349   7.849 -0.0398  0.3394  0.3122
 7378SOL    HW133770   1.894   4.272   7.812 -1.1237  1.3406 -0.4851
 7378SOL    HW233771   1.869   4.384   7.906 -0.5363 -0.0899 -0.0184
 7379SOL     OW33772   1.002   3.110   3.648 -0.1184  0.3136  0.3446
 7379SOL    HW133773   1.024   3.196   3.612 -0.8221  0.7472  0.9389
 7379SOL    HW233774   0.913   3.128   3.679 -0.5823 -0.5793 -0.4981
 7380SOL     OW33775   0.593   4.036   2.078 -0.1858  0.6993 -0.1721
 7380SOL    HW133776   0.648   4.056   2.153  0.7185  0.8564 -0.8753
 7380SOL    HW233777   0.663   3.999   2.023 -0.5148 -2.1086  1.3062
 7381SOL     OW33778   4.360   3.677  16.011 -0.3665 -0.3640  0.1004
 7381SOL    HW133779   4.419   3.689  16.085 -0.2629 -1.2956  0.1742
 7381SOL    HW233780   4.413   3.609  15.971 -1.6677 -0.1768 -1.9192
 7382SOL     OW33781   3.021   4.226  15.435 -0.0055 -0.6585  0.1377
 7382SOL    HW133782   2.927   4.211  15.443 -0.0402 -0.3247  0.3454
 7382SOL    HW233783   3.020   4.259  15.345  0.3072  1.5589  0.9517
 7383SOL     OW33784   4.043   2.551  12.374 -0.0900 -0.2828  0.0171
 7383SOL    HW133785   4.063   2.549  12.468  0.0222  0.6333  0.0080
 7383SOL    HW233786   4.113   2.602  12.334 -0.2845 -0.2836 -0.3215
 7384SOL     OW33787   0.895   1.255   7.101 -0.0201 -0.2214  0.0819
 7384SOL    HW133788   0.970   1.196   7.088 -0.3397 -0.5784 -0.1520
 7384SOL    HW233789   0.939   1.307   7.168 -0.5906 -0.1554  0.4032
 7385SOL     OW33790   0.696   0.895   9.980  0.5371 -0.4152 -0.1994
 7385SOL    HW133791   0.628   0.851  10.030 -0.5115 -0.8203 -1.9708
 7385SOL    HW233792   0.679   0.978  10.025  3.9958  0.8010 -1.1269
 7386SOL     OW33793   1.003   0.944  12.617 -0.6783 -0.5408  0.2909
 7386SOL    HW133794   1.077   0.998  12.589 -1.1758  1.0656  2.0702
 7386SOL    HW233795   0.943   1.016  12.637  0.2788 -0.0516  1.4657
 7387SOL     OW33796   1.405   4.435  14.665  0.0073  0.2150 -0.6074
 7387SOL    HW133797   1.439   4.524  14.655 -1.8952  0.7123 -2.7773
 7387SOL    HW233798   1.480   4.382  14.692  0.6507  2.3050  1.6683
 7388SOL     OW33799   2.758   1.790   7.754  0.0690 -0.3256  0.0253
 7388SOL    HW133800   2.802   1.785   7.839 -0.0270  0.6034  0.1342
 7388SOL    HW233801   2.673   1.829   7.773 -0.7398 -2.1465  0.0816
 7389SOL     OW33802   2.193   3.387   5.842  0.4678  0.0217  0.3140
 7389SOL    HW133803   2.211   3.356   5.931  1.1729 -1.9474 -0.5152
 7389SOL    HW233804   2.194   3.482   5.855  1.6338 -0.0261  0.5442
 7390SOL     OW33805   2.300   2.455  10.957  0.1672  0.0752 -0.5603
 7390SOL    HW133806   2.361   2.385  10.936  1.1194  1.7945 -3.4633
 7390SOL    HW233807   2.267   2.423  11.041 -0.5507  2.3672  0.0227
 7391SOL     OW33808   1.255   2.827  16.247 -0.0586 -0.1985  0.0981
 7391SOL    HW133809   1.343   2.862  16.237  0.5429 -1.7138  0.0076
 7391SOL    HW233810   1.199   2.905  16.247 -1.4896 -1.2177 -1.7956
 7392SOL     OW33811   1.264   0.891   2.885  0.0895 -0.0686  0.2763
 7392SOL    HW133812   1.175   0.915   2.911  0.2840  0.2340  0.6695
 7392SOL    HW233813   1.263   0.806   2.842  0.0127 -0.8177  1.7941
 7393SOL     OW33814   1.403   0.067   8.201 -0.0230  0.4004  0.0706
 7393SOL    HW133815   1.472   0.132   8.185  1.0439 -1.2708 -2.1581
 7393SOL    HW233816   1.333   0.105   8.148  0.1629  0.4126 -0.1672
 7394SOL     OW33817   0.030   1.635  13.538  0.1844 -1.0180 -0.1637
 7394SOL    HW133818   0.042   1.720  13.579 -0.5863 -0.2993 -1.4679
 7394SOL    HW233819   4.674   1.627  13.550  0.2129 -0.2554  0.5351
 7395SOL     OW33820   2.180   4.482  11.095 -0.2296  0.0503  0.0083
 7395SOL    HW133821   2.145   4.529  11.170 -1.5579 -1.8758  0.6030
 7395SOL    HW233822   2.145   4.398  11.123 -1.1157  0.2873 -0.3696
 7396SOL     OW33823   0.859   4.346  12.853  0.1274  0.3482 -0.4854
 7396SOL    HW133824   0.888   4.262  12.887 -0.1775  0.9492  1.3062
 7396SOL    HW233825   0.938   4.397  12.874  0.4492 -0.3242 -0.0565
 7397SOL     OW33826   0.964   2.945  10.455 -0.2160 -0.4193  0.0475
 7397SOL    HW133827   0.872   2.932  10.433  0.0471 -2.6814  0.2476
 7397SOL    HW233828   0.952   2.949  10.550  1.1670 -3.1108  0.3529
 7398SOL     OW33829   3.278   4.044   5.300  0.6962  0.1933 -0.2772
 7398SOL    HW133830   3.320   4.110   5.244  1.8779  1.2578  1.8666
 7398SOL    HW233831   3.340   4.068   5.369 -0.5703  0.2751  0.8320
 7399SOL     OW33832   2.102   4.486   1.987  0.0344 -0.1470 -0.1279
 7399SOL    HW133833   2.153   4.505   2.066  0.2697 -1.8283  0.1291
 7399SOL    HW233834   2.014   4.475   2.023 -0.0148 -0.5021 -0.3661
 7400SOL     OW33835   4.280   2.285   0.642  0.2014 -0.0326  0.1182
 7400SOL    HW133836   4.294   2.272   0.736  1.7879  1.5399  0.1097
 7400SOL    HW233837   4.199   2.337   0.642  0.7094  0.7572 -0.7649
 7401SOL     OW33838   4.733   2.678   3.215 -0.0053 -0.3803 -0.5679
 7401SOL    HW133839   0.036   2.689   3.129 -0.5120 -0.9191 -0.8790
 7401SOL    HW233840   0.066   2.623   3.247 -2.1004 -1.4231  2.2760
 7402SOL     OW33841   2.055   1.724   1.836 -0.2771 -0.1139 -0.0099
 7402SOL    HW133842   2.096   1.765   1.912 -0.6958  0.5260 -0.1313
 7402SOL    HW233843   2.117   1.651   1.834  1.6607  1.5411  0.5941
 7403SOL     OW33844   0.369   0.802   1.960  0.2962  0.1495  0.3621
 7403SOL    HW133845   0.307   0.732   1.940  1.0116 -1.0229  2.2406
 7403SOL    HW233846   0.307   0.851   2.015 -0.5334 -0.5613  0.0711
 7404SOL     OW33847   4.661   1.885  11.489 -0.2641 -0.6509  0.4837
 7404SOL    HW133848   4.638   1.792  11.491 -1.2283 -0.4372 -0.4343
 7404SOL    HW233849   4.654   1.892  11.394 -0.6363  2.3370  0.7370
 7405SOL     OW33850   0.309   4.154  14.917 -0.2448 -0.7357 -0.2266
 7405SOL    HW133851   0.401   4.134  14.900 -0.4115 -2.7158  1.1814
 7405SOL    HW233852   0.286   4.103  14.995  0.4196 -2.1238 -0.9266
 7406SOL     OW33853   4.588   3.044   5.282  0.2769 -0.3317 -0.0475
 7406SOL    HW133854   4.618   3.098   5.355  1.4081  0.3577 -1.0188
 7406SOL    HW233855   4.518   2.997   5.328  1.5326 -1.0276  1.1524
 7407SOL     OW33856   1.543   4.531  11.016 -0.6477 -0.4276 -1.1872
 7407SOL    HW133857   1.474   4.466  11.000 -2.7144  1.7048 -0.9264
 7407SOL    HW233858   1.567   4.560  10.928 -0.8943  0.3768 -0.9893
 7408SOL     OW33859   3.208   0.145   2.891 -0.1993 -0.1839  0.1416
 7408SOL    HW133860   3.150   0.221   2.898  0.4511  0.5353 -2.0371
 7408SOL    HW233861   3.244   0.153   2.802  1.5883 -3.6619  0.5420
 7409SOL     OW33862   3.493   0.389   6.750  0.0776 -0.1627  0.6754
 7409SOL    HW133863   3.540   0.329   6.692  0.6508  0.2298  0.7326
 7409SOL    HW233864   3.440   0.328   6.801 -1.1284  1.6609  1.5908
 7410SOL     OW33865   2.638   1.274  14.855  0.1080  0.1540  0.4144
 7410SOL    HW133866   2.546   1.249  14.854  0.2454 -0.4904  3.5782
 7410SOL    HW233867   2.678   1.187  14.853  0.8052  0.4495  1.2576
 7411SOL     OW33868   2.164   3.761   3.967  0.3956 -0.0488  0.5567
 7411SOL    HW133869   2.252   3.723   3.968  0.7520  0.7672 -0.1203
 7411SOL    HW233870   2.185   3.854   3.963 -0.4925  0.1643  0.8964
 7412SOL     OW33871   3.530   2.891   8.926 -0.5179  0.5694 -0.1722
 7412SOL    HW133872   3.529   2.979   8.887  0.8508  1.2656  1.3804
 7412SOL    HW233873   3.578   2.906   9.007 -0.4507  1.7915 -0.4303
 7413SOL     OW33874   2.473   4.124   7.131 -0.6210 -0.2240 -0.0235
 7413SOL    HW133875   2.383   4.102   7.157 -1.2896 -0.8673 -2.8660
 7413SOL    HW233876   2.465   4.129   7.036  0.8533  2.1457 -0.0114
 7414SOL     OW33877   2.663   2.583   1.397 -0.0811 -0.6773  0.6002
 7414SOL    HW133878   2.674   2.629   1.314 -2.5978  0.3058  0.8061
 7414SOL    HW233879   2.594   2.520   1.375 -0.2537 -1.0118  2.0766
 7415SOL     OW33880   0.836   0.179  12.633 -0.2376 -0.3177 -0.0543
 7415SOL    HW133881   0.747   0.184  12.667 -0.0389  0.4938  0.3597
 7415SOL    HW233882   0.853   0.273  12.626 -0.7370 -0.2485 -0.3582
 7416SOL     OW33883   0.512   0.258   6.539  0.0655  0.0161 -0.3027
 7416SOL    HW133884   0.605   0.266   6.561 -0.8772  1.5115  3.0408
 7416SOL    HW233885   0.492   0.347   6.510  3.1059  0.9368  0.4462
 7417SOL     OW33886   2.179   0.055  15.258 -0.1176  0.2484  0.6652
 7417SOL    HW133887   2.249   0.117  15.235  0.3527 -0.1890  0.9095
 7417SOL    HW233888   2.103   0.113  15.258  0.1767  0.6293 -1.7569
 7418SOL     OW33889   3.585   1.597   6.438 -0.3313 -0.3909  0.2201
 7418SOL    HW133890   3.611   1.589   6.529  0.4831 -0.7024 -0.0435
 7418SOL    HW233891   3.672   1.618   6.406 -1.0456  1.8246 -0.2313
 7419SOL     OW33892   3.421   0.789   6.978  0.2273  0.4977  0.1339
 7419SOL    HW133893   3.389   0.877   7.000 -1.5284 -0.0780 -0.1044
 7419SOL    HW233894   3.345   0.745   7.016  1.7586 -1.6279  0.7315
 7420SOL     OW33895   4.484   0.315   3.085 -0.3900 -0.5499 -0.5072
 7420SOL    HW133896   4.550   0.298   3.018  0.2670  0.0824 -0.0075
 7420SOL    HW233897   4.531   0.283   3.162 -2.6861  1.2548  1.6604
 7421SOL     OW33898   0.358   4.303   8.245  0.1627  0.1617 -0.0510
 7421SOL    HW133899   0.372   4.321   8.338 -0.5484 -3.3395  0.7188
 7421SOL    HW233900   0.408   4.222   8.232  0.6181  0.4377 -0.0297
 7422SOL     OW33901   1.236   2.654   6.383 -0.3110  1.0475 -0.0050
 7422SOL    HW133902   1.196   2.740   6.394 -0.5445  0.6905  2.0477
 7422SOL    HW233903   1.183   2.617   6.313 -0.5781  0.1278  0.6789
 7423SOL     OW33904   4.621   4.477  13.348 -0.3464 -0.2919  0.8876
 7423SOL    HW133905   4.635   4.518  13.263  0.2648 -0.2828  0.9973
 7423SOL    HW233906   4.699   4.422  13.358  0.5875  0.6030 -1.3399
 7424SOL     OW33907   2.256   3.214   9.896 -0.0896  0.0903  0.2919
 7424SOL    HW133908   2.293   3.134   9.935 -0.5939 -0.1618  0.2544
 7424SOL    HW233909   2.197   3.244   9.965  0.7547  1.2119  0.5221
 7425SOL     OW33910   4.197   3.345   0.593 -0.3612  0.0864  0.1538
 7425SOL    HW133911   4.134   3.280   0.562 -0.1150 -0.5654  1.0280
 7425SOL    HW233912   4.150   3.426   0.576 -2.0950 -1.0574 -0.5715
 7426SOL     OW33913   1.071   4.653   7.186  0.6090  0.3270  0.2513
 7426SOL    HW133914   1.047   4.720   7.250 -2.5849  0.0329 -0.6796
 7426SOL    HW233915   1.137   4.605   7.237  0.3979 -0.7520 -0.4957
 7427SOL     OW33916   2.617   0.626   4.916 -0.4498  0.9540  0.1025
 7427SOL    HW133917   2.649   0.716   4.918  1.0715  0.4458 -0.5851
 7427SOL    HW233918   2.556   0.643   4.845  0.7291 -0.2209 -1.2103
 7428SOL     OW33919   2.136   2.981  10.599 -0.2461 -0.5902 -0.0389
 7428SOL    HW133920   2.100   3.043  10.536 -2.2603  0.1754  1.8921
 7428SOL    HW233921   2.065   2.981  10.662 -0.2548  1.4478 -0.0345
 7429SOL     OW33922   3.106   4.240   7.705 -0.3862  0.0919  0.4449
 7429SOL    HW133923   3.191   4.200   7.722 -1.2849 -1.3401  1.5076
 7429SOL    HW233924   3.068   4.183   7.638  0.3496  0.9280 -0.6899
 7430SOL     OW33925   3.222   0.797   2.460  0.8196  0.0527 -0.4830
 7430SOL    HW133926   3.296   0.810   2.520  1.1703 -2.0473 -0.4350
 7430SOL    HW233927   3.181   0.719   2.498  1.5251  0.1415  0.4586
 7431SOL     OW33928   3.629   2.736   3.566  0.1777 -0.3066 -0.0576
 7431SOL    HW133929   3.720   2.765   3.566 -0.0849  0.5280  1.8193
 7431SOL    HW233930   3.629   2.645   3.536 -0.5728 -0.5972  0.7973
 7432SOL     OW33931   1.113   0.459   9.873 -0.6285  0.3892  0.0510
 7432SOL    HW133932   1.196   0.482   9.831  0.2870  0.7319  2.0434
 7432SOL    HW233933   1.128   0.493   9.962 -0.8875  0.9311 -0.1128
 7433SOL     OW33934   2.739   1.294  11.614  0.3576 -0.0906 -0.7098
 7433SOL    HW133935   2.809   1.327  11.558  1.6317  0.3765  1.1360
 7433SOL    HW233936   2.755   1.199  11.617  3.1574  0.4802  3.1859
 7434SOL     OW33937   2.568   4.101   1.901 -0.1842 -0.5643  0.2047
 7434SOL    HW133938   2.502   4.131   1.963  1.6226  0.4704  1.6273
 7434SOL    HW233939   2.615   4.185   1.896 -1.7372  0.2228 -1.1639
 7435SOL     OW33940   4.106   0.876   0.385 -0.0151  0.0173 -0.1400
 7435SOL    HW133941   4.098   0.801   0.325 -1.3815 -1.4584  1.8888
 7435SOL    HW233942   4.015   0.903   0.390  0.2932  1.1458 -0.6644
 7436SOL     OW33943   3.643   1.116   2.825 -0.1930 -0.2207 -0.1442
 7436SOL    HW133944   3.677   1.041   2.875 -0.6895  0.8034  1.7155
 7436SOL    HW233945   3.562   1.077   2.792 -1.1312  1.6333  0.0182
 7437SOL     OW33946   0.886   3.772   4.314  0.2386 -0.6953  0.1252
 7437SOL    HW133947   0.846   3.859   4.324 -3.8849 -2.6177  0.2549
 7437SOL    HW233948   0.854   3.727   4.392  0.3562  0.6192  0.9441
 7438SOL     OW33949   1.712   1.342   0.491 -0.6918  0.3873 -0.5281
 7438SOL    HW133950   1.734   1.264   0.541 -2.2683  0.6779  0.6246
 7438SOL    HW233951   1.789   1.397   0.507 -2.6547  2.8088  0.6619
 7439SOL     OW33952   0.332   2.850   8.292 -0.2146 -0.4222 -0.0127
 7439SOL    HW133953   0.304   2.865   8.202  1.8920 -0.6561 -0.7114
 7439SOL    HW233954   0.349   2.940   8.320 -2.2443 -0.0340 -0.0888
 7440SOL     OW33955   3.903   1.936  11.865 -0.0272  0.1128 -0.5927
 7440SOL    HW133956   3.974   1.999  11.852  1.2023 -0.8321  1.5247
 7440SOL    HW233957   3.829   1.996  11.876 -1.9707 -2.6907  1.7007
 7441SOL     OW33958   4.584   4.552   9.647  0.4792  0.3726  0.0575
 7441SOL    HW133959   4.500   4.545   9.602  0.2696  0.7425  0.4001
 7441SOL    HW233960   4.567   4.631   9.697 -0.7010  0.6962 -0.8714
 7442SOL     OW33961   2.384   2.802   1.611 -0.2869  0.3085 -0.1020
 7442SOL    HW133962   2.320   2.839   1.672 -0.1515  2.8024 -1.4924
 7442SOL    HW233963   2.378   2.710   1.637  0.8365 -0.0094 -0.9758
 7443SOL     OW33964   1.307   4.674   6.157 -0.0605  0.0586 -0.0445
 7443SOL    HW133965   1.389   4.625   6.162 -1.0959 -1.8394 -1.9625
 7443SOL    HW233966   1.256   4.627   6.223  0.3117 -0.5423 -0.1875
 7444SOL     OW33967   2.419   1.214   3.249 -0.6590 -0.0903 -0.2149
 7444SOL    HW133968   2.490   1.254   3.199 -0.1717 -0.8808 -0.1633
 7444SOL    HW233969   2.367   1.292   3.264 -3.4120 -2.4191  2.2738
 7445SOL     OW33970   4.407   1.467  17.234  0.2750 -0.3807  0.2516
 7445SOL    HW133971   4.414   1.375  17.257  1.2229 -0.4450 -0.2844
 7445SOL    HW233972   4.496   1.491  17.209  0.8670 -0.6918  2.0389
 7446SOL     OW33973   0.565   1.384   1.659  0.6261  0.1609 -0.2040
 7446SOL    HW133974   0.522   1.300   1.678  0.4658  0.4457  0.6906
 7446SOL    HW233975   0.627   1.396   1.732  1.2292  2.2993 -1.0748
 7447SOL     OW33976   3.551   0.530   4.407  0.5393 -0.1108  0.3489
 7447SOL    HW133977   3.553   0.605   4.467  0.3425 -0.8441  1.2683
 7447SOL    HW233978   3.508   0.575   4.334  0.3563 -0.4098  0.2711
 7448SOL     OW33979   3.759   4.118  16.868 -0.1887  0.5154 -0.1040
 7448SOL    HW133980   3.735   4.210  16.858  0.3241  0.5995 -0.5691
 7448SOL    HW233981   3.841   4.121  16.917  0.3740 -0.8234 -0.9532
 7449SOL     OW33982   4.273   1.839   8.662 -0.1943  0.3367  0.3543
 7449SOL    HW133983   4.288   1.751   8.629  1.4566  0.6254  0.3357
 7449SOL    HW233984   4.304   1.828   8.752  0.7287  3.9772  0.4814
 7450SOL     OW33985   4.279   0.644  16.929  0.1010 -0.3057 -0.3592
 7450SOL    HW133986   4.261   0.644  16.835  0.4370 -1.2172 -0.4289
 7450SOL    HW233987   4.290   0.737  16.947 -1.9953  0.5268 -3.5391
 7451SOL     OW33988   1.397   1.182   4.147 -0.3300  0.1921  0.9167
 7451SOL    HW133989   1.321   1.131   4.119  0.4075 -0.0694 -0.5850
 7451SOL    HW233990   1.424   1.133   4.225  3.0043 -0.9748 -0.9736
 7452SOL     OW33991   3.525   0.794   3.688  0.5637 -0.0911  0.5246
 7452SOL    HW133992   3.558   0.727   3.628 -1.5524  1.7730 -2.6868
 7452SOL    HW233993   3.484   0.740   3.755 -1.1403  0.5671  0.0135
 7453SOL     OW33994   1.386   4.266   8.812  0.6050 -0.7208  0.0875
 7453SOL    HW133995   1.434   4.220   8.881 -1.8935 -2.4943  0.6236
 7453SOL    HW233996   1.460   4.312   8.772  0.0295 -1.3476 -1.6997
 7454SOL     OW33997   3.797   0.712   6.606  0.2126 -0.7693 -0.1028
 7454SOL    HW133998   3.836   0.677   6.686 -0.9152  0.6132  1.0579
 7454SOL    HW233999   3.787   0.799   6.644 -0.2076 -0.7501 -0.2501
 7455SOL     OW34000   0.008   2.545  17.295  0.7604 -0.0309  0.2961
 7455SOL    HW134001   4.727   2.561  17.387  0.3205  0.3573  0.1351
 7455SOL    HW234002   0.046   2.458  17.303  0.5537 -0.0117  1.4139
 7456SOL     OW34003   0.684   4.498   9.500 -0.3506  0.1320 -0.1050
 7456SOL    HW134004   0.605   4.490   9.447 -0.0398  1.9490 -0.8492
 7456SOL    HW234005   0.660   4.555   9.573  0.4409 -0.0344  0.2854
 7457SOL     OW34006   1.980   0.093   2.131  0.1375  0.2631  0.4614
 7457SOL    HW134007   1.909   0.032   2.112  0.4917 -0.0293  0.0558
 7457SOL    HW234008   2.057   0.038   2.115 -0.9904 -1.0094 -0.5390
 7458SOL     OW34009   4.444   1.992   4.374  0.2463  0.9684  0.3796
 7458SOL    HW134010   4.441   1.923   4.441 -0.5837 -0.9918 -1.6918
 7458SOL    HW234011   4.399   1.949   4.301  2.3586 -1.5737  0.5637
 7459SOL     OW34012   0.703   3.433   8.679 -0.0683  0.0810  0.4594
 7459SOL    HW134013   0.657   3.512   8.707 -0.8396 -0.6453  1.2015
 7459SOL    HW234014   0.647   3.367   8.720  0.5924 -0.8688 -0.1641
 7460SOL     OW34015   1.215   0.827   5.015 -0.0038 -0.2214 -0.0722
 7460SOL    HW134016   1.148   0.891   5.041  0.1936  0.3662 -0.9777
 7460SOL    HW234017   1.160   0.751   4.995 -1.3007  1.0138 -1.2678
 7461SOL     OW34018   4.375   0.992   5.419  0.3638  0.3149 -0.2706
 7461SOL    HW134019   4.405   0.929   5.353 -2.6440 -0.0494 -1.3082
 7461SOL    HW234020   4.336   0.931   5.481 -1.0069  0.6696 -0.7748
 7462SOL     OW34021   1.108   4.246  13.177  0.7195  0.0831 -0.6179
 7462SOL    HW134022   1.155   4.329  13.187  0.0642  0.5553 -1.4351
 7462SOL    HW234023   1.081   4.243  13.085 -3.9904 -0.3779  0.7560
 7463SOL     OW34024   0.334   3.585  15.880 -0.0877  0.1203  0.3940
 7463SOL    HW134025   0.380   3.668  15.892 -0.7027  0.4191  0.6662
 7463SOL    HW234026   0.260   3.609  15.825 -0.0634  0.1898  0.3911
 7464SOL     OW34027   4.367   1.604  13.994  0.5526 -0.0572 -0.0658
 7464SOL    HW134028   4.308   1.676  13.972  0.3983 -0.7921 -2.0745
 7464SOL    HW234029   4.353   1.540  13.924 -2.1587  0.2773  0.1649
 7465SOL     OW34030   3.300   2.298  12.729  0.0652  0.3458  0.0990
 7465SOL    HW134031   3.374   2.332  12.680  0.4943  0.9944  1.1874
 7465SOL    HW234032   3.253   2.377  12.758  0.6504  0.3290  1.0880
 7466SOL     OW34033   3.870   3.388   4.604 -0.0073 -0.0600  0.4115
 7466SOL    HW134034   3.892   3.295   4.606 -0.6033 -0.1400  2.3450
 7466SOL    HW234035   3.781   3.391   4.569 -0.9522 -0.0141  2.8616
 7467SOL     OW34036   4.534   1.420   1.836 -0.1303 -0.0315 -0.1237
 7467SOL    HW134037   4.620   1.387   1.862 -1.3354 -0.5405  3.1912
 7467SOL    HW234038   4.504   1.350   1.778 -2.1149 -0.0822  0.9791
 7468SOL     OW34039   0.202   1.232   3.860  0.0275 -0.1301 -0.5699
 7468SOL    HW134040   0.125   1.287   3.848 -0.6993 -0.8494  0.7721
 7468SOL    HW234041   0.246   1.283   3.928 -2.0934  0.2473  0.5040
 7469SOL     OW34042   0.100   0.326  10.992  0.2794  0.5849  0.6462
 7469SOL    HW134043   0.092   0.338  10.897  1.0568  0.4301  0.5545
 7469SOL    HW234044   0.195   0.320  11.002  0.4533  0.8165 -0.8564
 7470SOL     OW34045   0.567   2.060   5.408  0.3772 -0.0825 -0.0444
 7470SOL    HW134046   0.578   2.016   5.493 -0.9261 -0.1057  0.1049
 7470SOL    HW234047   0.478   2.027   5.394 -0.2444  1.1722  1.0025
 7471SOL     OW34048   0.417   1.008   6.634 -0.2239  0.2765 -0.7768
 7471SOL    HW134049   0.513   1.002   6.631 -0.3916 -1.9814 -1.4363
 7471SOL    HW234050   0.397   0.924   6.592 -1.7390 -0.2096  0.8904
 7472SOL     OW34051   3.783   2.513   3.411 -0.2133  0.5747  0.4606
 7472SOL    HW134052   3.758   2.581   3.349  0.2587  0.4599  0.1411
 7472SOL    HW234053   3.879   2.513   3.406 -0.0601  2.6281  3.4013
 7473SOL     OW34054   3.535   3.899   7.751 -0.0632  0.4630 -0.5439
 7473SOL    HW134055   3.476   3.849   7.694  0.2933 -0.8832  0.2794
 7473SOL    HW234056   3.562   3.973   7.697 -0.6479  1.9897  1.2617
 7474SOL     OW34057   1.463   0.477  11.613 -0.1729  0.1105  0.4652
 7474SOL    HW134058   1.498   0.462  11.701  0.1852 -1.7815  0.0070
 7474SOL    HW234059   1.539   0.517  11.571  0.4319 -0.6431  0.8355
 7475SOL     OW34060   2.362   4.266  12.083  0.1792  0.0444  0.0980
 7475SOL    HW134061   2.386   4.305  11.999 -1.0735 -1.2567 -0.8842
 7475SOL    HW234062   2.445   4.271  12.131 -0.7219 -0.0379  1.6648
 7476SOL     OW34063   4.225   4.388   2.332  0.1642 -0.0181 -0.2494
 7476SOL    HW134064   4.309   4.430   2.344  0.5377 -0.7418 -0.3186
 7476SOL    HW234065   4.241   4.296   2.352  0.0118  0.4382  2.0044
 7477SOL     OW34066   4.232   0.162   4.145 -0.0330 -0.3742  0.3547
 7477SOL    HW134067   4.257   0.196   4.231 -2.8069  1.2143  0.5481
 7477SOL    HW234068   4.216   0.245   4.100  1.1211 -0.9130 -1.0651
 7478SOL     OW34069   2.156   0.358  11.165  0.7519  0.3483  0.1281
 7478SOL    HW134070   2.174   0.449  11.140  1.2457  0.4764  0.9824
 7478SOL    HW234071   2.245   0.337  11.193  1.3067 -0.4690 -2.1732
 7479SOL     OW34072   1.223   4.467  16.196  0.2131 -0.7651 -0.1297
 7479SOL    HW134073   1.224   4.380  16.237 -0.4333 -0.3864  0.7022
 7479SOL    HW234074   1.275   4.513  16.262  1.7630 -1.4067 -0.8971
 7480SOL     OW34075   3.744   4.675   8.572 -0.2787  0.5605 -0.0810
 7480SOL    HW134076   3.745   0.032   8.573  0.2851  0.5558 -0.1590
 7480SOL    HW234077   3.714   4.660   8.662 -1.4885  2.0207 -0.2340
 7481SOL     OW34078   3.639   0.344   7.020  0.3881 -0.2728  0.6800
 7481SOL    HW134079   3.732   0.322   7.009  1.3332  3.9630  0.1251
 7481SOL    HW234080   3.624   0.414   6.956 -0.2299 -2.0876 -1.1420
 7482SOL     OW34081   4.056   3.726   5.883 -0.2508 -0.3206 -0.2849
 7482SOL    HW134082   4.046   3.821   5.879  2.5813 -0.0789 -1.4376
 7482SOL    HW234083   4.023   3.699   5.798  0.7596 -1.4298 -0.3229
 7483SOL     OW34084   1.669   2.896  13.321 -0.1236 -0.3319  0.0343
 7483SOL    HW134085   1.646   2.880  13.230  0.6985 -0.2720 -0.1805
 7483SOL    HW234086   1.754   2.938  13.310 -0.7453  0.3251 -2.1170
 7484SOL     OW34087   0.819   4.711   4.741  0.2449  0.1215  0.3582
 7484SOL    HW134088   0.826   0.052   4.793 -1.0661  1.2045 -1.1401
 7484SOL    HW234089   0.896   4.663   4.772 -0.4743 -0.3383  1.4540
 7485SOL     OW34090   4.636   0.646   1.342 -0.0205  0.1575  0.4361
 7485SOL    HW134091   4.647   0.741   1.342 -0.3147  0.1906  0.0553
 7485SOL    HW234092   4.541   0.641   1.358  0.4479 -1.3122  2.8053
 7486SOL     OW34093   0.794   2.061   0.470  0.1915  0.0185 -0.8954
 7486SOL    HW134094   0.887   2.057   0.446 -0.2530 -2.0989 -2.3615
 7486SOL    HW234095   0.764   2.106   0.391 -0.0086 -0.8738 -1.3362
 7487SOL     OW34096   1.638   1.267   8.793  0.2730  0.1788  0.1786
 7487SOL    HW134097   1.569   1.214   8.832  0.3096  0.2450  0.3354
 7487SOL    HW234098   1.618   1.349   8.838 -1.2359 -1.2725  2.1418
 7488SOL     OW34099   4.236   3.633  16.965 -0.5353  0.2732 -0.4041
 7488SOL    HW134100   4.269   3.667  16.882  0.0572 -0.2556 -0.3847
 7488SOL    HW234101   4.301   3.671  17.024 -2.6551  1.3040  1.2954
 7489SOL     OW34102   4.159   1.196   5.961  0.4098 -0.3790 -0.4187
 7489SOL    HW134103   4.184   1.221   6.050  0.9693  0.8724 -0.9351
 7489SOL    HW234104   4.162   1.103   5.986 -0.8232 -0.3408 -0.1616
 7490SOL     OW34105   1.488   2.997   7.320  0.0868  0.0318  0.2527
 7490SOL    HW134106   1.557   2.972   7.382  1.3462 -1.3766 -1.7328
 7490SOL    HW234107   1.433   2.919   7.325 -1.6252  1.2170 -0.1039
 7491SOL     OW34108   2.374   1.694   3.776 -0.0025 -0.1800 -0.5057
 7491SOL    HW134109   2.450   1.714   3.830 -1.5245  0.8610  1.2627
 7491SOL    HW234110   2.385   1.601   3.754  0.3203  0.1414 -1.7402
 7492SOL     OW34111   2.343   1.946   9.482 -1.0284 -0.1805  0.5570
 7492SOL    HW134112   2.362   2.038   9.464 -2.7142  0.2878  1.1233
 7492SOL    HW234113   2.414   1.899   9.439  0.2538  1.2384  1.1337
 7493SOL     OW34114   2.658   2.887   7.146  0.3069 -0.8001  0.0678
 7493SOL    HW134115   2.625   2.916   7.060  0.0013 -0.5212  0.2781
 7493SOL    HW234116   2.705   2.964   7.177  0.0913  0.3364 -2.3921
 7494SOL     OW34117   0.949   4.085  11.074 -0.3820 -0.1874  0.7929
 7494SOL    HW134118   0.966   4.032  11.153  3.1297  0.4106  0.4500
 7494SOL    HW234119   1.020   4.061  11.015  1.0625 -0.2684  2.5492
 7495SOL     OW34120   2.842   3.258   0.927  0.4615 -0.0629  0.0650
 7495SOL    HW134121   2.922   3.282   0.880  1.4360  0.3881  1.9514
 7495SOL    HW234122   2.875   3.196   0.991  0.3562  0.2248  0.3956
 7496SOL     OW34123   3.700   2.292  11.715 -0.4926 -0.0666  0.3584
 7496SOL    HW134124   3.650   2.371  11.735  0.2921  0.7256 -0.8681
 7496SOL    HW234125   3.711   2.298  11.620  1.1677 -2.1789  0.4285
 7497SOL     OW34126   0.823   3.720   7.187  0.0624 -0.2301  0.4486
 7497SOL    HW134127   0.816   3.812   7.213  0.8885 -0.1585  0.4434
 7497SOL    HW234128   0.907   3.699   7.228  0.1408 -1.4098 -0.3335
 7498SOL     OW34129   3.776   4.502  13.050 -0.6192  0.0143  0.1863
 7498SOL    HW134130   3.740   4.548  12.973  0.6809  0.5774 -0.0712
 7498SOL    HW234131   3.758   4.570  13.115 -1.3381 -0.1933  0.2043
 7499SOL     OW34132   3.824   0.157  14.208  0.2165  0.5784 -0.0008
 7499SOL    HW134133   3.854   0.080  14.158  0.7486  1.2003 -0.6431
 7499SOL    HW234134   3.905   0.169  14.257  0.5339 -0.6472 -0.2059
 7500SOL     OW34135   1.066   2.933   9.957 -0.3361  0.3346  0.1418
 7500SOL    HW134136   1.079   2.917  10.051 -1.0982  2.3957  0.6069
 7500SOL    HW234137   1.014   2.859   9.928 -0.9527 -0.0639  2.2626
 7501SOL     OW34138   2.621   2.972   7.507  0.0355 -0.2111 -0.1016
 7501SOL    HW134139   2.581   3.012   7.584 -1.2123 -1.0255 -0.3426
 7501SOL    HW234140   2.627   3.045   7.445  0.3204 -0.3787 -0.2719
 7502SOL     OW34141   2.493   1.753   6.156  0.0364  0.1738 -0.1470
 7502SOL    HW134142   2.445   1.680   6.117 -0.6889  1.3113 -1.3838
 7502SOL    HW234143   2.470   1.808   6.081  2.0652  0.6904 -0.3823
 7503SOL     OW34144   1.454   2.838   8.098 -0.0360 -0.2026 -0.0935
 7503SOL    HW134145   1.525   2.852   8.160 -1.7321 -0.8517  2.0038
 7503SOL    HW234146   1.490   2.806   8.015  1.5832 -1.5250  1.1045
 7504SOL     OW34147   4.362   1.409  12.114 -0.1946 -0.4475 -0.0472
 7504SOL    HW134148   4.330   1.499  12.125 -2.5089 -1.3120  0.2798
 7504SOL    HW234149   4.435   1.425  12.055 -1.4853 -0.5800 -1.6827
 7505SOL     OW34150   0.365   3.437   3.976  0.2704  0.6147  0.2488
 7505SOL    HW134151   0.361   3.342   3.970  0.5476  0.6867 -1.0598
 7505SOL    HW234152   0.404   3.453   3.890 -0.9278  0.6641 -0.2926
 7506SOL     OW34153   3.827   3.593  15.585  0.4394 -0.5790  0.3015
 7506SOL    HW134154   3.915   3.616  15.615  0.5588  1.5418 -1.6956
 7506SOL    HW234155   3.783   3.677  15.582  3.0486  0.7961  0.7212
 7507SOL     OW34156   4.510   3.033   7.174  0.9015  0.1490 -0.1832
 7507SOL    HW134157   4.540   3.123   7.159  1.6425 -0.0957 -0.1710
 7507SOL    HW234158   4.444   3.029   7.105  0.1898  1.1451  0.4252
 7508SOL     OW34159   2.688   4.203   9.046  0.3537 -0.4578 -0.3286
 7508SOL    HW134160   2.769   4.152   9.041 -0.0790 -1.2561  0.9510
 7508SOL    HW234161   2.693   4.218   9.140  0.7434 -0.6893 -0.3141
 7509SOL     OW34162   4.660   0.654   5.217  0.3059  0.7684 -0.5356
 7509SOL    HW134163   4.706   0.673   5.299  0.2424 -0.6440 -0.1730
 7509SOL    HW234164   4.672   0.739   5.174  0.2975  1.7642  1.3917
 7510SOL     OW34165   2.246   1.593  13.950 -0.1988 -0.3583 -0.5998
 7510SOL    HW134166   2.154   1.615  13.967  0.1886  0.9020 -0.1212
 7510SOL    HW234167   2.244   1.610  13.856  1.1807 -1.3155 -0.7953
 7511SOL     OW34168   2.320   1.253   2.905  0.1021  0.1019 -0.6240
 7511SOL    HW134169   2.397   1.308   2.919  1.7519 -1.6303 -2.9510
 7511SOL    HW234170   2.282   1.311   2.839 -1.1038 -0.1603 -0.1675
 7512SOL     OW34171   1.459   4.062   2.909  0.3322  0.1913 -0.0389
 7512SOL    HW134172   1.457   3.967   2.912 -2.2133  0.2770  1.3721
 7512SOL    HW234173   1.554   4.069   2.909  0.2755  1.0024  1.8674
 7513SOL     OW34174   1.825   1.670  16.530 -0.9918 -0.0913 -0.3119
 7513SOL    HW134175   1.824   1.603  16.461  2.6086 -1.5115  0.9901
 7513SOL    HW234176   1.800   1.743  16.474 -0.5432  1.1148  1.0710
 7514SOL     OW34177   1.647   2.280   1.068 -0.3273  0.2619 -0.6917
 7514SOL    HW134178   1.558   2.260   1.038 -0.5428  0.7297 -0.3673
 7514SOL    HW234179   1.652   2.243   1.156  2.9553  0.6686 -0.7101
 7515SOL     OW34180   0.857   2.189   6.360  0.3434  0.5356 -0.2962
 7515SOL    HW134181   0.858   2.166   6.453 -0.4671  2.4653  0.2062
 7515SOL    HW234182   0.948   2.176   6.334  0.5951 -0.5690  1.1368
 7516SOL     OW34183   3.530   4.164   6.025 -0.2810 -0.1767  0.3151
 7516SOL    HW134184   3.519   4.172   6.120  0.6715  1.8813  0.2562
 7516SOL    HW234185   3.497   4.074   6.021  1.0630 -0.6843  0.5656
 7517SOL     OW34186   3.683   0.796   7.010  0.1627 -0.4989 -0.4628
 7517SOL    HW134187   3.688   0.879   7.056 -2.2492 -0.6666  0.0958
 7517SOL    HW234188   3.589   0.782   7.010  0.3086 -1.4633  1.2225
 7518SOL     OW34189   4.317   1.676  11.113 -0.4705  0.5029  0.1666
 7518SOL    HW134190   4.353   1.647  11.029  0.3030 -0.0337  0.6807
 7518SOL    HW234191   4.371   1.633  11.178 -0.7036  0.5680  0.4018
 7519SOL     OW34192   0.585   3.452   5.858 -0.4432  0.5508  0.2725
 7519SOL    HW134193   0.618   3.528   5.907  0.5946 -0.8241  1.7011
 7519SOL    HW234194   0.660   3.414   5.810 -1.5495 -0.2794 -0.7964
 7520SOL     OW34195   2.561   1.777  12.601  0.8570  0.2649 -0.0329
 7520SOL    HW134196   2.554   1.683  12.618 -0.8960  0.3804 -0.1005
 7520SOL    HW234197   2.603   1.814  12.679  1.8807  1.7738 -1.3211
 7521SOL     OW34198   2.880   2.937   9.247 -0.1607  0.4846  0.5839
 7521SOL    HW134199   2.930   2.950   9.166 -1.9511 -0.2196 -0.6211
 7521SOL    HW234200   2.951   2.945   9.312  0.0527 -0.8033  0.5094
 7522SOL     OW34201   0.600   1.438   6.482  0.4075  0.6159 -0.1332
 7522SOL    HW134202   0.513   1.462   6.514 -0.0807  0.9489 -1.7254
 7522SOL    HW234203   0.656   1.464   6.556 -0.5717  0.1582  0.7606
 7523SOL     OW34204   3.424   0.616  16.096  0.4925 -0.2439 -0.0568
 7523SOL    HW134205   3.458   0.540  16.048 -0.7977  0.6362 -2.3430
 7523SOL    HW234206   3.331   0.595  16.102  0.5014 -0.5819 -1.1165
 7524SOL     OW34207   3.268   0.865   5.707  0.4583 -0.0489  0.5533
 7524SOL    HW134208   3.235   0.858   5.796 -0.5227  0.2161  0.2083
 7524SOL    HW234209   3.305   0.953   5.710  0.5419 -0.1021  1.0657
 7525SOL     OW34210   3.186   2.992   3.076 -0.2314 -0.2629 -0.1965
 7525SOL    HW134211   3.170   2.914   3.022 -0.4275 -0.8357  0.6783
 7525SOL    HW234212   3.198   3.056   3.006 -2.2179 -0.5808 -0.8503
 7526SOL     OW34213   1.111   1.339   4.436 -0.5128 -0.0276 -0.3990
 7526SOL    HW134214   1.103   1.243   4.436  1.2259 -0.1658 -0.4413
 7526SOL    HW234215   1.160   1.360   4.357 -0.8464 -1.1306 -0.9032
 7527SOL     OW34216   2.247   1.994   2.233 -0.3565  0.5528 -0.3916
 7527SOL    HW134217   2.295   1.959   2.158  1.1202 -1.2367  1.4169
 7527SOL    HW234218   2.182   1.924   2.242 -0.9445  1.1935  0.3104
 7528SOL     OW34219   2.875   2.444  10.737 -0.3046  0.5308  0.4538
 7528SOL    HW134220   2.917   2.358  10.742 -1.1180  0.1449  0.6918
 7528SOL    HW234221   2.910   2.485  10.816 -1.6615  0.3594  1.1482
 7529SOL     OW34222   2.544   3.978   4.701  0.1789  0.2290  0.6246
 7529SOL    HW134223   2.465   3.946   4.656 -0.0409 -2.5291  2.9357
 7529SOL    HW234224   2.527   4.071   4.712  0.9231  0.5376 -0.8875
 7530SOL     OW34225   2.045   3.762   3.464 -0.3579 -0.0417  0.7572
 7530SOL    HW134226   1.978   3.728   3.404  1.3181 -0.8094 -0.6731
 7530SOL    HW234227   2.121   3.706   3.450 -0.1969 -0.3906  3.1424
 7531SOL     OW34228   2.005   0.272   8.509 -0.0960 -0.1623  0.2580
 7531SOL    HW134229   2.038   0.208   8.446  1.3224  0.8597 -0.0278
 7531SOL    HW234230   2.059   0.348   8.490  1.2131 -1.3253 -0.7378
 7532SOL     OW34231   2.832   3.533   5.101 -0.0571 -0.4381 -0.2435
 7532SOL    HW134232   2.779   3.458   5.072  0.4146 -1.7950  2.3674
 7532SOL    HW234233   2.793   3.615   5.071  0.1875 -1.0643 -2.2880
 7533SOL     OW34234   0.180   4.543   5.619 -0.7361 -0.0867  0.1432
 7533SOL    HW134235   0.116   4.598   5.664  0.6729  1.9072 -0.2676
 7533SOL    HW234236   0.246   4.611   5.603  0.1945 -1.5203 -2.1917
 7534SOL     OW34237   2.452   3.677   2.932 -0.5793 -0.2630  0.6606
 7534SOL    HW134238   2.440   3.618   2.858 -2.0217  0.0166  0.6621
 7534SOL    HW234239   2.369   3.668   2.980 -1.2775  2.3238 -0.0098
 7535SOL     OW34240   2.806   2.319   3.685  0.0916 -0.2300 -0.2683
 7535SOL    HW134241   2.738   2.254   3.703 -0.8969  0.7205 -0.5390
 7535SOL    HW234242   2.794   2.377   3.760  2.0547 -1.5819  1.0863
 7536SOL     OW34243   4.115   0.823   0.770 -0.4332  0.2813 -0.0374
 7536SOL    HW134244   4.191   0.806   0.715 -0.5284  1.3940 -0.5121
 7536SOL    HW234245   4.040   0.799   0.716 -0.3282  0.4575 -0.2623
 7537SOL     OW34246   4.728   1.566   8.348 -0.2227 -0.0879  0.0130
 7537SOL    HW134247   0.007   1.568   8.254 -0.1925  0.1682  0.0245
 7537SOL    HW234248   0.074   1.605   8.371  1.5117 -2.8458 -1.6349
 7538SOL     OW34249   2.759   4.194   4.844  0.6228 -0.8072 -0.6766
 7538SOL    HW134250   2.694   4.243   4.894  0.4372 -1.4200 -0.3203
 7538SOL    HW234251   2.814   4.164   4.916  0.8921  2.5264  0.5366
 7539SOL     OW34252   2.770   3.647   3.896  0.4754 -0.1144 -0.2121
 7539SOL    HW134253   2.778   3.707   3.971  0.0808 -2.2542  1.5385
 7539SOL    HW234254   2.841   3.583   3.902  0.5393  0.0344  0.6332
 7540SOL     OW34255   0.283   2.125   8.325  0.0479 -0.3355 -0.1732
 7540SOL    HW134256   0.372   2.091   8.319  0.2984  0.3610 -0.3364
 7540SOL    HW234257   0.281   2.219   8.339 -0.7016 -0.4368  0.4323
 7541SOL     OW34258   1.920   2.473   3.786  0.2382  0.0673  0.3754
 7541SOL    HW134259   1.829   2.480   3.756  0.2558 -0.9008  0.0872
 7541SOL    HW234260   1.937   2.380   3.801  1.0471  0.1200 -0.1845
 7542SOL     OW34261   2.002   2.453   9.688 -0.3564 -0.0944  0.6624
 7542SOL    HW134262   2.077   2.399   9.715  1.4158  1.1262 -1.7430
 7542SOL    HW234263   2.054   2.523   9.647  0.1250 -0.9260 -0.1611
 7543SOL     OW34264   2.673   4.589   1.563 -0.7168 -0.7099 -0.2909
 7543SOL    HW134265   2.763   4.557   1.556 -0.0014  0.8630  2.0987
 7543SOL    HW234266   2.692   4.683   1.567 -0.0704 -0.9077  1.2828
 7544SOL     OW34267   3.594   3.962   1.181 -0.3201  0.1837  0.6053
 7544SOL    HW134268   3.650   4.038   1.195 -0.4799  0.2516  0.8767
 7544SOL    HW234269   3.523   4.007   1.135  0.0135 -0.5600 -0.6428
 7545SOL     OW34270   1.218   1.816   9.482  0.2959 -0.3804 -0.1706
 7545SOL    HW134271   1.203   1.843   9.573  0.2401  4.2077 -1.5303
 7545SOL    HW234272   1.189   1.897   9.442  1.6295  0.5143  0.6732
 7546SOL     OW34273   2.884   2.271   0.512 -0.5282  0.0219  0.4322
 7546SOL    HW134274   2.871   2.331   0.585  0.3889  0.6843  0.0572
 7546SOL    HW234275   2.948   2.317   0.458  1.5058 -0.9893  2.0135
 7547SOL     OW34276   1.788   0.466   7.988  0.5045  0.6372  0.2146
 7547SOL    HW134277   1.738   0.526   7.934  0.3093 -0.6999 -1.0856
 7547SOL    HW234278   1.874   0.490   7.952  1.2534 -2.4898 -0.0617
 7548SOL     OW34279   0.910   3.241   8.316  0.0489 -0.7729 -0.2982
 7548SOL    HW134280   0.828   3.280   8.347  0.5315 -0.5287  0.6642
 7548SOL    HW234281   0.902   3.225   8.222 -0.0216 -0.9514 -0.2613
 7549SOL     OW34282   0.077   2.050   6.125  0.0284 -0.1162 -0.0793
 7549SOL    HW134283   0.143   1.985   6.098 -0.4225 -0.9397  0.8016
 7549SOL    HW234284   0.101   2.128   6.075  1.1524 -0.3055  0.1530
 7550SOL     OW34285   0.783   3.629   2.738 -1.2935  0.0885 -0.1256
 7550SOL    HW134286   0.736   3.689   2.680 -0.5682 -1.1108 -1.9509
 7550SOL    HW234287   0.783   3.687   2.814  0.9254 -1.3054  0.9388
 7551SOL     OW34288   0.105   3.747   7.139 -0.3382  0.1001  0.0122
 7551SOL    HW134289   0.151   3.803   7.201  1.5295 -1.8508  0.3705
 7551SOL    HW234290   0.047   3.710   7.205 -0.0151  0.0381  0.2631
 7552SOL     OW34291   4.559   2.249   7.784 -0.1361  0.4613 -0.1626
 7552SOL    HW134292   4.626   2.311   7.755 -0.3444  0.3595 -0.8571
 7552SOL    HW234293   4.565   2.193   7.707  0.7629 -0.3418  0.4919
 7553SOL     OW34294   2.624   0.413   6.753  0.1106 -0.2705  0.4388
 7553SOL    HW134295   2.664   0.356   6.818  1.1113 -0.6097 -0.4700
 7553SOL    HW234296   2.696   0.448   6.700 -0.2764 -0.0770  0.0375
 7554SOL     OW34297   3.829   1.254  17.362  0.1540  0.7796 -0.0101
 7554SOL    HW134298   3.740   1.285  17.380  0.1104  1.0548 -0.6746
 7554SOL    HW234299   3.863   1.333  17.318 -2.2142  0.7243 -1.9568
 7555SOL     OW34300   4.261   0.593   7.403  0.4123  0.7823 -0.4348
 7555SOL    HW134301   4.318   0.545   7.463 -0.2138  0.6774  0.0816
 7555SOL    HW234302   4.180   0.545   7.420  1.0132 -0.4745 -1.0836
 7556SOL     OW34303   0.946   4.315   9.372  0.6099 -0.3414  0.4989
 7556SOL    HW134304   0.935   4.334   9.466  1.0909 -1.1993  0.7249
 7556SOL    HW234305   1.033   4.345   9.347 -0.1777  1.1430 -0.4545
 7557SOL     OW34306   4.110   1.274   6.729  0.2056 -0.1643 -0.6871
 7557SOL    HW134307   4.116   1.359   6.773 -1.9921 -0.0563 -0.5828
 7557SOL    HW234308   4.164   1.298   6.654 -0.7026 -0.6846 -1.5109
 7558SOL     OW34309   2.199   1.199   6.008  0.5709 -0.2015  0.1076
 7558SOL    HW134310   2.181   1.164   5.921 -1.2750 -2.4607  1.4000
 7558SOL    HW234311   2.227   1.115   6.046  0.5590 -0.9413 -1.5118
 7559SOL     OW34312   3.733   0.127  16.663  0.1412 -0.2531  0.2802
 7559SOL    HW134313   3.714   0.062  16.731 -1.1355 -2.0153 -1.7478
 7559SOL    HW234314   3.646   0.168  16.660  0.7166  1.0351  1.1466
 7560SOL     OW34315   4.265   0.105   8.236  0.3158 -0.1197 -0.0350
 7560SOL    HW134316   4.264   0.145   8.149  2.3112 -0.7900 -0.3514
 7560SOL    HW234317   4.237   0.180   8.288 -0.0040 -1.1518  1.2790
 7561SOL     OW34318   1.679   4.107  16.462 -0.2569  0.8067  0.3973
 7561SOL    HW134319   1.732   4.185  16.442  1.1773  0.4251  2.6051
 7561SOL    HW234320   1.739   4.036  16.486  2.4148  3.1804  0.8183
 7562SOL     OW34321   0.372   0.807   4.082  0.4901 -0.0600  0.1270
 7562SOL    HW134322   0.324   0.869   4.028 -0.1439  0.0972  0.8560
 7562SOL    HW234323   0.456   0.807   4.037  0.2867 -1.0469 -0.2436
 7563SOL     OW34324   1.408   3.361   9.858  0.3031  0.2834 -0.1290
 7563SOL    HW134325   1.393   3.456   9.863 -2.1663 -0.1403  0.5641
 7563SOL    HW234326   1.331   3.330   9.906  0.0755 -0.0350 -0.7026
 7564SOL     OW34327   1.303   4.495  10.848  0.0717 -0.3357  0.4805
 7564SOL    HW134328   1.376   4.455  10.802 -0.8079 -1.6493  0.2432
 7564SOL    HW234329   1.276   4.425  10.907  0.9916 -0.4147  0.8091
 7565SOL     OW34330   3.167   0.408   4.238 -0.7278 -0.1379 -0.1059
 7565SOL    HW134331   3.102   0.343   4.266 -1.3197  0.7336  0.5891
 7565SOL    HW234332   3.220   0.426   4.316  1.6344 -0.3122 -1.6898
 7566SOL     OW34333   1.228   3.616   4.541  0.3471 -0.4242 -0.6675
 7566SOL    HW134334   1.153   3.559   4.562  1.1338 -1.0526  0.4436
 7566SOL    HW234335   1.167   3.689   4.535 -0.1788 -0.8539 -0.5909
 7567SOL     OW34336   1.633   1.701   7.229 -0.1190 -0.1734  0.0043
 7567SOL    HW134337   1.718   1.661   7.214 -1.4071 -2.9832  0.0189
 7567SOL    HW234338   1.629   1.659   7.315  0.4426  2.9828  1.5601
 7568SOL     OW34339   1.181   3.389  10.036  0.4606 -0.3050  0.2356
 7568SOL    HW134340   1.161   3.477  10.066  2.9453  0.3779 -0.0685
 7568SOL    HW234341   1.228   3.354  10.112 -0.0980  0.6922  1.0378
 7569SOL     OW34342   3.870   0.071  12.262 -0.1775  0.3255 -0.6747
 7569SOL    HW134343   3.812   0.021  12.319 -0.2773 -0.0289 -1.0849
 7569SOL    HW234344   3.946   0.012  12.268 -0.9430 -0.6013 -0.2274
 7570SOL     OW34345   3.151   0.063   5.129 -0.5235 -0.2053 -0.3854
 7570SOL    HW134346   3.089   0.054   5.057 -1.5808 -0.4066  0.5496
 7570SOL    HW234347   3.177   0.152   5.106  0.5359 -0.5644 -0.6000
 7571SOL     OW34348   3.821   2.443   6.236  0.2311 -0.0670 -0.3739
 7571SOL    HW134349   3.866   2.374   6.285 -0.5712 -2.1872 -2.6507
 7571SOL    HW234350   3.877   2.520   6.241 -2.0139  1.7275 -2.7845
 7572SOL     OW34351   2.599   2.319   2.577 -0.0589  0.3028 -0.0104
 7572SOL    HW134352   2.604   2.286   2.487  0.6732 -2.9114  1.2224
 7572SOL    HW234353   2.525   2.265   2.606 -2.0766  1.9839 -1.9442
 7573SOL     OW34354   2.592   0.828   8.044  0.1454 -0.5809 -0.0367
 7573SOL    HW134355   2.611   0.898   8.107 -1.0951 -0.3371  0.0585
 7573SOL    HW234356   2.523   0.875   7.998  0.0030  0.1184  0.8795
 7574SOL     OW34357   1.740   3.492   1.211 -0.0033  0.4023 -0.0530
 7574SOL    HW134358   1.796   3.446   1.272 -1.4770 -1.8946 -0.4242
 7574SOL    HW234359   1.654   3.454   1.231  0.2677  0.1301  0.5605
 7575SOL     OW34360   3.497   4.124  10.654 -0.1118  0.0918  0.2723
 7575SOL    HW134361   3.585   4.160  10.643 -0.0338 -0.7538 -1.7630
 7575SOL    HW234362   3.514   4.041  10.698  1.3747 -0.2814 -1.0198
 7576SOL     OW34363   0.592   3.850   9.355 -0.4203  0.2078  0.2008
 7576SOL    HW134364   0.626   3.822   9.270  0.7915  3.4619 -0.3750
 7576SOL    HW234365   0.619   3.941   9.361  2.1720 -0.5674  0.4055
 7577SOL     OW34366   1.727   1.942   2.161  0.1379 -0.0057  0.1236
 7577SOL    HW134367   1.751   2.019   2.213 -0.5093  0.3527 -0.1112
 7577SOL    HW234368   1.701   1.898   2.242  1.2986 -2.7879 -1.0201
 7578SOL     OW34369   1.386   2.613  10.711  0.3925  0.2146 -0.1460
 7578SOL    HW134370   1.392   2.525  10.674 -0.5246  0.7531 -1.5685
 7578SOL    HW234371   1.295   2.628  10.688  0.1154 -0.3817  0.5559
 7579SOL     OW34372   4.370   3.022   2.493  1.0183 -0.2397 -0.4976
 7579SOL    HW134373   4.453   2.979   2.515  0.9156 -0.6868 -0.9900
 7579SOL    HW234374   4.356   3.094   2.554  0.5202 -0.2626 -0.5843
 7580SOL     OW34375   2.155   0.176   3.320 -0.2489  0.2178  0.3762
 7580SOL    HW134376   2.122   0.170   3.410  0.0713 -3.1165  0.2424
 7580SOL    HW234377   2.249   0.159   3.327 -0.2998 -1.2547 -2.4794
 7581SOL     OW34378   3.662   1.126   7.444 -0.0027 -0.0778 -0.1036
 7581SOL    HW134379   3.719   1.159   7.513 -1.1827  0.6440  0.5234
 7581SOL    HW234380   3.629   1.042   7.475  2.3282 -1.0924 -0.3733
 7582SOL     OW34381   4.606   1.228  11.208 -0.2150  0.1169  0.0843
 7582SOL    HW134382   4.529   1.186  11.171  0.0588 -1.5015  1.3531
 7582SOL    HW234383   4.581   1.246  11.299  2.9433  0.2982  0.9201
 7583SOL     OW34384   1.117   4.616   8.931 -0.2624  0.5122 -0.5868
 7583SOL    HW134385   1.083   4.660   8.854 -1.1372  1.2965  0.2465
 7583SOL    HW234386   1.184   4.563   8.888 -1.0151 -0.8959 -0.0180
 7584SOL     OW34387   1.817   2.310   6.668 -0.9802  0.3105 -0.2430
 7584SOL    HW134388   1.756   2.270   6.729  2.0526 -4.0221 -0.0824
 7584SOL    HW234389   1.835   2.240   6.605 -0.2176 -1.1503  1.6106
 7585SOL     OW34390   0.460   1.020   1.482  0.2684 -0.6722  0.1841
 7585SOL    HW134391   0.391   1.043   1.420  0.2999 -0.4639  0.2249
 7585SOL    HW234392   0.539   1.037   1.431 -1.0555  1.5649 -1.1300
 7586SOL     OW34393   0.946   0.693   9.088 -0.3054 -0.4964  0.4593
 7586SOL    HW134394   0.920   0.608   9.051 -3.2502  0.2287  0.8820
 7586SOL    HW234395   1.037   0.678   9.112 -0.7901 -2.4929  1.0338
 7587SOL     OW34396   3.006   0.019   9.518 -0.3269  0.3348 -0.4567
 7587SOL    HW134397   2.940   4.700   9.558  0.9773  0.0475  1.3094
 7587SOL    HW234398   3.050   4.692   9.464  0.6295  0.0008  0.7216
 7588SOL     OW34399   3.167   2.724   8.344  0.0028  0.1315 -0.0192
 7588SOL    HW134400   3.235   2.664   8.313  0.8209  1.3300 -0.5367
 7588SOL    HW234401   3.202   2.808   8.315 -1.4112  0.9854  0.7748
 7589SOL     OW34402   3.416   2.960   1.228  0.0060 -0.2522  0.0411
 7589SOL    HW134403   3.478   2.925   1.292  0.2355  2.4852  1.3427
 7589SOL    HW234404   3.334   2.931   1.269 -0.4165 -1.3570 -1.5729
 7590SOL     OW34405   4.072   2.222   4.366 -0.3011 -0.3726 -0.2513
 7590SOL    HW134406   4.139   2.158   4.387 -0.1589 -0.4734 -0.9954
 7590SOL    HW234407   4.008   2.179   4.422  0.2858 -0.3776  0.4072
 7591SOL     OW34408   0.965   2.732   8.203  0.5870 -0.3001 -0.2109
 7591SOL    HW134409   0.962   2.766   8.293  1.7047 -0.0537 -0.2601
 7591SOL    HW234410   1.044   2.775   8.168  0.4494  0.6713  0.6784
 7592SOL     OW34411   3.920   3.868   7.122 -0.3193  0.1102 -0.1978
 7592SOL    HW134412   3.856   3.925   7.165  1.3229  1.9343 -0.1933
 7592SOL    HW234413   3.884   3.877   7.034  2.5771 -0.9391 -1.4977
 7593SOL     OW34414   4.704   2.053   7.106 -0.6263 -0.5308  0.3210
 7593SOL    HW134415   4.670   1.969   7.138  1.3125 -2.5522 -3.0087
 7593SOL    HW234416   4.638   2.077   7.040 -1.0859 -2.0153  0.2548
 7594SOL     OW34417   1.619   3.202   1.423 -0.4652 -0.2036 -0.2338
 7594SOL    HW134418   1.701   3.201   1.374 -0.0200  0.1796  0.5108
 7594SOL    HW234419   1.661   3.207   1.509  0.2049  5.1343 -0.8600
 7595SOL     OW34420   0.254   1.247   8.817 -0.7275 -0.1638  0.3310
 7595SOL    HW134421   0.238   1.333   8.856  0.9786  0.6771 -0.8222
 7595SOL    HW234422   0.345   1.249   8.789 -0.6504 -4.5307  0.2337
 7596SOL     OW34423   0.579   4.163   7.329  0.3722  0.1745 -0.1111
 7596SOL    HW134424   0.573   4.251   7.290  2.7854  0.1709 -0.5051
 7596SOL    HW234425   0.594   4.187   7.420  0.0255 -0.9466  0.2416
 7597SOL     OW34426   1.434   1.477  16.206  0.4956 -0.0221 -0.1361
 7597SOL    HW134427   1.470   1.409  16.149  2.6522  1.1370 -0.1476
 7597SOL    HW234428   1.506   1.538  16.219  0.4424  0.1039 -0.4233
 7598SOL     OW34429   1.982   4.227   6.070  0.5748 -0.1575  0.1541
 7598SOL    HW134430   2.003   4.150   6.017 -1.2676 -1.3445  1.1549
 7598SOL    HW234431   2.048   4.287   6.035  1.8923 -0.6674  1.7623
 7599SOL     OW34432   3.878   1.114  10.536 -0.2067 -0.1447  0.4364
 7599SOL    HW134433   3.963   1.082  10.565  0.1360 -0.2040 -0.6602
 7599SOL    HW234434   3.896   1.142  10.446 -1.5015  1.8039  0.7666
 7600SOL     OW34435   0.149   0.412  10.454 -0.2242  0.3947 -0.4981
 7600SOL    HW134436   0.072   0.414  10.397  0.7922 -0.8350 -1.9147
 7600SOL    HW234437   0.215   0.464  10.410 -0.4112  0.0021 -1.2399
 7601SOL     OW34438   2.142   3.375   8.026 -0.3218  0.3458  0.0120
 7601SOL    HW134439   2.054   3.412   8.032  0.0785  1.7040 -2.4876
 7601SOL    HW234440   2.150   3.350   7.934 -3.0209 -1.4107  0.2445
 7602SOL     OW34441   4.446   4.356  16.492  0.0022  0.0559  0.4493
 7602SOL    HW134442   4.413   4.272  16.524 -0.0854 -1.0587 -2.4850
 7602SOL    HW234443   4.536   4.341  16.522  0.5869  4.7855  1.0107
 7603SOL     OW34444   1.587   2.006   3.306 -0.0629  0.5729 -0.0630
 7603SOL    HW134445   1.513   1.999   3.366  1.8455 -0.4959  2.1499
 7603SOL    HW234446   1.659   1.988   3.367 -0.6808  0.2469  0.5675
 7604SOL     OW34447   1.779   3.527   7.119  0.3913  0.0273  0.3493
 7604SOL    HW134448   1.824   3.605   7.153  0.0307  0.1450  0.5493
 7604SOL    HW234449   1.822   3.453   7.163 -0.2807 -0.3464  0.3738
 7605SOL     OW34450   2.016   0.790  16.648  0.1531 -0.5668  0.0598
 7605SOL    HW134451   1.940   0.843  16.675  1.9305  2.1133 -0.2158
 7605SOL    HW234452   2.039   0.759  16.735 -0.1862  0.3908  0.4863
 7606SOL     OW34453   3.985   2.435   3.154 -0.3761 -0.7354  0.0375
 7606SOL    HW134454   3.986   2.359   3.096  0.0031 -0.5660 -0.1740
 7606SOL    HW234455   4.075   2.439   3.185  0.0713 -0.8733 -1.2593
 7607SOL     OW34456   4.606   4.727   7.991 -0.0394 -0.2017 -0.4091
 7607SOL    HW134457   4.667   4.655   7.972  0.9316  0.1424  1.4075
 7607SOL    HW234458   4.658   0.030   8.060  2.2024  1.8034 -3.2991
 7608SOL     OW34459   1.707   2.784   3.599 -0.8001 -0.5456 -0.2303
 7608SOL    HW134460   1.750   2.865   3.625 -2.1070 -0.6115  2.1338
 7608SOL    HW234461   1.753   2.778   3.515 -0.6877  0.7936 -0.2607
 7609SOL     OW34462   4.165   2.767   8.085  0.5670  0.3543 -0.0750
 7609SOL    HW134463   4.232   2.700   8.077 -0.8688 -1.5133  3.7479
 7609SOL    HW234464   4.202   2.825   8.152  0.9284 -0.1021  0.1110
 7610SOL     OW34465   2.941   4.362   3.954 -0.2541 -0.4348  0.8855
 7610SOL    HW134466   2.850   4.355   3.925  0.5194 -3.0746 -0.8490
 7610SOL    HW234467   2.933   4.289   4.016 -4.4823 -2.8006 -2.4270
 7611SOL     OW34468   0.225   4.404   9.393  0.3675  0.0580  0.3023
 7611SOL    HW134469   0.249   4.332   9.335  2.2056  0.0110  1.1371
 7611SOL    HW234470   0.132   4.413   9.371 -0.3163  0.2955  3.2544
 7612SOL     OW34471   0.661   2.220   0.282 -0.2283 -0.3293 -0.5279
 7612SOL    HW134472   0.568   2.218   0.306  0.6588 -2.2168  2.7221
 7612SOL    HW234473   0.653   2.196   0.190  0.6481 -2.7540  0.0554
 7613SOL     OW34474   3.400   0.778  16.774 -0.4254  0.0623 -0.0763
 7613SOL    HW134475   3.414   0.854  16.830 -1.2263  1.8435 -2.3267
 7613SOL    HW234476   3.483   0.781  16.726 -0.0655 -1.1113  0.4646
 7614SOL     OW34477   1.733   1.630   8.620  0.2092 -0.4040 -0.9376
 7614SOL    HW134478   1.822   1.597   8.638  0.1812 -0.1863 -0.3880
 7614SOL    HW234479   1.699   1.596   8.703 -0.5354 -0.1415 -1.1375
 7615SOL     OW34480   4.260   2.016  17.285  0.4888 -0.3243  0.0403
 7615SOL    HW134481   4.247   1.958  17.210  0.5476  0.8647 -0.8874
 7615SOL    HW234482   4.304   1.955  17.345  0.1000 -1.3882 -0.7572
 7616SOL     OW34483   4.545   0.081   4.176  0.1295 -0.5105  0.0860
 7616SOL    HW134484   4.480   0.102   4.244  0.0534  0.2202 -0.2068
 7616SOL    HW234485   4.588   0.166   4.169  0.3573 -0.7040 -0.8521
 7617SOL     OW34486   3.444   0.023   7.305  0.0782  0.2235  0.2834
 7617SOL    HW134487   3.539   0.024   7.296 -0.1455 -4.0150 -2.2023
 7617SOL    HW234488   3.417   0.106   7.266  1.4000 -0.1641 -1.4607
 7618SOL     OW34489   2.352   1.601   5.044 -0.0906  0.5891 -0.2326
 7618SOL    HW134490   2.306   1.606   5.128 -0.4164  2.3865 -0.5265
 7618SOL    HW234491   2.358   1.689   5.007  1.5544  0.3063 -0.6051
 7619SOL     OW34492   1.221   3.006   9.071 -0.0835  0.1534  0.2390
 7619SOL    HW134493   1.139   3.039   9.035 -0.1475 -0.1574  0.1026
 7619SOL    HW234494   1.189   2.933   9.125 -0.3858 -0.0602 -0.2331
 7620SOL     OW34495   1.468   4.190  10.198  0.2016  0.7578 -0.1175
 7620SOL    HW134496   1.528   4.161  10.130 -1.1319 -2.2320 -0.0443
 7620SOL    HW234497   1.442   4.102  10.226  0.2999  0.7214 -0.1405
 7621SOL     OW34498   1.773   3.891   9.390 -0.2654  0.4715 -0.5282
 7621SOL    HW134499   1.796   3.880   9.483 -0.5533  0.5271 -0.4487
 7621SOL    HW234500   1.817   3.975   9.376 -0.7113  1.1613  2.0897
 7622SOL     OW34501   0.718   1.305  15.905  0.5496 -0.9559  0.0279
 7622SOL    HW134502   0.739   1.219  15.942  3.2456 -0.3121 -0.0617
 7622SOL    HW234503   0.807   1.335  15.890  0.3234  0.2030  1.0335
 7623SOL     OW34504   3.183   1.983   6.349 -0.0027 -0.3235  0.3399
 7623SOL    HW134505   3.271   1.967   6.314 -0.0964 -0.4077  0.1411
 7623SOL    HW234506   3.215   2.017   6.433  2.8199  0.1329 -0.9120
 7624SOL     OW34507   1.670   0.400   4.490  0.1893 -0.3007  0.5759
 7624SOL    HW134508   1.696   0.490   4.472  0.7816 -0.1862  1.9856
 7624SOL    HW234509   1.603   0.386   4.423  1.4475  1.0180 -0.9739
 7625SOL     OW34510   0.153   3.441   4.135 -0.0075  0.0700  0.1177
 7625SOL    HW134511   0.171   3.365   4.190 -1.1601  0.0821  0.4986
 7625SOL    HW234512   0.232   3.441   4.080  0.9787  1.4163  1.5378
 7626SOL     OW34513   4.631   2.038   6.597 -0.5203 -0.1869 -0.3454
 7626SOL    HW134514   4.676   1.978   6.656  0.8612 -0.7481 -1.9684
 7626SOL    HW234515   4.656   2.005   6.511 -2.0069 -0.6322 -0.6022
 7627SOL     OW34516   2.931   1.105  13.903  0.0733 -0.4170 -0.8436
 7627SOL    HW134517   2.867   1.084  13.971  2.1924 -2.8086  0.4141
 7627SOL    HW234518   3.002   1.135  13.961 -0.2865 -1.7463  0.2853
 7628SOL     OW34519   3.632   4.096   7.598  0.2960 -0.3745  0.4243
 7628SOL    HW134520   3.564   4.157   7.569  0.0455 -0.9661 -0.2238
 7628SOL    HW234521   3.713   4.141   7.622  0.7302 -0.2997 -1.2067
 7629SOL     OW34522   2.468   1.025   2.991  0.0534  0.1477  0.1694
 7629SOL    HW134523   2.415   1.101   2.970 -1.0142 -0.7020 -0.1996
 7629SOL    HW234524   2.402   0.985   3.048  0.3938 -0.3543  0.2078
 7630SOL     OW34525   0.314   3.497   5.325 -0.6000 -0.0448  0.2774
 7630SOL    HW134526   0.230   3.453   5.308  0.6199 -1.8644 -1.0052
 7630SOL    HW234527   0.359   3.483   5.242 -0.8220 -0.0202  0.1523
 7631SOL     OW34528   0.365   0.347   3.275  0.2273 -0.0857  0.2501
 7631SOL    HW134529   0.324   0.408   3.336 -1.7050  0.3647 -1.4841
 7631SOL    HW234530   0.289   0.338   3.216  1.8145 -1.3897 -1.5952
 7632SOL     OW34531   3.655   4.055  15.846 -0.0680 -0.7494  0.0241
 7632SOL    HW134532   3.716   4.018  15.783  0.9355 -0.7449  0.9854
 7632SOL    HW234533   3.572   4.048  15.798  0.5485  0.4220 -1.1799
 7633SOL     OW34534   4.182   1.240  12.026 -0.2608  0.6450 -0.0141
 7633SOL    HW134535   4.224   1.316  12.067  0.6413 -0.1790  0.6290
 7633SOL    HW234536   4.142   1.203  12.105  0.8029  2.2917  1.3145
 7634SOL     OW34537   2.077   4.240   4.001  0.3461 -0.0829 -0.5982
 7634SOL    HW134538   2.003   4.293   4.032  1.3359  1.3086 -0.6384
 7634SOL    HW234539   2.031   4.172   3.952 -0.4960  1.7234 -2.3118
 7635SOL     OW34540   0.615   2.127   0.015  0.4616  0.0231  0.5280
 7635SOL    HW134541   0.538   2.183   0.012  1.0035  0.8839  2.6385
 7635SOL    HW234542   0.596   2.082  17.684 -0.9596  0.4561  0.6237
 7636SOL     OW34543   1.394   3.479  10.661 -0.3534 -0.1118 -0.1008
 7636SOL    HW134544   1.392   3.468  10.756  1.8432  1.1333  0.0886
 7636SOL    HW234545   1.439   3.399  10.631  0.7743  0.6783 -0.5004
 7637SOL     OW34546   3.320   1.241   9.004  0.0336  0.1969 -0.2138
 7637SOL    HW134547   3.225   1.255   9.007  0.0379  0.7542 -2.6423
 7637SOL    HW234548   3.334   1.148   9.019  1.4025  0.7492  2.0914
 7638SOL     OW34549   3.528   4.724   5.526 -0.3707  0.2789 -0.0675
 7638SOL    HW134550   3.438   4.695   5.537  0.8388 -2.8403  1.5380
 7638SOL    HW234551   3.538   0.048   5.598  0.0684 -0.6464  0.6663
 7639SOL     OW34552   0.128   1.667  11.686 -0.0954 -0.3924  0.3349
 7639SOL    HW134553   0.179   1.590  11.708 -0.1455 -0.7292 -0.7489
 7639SOL    HW234554   0.160   1.735  11.746  0.8094 -1.8014  1.4224
 7640SOL     OW34555   1.709   0.498   1.155  0.2198 -0.1357  0.2623
 7640SOL    HW134556   1.649   0.454   1.216 -0.4433 -0.5856 -0.7003
 7640SOL    HW234557   1.643   0.516   1.088  0.8155  1.8219  0.2165
 7641SOL     OW34558   3.635   0.732   6.395 -0.0610 -0.8007 -0.1256
 7641SOL    HW134559   3.710   0.710   6.451  0.5658 -1.5072 -1.2355
 7641SOL    HW234560   3.563   0.715   6.456 -0.6292 -0.5804 -0.7333
 7642SOL     OW34561   0.730   0.346  11.834  0.2911  0.3152  0.0925
 7642SOL    HW134562   0.717   0.348  11.740  2.1011  0.9430 -0.1522
 7642SOL    HW234563   0.685   0.428  11.852  2.4046  1.5209 -0.0779
 7643SOL     OW34564   0.039   4.591   4.771  0.8302 -0.1548  0.6230
 7643SOL    HW134565   0.031   4.648   4.847 -1.4874  1.9422 -1.2101
 7643SOL    HW234566   4.711   4.527   4.796 -1.5255  2.3767  0.7649
 7644SOL     OW34567   1.477   4.716   2.703  0.6006 -0.1680  0.0815
 7644SOL    HW134568   1.457   4.645   2.765 -1.6436  1.2085  0.9336
 7644SOL    HW234569   1.385   4.736   2.688  0.8844 -0.1255 -1.5645
 7645SOL     OW34570   0.794   3.571  14.942  0.4241  0.2225  0.2326
 7645SOL    HW134571   0.801   3.479  14.967 -0.3650  0.0469 -0.1929
 7645SOL    HW234572   0.734   3.569  14.868 -1.5636  2.3199  1.7836
 7646SOL     OW34573   3.555   2.335   5.822  0.0032 -0.2267  0.1873
 7646SOL    HW134574   3.567   2.421   5.861  0.6627  0.0522 -0.6462
 7646SOL    HW234575   3.489   2.352   5.755  0.7236 -1.2174 -0.7859
 7647SOL     OW34576   4.307   2.833   3.847  0.0134  0.1556 -0.0344
 7647SOL    HW134577   4.378   2.773   3.827  1.5308  2.1594 -0.7012
 7647SOL    HW234578   4.294   2.856   3.754 -3.3732 -1.4498  0.0282
 7648SOL     OW34579   2.481   0.506  13.715  0.2169 -0.0449  0.0127
 7648SOL    HW134580   2.461   0.422  13.674  2.2871  0.0861 -1.2941
 7648SOL    HW234581   2.492   0.481  13.807 -0.2617 -0.9657 -0.1795
 7649SOL     OW34582   0.666   2.095  12.831  0.5978  0.2316 -0.1581
 7649SOL    HW134583   0.682   2.053  12.915  2.4555  0.4994 -0.3837
 7649SOL    HW234584   0.644   2.018  12.778  0.1617 -0.1326  0.5505
 7650SOL     OW34585   2.025   2.939   4.200  0.0225  0.1689  0.6588
 7650SOL    HW134586   2.039   3.030   4.223 -0.1407  0.6009 -0.9660
 7650SOL    HW234587   1.931   2.955   4.186  0.1825 -0.8406 -1.5717
 7651SOL     OW34588   1.581   2.976   1.823 -0.3220  0.0953 -0.8003
 7651SOL    HW134589   1.499   2.951   1.782 -1.3492  0.9751  0.7100
 7651SOL    HW234590   1.553   2.969   1.915  3.8244 -1.2417  0.3722
 7652SOL     OW34591   0.048   2.395   7.690 -0.6299  0.4834  0.1932
 7652SOL    HW134592   0.032   2.431   7.603 -0.2371  1.6364  0.5927
 7652SOL    HW234593   0.073   2.479   7.730 -0.1242 -0.6459  2.2222
 7653SOL     OW34594   1.814   0.630   9.629 -0.2995  0.1081 -0.4471
 7653SOL    HW134595   1.860   0.557   9.670  0.0351  1.4834  1.6506
 7653SOL    HW234596   1.727   0.612   9.663 -0.0995  1.1159  0.5807
 7654SOL     OW34597   4.601   1.881   3.102  0.1972 -0.3140  0.3791
 7654SOL    HW134598   4.541   1.902   3.174 -0.5364  1.4320 -0.7325
 7654SOL    HW234599   4.661   1.819   3.143 -0.7636 -2.2872 -1.1684
 7655SOL     OW34600   2.545   2.110   1.876 -0.0519 -0.2486  0.3844
 7655SOL    HW134601   2.554   2.056   1.955  1.5464  0.2549  0.5341
 7655SOL    HW234602   2.561   2.046   1.807  0.7765  0.8085 -0.3878
 7656SOL     OW34603   0.567   1.788   4.772  0.2819  0.0100  0.4593
 7656SOL    HW134604   0.594   1.877   4.793 -0.2116 -0.0090  1.1957
 7656SOL    HW234605   0.553   1.791   4.677  0.6021  2.6923  0.4977
 7657SOL     OW34606   1.384   4.584   3.322  0.4408 -0.8280 -0.0395
 7657SOL    HW134607   1.377   4.674   3.356 -1.5501 -2.3593  3.5920
 7657SOL    HW234608   1.372   4.541   3.407 -0.1588 -0.7590 -0.0931
 7658SOL     OW34609   1.507   0.291   9.120  0.1127  0.4177 -0.0163
 7658SOL    HW134610   1.577   0.225   9.118  0.7271  1.0938 -1.3812
 7658SOL    HW234611   1.471   0.264   9.035  0.3908 -2.0845  0.6601
 7659SOL     OW34612   1.468   0.209   8.807 -0.0176  0.1492 -0.3750
 7659SOL    HW134613   1.497   0.120   8.822 -0.6442 -0.3649 -2.1120
 7659SOL    HW234614   1.550   0.256   8.799 -0.0566  0.4465  0.9730
 7660SOL     OW34615   2.924   4.517   7.943  0.0118 -0.1489  0.2914
 7660SOL    HW134616   2.977   4.571   8.002 -1.2523  0.8869  0.4900
 7660SOL    HW234617   2.985   4.500   7.871 -0.6684 -2.2100  0.2191
 7661SOL     OW34618   2.159   2.037   3.252  0.1788 -0.3236 -0.3239
 7661SOL    HW134619   2.242   2.000   3.282 -1.1000 -0.5239  3.0242
 7661SOL    HW234620   2.176   2.050   3.159 -0.6821  0.1486 -0.4120
 7662SOL     OW34621   3.583   1.392   5.794 -0.4950  0.5841 -0.0063
 7662SOL    HW134622   3.676   1.383   5.814 -0.8342 -0.3430  1.0865
 7662SOL    HW234623   3.555   1.462   5.853 -2.3895  0.6477 -0.9538
 7663SOL     OW34624   1.293   3.247   8.443  0.2006 -0.0474  0.0201
 7663SOL    HW134625   1.209   3.222   8.481 -0.8864  1.1791 -1.5830
 7663SOL    HW234626   1.360   3.196   8.488  0.4516  0.6222  0.4128
 7664SOL     OW34627   4.239   3.228  13.598 -0.2052 -0.5713  0.1401
 7664SOL    HW134628   4.194   3.236  13.514  1.1435 -0.0213 -0.5235
 7664SOL    HW234629   4.184   3.162  13.641 -0.7061  0.3584  0.9421
 7665SOL     OW34630   4.346   0.463   7.128 -0.1402 -0.1246  0.1334
 7665SOL    HW134631   4.350   0.532   7.061  1.5645 -0.2631  0.0942
 7665SOL    HW234632   4.328   0.512   7.208 -2.5679 -0.3812 -0.2521
 7666SOL     OW34633   0.914   4.370   6.369 -0.4084  0.5511  0.5735
 7666SOL    HW134634   0.850   4.380   6.299  0.8939  0.2264 -0.6585
 7666SOL    HW234635   0.888   4.284   6.401  1.7566 -0.7653 -1.2067
 7667SOL     OW34636   2.230   1.137   6.895 -0.1448 -0.3909  0.2234
 7667SOL    HW134637   2.257   1.086   6.818 -2.4742 -0.1095 -0.7819
 7667SOL    HW234638   2.219   1.222   6.853 -0.0984  0.2543  1.5234
 7668SOL     OW34639   3.222   4.440   2.874 -0.5488 -0.6201  0.1111
 7668SOL    HW134640   3.264   4.497   2.809 -0.4316  0.0222  0.7446
 7668SOL    HW234641   3.134   4.439   2.838  0.2313 -0.1773 -1.8002
 7669SOL     OW34642   1.324   0.640   6.299  0.1258  0.0596  1.1383
 7669SOL    HW134643   1.247   0.584   6.311 -0.8751  1.3173  0.6862
 7669SOL    HW234644   1.289   0.716   6.251  1.1929 -0.7357 -0.8733
 7670SOL     OW34645   4.374   0.238   1.180  0.1604  0.3769  0.3705
 7670SOL    HW134646   4.438   0.208   1.115  1.0907  0.5180  1.2148
 7670SOL    HW234647   4.326   0.300   1.125  0.1518  0.3048  0.2978
 7671SOL     OW34648   2.674   3.184   8.669 -0.5657 -0.0412 -0.4135
 7671SOL    HW134649   2.598   3.231   8.705 -0.4797 -0.6410  0.5609
 7671SOL    HW234650   2.689   3.224   8.583 -0.9614 -0.8363 -0.8489
 7672SOL     OW34651   4.394   1.934  11.050  0.4333 -0.0607 -0.0264
 7672SOL    HW134652   4.328   1.867  11.066  0.2748  0.2889  0.7833
 7672SOL    HW234653   4.369   1.970  10.964  2.4857 -1.0554 -1.0308
 7673SOL     OW34654   3.288   1.744   8.720 -0.1998 -0.0135 -0.2346
 7673SOL    HW134655   3.282   1.801   8.797  0.8292  2.7406 -2.1886
 7673SOL    HW234656   3.298   1.807   8.649 -0.7719 -0.6304 -0.8599
 7674SOL     OW34657   0.023   3.216   2.515  0.4443  0.0288 -0.5301
 7674SOL    HW134658   4.689   3.155   2.532  1.0041 -0.6795 -0.6905
 7674SOL    HW234659   0.078   3.147   2.478 -0.6362 -1.4547  0.5751
 7675SOL     OW34660   0.066   0.007   5.360  0.0307 -0.6321  0.2880
 7675SOL    HW134661   4.713   4.730   5.335  0.6214 -1.6609 -1.2396
 7675SOL    HW234662   0.100   4.656   5.358  3.0293  0.4824  1.7734
 7676SOL     OW34663   0.855   1.332   8.870 -0.8670  0.0873  0.8622
 7676SOL    HW134664   0.801   1.254   8.887 -1.5975  0.4411  0.1770
 7676SOL    HW234665   0.794   1.406   8.870 -0.3150  0.5383 -0.1837
 7677SOL     OW34666   0.939   1.556   8.698  0.2091  0.2608  0.4120
 7677SOL    HW134667   0.846   1.578   8.708 -0.0721 -0.4259 -0.6916
 7677SOL    HW234668   0.928   1.477   8.751 -2.6622  1.0078  0.9286
 7678SOL     OW34669   1.531   2.355   4.961  0.0539  0.5414  0.3066
 7678SOL    HW134670   1.621   2.389   4.965  0.0849  0.5408 -0.4688
 7678SOL    HW234671   1.541   2.285   4.897  1.4679  0.5729  0.4927
 7679SOL     OW34672   4.046   0.635  17.097  0.3803 -0.1858 -0.0761
 7679SOL    HW134673   3.988   0.591  17.035 -1.1590 -1.0942  2.0077
 7679SOL    HW234674   4.122   0.648  17.039 -0.5422 -5.1260 -2.3163
 7680SOL     OW34675   1.275   4.065   4.695  0.7511  0.0703 -0.1763
 7680SOL    HW134676   1.319   4.046   4.612 -0.8321  0.7555 -1.1776
 7680SOL    HW234677   1.331   4.130   4.738  0.8157  0.2704 -0.5589
 7681SOL     OW34678   2.514   4.200   5.636  0.4282 -0.0694 -0.1991
 7681SOL    HW134679   2.587   4.212   5.696  0.3613 -3.1169  0.5223
 7681SOL    HW234680   2.478   4.287   5.616 -1.2115 -0.1671  2.2796
 7682SOL     OW34681   2.394   4.541   8.712 -0.1895  0.0207 -0.4162
 7682SOL    HW134682   2.463   4.601   8.685  0.9736  0.2909  3.1657
 7682SOL    HW234683   2.411   4.529   8.806 -0.7951 -3.0290 -0.6874
 7683SOL     OW34684   1.697   0.102   7.247  0.0177  0.0517 -0.4736
 7683SOL    HW134685   1.733   0.180   7.204 -0.0253 -0.8752 -2.1849
 7683SOL    HW234686   1.768   0.040   7.264 -0.6183 -0.0206  1.9064
 7684SOL     OW34687   1.039   1.569   7.040  0.0929 -0.1609  0.0406
 7684SOL    HW134688   1.116   1.626   7.038 -1.1723  1.5137 -1.7907
 7684SOL    HW234689   0.966   1.628   7.060  0.7566  0.6096  0.1876
 7685SOL     OW34690   0.234   2.968   2.789 -0.6860  0.1447  0.0914
 7685SOL    HW134691   0.256   3.000   2.877 -1.0901  6.4859 -2.0960
 7685SOL    HW234692   0.155   3.018   2.767 -0.6968 -0.1441 -0.5270
 7686SOL     OW34693   4.565   4.190  16.877 -0.1635 -0.2737  0.0249
 7686SOL    HW134694   4.485   4.236  16.850 -1.0070 -2.1045 -0.6604
 7686SOL    HW234695   4.621   4.220  16.806 -0.2048  0.7609  0.4369
 7687SOL     OW34696   3.099   0.060   3.487  0.3979 -0.3579  0.2107
 7687SOL    HW134697   3.120   4.714   3.528 -0.3478 -1.5143 -1.8052
 7687SOL    HW234698   3.117   0.115   3.564 -3.3138  1.8404 -0.5372
 7688SOL     OW34699   1.509   0.099   3.850 -0.1692  0.1384  0.4585
 7688SOL    HW134700   1.441   0.059   3.906 -0.8197 -0.5996 -0.8578
 7688SOL    HW234701   1.460   0.176   3.822  2.1327  1.1563 -0.7028
 7689SOL     OW34702   0.957   0.114   7.377 -0.2675 -0.6582 -0.1189
 7689SOL    HW134703   1.025   0.069   7.428  0.2965  1.5491  1.0651
 7689SOL    HW234704   0.983   0.203   7.401  0.5906 -1.2683  1.2110
 7690SOL     OW34705   0.277   0.581   4.234 -0.0018  0.2604 -0.0421
 7690SOL    HW134706   0.291   0.644   4.305  1.4070  1.7514 -1.6239
 7690SOL    HW234707   0.335   0.613   4.164  0.0181 -1.8011 -0.9814
 7691SOL     OW34708   4.688   1.853   8.080  0.3132 -0.1220 -0.7125
 7691SOL    HW134709   0.033   1.900   8.079  0.9150 -1.1826 -0.6618
 7691SOL    HW234710   4.635   1.912   8.027 -1.0924 -1.6382 -0.9786
 7692SOL     OW34711   0.631   3.993  13.475 -0.1002  0.0206 -0.2348
 7692SOL    HW134712   0.571   3.990  13.549  0.1409  1.0163  0.0056
 7692SOL    HW234713   0.704   4.047  13.505 -1.1697 -0.1449  2.6559
 7693SOL     OW34714   4.235   3.718   6.099  0.3341  0.1115  0.0670
 7693SOL    HW134715   4.192   3.700   6.015 -3.0835 -0.6729  1.9720
 7693SOL    HW234716   4.176   3.660   6.146 -0.2302  0.4654 -0.2020
 7694SOL     OW34717   3.066   0.039  14.014 -0.0885 -0.3382  0.6279
 7694SOL    HW134718   3.073   0.060  13.921  1.4234 -0.8589  0.6302
 7694SOL    HW234719   3.146   0.082  14.045 -0.5299  1.4757 -0.7170
 7695SOL     OW34720   3.484   0.033  16.093  0.2075  0.3407  0.4786
 7695SOL    HW134721   3.403   0.030  16.144 -1.2978 -0.2216 -1.9440
 7695SOL    HW234722   3.517   4.685  16.115 -1.0576 -0.0978  0.6217
 7696SOL     OW34723   1.979   0.750   5.574 -0.2318  0.0176 -0.1591
 7696SOL    HW134724   1.887   0.725   5.584  0.7153 -2.9669  0.9316
 7696SOL    HW234725   2.008   0.753   5.666  1.5280  0.3565 -0.7206
 7697SOL     OW34726   4.369   1.708   0.385  0.0243  0.1999  0.1847
 7697SOL    HW134727   4.394   1.630   0.434  0.6815 -0.1894 -0.7815
 7697SOL    HW234728   4.274   1.698   0.383 -0.1223  1.6483 -0.1418
 7698SOL     OW34729   4.478   2.980   2.974  0.2422 -0.6932  0.2636
 7698SOL    HW134730   4.414   3.040   2.935  1.1734  0.4372  0.4519
 7698SOL    HW234731   4.455   2.897   2.934 -0.0551  0.6676 -2.4142
 7699SOL     OW34732   0.725   0.894  13.330  0.6501 -0.2614  0.0924
 7699SOL    HW134733   0.819   0.890  13.312  0.6114 -0.1558 -0.1332
 7699SOL    HW234734   0.723   0.926  13.421  1.3376  3.2641 -1.1088
 7700SOL     OW34735   4.104   3.255   6.767 -0.4944 -0.1496  0.2793
 7700SOL    HW134736   4.143   3.200   6.836  2.6662  1.2845 -0.3817
 7700SOL    HW234737   4.011   3.253   6.790 -0.2168  1.0188  1.5214
 7701SOL     OW34738   1.407   0.106   0.030  0.4888  0.0321  0.3347
 7701SOL    HW134739   1.496   0.075   0.014  0.8810  1.5165 -0.3961
 7701SOL    HW234740   1.411   0.182  17.723 -2.3111 -0.2513 -0.2170
 7702SOL     OW34741   4.436   3.127   3.557 -0.2500  0.2353  0.0385
 7702SOL    HW134742   4.512   3.083   3.519  0.1058  1.0907 -0.2355
 7702SOL    HW234743   4.477   3.206   3.594  0.4149 -0.0868 -0.0122
 7703SOL     OW34744   3.405   4.054   6.594 -0.0944 -0.4758 -0.7209
 7703SOL    HW134745   3.336   4.008   6.546 -0.3537 -1.9593  1.0776
 7703SOL    HW234746   3.479   3.998   6.567 -2.0003 -2.4605 -1.8728
 7704SOL     OW34747   4.348   1.268   5.485  0.4223 -0.3098  0.1246
 7704SOL    HW134748   4.364   1.174   5.472 -0.0013 -0.1989 -1.1624
 7704SOL    HW234749   4.265   1.258   5.530 -1.0009  0.4880 -2.3522
 7705SOL     OW34750   3.350   2.694  13.586 -0.4751 -0.1896 -0.2341
 7705SOL    HW134751   3.354   2.683  13.681  1.0362  0.5504 -0.2111
 7705SOL    HW234752   3.257   2.714  13.572 -0.8865 -0.1907  2.5130
 7706SOL     OW34753   0.680   3.648   0.062  0.0414  0.3258  0.3099
 7706SOL    HW134754   0.642   3.735   0.077 -1.1003  0.0255 -0.8942
 7706SOL    HW234755   0.609   3.589   0.087 -0.8148  1.2125 -0.0253
 7707SOL     OW34756   3.878   4.171   6.303  0.1926 -0.3630 -0.3159
 7707SOL    HW134757   3.915   4.105   6.361  0.1091 -0.5642 -0.4922
 7707SOL    HW234758   3.817   4.226   6.352 -0.2073  0.2018 -1.4325
 7708SOL     OW34759   2.985   0.920   1.873 -0.3040  0.0599  0.4151
 7708SOL    HW134760   2.904   0.894   1.918 -1.7709  1.2861 -1.5108
 7708SOL    HW234761   3.018   0.835   1.843  0.0588 -0.4638  2.3251
 7709SOL     OW34762   2.123   2.358   7.478  0.0883  0.3147  0.2150
 7709SOL    HW134763   2.049   2.298   7.474 -0.4083  0.9816 -0.4784
 7709SOL    HW234764   2.130   2.361   7.383  0.8521  1.9760  0.3190
 7710SOL     OW34765   2.410   2.786   7.692 -0.2619 -0.5247  0.0537
 7710SOL    HW134766   2.366   2.815   7.612  1.8709 -1.4795 -1.4676
 7710SOL    HW234767   2.423   2.694   7.671 -1.7690 -1.2228  2.2685
 7711SOL     OW34768   2.838   0.834   4.062  0.1138  0.0484 -0.0238
 7711SOL    HW134769   2.744   0.839   4.075 -0.2808 -1.8625 -2.1751
 7711SOL    HW234770   2.853   0.741   4.080 -0.6399  0.4009  2.3343
 7712SOL     OW34771   0.111   3.980  15.992 -0.0103  0.1063  0.1409
 7712SOL    HW134772   0.037   4.041  15.998 -1.3397 -1.1509 -3.0234
 7712SOL    HW234773   0.069   3.896  15.975 -1.5047  0.4541  2.1266
 7713SOL     OW34774   2.519   4.205   1.427  0.2919 -0.0628  0.5535
 7713SOL    HW134775   2.453   4.237   1.488  1.3731 -0.4603  1.9243
 7713SOL    HW234776   2.564   4.288   1.408  0.5877 -0.3742 -0.1224
 7714SOL     OW34777   3.406   4.248   4.381 -0.1575 -0.1268  0.2088
 7714SOL    HW134778   3.393   4.293   4.298  2.5072  0.9872  0.3993
 7714SOL    HW234779   3.461   4.311   4.427 -1.0722  0.8857 -0.0694
 7715SOL     OW34780   2.123   2.074   2.779  0.7466 -0.6722 -0.0695
 7715SOL    HW134781   2.047   2.054   2.725  1.3073 -2.9348 -0.0056
 7715SOL    HW234782   2.105   2.143   2.842  0.7857 -1.3751  0.7080
 7716SOL     OW34783   1.175   2.194  10.598  0.1870  0.1023  0.1891
 7716SOL    HW134784   1.179   2.174  10.505  0.5686 -0.3404  0.3016
 7716SOL    HW234785   1.242   2.261  10.609  0.0713  0.3503 -0.6169
 7717SOL     OW34786   3.595   1.927   8.278  0.5885  0.4640 -0.2264
 7717SOL    HW134787   3.528   1.882   8.227  0.5755 -0.2857  0.4585
 7717SOL    HW234788   3.652   1.852   8.296 -1.3581 -1.2806 -1.2918
 7718SOL     OW34789   3.853   2.187   9.917 -0.3878 -0.3459 -0.4200
 7718SOL    HW134790   3.776   2.167   9.969  0.9626  0.7914  2.0338
 7718SOL    HW234791   3.853   2.282   9.907 -0.1343 -0.3346 -0.3202
 7719SOL     OW34792   1.220   0.887  10.550  0.4726  0.1400 -0.3582
 7719SOL    HW134793   1.169   0.922  10.623  0.9600 -0.2097  0.1540
 7719SOL    HW234794   1.303   0.935  10.562  0.3226  0.3512 -0.1685
 7720SOL     OW34795   4.247   4.302   9.704  0.0160 -0.1048  0.0751
 7720SOL    HW134796   4.299   4.314   9.624  0.0644 -3.5741 -0.4010
 7720SOL    HW234797   4.255   4.388   9.746  0.4132  0.2429 -0.7146
 7721SOL     OW34798   2.816   3.928   5.459  0.3905 -0.0798 -0.7009
 7721SOL    HW134799   2.809   3.866   5.387  0.6873 -2.0933  0.9869
 7721SOL    HW234800   2.865   3.999   5.418  1.6595  0.0990  1.0899
 7722SOL     OW34801   4.656   0.971  11.016  0.0400 -0.3441  0.1583
 7722SOL    HW134802   4.596   1.045  11.012  1.5795  0.8865 -0.0229
 7722SOL    HW234803   4.656   0.949  11.109  1.3833  0.4315  0.3487
 7723SOL     OW34804   2.030   1.433   1.762  0.4904 -0.6182  0.8232
 7723SOL    HW134805   1.981   1.472   1.690 -0.2380  1.4660  2.4439
 7723SOL    HW234806   2.033   1.346   1.722  1.2422 -0.6783  0.9976
 7724SOL     OW34807   1.930   1.646   8.966  0.7334 -0.1867 -0.6671
 7724SOL    HW134808   1.884   1.622   9.046  0.1640 -0.4387 -1.0629
 7724SOL    HW234809   1.972   1.729   8.986  0.6120 -0.4474  0.6597
 7725SOL     OW34810   3.193   1.415   2.408  0.2233 -0.4302 -0.7231
 7725SOL    HW134811   3.120   1.463   2.447  0.5934  2.0216 -3.0949
 7725SOL    HW234812   3.234   1.363   2.478 -2.1614  0.1320  1.0809
 7726SOL     OW34813   2.819   0.257   1.288  0.4705 -0.2583  0.1361
 7726SOL    HW134814   2.845   0.165   1.300 -1.2645 -0.5826  1.3703
 7726SOL    HW234815   2.899   0.302   1.313  0.6707 -0.9942  0.8141
 7727SOL     OW34816   0.158   2.421  14.698 -0.9622 -0.6783 -0.0439
 7727SOL    HW134817   0.177   2.351  14.762 -1.8053  0.2702  1.2530
 7727SOL    HW234818   0.184   2.500  14.745  0.0549 -1.0606  0.0573
 7728SOL     OW34819   2.544   2.859   6.072  0.0152  0.0368  0.2177
 7728SOL    HW134820   2.616   2.797   6.059 -0.8948 -1.1046  0.5991
 7728SOL    HW234821   2.525   2.878   5.981  2.2227 -1.0484 -0.4682
 7729SOL     OW34822   3.221   1.568  10.531  0.6342 -0.2767 -0.1230
 7729SOL    HW134823   3.216   1.574  10.626  1.9605 -2.2702  0.0674
 7729SOL    HW234824   3.148   1.511  10.506 -0.6123  1.9057 -1.4656
 7730SOL     OW34825   1.873   0.632   0.574 -0.0779 -0.0976  0.0386
 7730SOL    HW134826   1.918   0.588   0.647  1.1581  2.1051  0.5990
 7730SOL    HW234827   1.889   0.569   0.503 -0.3457  1.1589 -1.1305
 7731SOL     OW34828   1.598   2.325   7.536  0.5085 -0.0739 -0.1511
 7731SOL    HW134829   1.608   2.397   7.598 -0.7302 -0.1313  0.1062
 7731SOL    HW234830   1.647   2.360   7.461 -1.9741  2.2844 -0.6549
 7732SOL     OW34831   3.472   3.607   1.224 -0.2636  0.2223  0.0953
 7732SOL    HW134832   3.484   3.670   1.153 -0.2963  2.1397  1.7669
 7732SOL    HW234833   3.504   3.525   1.188  0.6419  1.6418 -2.3361
 7733SOL     OW34834   4.464   4.688   1.644 -0.2265  0.1203  0.3755
 7733SOL    HW134835   4.408   4.714   1.571 -1.2195  0.1960  1.1688
 7733SOL    HW234836   4.406   4.722   1.713  0.1372  0.9574  0.2691
 7734SOL     OW34837   3.725   2.622   1.368 -0.1200  0.0092  0.4423
 7734SOL    HW134838   3.669   2.661   1.300 -0.6151  1.9689  1.9652
 7734SOL    HW234839   3.794   2.575   1.322  0.5411  0.2082  1.2426
 7735SOL     OW34840   3.483   4.098   6.295 -0.2278  0.1470  0.0798
 7735SOL    HW134841   3.452   4.009   6.308  1.2331 -0.5298 -1.1674
 7735SOL    HW234842   3.564   4.083   6.344  0.5826  2.6866 -0.4484
 7736SOL     OW34843   3.914   1.503   8.467  0.1039 -0.1245  0.2509
 7736SOL    HW134844   3.853   1.447   8.516 -0.1310 -0.1219 -0.0410
 7736SOL    HW234845   3.942   1.444   8.397 -1.5326 -0.0987 -0.4287
 7737SOL     OW34846   4.447   1.250   2.491 -0.2418 -0.5335 -0.4323
 7737SOL    HW134847   4.362   1.262   2.533 -0.5959 -1.3516 -0.9167
 7737SOL    HW234848   4.420   1.292   2.409 -0.5473 -0.2592 -0.1891
 7738SOL     OW34849   1.938   3.203   7.208  0.2831  0.2670 -0.0707
 7738SOL    HW134850   1.968   3.156   7.285  0.2724 -0.2631 -0.3842
 7738SOL    HW234851   2.008   3.266   7.190  1.5263 -1.4345 -1.2048
 7739SOL     OW34852   3.819   0.162   4.160  0.1891  0.1710 -0.0592
 7739SOL    HW134853   3.778   0.246   4.141 -0.6979  0.1977  1.9324
 7739SOL    HW234854   3.895   0.150   4.103  0.8646  0.8679  0.7044
 7740SOL     OW34855   0.144   4.116   8.790 -0.2602 -0.3236  0.2286
 7740SOL    HW134856   0.184   4.199   8.817  2.5853 -0.5191 -3.4303
 7740SOL    HW234857   0.162   4.053   8.860 -1.9371 -1.5106 -0.4083
 7741SOL     OW34858   0.852   1.548  14.761  0.0304 -0.3835 -0.3225
 7741SOL    HW134859   0.837   1.453  14.768  1.8987 -0.6075  0.5449
 7741SOL    HW234860   0.910   1.552  14.685  1.6054 -1.0286  0.8364
 7742SOL     OW34861   3.943   2.779  13.662 -0.1570 -0.1798  0.1887
 7742SOL    HW134862   3.976   2.717  13.727  0.7617 -1.0570 -1.1096
 7742SOL    HW234863   3.919   2.719  13.590  1.0468  0.7778 -0.9967
 7743SOL     OW34864   2.624   2.113   3.695 -0.0773 -0.0760 -0.2949
 7743SOL    HW134865   2.531   2.130   3.679 -0.1972 -0.3505  0.1044
 7743SOL    HW234866   2.622   2.017   3.700  1.0806  0.0108  1.6239
 7744SOL     OW34867   1.785   3.339   3.523 -0.0488 -0.1009 -0.2459
 7744SOL    HW134868   1.836   3.351   3.603 -0.2221  2.5367 -0.5094
 7744SOL    HW234869   1.699   3.315   3.556 -0.5939 -0.9030 -2.2525
 7745SOL     OW34870   4.395   1.730  11.557  0.0567  0.5652 -0.3316
 7745SOL    HW134871   4.473   1.678  11.535  1.0957  1.0683  2.1017
 7745SOL    HW234872   4.344   1.670  11.612 -0.3092  2.1550  1.0640
 7746SOL     OW34873   0.176   0.193   6.734  0.2371 -0.2863 -0.3165
 7746SOL    HW134874   0.125   0.275   6.733 -2.0885 -1.7343 -1.5079
 7746SOL    HW234875   0.107   0.130   6.714 -0.1183  0.4007 -1.2767
 7747SOL     OW34876   1.655   3.176   7.657 -0.1161  0.4844  0.2830
 7747SOL    HW134877   1.572   3.178   7.609  0.5875 -1.2694 -0.9731
 7747SOL    HW234878   1.672   3.262   7.697  0.2003  0.2627  0.6162
 7748SOL     OW34879   1.574   2.231  11.274  0.2365  0.1561 -0.2374
 7748SOL    HW134880   1.491   2.277  11.270  0.9252  1.5311  1.6688
 7748SOL    HW234881   1.557   2.146  11.232  0.4052  0.2938 -0.5872
 7749SOL     OW34882   4.150   3.105  11.077 -0.2683 -0.4394  0.1428
 7749SOL    HW134883   4.086   3.167  11.043 -0.5705 -0.7015  0.2300
 7749SOL    HW234884   4.095   3.027  11.086  0.8300 -1.5290 -2.6682
 7750SOL     OW34885   0.898   4.712   4.232 -0.1728 -0.4071 -0.3472
 7750SOL    HW134886   0.972   0.034   4.242  0.3758 -1.1260 -0.0410
 7750SOL    HW234887   0.859   4.723   4.318 -2.5163 -3.3089 -1.0574
 7751SOL     OW34888   0.177   3.290   8.395 -0.3496 -0.1750 -0.2321
 7751SOL    HW134889   0.173   3.385   8.383  0.6322 -0.2834 -1.5337
 7751SOL    HW234890   0.109   3.255   8.338  0.4618  1.4577 -2.2159
 7752SOL     OW34891   4.021   3.748   2.207  0.1047 -0.2965  0.1139
 7752SOL    HW134892   4.025   3.822   2.268  0.3662 -1.8602  2.0246
 7752SOL    HW234893   3.987   3.683   2.269  0.3084 -1.2416 -0.7705
 7753SOL     OW34894   2.046   1.117   8.773 -0.2913 -0.1599 -0.0630
 7753SOL    HW134895   1.977   1.158   8.721  0.3404 -0.6388 -1.2710
 7753SOL    HW234896   2.129   1.133   8.728 -0.9891  1.3256 -0.8122
 7754SOL     OW34897   3.009   0.959   7.479 -0.0059 -0.1764 -0.2737
 7754SOL    HW134898   2.980   1.013   7.406 -1.5100  2.3413  2.1851
 7754SOL    HW234899   3.092   0.934   7.438 -0.5247  0.3634 -1.6627
 7755SOL     OW34900   4.171   0.121  12.426  0.2951 -0.0681 -0.0079
 7755SOL    HW134901   4.253   0.087  12.389 -0.4250 -1.7294 -0.0909
 7755SOL    HW234902   4.136   0.038  12.460 -0.0744 -0.1660 -0.6235
 7756SOL     OW34903   1.043   2.134   7.531  0.2722 -0.3561  0.1930
 7756SOL    HW134904   0.988   2.157   7.607 -0.3754 -1.8575  0.1819
 7756SOL    HW234905   1.116   2.192   7.551  0.5072  0.3513 -2.6875
 7757SOL     OW34906   1.873   2.555  10.962 -0.3571  0.7521 -0.1249
 7757SOL    HW134907   1.905   2.488  11.022  0.8887  1.8887  0.5003
 7757SOL    HW234908   1.942   2.552  10.896  2.1380  0.9349  2.4727
 7758SOL     OW34909   4.253   0.631  16.642 -0.5525 -0.4768 -0.2827
 7758SOL    HW134910   4.289   0.650  16.556  0.5425 -1.0306  0.0530
 7758SOL    HW234911   4.166   0.671  16.638  0.9955  2.7727 -1.4979
 7759SOL     OW34912   0.151   2.003  11.586  0.1503 -0.0501 -0.3345
 7759SOL    HW134913   0.157   1.965  11.673 -0.6019 -0.4849 -0.4771
 7759SOL    HW234914   0.065   1.973  11.557 -0.0838  0.4360 -0.1475
 7760SOL     OW34915   1.951   3.648   2.948 -0.3782  0.5102 -0.2366
 7760SOL    HW134916   1.899   3.701   2.887 -1.3473  1.2492  1.2214
 7760SOL    HW234917   1.903   3.566   2.937  0.0548  0.0066  1.7460
 7761SOL     OW34918   2.299   1.990  16.333  0.1731 -0.1069 -0.0131
 7761SOL    HW134919   2.364   2.022  16.396  0.7169 -0.4905 -0.3787
 7761SOL    HW234920   2.354   1.941  16.272 -0.1296  1.3695 -1.4550
 7762SOL     OW34921   4.344   1.340   7.185  0.6916 -0.0441 -0.5052
 7762SOL    HW134922   4.330   1.418   7.240 -0.0267  0.8473 -1.9422
 7762SOL    HW234923   4.368   1.388   7.106  0.0401 -1.5341 -1.5974
 7763SOL     OW34924   2.181   3.788   0.097  0.1739 -0.1853 -0.3361
 7763SOL    HW134925   2.150   3.697   0.095 -0.3196  0.0174 -2.0014
 7763SOL    HW234926   2.222   3.799   0.011  1.5257 -0.4649  0.2747
 7764SOL     OW34927   1.505   0.197   6.690  0.6477 -0.4224  0.0242
 7764SOL    HW134928   1.537   0.132   6.754  2.5412  0.1163 -0.3671
 7764SOL    HW234929   1.582   0.251   6.672  0.7435 -0.8397 -0.8028
 7765SOL     OW34930   0.017   3.756  13.595 -0.0077 -0.3041  0.2368
 7765SOL    HW134931   0.038   3.786  13.507 -0.3225  0.6938  0.4991
 7765SOL    HW234932   4.677   3.704  13.577  0.1976 -0.6971  0.4720
 7766SOL     OW34933   0.275   1.047  13.255 -0.0610  0.3643  0.2406
 7766SOL    HW134934   0.308   1.033  13.166  0.1655 -2.3228  0.7393
 7766SOL    HW234935   0.181   1.037  13.242 -0.4227  3.0665  0.8593
 7767SOL     OW34936   0.280   1.842  12.740 -0.5776  0.1480  0.1331
 7767SOL    HW134937   0.275   1.902  12.814  0.0043 -1.1148  1.1955
 7767SOL    HW234938   0.372   1.821  12.753  0.3066  1.1944 -4.1178
 7768SOL     OW34939   1.216   1.996   3.636 -0.3196 -0.0512 -0.4281
 7768SOL    HW134940   1.311   2.013   3.635 -0.4985  0.9546 -0.5882
 7768SOL    HW234941   1.219   1.909   3.676  0.1590  0.3360  0.3827
 7769SOL     OW34942   1.317   1.029   5.603 -0.4485  0.5805 -0.1831
 7769SOL    HW134943   1.386   1.025   5.536 -0.2883 -1.8771  0.1141
 7769SOL    HW234944   1.331   0.955   5.662 -0.9858  0.1881 -0.5444
 7770SOL     OW34945   3.784   0.077  11.616  0.1553  0.1495  0.3365
 7770SOL    HW134946   3.872   0.072  11.579 -0.6952 -0.4220 -1.6559
 7770SOL    HW234947   3.779   4.727  11.654  2.5527  0.0593  0.4575
 7771SOL     OW34948   2.595   2.356   7.532 -0.0657 -0.2488  0.5563
 7771SOL    HW134949   2.662   2.423   7.548  0.5520  0.0639 -3.2359
 7771SOL    HW234950   2.640   2.310   7.460  1.6365  0.3875  1.2033
 7772SOL     OW34951   2.272   0.606   9.986  0.1376 -0.0648  0.1818
 7772SOL    HW134952   2.226   0.525  10.006 -1.5771  0.5202 -1.3652
 7772SOL    HW234953   2.363   0.577   9.980 -0.6630 -2.2615 -1.6221
 7773SOL     OW34954   0.917   4.165   1.892 -0.5507  0.3076 -0.0553
 7773SOL    HW134955   0.920   4.236   1.827  0.7980  1.4074  1.2158
 7773SOL    HW234956   0.852   4.103   1.860 -0.4312  0.4639 -0.6052
 7774SOL     OW34957   2.869   1.137   4.596  0.0046 -0.3161  0.2746
 7774SOL    HW134958   2.842   1.147   4.688 -0.4078 -0.5897  0.1846
 7774SOL    HW234959   2.861   1.042   4.601  0.0070 -0.4005 -1.3370
 7775SOL     OW34960   3.655   1.433   1.212  0.4460 -0.3221  0.0123
 7775SOL    HW134961   3.720   1.412   1.146  1.0503  0.4360  0.3675
 7775SOL    HW234962   3.625   1.519   1.181  0.9888  0.4530  1.6202
 7776SOL     OW34963   2.586   4.600   8.357  0.4712 -0.1158  0.0111
 7776SOL    HW134964   2.647   4.562   8.293  0.1491 -0.8701  0.1463
 7776SOL    HW234965   2.585   4.688   8.320 -0.4796  0.9107  2.4945
 7777SOL     OW34966   2.652   3.701  14.327  0.3259  0.4617  0.8870
 7777SOL    HW134967   2.565   3.728  14.298  0.5582  0.1468 -0.0985
 7777SOL    HW234968   2.702   3.667  14.253 -0.6210  1.6130 -0.2662
 7778SOL     OW34969   0.313   2.994  17.417  0.2548 -0.0037  0.1236
 7778SOL    HW134970   0.327   3.089  17.413  2.8875 -0.4643 -0.9850
 7778SOL    HW234971   0.217   2.990  17.413  0.3697 -0.3845 -2.2268
 7779SOL     OW34972   0.641   3.531   9.311 -0.3364 -0.0401 -0.6318
 7779SOL    HW134973   0.603   3.449   9.281 -1.0764  0.7918 -1.9420
 7779SOL    HW234974   0.716   3.531   9.252  0.9480 -0.7998  1.0087
 7780SOL     OW34975   2.823   3.830   9.390 -0.1813  0.0411 -1.0093
 7780SOL    HW134976   2.910   3.828   9.431 -1.1605 -0.9417  0.9965
 7780SOL    HW234977   2.839   3.756   9.332  1.9736  1.3927 -2.1632
 7781SOL     OW34978   3.943   0.201  16.471 -0.6555 -0.0149 -0.2957
 7781SOL    HW134979   3.866   0.180  16.524 -1.1127  1.3386 -0.4176
 7781SOL    HW234980   4.010   0.208  16.539  1.2627  0.3084 -2.2156
 7782SOL     OW34981   1.057   2.683   0.669  0.4802 -0.3902 -0.8168
 7782SOL    HW134982   1.052   2.636   0.753 -2.1915  0.2691 -0.6010
 7782SOL    HW234983   1.054   2.777   0.686 -3.6307 -0.8225  0.7756
 7783SOL     OW34984   2.681   4.571  10.643  0.2294 -0.1331  0.0989
 7783SOL    HW134985   2.638   4.656  10.644 -2.3784 -1.4272 -1.5819
 7783SOL    HW234986   2.617   4.516  10.687  2.6369 -0.4744  3.1803
 7784SOL     OW34987   1.683   4.365   8.367 -0.4946 -0.1329 -0.1794
 7784SOL    HW134988   1.601   4.412   8.385  1.6017  3.1411  0.8922
 7784SOL    HW234989   1.658   4.278   8.396 -2.2140  0.5364  0.3571
 7785SOL     OW34990   3.126   2.623   8.837 -0.1614 -0.1306  0.1649
 7785SOL    HW134991   3.202   2.640   8.781  0.3259  0.1323  0.8948
 7785SOL    HW234992   3.128   2.711   8.874 -2.1210  0.2497 -0.6082
 7786SOL     OW34993   1.626   4.392  10.308  0.1939 -0.3285  0.2605
 7786SOL    HW134994   1.561   4.339  10.261 -1.1721  1.5583  0.0173
 7786SOL    HW234995   1.692   4.322  10.310 -0.7064 -1.1427  1.5371
 7787SOL     OW34996   3.348   1.300   3.167 -0.8383 -0.2764 -0.0433
 7787SOL    HW134997   3.277   1.337   3.219 -0.4222  2.3485 -1.3529
 7787SOL    HW234998   3.405   1.261   3.234  1.9569  0.5244 -1.9304
 7788SOL     OW34999   4.463   1.978   3.998 -0.4463 -0.0610  0.4214
 7788SOL    HW135000   4.422   2.059   3.967 -1.9240 -1.7931 -2.1391
 7788SOL    HW235001   4.398   1.937   4.054  0.1619  0.4540  1.5068
 7789SOL     OW35002   1.849   2.918   9.305 -0.3974  0.7954 -0.3278
 7789SOL    HW135003   1.860   2.857   9.232  0.6315  1.8528 -1.0710
 7789SOL    HW235004   1.876   2.997   9.258 -2.3727  3.7222  3.4555
 7790SOL     OW35005   0.264   1.923  17.410  0.4765  0.4124  0.1526
 7790SOL    HW135006   0.178   1.948  17.444  0.7210  1.5852 -0.0871
 7790SOL    HW235007   0.234   1.875  17.333  0.1039  2.4753 -0.9663
 7791SOL     OW35008   1.890   3.749   7.237  0.7759 -0.1523  0.0480
 7791SOL    HW135009   1.854   3.830   7.202 -3.0513 -1.5338  0.7597
 7791SOL    HW235010   1.827   3.738   7.308 -0.6017  1.8930 -0.8648
 7792SOL     OW35011   3.940   0.938   5.035 -0.3368 -0.0729 -0.1841
 7792SOL    HW135012   3.954   1.002   5.105  1.7718 -1.1868  0.4094
 7792SOL    HW235013   3.845   0.950   5.041 -0.4001 -0.6249 -0.0680
 7793SOL     OW35014   0.800   4.048   3.362 -0.0750 -0.1775  0.6631
 7793SOL    HW135015   0.832   4.116   3.303 -0.1060  0.6315  1.5857
 7793SOL    HW235016   0.730   4.092   3.410 -0.3718 -0.1522  0.2032
 7794SOL     OW35017   1.424   2.817   5.957  0.1614 -0.2411 -0.5708
 7794SOL    HW135018   1.517   2.837   5.972 -0.0483 -1.7087  2.8371
 7794SOL    HW235019   1.412   2.835   5.864 -0.5938  3.0752  0.1508
 7795SOL     OW35020   1.807   1.751   4.541 -0.2245 -1.0829  0.1343
 7795SOL    HW135021   1.725   1.787   4.576 -0.6468  1.0275 -3.0347
 7795SOL    HW235022   1.781   1.701   4.464  1.5993 -2.3065  0.3118
 7796SOL     OW35023   3.078   3.781   8.789 -0.2430 -0.2651 -0.4664
 7796SOL    HW135024   3.087   3.743   8.701  0.7615  1.0947 -0.9562
 7796SOL    HW235025   3.156   3.837   8.790  2.3195 -3.8552 -1.0177
 7797SOL     OW35026   2.902   3.079   8.438  0.2134 -0.3942  0.1989
 7797SOL    HW135027   2.815   3.114   8.419  0.9161  0.1776 -2.0028
 7797SOL    HW235028   2.950   3.133   8.375  0.0346  0.2508  0.6215
 7798SOL     OW35029   1.860   1.776   6.511 -0.2502 -0.2836  0.1958
 7798SOL    HW135030   1.875   1.843   6.577 -0.7212 -0.5536  0.5801
 7798SOL    HW235031   1.936   1.718   6.512  0.4163  0.6054  1.5136
 7799SOL     OW35032   2.331   2.424  16.766 -0.5903 -0.7027 -0.0694
 7799SOL    HW135033   2.344   2.363  16.838  0.3084  1.4375  1.5565
 7799SOL    HW235034   2.249   2.464  16.795  1.0489  0.8438  2.3805
 7800SOL     OW35035   2.396   1.212  12.152 -0.0949  0.4464 -0.0546
 7800SOL    HW135036   2.464   1.266  12.192 -1.0745  1.1938  0.6026
 7800SOL    HW235037   2.334   1.196  12.223  0.0347  0.5697  0.0869
 7801SOL     OW35038   3.017   3.442   4.646  0.0421 -0.0290 -0.3088
 7801SOL    HW135039   2.989   3.430   4.556 -0.8338  0.0823 -0.0437
 7801SOL    HW235040   3.051   3.531   4.643  0.8118 -0.3196 -0.2464
 7802SOL     OW35041   3.479   3.316   5.525 -1.0474 -0.2665  0.4221
 7802SOL    HW135042   3.483   3.302   5.620 -0.7324  0.5210  0.5273
 7802SOL    HW235043   3.389   3.347   5.519 -1.0214  0.2144  2.4227
 7803SOL     OW35044   1.761   2.512   4.117  0.0953  0.3609 -0.1352
 7803SOL    HW135045   1.802   2.513   4.031 -0.7131  0.3212 -0.5198
 7803SOL    HW235046   1.683   2.458   4.112  0.5952 -0.4604  0.9448
 7804SOL     OW35047   1.988   3.203  10.570 -0.3933  0.5184 -0.6469
 7804SOL    HW135048   1.934   3.272  10.609  0.1613  1.8512 -2.2395
 7804SOL    HW235049   1.925   3.163  10.509 -0.2259 -0.5370 -0.1242
 7805SOL     OW35050   2.080   1.477  10.831  0.1222 -0.1597 -0.8116
 7805SOL    HW135051   2.002   1.485  10.886 -0.3764 -2.1502 -1.2591
 7805SOL    HW235052   2.133   1.543  10.877 -1.2481 -0.1147  0.6769
 7806SOL     OW35053   4.710   4.207   5.776  0.1504  0.0666 -0.4620
 7806SOL    HW135054   4.738   4.136   5.834 -0.4299  0.1988 -0.0214
 7806SOL    HW235055   4.702   4.280   5.838  1.0570 -1.5225  1.5371
 7807SOL     OW35056   1.677   3.926   1.860 -0.6596 -0.5676 -0.8791
 7807SOL    HW135057   1.656   3.896   1.772  0.3705 -1.5754 -0.7824
 7807SOL    HW235058   1.600   3.912   1.914  0.1549 -2.3169 -0.1576
 7808SOL     OW35059   2.136   4.167   4.622  0.2635  0.4453 -0.6029
 7808SOL    HW135060   2.206   4.165   4.687  0.5635  1.1526 -0.9061
 7808SOL    HW235061   2.072   4.102   4.651 -0.6843  1.9012  0.5379
 7809SOL     OW35062   2.289   3.784  14.922  0.0525 -0.0897 -0.1477
 7809SOL    HW135063   2.209   3.744  14.889  0.4323 -1.4587  0.5628
 7809SOL    HW235064   2.279   3.879  14.915  0.2697 -0.0583 -0.0265
 7810SOL     OW35065   4.087   0.780  13.695  0.0238 -0.0193 -0.8095
 7810SOL    HW135066   4.149   0.742  13.757 -0.7249  0.1747  0.0629
 7810SOL    HW235067   4.142   0.781  13.617  0.8185 -3.7056 -0.2661
 7811SOL     OW35068   4.036   0.481   0.557 -0.2366  0.0458  0.3023
 7811SOL    HW135069   4.119   0.434   0.562 -0.2316  0.0535  0.2912
 7811SOL    HW235070   3.996   0.403   0.596  2.4711 -0.8555  1.2941
 7812SOL     OW35071   0.625   2.277   8.355 -0.5723 -0.1189  0.3676
 7812SOL    HW135072   0.676   2.203   8.322 -0.3884  0.0194  0.3473
 7812SOL    HW235073   0.573   2.313   8.283 -1.0004 -1.1519  0.1495
 7813SOL     OW35074   4.482   2.806   4.283  0.1931  0.2083  0.4976
 7813SOL    HW135075   4.563   2.772   4.245  0.3745  1.1408  0.0543
 7813SOL    HW235076   4.446   2.857   4.210  1.5019 -1.9819 -1.6691
 7814SOL     OW35077   3.929   3.227   0.513  0.1920 -0.2441  0.3261
 7814SOL    HW135078   3.897   3.229   0.423 -1.0450 -2.8107  0.7211
 7814SOL    HW235079   3.881   3.149   0.541 -0.2646 -0.5022 -1.1646
 7815SOL     OW35080   1.564   2.761   5.226 -0.1386 -0.2435  0.1911
 7815SOL    HW135081   1.529   2.767   5.137 -0.0181  0.8259  0.2217
 7815SOL    HW235082   1.647   2.717   5.210  0.6372  1.0474  0.6972
 7816SOL     OW35083   2.749   4.068  13.099 -0.0909 -0.5808 -0.2435
 7816SOL    HW135084   2.820   4.047  13.039  2.0803  3.3119  0.9726
 7816SOL    HW235085   2.716   4.151  13.064 -2.8051 -1.6376 -0.2071
 7817SOL     OW35086   1.557   0.392   1.326  0.4512  0.2826  0.7290
 7817SOL    HW135087   1.594   0.435   1.403  1.2049  1.7294 -0.4373
 7817SOL    HW235088   1.477   0.348   1.354  1.0024 -0.5001  1.0655
 7818SOL     OW35089   3.615   3.354   1.860  0.3673 -0.0491 -0.7828
 7818SOL    HW135090   3.612   3.440   1.903  2.6941 -0.8247  0.9792
 7818SOL    HW235091   3.544   3.352   1.797 -0.4678 -2.9092  0.2385
 7819SOL     OW35092   0.646   1.156   5.531 -0.3997  0.1289 -0.0599
 7819SOL    HW135093   0.736   1.133   5.555 -0.4577 -0.6009 -0.5369
 7819SOL    HW235094   0.647   1.239   5.483  1.0148  0.6296  0.8487
 7820SOL     OW35095   0.195   0.530   5.241 -0.0824  0.5060  0.5042
 7820SOL    HW135096   0.211   0.482   5.322  0.0683  1.6940  1.1856
 7820SOL    HW235097   0.247   0.609   5.254 -0.1376  0.5878  0.2320
 7821SOL     OW35098   0.359   4.041  15.918 -0.1552  0.1571 -0.1932
 7821SOL    HW135099   0.368   4.124  15.965  2.7814 -0.5673  0.5548
 7821SOL    HW235100   0.268   4.020  15.938 -0.2311  0.6713 -0.0091
 7822SOL     OW35101   2.667   0.748   9.228 -0.4507 -0.0841  0.3568
 7822SOL    HW135102   2.601   0.751   9.159  1.3518 -2.3287 -1.4382
 7822SOL    HW235103   2.671   0.843   9.242 -0.3386  0.1978 -1.5856
 7823SOL     OW35104   0.169   0.590   7.540  0.7143  0.1094  0.2741
 7823SOL    HW135105   0.075   0.596   7.559  0.6354  0.2141 -0.1549
 7823SOL    HW235106   0.172   0.526   7.469  2.6000  0.3850  0.1165
 7824SOL     OW35107   2.075   3.503  11.328  0.2605 -0.0753 -0.1584
 7824SOL    HW135108   2.078   3.549  11.244 -0.5779  0.8328  0.3058
 7824SOL    HW235109   2.090   3.572  11.393  1.9736 -1.2262  0.6744
 7825SOL     OW35110   2.644   1.607   4.272 -0.4208 -0.1594 -1.0575
 7825SOL    HW135111   2.719   1.553   4.247 -0.3238  0.0623 -1.2375
 7825SOL    HW235112   2.678   1.661   4.344 -0.3894 -0.1042 -1.1140
 7826SOL     OW35113   0.114   3.976   5.600  0.5657 -0.6666 -0.2475
 7826SOL    HW135114   0.192   4.014   5.640  0.2942  0.0638 -0.4086
 7826SOL    HW235115   0.060   3.976   5.679  1.1345 -1.9194  0.1454
 7827SOL     OW35116   2.739   2.677   5.997  0.6284 -0.2753  0.1084
 7827SOL    HW135117   2.826   2.712   5.975 -0.0301 -0.6063 -3.0453
 7827SOL    HW235118   2.710   2.661   5.907 -0.6732  1.7909  0.1537
 7828SOL     OW35119   0.606   3.092  14.620  0.2448  0.2651 -0.2649
 7828SOL    HW135120   0.621   3.001  14.595 -1.8649 -0.1673  0.0094
 7828SOL    HW235121   0.531   3.101  14.561  0.7157 -1.2137 -1.0791
 7829SOL     OW35122   4.378   1.721   7.756 -0.2819  0.7177  0.3452
 7829SOL    HW135123   4.381   1.626   7.768  2.2092  0.9069  1.1530
 7829SOL    HW235124   4.346   1.760   7.837 -3.7954 -1.9464  0.2531
 7830SOL     OW35125   0.335   2.190  12.268 -0.2828  0.3335  0.2097
 7830SOL    HW135126   0.400   2.248  12.228  1.4229 -0.8185  1.2632
 7830SOL    HW235127   0.390   2.157  12.339  0.8902  1.6279 -0.0793
 7831SOL     OW35128   3.691   3.827   6.101  0.0473  0.5860 -0.6902
 7831SOL    HW135129   3.635   3.830   6.023  0.9016  0.6095 -1.2957
 7831SOL    HW235130   3.771   3.824   6.050 -0.0536  1.3797 -0.8854
 7832SOL     OW35131   1.538   0.887  12.568  0.9137 -0.1496  0.1394
 7832SOL    HW135132   1.552   0.975  12.602 -0.8463  0.2518 -0.1585
 7832SOL    HW235133   1.474   0.861  12.634 -0.0749  1.1937 -0.2975
 7833SOL     OW35134   0.751   0.139   2.950  0.0452  0.1787  0.4720
 7833SOL    HW135135   0.810   0.176   2.884 -1.6161 -1.1684 -1.7845
 7833SOL    HW235136   0.802   0.119   3.028  1.0095  2.6567  0.4569
 7834SOL     OW35137   2.008   0.952   6.185 -0.1397 -0.1388  0.2558
 7834SOL    HW135138   1.934   0.940   6.125 -0.0232  1.2610 -0.1741
 7834SOL    HW235139   1.998   1.032   6.238  2.9087 -0.5217  1.3633
 7835SOL     OW35140   1.489   0.211   1.570  0.1901  0.1285 -0.3713
 7835SOL    HW135141   1.521   0.124   1.595  0.2355  0.1978 -0.1960
 7835SOL    HW235142   1.558   0.273   1.591 -0.1563  0.3570  0.1011
 7836SOL     OW35143   4.491   3.603   6.683 -0.0958 -0.7111  0.1458
 7836SOL    HW135144   4.490   3.648   6.599  2.4328 -0.5869  0.1680
 7836SOL    HW235145   4.516   3.677   6.739  0.4997  1.5142 -3.1027
 7837SOL     OW35146   3.473   3.858   1.663  0.2884 -0.2586  0.5255
 7837SOL    HW135147   3.558   3.842   1.705  0.9809 -0.4590 -0.9754
 7837SOL    HW235148   3.505   3.837   1.575 -1.8425  0.2449 -0.3560
 7838SOL     OW35149   2.733   0.087  14.105 -0.3926  0.8640 -0.3635
 7838SOL    HW135150   2.792   0.151  14.064  1.5454  0.4278  1.7447
 7838SOL    HW235151   2.789   0.009  14.101  0.2511  1.3369 -0.6517
 7839SOL     OW35152   2.259   1.091   0.649  0.4718  0.1374  0.5814
 7839SOL    HW135153   2.354   1.089   0.662  0.4721 -1.9782  0.1899
 7839SOL    HW235154   2.237   1.173   0.694  1.3492  1.5004 -1.4173
 7840SOL     OW35155   3.836   0.550   4.894 -0.0308  0.8225  0.6618
 7840SOL    HW135156   3.759   0.604   4.914  1.0057  2.1162  1.0971
 7840SOL    HW235157   3.816   0.470   4.943 -0.4665  1.1771  1.0628
 7841SOL     OW35158   1.150   3.933   7.181 -0.0025 -0.8086 -0.0511
 7841SOL    HW135159   1.220   3.958   7.120  0.2976  1.3764  1.2068
 7841SOL    HW235160   1.183   3.848   7.210  2.7376  0.2775  0.0058
 7842SOL     OW35161   1.189   4.359  14.787  0.3481  0.0686  0.3986
 7842SOL    HW135162   1.114   4.331  14.735  0.2175  1.2480 -0.0420
 7842SOL    HW235163   1.263   4.356  14.727  0.6324  2.2766  0.6432
 7843SOL     OW35164   1.787   0.463   0.145  0.0363 -0.2661  0.2716
 7843SOL    HW135165   1.840   0.408   0.088 -1.1412 -0.2327 -0.8619
 7843SOL    HW235166   1.847   0.533   0.170  0.8098 -1.6614  2.2495
 7844SOL     OW35167   2.299   0.724   4.905 -0.4208 -0.1517  1.0836
 7844SOL    HW135168   2.212   0.762   4.909 -0.4236  0.0629 -1.2126
 7844SOL    HW235169   2.289   0.667   4.982 -0.1331  0.4912  1.5979
 7845SOL     OW35170   1.918   4.060   3.870  0.1897  0.1589  0.1900
 7845SOL    HW135171   1.901   4.123   3.800  1.8833  0.3199 -0.0825
 7845SOL    HW235172   1.895   3.988   3.811 -0.5277 -0.6359  1.4522
 7846SOL     OW35173   0.220   0.317   4.678 -0.0036 -0.1486  0.4705
 7846SOL    HW135174   0.147   0.255   4.676  0.8531 -1.1040 -0.7342
 7846SOL    HW235175   0.243   0.305   4.586  1.1473  0.1957  0.7124
 7847SOL     OW35176   3.468   2.057  12.752 -0.3925 -0.4149 -0.7969
 7847SOL    HW135177   3.409   2.132  12.757 -0.1031 -0.2199 -0.3829
 7847SOL    HW235178   3.486   2.048  12.658  1.2704 -0.3875 -0.4706
 7848SOL     OW35179   1.925   0.417   9.001 -0.0404 -0.1634 -0.0241
 7848SOL    HW135180   1.934   0.388   9.092  1.4203 -0.1019 -0.1413
 7848SOL    HW235181   1.903   0.509   9.014 -0.2599 -0.2681  0.3342
 7849SOL     OW35182   2.858   0.909  16.736  0.1666  0.2577  0.1171
 7849SOL    HW135183   2.915   0.936  16.664 -1.4486 -0.8751 -1.5766
 7849SOL    HW235184   2.912   0.856  16.794 -3.5795 -1.8219  1.7477
 7850SOL     OW35185   4.284   0.418  12.427 -0.5105 -0.2295 -0.1226
 7850SOL    HW135186   4.260   0.379  12.511  0.8894 -0.3236  0.2262
 7850SOL    HW235187   4.197   0.416  12.386 -0.6876 -0.6374  0.2849
 7851SOL     OW35188   3.186   1.760   2.940 -0.1175 -0.3845 -0.5504
 7851SOL    HW135189   3.112   1.698   2.942 -0.8707  0.5807  1.9180
 7851SOL    HW235190   3.259   1.700   2.956  2.2177  2.2820 -1.3824
 7852SOL     OW35191   1.475   0.998   5.372 -0.0687  0.0568  0.2945
 7852SOL    HW135192   1.536   0.925   5.376  0.3884  0.3532 -1.0068
 7852SOL    HW235193   1.511   1.049   5.299  1.6725 -0.8229  0.5299
 7853SOL     OW35194   3.487   2.445  17.024 -0.4372  0.4355  0.1460
 7853SOL    HW135195   3.503   2.525  16.973 -1.5932  1.6052  1.6379
 7853SOL    HW235196   3.402   2.414  16.995 -0.7693  0.8101  0.7286
 7854SOL     OW35197   2.921   2.752  10.609 -0.4410  0.3957 -0.0651
 7854SOL    HW135198   2.938   2.821  10.544 -2.4684  1.0205  0.0549
 7854SOL    HW235199   3.006   2.726  10.642 -1.1173 -1.2315  0.3679
 7855SOL     OW35200   1.461   0.707   5.024 -0.2579 -0.7736 -0.3008
 7855SOL    HW135201   1.509   0.776   4.979 -1.6918  0.6431  0.3648
 7855SOL    HW235202   1.372   0.730   4.996  1.4642  0.7305 -4.4616
 7856SOL     OW35203   1.546   4.332  16.244 -0.1735 -0.0726 -0.1509
 7856SOL    HW135204   1.546   4.317  16.150 -1.3808  0.2471 -0.2118
 7856SOL    HW235205   1.626   4.381  16.266 -0.3881  0.6011 -0.8911
 7857SOL     OW35206   1.384   3.993   9.328  0.1806 -0.0907 -0.4780
 7857SOL    HW135207   1.290   4.008   9.339  0.2429 -0.1984  0.1922
 7857SOL    HW235208   1.418   4.076   9.362  0.5616  0.2708 -1.7416
 7858SOL     OW35209   1.944   0.596   4.093  0.0669 -0.0643 -0.5146
 7858SOL    HW135210   1.897   0.587   4.010 -0.7159 -1.2702  0.0681
 7858SOL    HW235211   1.982   0.680   4.066  3.1625 -1.2379  0.2015
 7859SOL     OW35212   1.031   2.772   6.825 -0.1104 -0.2611 -0.5890
 7859SOL    HW135213   1.066   2.807   6.907 -0.8769  1.0046 -0.8008
 7859SOL    HW235214   0.951   2.731   6.857  0.4069 -0.8205 -0.0157
 7860SOL     OW35215   3.357   4.097  11.354  0.7371 -0.0523  0.3373
 7860SOL    HW135216   3.419   4.024  11.349  1.5830  0.8449 -2.3964
 7860SOL    HW235217   3.294   4.062  11.291 -0.7561 -1.0732  2.3987
 7861SOL     OW35218   4.492   3.101   5.693 -0.1270 -0.3754  0.4947
 7861SOL    HW135219   4.531   3.033   5.639  2.4378 -0.0697  1.9672
 7861SOL    HW235220   4.415   3.120   5.639 -0.7214 -1.9271  0.8045
 7862SOL     OW35221   3.676   2.833   6.621  0.2125 -0.3397  0.0983
 7862SOL    HW135222   3.597   2.836   6.568  0.2055  0.1976  0.1478
 7862SOL    HW235223   3.718   2.914   6.594  1.5693 -0.9470  0.3857
 7863SOL     OW35224   3.656   1.934   6.204  0.7129 -0.1205 -0.0190
 7863SOL    HW135225   3.613   1.988   6.138  1.7714 -0.0921 -0.6880
 7863SOL    HW235226   3.748   1.951   6.182  1.0711 -0.2108  1.3696
 7864SOL     OW35227   2.067   0.465   7.634  0.2517 -0.6700  0.5417
 7864SOL    HW135228   2.052   0.515   7.553 -1.1935 -0.6763  0.8215
 7864SOL    HW235229   2.139   0.496   7.689  0.0385 -1.0161  1.0094
 7865SOL     OW35230   1.122   0.200   4.745  0.3069  0.4799 -0.2663
 7865SOL    HW135231   1.046   0.223   4.691 -0.8071  1.2146  1.6153
 7865SOL    HW235232   1.090   0.211   4.834  2.0295 -1.8722  0.6430
 7866SOL     OW35233   4.126   0.698   6.118 -0.2560 -0.0855  0.0777
 7866SOL    HW135234   4.052   0.678   6.176 -0.4679 -0.3817 -0.2935
 7866SOL    HW235235   4.079   0.696   6.035  1.9753  0.3991 -1.1897
 7867SOL     OW35236   0.449   0.343  15.212  0.7680 -0.4342 -0.2254
 7867SOL    HW135237   0.426   0.326  15.120 -0.9439 -1.1970  0.3431
 7867SOL    HW235238   0.536   0.302  15.207  1.2112  0.4304  0.6402
 7868SOL     OW35239   3.623   2.545  13.079  0.2233 -0.1716  0.3091
 7868SOL    HW135240   3.633   2.578  13.168  2.5144  0.0918 -0.0547
 7868SOL    HW235241   3.564   2.469  13.086  1.5603 -1.0804  1.6821
 7869SOL     OW35242   1.599   1.346   6.373 -0.1856  0.2023 -0.4033
 7869SOL    HW135243   1.692   1.364   6.362  0.8957 -3.6767  2.3124
 7869SOL    HW235244   1.559   1.428   6.345  1.8365  1.3150  0.0059
 7870SOL     OW35245   0.845   0.192   4.935 -0.4755 -0.1898  0.0555
 7870SOL    HW135246   0.794   0.232   4.865 -1.7742 -0.8755  0.6057
 7870SOL    HW235247   0.911   0.256   4.960 -0.8632 -0.5275  1.9824
 7871SOL     OW35248   2.630   1.720  15.914  0.2462 -0.6377 -0.3186
 7871SOL    HW135249   2.585   1.649  15.867 -1.2066 -0.1283  0.3196
 7871SOL    HW235250   2.675   1.763  15.842 -0.1889 -0.6609 -0.6087
 7872SOL     OW35251   3.975   4.347   2.066 -0.0107 -0.6584  0.4401
 7872SOL    HW135252   4.041   4.400   2.020  0.9630  0.7804  3.4731
 7872SOL    HW235253   3.939   4.399   2.138 -0.3758  1.5194 -1.3176
 7873SOL     OW35254   3.797   2.482  11.379 -0.2554  0.4016  0.0296
 7873SOL    HW135255   3.882   2.524  11.390 -0.7286  1.7892 -1.6595
 7873SOL    HW235256   3.811   2.429  11.300 -0.7182  0.6659 -0.2305
 7874SOL     OW35257   2.510   2.445   4.656  0.2969  0.2289 -0.6863
 7874SOL    HW135258   2.519   2.408   4.743  1.6625  2.1047 -0.0150
 7874SOL    HW235259   2.434   2.500   4.675 -0.5224 -1.0295 -0.3766
 7875SOL     OW35260   2.447   1.799  10.641  0.2629  0.0188 -0.1515
 7875SOL    HW135261   2.444   1.884  10.598 -0.1931 -0.6593 -1.4481
 7875SOL    HW235262   2.415   1.740  10.573  0.0047  1.7791 -1.5390
 7876SOL     OW35263   3.998   2.024  10.455  0.0814  0.6453  0.0515
 7876SOL    HW135264   4.025   1.933  10.466  1.2113  0.9504 -0.2115
 7876SOL    HW235265   4.080   2.066  10.432  0.9405 -0.3252  1.3430
 7877SOL     OW35266   0.332   1.161  14.603  0.2595 -0.8318  0.1250
 7877SOL    HW135267   0.314   1.076  14.644  0.7145 -0.8522  0.2779
 7877SOL    HW235268   0.281   1.136  14.525  0.0489  1.1666 -0.3565
 7878SOL     OW35269   2.296   2.171   9.097 -0.0554  0.5957  0.2054
 7878SOL    HW135270   2.260   2.189   9.011 -1.5837  1.9652  1.1373
 7878SOL    HW235271   2.388   2.188   9.077  0.3042  0.3950  1.6412
 7879SOL     OW35272   2.439   0.673  11.243  0.3402 -0.3467 -0.0956
 7879SOL    HW135273   2.473   0.733  11.177  1.4036 -2.6429 -1.6455
 7879SOL    HW235274   2.378   0.627  11.185  0.9873  1.1844 -1.9984
 7880SOL     OW35275   2.222   3.475   8.318  0.3763  0.1344 -0.7713
 7880SOL    HW135276   2.315   3.491   8.332  0.8792  0.9658 -5.0135
 7880SOL    HW235277   2.223   3.413   8.245 -2.8422  0.9099 -1.4904
 7881SOL     OW35278   4.393   2.303   6.002 -0.2468 -0.2794  0.3408
 7881SOL    HW135279   4.428   2.373   5.948  0.1493  0.4088  1.4920
 7881SOL    HW235280   4.470   2.286   6.057  0.4439  2.3127  0.1346
 7882SOL     OW35281   4.349   0.035  15.842  0.0661  0.1532  0.6235
 7882SOL    HW135282   4.372   0.087  15.919  0.4403  2.6635 -1.1801
 7882SOL    HW235283   4.407   0.072  15.775 -0.9292 -0.3502 -0.5259
 7883SOL     OW35284   0.219   0.449   5.898 -0.8499 -0.0390 -0.2365
 7883SOL    HW135285   0.238   0.478   5.988  0.8422 -1.2879 -0.1932
 7883SOL    HW235286   0.279   0.375   5.897 -0.1536  0.5181 -0.0121
 7884SOL     OW35287   2.087   3.192   1.148 -0.2473 -0.2057 -0.2338
 7884SOL    HW135288   2.030   3.260   1.113  0.0275  0.2429  0.1915
 7884SOL    HW235289   2.171   3.216   1.109  0.7449 -0.7286  1.5847
 7885SOL     OW35290   3.267   1.004   4.622 -0.5036 -0.3646  0.3688
 7885SOL    HW135291   3.182   0.962   4.609 -0.3638  0.8466 -4.2950
 7885SOL    HW235292   3.264   1.045   4.536  0.2344 -0.0028  0.5155
 7886SOL     OW35293   1.948   3.111   9.508  0.2602 -0.0380 -0.0490
 7886SOL    HW135294   1.939   3.054   9.431 -0.7647  1.3871 -0.9815
 7886SOL    HW235295   1.926   3.057   9.584 -0.1139 -0.9831 -0.8199
 7887SOL     OW35296   0.582   3.640   3.188 -0.1702  0.3289  0.2088
 7887SOL    HW135297   0.661   3.691   3.204  0.3074 -0.8520  1.5403
 7887SOL    HW235298   0.620   3.553   3.182  0.2083  0.6887 -2.8473
 7888SOL     OW35299   2.187   0.438   0.975 -0.3177 -0.8559  0.7658
 7888SOL    HW135300   2.118   0.461   1.037  1.2248  2.0909  1.4125
 7888SOL    HW235301   2.268   0.444   1.027 -1.6627  1.5492  2.5678
 7889SOL     OW35302   2.782   3.767  10.681  0.2803  0.1571 -0.4262
 7889SOL    HW135303   2.690   3.784  10.663  0.5812 -0.5319 -2.5250
 7889SOL    HW235304   2.806   3.684  10.640  0.4139 -0.7775  1.5311
 7890SOL     OW35305   4.131   3.316   8.047  0.2512 -0.1498  0.2577
 7890SOL    HW135306   4.110   3.341   7.957  0.7785  0.9096  0.4300
 7890SOL    HW235307   4.113   3.399   8.091 -0.8584 -1.0464  1.4892
 7891SOL     OW35308   3.833   0.692  10.708  0.9397 -0.7607  0.1914
 7891SOL    HW135309   3.826   0.616  10.765 -0.3922 -1.2665 -0.6754
 7891SOL    HW235310   3.747   0.731  10.726  0.5193 -1.1719 -0.9642
 7892SOL     OW35311   2.305   0.578   7.694 -0.7157  0.3510 -0.1013
 7892SOL    HW135312   2.313   0.662   7.740 -1.6832  0.9249 -0.9782
 7892SOL    HW235313   2.385   0.590   7.644  0.0478 -0.7964  0.8521
 7893SOL     OW35314   3.195   2.973   7.250  0.2672 -0.4310 -0.0366
 7893SOL    HW135315   3.249   2.946   7.325 -2.5080 -1.8954  1.4517
 7893SOL    HW235316   3.112   2.929   7.272  1.2945 -3.1001 -1.5243
 7894SOL     OW35317   1.761   3.524  17.219 -0.4052 -0.0805 -0.1953
 7894SOL    HW135318   1.796   3.607  17.185 -0.2794 -0.3976 -0.8267
 7894SOL    HW235319   1.690   3.511  17.156  0.6763 -1.5325 -1.1158
 7895SOL     OW35320   4.352   4.662   6.017  0.4690  0.3824  0.4807
 7895SOL    HW135321   4.299   4.725   5.967  0.7352  0.2053 -0.0195
 7895SOL    HW235322   4.404   4.623   5.947 -0.2695 -2.0406  1.2975
 7896SOL     OW35323   3.044   3.748   1.246 -0.2352 -0.4007  0.3522
 7896SOL    HW135324   3.095   3.829   1.253  0.2447 -0.6156 -0.5959
 7896SOL    HW235325   2.986   3.781   1.178 -0.1574  2.7981  1.8691
 7897SOL     OW35326   4.248   1.207   5.004  0.0040  0.0720 -0.0096
 7897SOL    HW135327   4.265   1.114   5.019 -3.3148 -0.6784 -0.8106
 7897SOL    HW235328   4.288   1.245   5.082  1.5053 -0.4240 -0.5528
 7898SOL     OW35329   4.681   3.027   3.551  0.2181 -0.3549  0.2374
 7898SOL    HW135330   4.733   2.977   3.488 -0.2087  1.5844 -1.6268
 7898SOL    HW235331   0.015   3.074   3.593 -0.2015  1.4748 -1.0911
 7899SOL     OW35332   0.205   4.532   8.165  0.1123 -0.3022 -0.1741
 7899SOL    HW135333   0.139   4.523   8.234  0.9774  1.3486  0.8776
 7899SOL    HW235334   0.272   4.467   8.188  1.2430  0.6546 -0.7991
 7900SOL     OW35335   3.812   2.040   6.003  0.3704 -0.0027 -0.1010
 7900SOL    HW135336   3.869   2.087   6.064 -0.1428  3.0099 -1.9744
 7900SOL    HW235337   3.828   2.089   5.923  2.3376 -0.3821  0.0527
 7901SOL     OW35338   3.733   3.411   5.486  0.0339 -0.2838  0.1130
 7901SOL    HW135339   3.642   3.387   5.504 -0.1436  0.4877  0.2100
 7901SOL    HW235340   3.747   3.496   5.527  0.0996 -0.6394  0.8416
 7902SOL     OW35341   4.385   2.214  16.236 -0.6618 -0.3285 -0.0291
 7902SOL    HW135342   4.427   2.291  16.197  0.4336 -1.9746 -2.0869
 7902SOL    HW235343   4.463   2.165  16.262 -0.7567  0.8350  2.3977
 7903SOL     OW35344   2.682   3.344   9.106 -0.4860 -0.4390  0.3905
 7903SOL    HW135345   2.648   3.404   9.172 -1.6871 -0.7280  0.0349
 7903SOL    HW235346   2.602   3.304   9.072 -1.0265  1.1104 -0.1302
 7904SOL     OW35347   0.642   0.292   2.428 -0.2130  0.3762 -0.2543
 7904SOL    HW135348   0.666   0.302   2.336 -0.3516  1.5442 -0.1699
 7904SOL    HW235349   0.655   0.382   2.457  0.8001  0.0508  0.2843
 7905SOL     OW35350   1.636   4.658  11.776  0.2059  0.1803 -0.1831
 7905SOL    HW135351   1.623   4.684  11.867 -0.0933  2.3571 -0.8510
 7905SOL    HW235352   1.550   4.617  11.766  1.6931 -2.9613 -0.0830
 7906SOL     OW35353   3.112   3.348  16.697  0.4008 -0.0211  0.1250
 7906SOL    HW135354   3.092   3.255  16.702  0.5122 -0.1643 -2.4857
 7906SOL    HW235355   3.165   3.360  16.776  0.4946 -1.1604  0.2334
 7907SOL     OW35356   4.690   3.624   3.822  0.0807 -0.6392 -0.5763
 7907SOL    HW135357   4.631   3.692   3.854  0.7472  0.2469 -1.2413
 7907SOL    HW235358   4.681   3.627   3.727  0.8660 -1.7242 -0.6807
 7908SOL     OW35359   3.795   1.145  13.040 -0.1641  0.0592 -0.2667
 7908SOL    HW135360   3.834   1.092  12.971  1.5251 -1.1892  1.6309
 7908SOL    HW235361   3.880   1.170  13.078  0.1224 -0.5856 -0.4885
 7909SOL     OW35362   2.582   0.553   7.963 -0.1982 -0.0907  0.8942
 7909SOL    HW135363   2.567   0.641   7.998  2.4816  1.1541 -1.1025
 7909SOL    HW235364   2.629   0.562   7.880  1.7070 -1.2368  1.8347
 7910SOL     OW35365   1.692   1.776  16.287 -0.1308  0.3815 -0.5237
 7910SOL    HW135366   1.620   1.790  16.349  0.7318  0.1242  0.5316
 7910SOL    HW235367   1.638   1.784  16.209 -0.6687  0.2890 -0.1684
 7911SOL     OW35368   1.558   0.151   9.675 -0.1617  0.0513 -0.3758
 7911SOL    HW135369   1.488   0.150   9.610 -1.0964 -2.6481  0.6821
 7911SOL    HW235370   1.512   0.172   9.757 -0.0259  1.1988 -0.6014
 7912SOL     OW35371   1.396   0.852   1.080 -0.6402  0.7630  0.5178
 7912SOL    HW135372   1.379   0.925   1.020  1.0155  1.3054  0.6947
 7912SOL    HW235373   1.476   0.818   1.041 -1.6955 -0.1564 -0.8290
 7913SOL     OW35374   4.656   0.291   8.360  0.3453 -0.0703  0.0954
 7913SOL    HW135375   4.738   0.303   8.312 -0.3404 -1.1331 -1.3234
 7913SOL    HW235376   4.607   0.369   8.335  1.7674  0.5293 -0.8149
 7914SOL     OW35377   3.980   3.250   3.012  0.2506 -0.2063 -0.0685
 7914SOL    HW135378   3.908   3.268   3.073 -0.4860  0.6045 -1.1691
 7914SOL    HW235379   4.038   3.222   3.082  0.3592  0.2807  0.0368
 7915SOL     OW35380   4.087   1.097   3.961  0.4104 -0.0021 -0.2237
 7915SOL    HW135381   4.086   1.071   3.869  0.3679  0.5344 -0.3749
 7915SOL    HW235382   4.045   1.181   3.947 -0.8345 -1.0296 -2.7394
 7916SOL     OW35383   3.416   1.910   2.779  0.2864 -0.1483 -0.0075
 7916SOL    HW135384   3.430   1.817   2.797  0.1808 -0.1561  0.0357
 7916SOL    HW235385   3.324   1.911   2.807  0.6409  2.3017  1.0617
 7917SOL     OW35386   3.686   3.141   7.717  0.4533  0.2115  0.2512
 7917SOL    HW135387   3.679   3.046   7.709  3.0952 -0.0162  0.6394
 7917SOL    HW235388   3.638   3.175   7.641 -1.6476 -0.8081  1.1483
 7918SOL     OW35389   0.183   3.028   2.386 -1.0357  0.1274 -0.3725
 7918SOL    HW135390   0.161   2.955   2.329 -2.0310  0.2383 -0.1375
 7918SOL    HW235391   0.206   2.966   2.455 -3.1475 -0.9729 -0.6519
 7919SOL     OW35392   0.381   1.079   6.918  0.1975  0.0703  0.7260
 7919SOL    HW135393   0.470   1.103   6.944  0.2398 -0.1724  0.8041
 7919SOL    HW235394   0.393   1.057   6.826 -0.9208  2.2097  0.0529
 7920SOL     OW35395   3.922   2.046   7.157  0.1605  0.2837  0.5667
 7920SOL    HW135396   3.870   2.024   7.235 -1.1366  0.0529 -0.3717
 7920SOL    HW235397   3.871   2.110   7.107  0.9280 -0.3636 -1.0349
 7921SOL     OW35398   0.698   2.492   7.683 -0.4067 -0.3245  0.3206
 7921SOL    HW135399   0.690   2.400   7.706  0.2371 -0.9642 -1.9832
 7921SOL    HW235400   0.756   2.492   7.607  2.4069 -0.0772  2.4674
 7922SOL     OW35401   4.362   0.255   6.168 -0.9321  0.0589  0.5122
 7922SOL    HW135402   4.336   0.246   6.260 -0.3833 -2.2572  0.4471
 7922SOL    HW235403   4.306   0.188   6.128 -0.1325 -0.4411  0.2339
 7923SOL     OW35404   4.208   2.287   2.827 -0.6912  0.4828 -0.1297
 7923SOL    HW135405   4.153   2.362   2.849  0.5557  0.9433  1.4611
 7923SOL    HW235406   4.169   2.259   2.745  1.3693 -0.7490 -0.6866
 7924SOL     OW35407   1.576   2.065  15.153 -0.3272 -0.1328  0.0673
 7924SOL    HW135408   1.594   1.988  15.099 -0.0618  0.9592 -1.4005
 7924SOL    HW235409   1.509   2.042  15.218  0.5961 -0.7488  0.7958
 7925SOL     OW35410   0.788   0.590   4.434  0.2088  0.2615 -0.0141
 7925SOL    HW135411   0.812   0.683   4.434 -1.1952  0.6157 -1.4633
 7925SOL    HW235412   0.723   0.596   4.503  2.1799 -1.0844  1.9720
 7926SOL     OW35413   2.005   1.839   4.194 -0.0297  0.2320  0.1480
 7926SOL    HW135414   1.941   1.896   4.238 -0.8002  0.4543 -1.2675
 7926SOL    HW235415   2.078   1.902   4.192 -1.0723  1.4111 -0.9103
 7927SOL     OW35416   0.215   3.009   4.922  0.4709 -0.3741 -0.3081
 7927SOL    HW135417   0.241   2.997   4.831  1.4936 -0.0080 -0.0680
 7927SOL    HW235418   0.161   3.088   4.913  1.1832  0.1667  0.1041
 7928SOL     OW35419   2.884   1.431   6.584 -0.0857 -0.3335 -0.5457
 7928SOL    HW135420   2.915   1.428   6.674  1.4023 -0.9487 -1.0764
 7928SOL    HW235421   2.967   1.456   6.542 -1.1987  2.5795 -1.0122
 7929SOL     OW35422   2.608   0.698   8.368  0.2297  0.2087 -0.2458
 7929SOL    HW135423   2.572   0.732   8.450  1.0961  0.4797  0.0206
 7929SOL    HW235424   2.533   0.650   8.333 -0.1531  0.9472 -0.4392
 7930SOL     OW35425   4.040   4.391   9.172  0.2165  0.0545 -0.1890
 7930SOL    HW135426   4.033   4.422   9.082 -1.2500  1.1562  0.3111
 7930SOL    HW235427   3.995   4.307   9.163  0.0575  0.0897  0.2793
 7931SOL     OW35428   2.181   0.389  10.085 -0.4530 -0.0193  0.0111
 7931SOL    HW135429   2.255   0.330  10.088 -0.4482 -0.0136  0.0057
 7931SOL    HW235430   2.149   0.386  10.176  0.4716 -1.2176  0.2904
 7932SOL     OW35431   4.301   3.325   0.828 -0.0815  0.1641 -0.0041
 7932SOL    HW135432   4.337   3.240   0.800  1.6605  0.8814  0.0227
 7932SOL    HW235433   4.261   3.349   0.745  0.7610 -0.7991 -0.6961
 7933SOL     OW35434   2.576   2.421   8.817 -0.2461  0.7864 -0.2408
 7933SOL    HW135435   2.567   2.496   8.876 -0.2568  1.4293 -1.0553
 7933SOL    HW235436   2.610   2.465   8.739 -1.8524 -0.6332 -1.7707
 7934SOL     OW35437   4.396   3.804  17.366 -0.0869 -0.2219 -0.0139
 7934SOL    HW135438   4.381   3.896  17.383 -1.3636 -1.1451  3.8225
 7934SOL    HW235439   4.378   3.764  17.451  1.0205  0.4921  0.5594
 7935SOL     OW35440   3.737   1.179   4.852  0.2174  0.2508 -0.1812
 7935SOL    HW135441   3.820   1.216   4.883 -0.0068  0.2745  0.3940
 7935SOL    HW235442   3.700   1.245   4.795 -2.4205 -0.5488  0.6222
 7936SOL     OW35443   1.719   1.221   7.641 -0.0163  0.1740  0.0198
 7936SOL    HW135444   1.779   1.170   7.696 -0.1328  0.2606  0.2306
 7936SOL    HW235445   1.676   1.266   7.714 -1.6122  0.9772 -1.4196
 7937SOL     OW35446   0.657   0.060  11.932 -0.1732  0.1680  0.3822
 7937SOL    HW135447   0.646   0.155  11.936 -0.6939  0.2613 -3.0500
 7937SOL    HW235448   0.712   0.055  11.853  0.6008 -1.0967  0.9945
 7938SOL     OW35449   3.766   2.551   5.353 -0.5982  0.2260  0.1027
 7938SOL    HW135450   3.783   2.472   5.404  0.4570 -0.1793 -0.8458
 7938SOL    HW235451   3.673   2.561   5.369 -0.8822  0.1914 -1.4969
 7939SOL     OW35452   2.733   3.451   9.568  0.4353  0.7385  0.4105
 7939SOL    HW135453   2.802   3.398   9.528  0.0835  0.3566  0.3101
 7939SOL    HW235454   2.671   3.463   9.496  1.3427 -0.7054 -0.6082
 7940SOL     OW35455   0.521   4.286   9.629  0.2818  0.0187 -0.9126
 7940SOL    HW135456   0.439   4.236   9.629 -1.6326  3.1660  2.3155
 7940SOL    HW235457   0.513   4.347   9.555 -1.8241  0.6685 -0.1605
 7941SOL     OW35458   1.294   4.022   8.447 -0.0901  0.2964 -0.5561
 7941SOL    HW135459   1.303   4.007   8.541 -1.5423  3.9251  0.1363
 7941SOL    HW235460   1.209   3.983   8.425 -0.2160 -0.2038  0.8450
 7942SOL     OW35461   1.639   2.697  10.799 -0.0867  0.1129 -0.4269
 7942SOL    HW135462   1.669   2.607  10.814  2.5049  0.9407 -0.6396
 7942SOL    HW235463   1.572   2.675  10.735 -2.2260  0.8943  1.5485
 7943SOL     OW35464   1.142   4.639  14.697  0.1364  0.1381 -0.4142
 7943SOL    HW135465   1.144   4.551  14.734  1.3801 -0.0438 -0.9219
 7943SOL    HW235466   1.222   4.643  14.645 -0.1410 -0.3215 -0.8842
 7944SOL     OW35467   0.370   2.380   7.321 -0.1794 -0.0850 -0.9071
 7944SOL    HW135468   0.404   2.444   7.258 -0.8285  0.4563 -0.7036
 7944SOL    HW235469   0.390   2.441   7.392  0.4403 -1.7011  0.3065
 7945SOL     OW35470   2.171   0.421  15.300  0.4724  0.4065  0.2148
 7945SOL    HW135471   2.253   0.467  15.320 -0.0195  1.3713  0.0201
 7945SOL    HW235472   2.112   0.450  15.370  0.1890 -2.4939  1.1745
 7946SOL     OW35473   1.080   1.068   5.093  0.2953  0.1919 -0.4251
 7946SOL    HW135474   0.988   1.063   5.118 -0.0525 -0.5382 -1.9139
 7946SOL    HW235475   1.099   1.157   5.123  1.0033 -0.7279  1.8569
 7947SOL     OW35476   2.637   4.456   4.240 -0.1833  0.3793 -1.1051
 7947SOL    HW135477   2.645   4.395   4.313 -1.4917  0.7158 -0.6605
 7947SOL    HW235478   2.637   4.384   4.177 -0.4503  0.8937 -1.6916
 7948SOL     OW35479   3.542   1.769   7.764 -0.1233  0.1777  0.8308
 7948SOL    HW135480   3.486   1.693   7.775 -1.4890  1.4157  2.4537
 7948SOL    HW235481   3.511   1.807   7.682 -0.6843  0.5109  1.1961
 7949SOL     OW35482   1.083   1.378  16.250 -0.1234 -0.0078  0.4653
 7949SOL    HW135483   1.137   1.419  16.182 -0.4719  2.0254  1.4382
 7949SOL    HW235484   1.068   1.288  16.219  1.0653  0.8429 -2.5281
 7950SOL     OW35485   1.856   2.242   5.631 -0.8128 -1.0661  0.7835
 7950SOL    HW135486   1.787   2.288   5.678  0.7381  0.8478  1.1725
 7950SOL    HW235487   1.842   2.149   5.649  1.7455 -1.2691  1.8098
 7951SOL     OW35488   2.129   2.801   2.905 -0.0949  0.2686  0.2835
 7951SOL    HW135489   2.189   2.833   2.972 -0.1176  3.3724 -1.1941
 7951SOL    HW235490   2.169   2.840   2.828 -0.6230  1.9852  0.8767
 7952SOL     OW35491   1.797   1.776   2.641 -0.1888  0.1944 -0.2352
 7952SOL    HW135492   1.888   1.748   2.636 -0.3383 -0.2547 -0.4256
 7952SOL    HW235493   1.793   1.864   2.678  1.2430  0.8680 -1.7254
 7953SOL     OW35494   3.801   0.918   4.642 -0.1273 -0.0794  0.6154
 7953SOL    HW135495   3.864   0.894   4.710 -0.1718 -0.0919  0.6518
 7953SOL    HW235496   3.759   0.998   4.674  1.7741  0.5941  1.4237
 7954SOL     OW35497   0.001   4.184   1.956 -0.5798 -0.3144 -0.2042
 7954SOL    HW135498   0.012   4.168   2.050 -0.8071 -1.9374 -0.4582
 7954SOL    HW235499   4.652   4.222   1.959 -0.9596 -1.0993 -1.3057
 7955SOL     OW35500   0.556   1.993   8.602 -0.0996  1.0156 -0.3654
 7955SOL    HW135501   0.461   1.999   8.592  0.0371  1.3673 -1.4348
 7955SOL    HW235502   0.559   1.897   8.597  0.1373  0.9909  0.2635
 7956SOL     OW35503   0.130   1.002   5.828 -0.1863  0.9878  0.5525
 7956SOL    HW135504   0.170   1.087   5.844  0.5415  0.5582  1.0551
 7956SOL    HW235505   0.079   1.009   5.748  1.4713  0.8999 -0.5024
 7957SOL     OW35506   1.605   3.682   6.255  0.2768 -0.5690 -0.6022
 7957SOL    HW135507   1.668   3.611   6.241 -1.3875 -1.9611 -0.9056
 7957SOL    HW235508   1.626   3.736   6.178 -2.3308 -1.1810 -1.7107
 7958SOL     OW35509   0.952   0.794   2.126 -0.0642 -0.5826  0.1479
 7958SOL    HW135510   0.955   0.703   2.096  0.4751 -0.5340  0.0420
 7958SOL    HW235511   1.026   0.791   2.186 -1.4423 -4.1565  1.7015
 7959SOL     OW35512   1.514   0.725  12.243 -0.3876 -0.3647  0.1414
 7959SOL    HW135513   1.545   0.813  12.265 -0.8672  0.5654 -2.8533
 7959SOL    HW235514   1.534   0.715  12.150  0.4538 -0.3417  0.3206
 7960SOL     OW35515   4.088   1.917  11.105  0.2826 -0.5079 -0.0548
 7960SOL    HW135516   4.135   1.902  11.022 -0.0524 -0.1759 -0.3026
 7960SOL    HW235517   4.046   2.002  11.091 -2.0280 -1.7009 -0.4147
 7961SOL     OW35518   1.270   1.822  17.039  0.0288  0.0854  0.2817
 7961SOL    HW135519   1.243   1.817  16.947 -0.4557 -0.6041  0.4633
 7961SOL    HW235520   1.245   1.732  17.059  1.1947 -0.3498 -0.1973
 7962SOL     OW35521   1.195   0.435  11.665 -0.0226  0.0629 -0.4354
 7962SOL    HW135522   1.210   0.343  11.642  1.2537  0.0116  0.6161
 7962SOL    HW235523   1.283   0.466  11.641  0.0792 -0.5333 -0.8390
 7963SOL     OW35524   2.897   2.619   9.209  0.1416 -1.0173  0.1681
 7963SOL    HW135525   2.829   2.651   9.269 -0.3830 -1.0611 -0.4111
 7963SOL    HW235526   2.924   2.691   9.152 -1.3881  0.1267  0.9150
 7964SOL     OW35527   0.914   0.698   3.281  0.0373 -0.0389 -0.0174
 7964SOL    HW135528   0.855   0.755   3.330  3.0777  2.1542  1.0789
 7964SOL    HW235529   1.002   0.724   3.309 -0.5653  0.4762  1.3757
 7965SOL     OW35530   1.874   0.797   7.667 -0.7985 -0.1949  0.0155
 7965SOL    HW135531   1.927   0.774   7.744 -0.2503  3.3024  0.6880
 7965SOL    HW235532   1.826   0.714   7.666  0.1612 -0.7726  1.9653
 7966SOL     OW35533   1.013   0.567  11.831 -0.4066  0.1488  0.3973
 7966SOL    HW135534   1.000   0.514  11.909 -1.0397 -1.3957 -0.7553
 7966SOL    HW235535   1.080   0.523  11.780 -1.5296 -1.5628  0.3941
 7967SOL     OW35536   2.281   2.883   9.495 -0.4332 -0.0273  0.0183
 7967SOL    HW135537   2.215   2.948   9.471  0.2206 -0.8665 -4.0146
 7967SOL    HW235538   2.327   2.863   9.413 -0.2580 -1.5290  0.4880
 7968SOL     OW35539   4.487   4.686  16.734  0.0030 -0.0920  0.0807
 7968SOL    HW135540   4.493   4.715  16.825 -1.7088  2.1793 -0.5466
 7968SOL    HW235541   4.559   4.736  16.696 -0.6930 -1.3851 -2.9961
 7969SOL     OW35542   0.927   1.517  17.162 -0.4365  0.2477 -0.6394
 7969SOL    HW135543   0.898   1.466  17.087 -0.9023 -0.7647  0.2269
 7969SOL    HW235544   0.864   1.496  17.231 -1.4404  0.5301 -1.4635
 7970SOL     OW35545   3.621   4.557  16.152  0.0112  0.2090 -0.3949
 7970SOL    HW135546   3.635   4.492  16.083 -0.5204  0.2229 -0.5170
 7970SOL    HW235547   3.646   4.500  16.225  1.7924  1.9343  0.3381
 7971SOL     OW35548   4.633   1.851  17.292 -0.6426  0.8727  0.2915
 7971SOL    HW135549   4.653   1.928  17.345 -0.7454  0.6568  0.6431
 7971SOL    HW235550   4.563   1.806  17.339  0.3863 -0.5456  0.4606
 7972SOL     OW35551   0.086   0.123   9.937 -0.3026 -0.1941 -0.0558
 7972SOL    HW135552   0.161   0.173   9.970 -0.7452 -0.8958  1.9784
 7972SOL    HW235553   0.128   0.096   9.854 -0.6553 -0.9449  0.0095
 7973SOL     OW35554   0.817   4.581  11.086 -0.3743 -0.2070  0.4450
 7973SOL    HW135555   0.842   4.618  11.171 -1.1534 -0.4987  0.8066
 7973SOL    HW235556   0.725   4.559  11.104 -0.4768  0.8217  1.1494
 7974SOL     OW35557   0.867   3.567   9.166 -0.2694  0.0514  0.3319
 7974SOL    HW135558   0.940   3.572   9.227  1.0585 -1.0261 -1.1707
 7974SOL    HW235559   0.896   3.530   9.083  1.5492  1.5551  0.2942
 7975SOL     OW35560   0.594   1.594   5.513  0.1168 -0.0854 -0.0519
 7975SOL    HW135561   0.588   1.606   5.608 -0.3083 -0.3235 -0.0498
 7975SOL    HW235562   0.550   1.671   5.477  0.6331  0.4402  0.4460
 7976SOL     OW35563   4.615   0.878   3.905  0.3396  0.6764  0.4900
 7976SOL    HW135564   4.592   0.827   3.982  0.7506  1.4128  1.0972
 7976SOL    HW235565   4.577   0.832   3.830  2.0056  2.2444 -1.3206
 7977SOL     OW35566   3.817   1.685   4.684  0.5034  0.3626 -0.0155
 7977SOL    HW135567   3.784   1.774   4.670 -0.0155  0.1979  0.1659
 7977SOL    HW235568   3.751   1.639   4.736  0.6513  0.2303  0.0538
 7978SOL     OW35569   3.411   3.249  11.035  0.4699 -0.7255  0.3809
 7978SOL    HW135570   3.489   3.217  10.988  1.0534  0.6514  0.4178
 7978SOL    HW235571   3.450   3.297  11.108  2.0796 -0.6253 -0.5430
 7979SOL     OW35572   0.434   1.260   6.176  0.4633 -0.0300 -0.0461
 7979SOL    HW135573   0.388   1.213   6.246  1.5628 -1.4188 -0.2414
 7979SOL    HW235574   0.357   1.299   6.136 -0.3870  0.4927  2.1208
 7980SOL     OW35575   3.250   3.895  10.724  0.5790  0.1525  0.0753
 7980SOL    HW135576   3.206   3.979  10.738  3.2221  1.4066  0.8628
 7980SOL    HW235577   3.227   3.892  10.631 -1.3721 -2.2563  0.6235
 7981SOL     OW35578   2.686   3.494   0.552  0.0989 -0.1396 -0.3799
 7981SOL    HW135579   2.660   3.471   0.463  1.0546  2.3693 -1.3272
 7981SOL    HW235580   2.625   3.459   0.617 -0.8830  0.3373 -1.0573
 7982SOL     OW35581   1.886   2.265  15.509 -0.3534 -0.2164  0.1501
 7982SOL    HW135582   1.819   2.326  15.478  0.4287  0.7398  0.3189
 7982SOL    HW235583   1.972   2.298  15.483 -0.2247 -1.3445 -0.8174
 7983SOL     OW35584   4.473   1.146   8.261 -0.4267 -0.2429  0.1044
 7983SOL    HW135585   4.556   1.097   8.254  0.1166  1.2646 -4.1190
 7983SOL    HW235586   4.489   1.228   8.215  1.1142 -0.7295 -0.2285
 7984SOL     OW35587   2.436   2.376  16.490 -0.9351 -0.1040 -0.1796
 7984SOL    HW135588   2.423   2.391  16.583  2.8543 -0.6049  0.4574
 7984SOL    HW235589   2.364   2.320  16.462 -0.6024 -1.9782  2.7078
 7985SOL     OW35590   1.739   2.175  14.305 -0.0013 -0.4638 -0.0293
 7985SOL    HW135591   1.726   2.263  14.271  2.1382  0.1380  0.6877
 7985SOL    HW235592   1.708   2.123  14.231 -1.3816  0.3566 -0.0357
 7986SOL     OW35593   4.083   3.784   7.461 -0.5875 -0.1084  0.2043
 7986SOL    HW135594   4.084   3.873   7.427 -0.0280 -1.3112 -2.8593
 7986SOL    HW235595   4.096   3.721   7.390 -1.2731  0.2215 -0.2145
 7987SOL     OW35596   1.788   4.415   9.155 -0.4299  0.1452  0.0239
 7987SOL    HW135597   1.729   4.485   9.129  0.1666  0.3674 -0.7361
 7987SOL    HW235598   1.868   4.431   9.105  0.7582  2.0202  2.5323
 7988SOL     OW35599   3.815   3.411   3.495 -0.1884  0.1253  0.1400
 7988SOL    HW135600   3.864   3.410   3.577 -1.7973 -2.6187  1.0841
 7988SOL    HW235601   3.732   3.387   3.537 -0.2124 -0.8487 -0.4705
 7989SOL     OW35602   0.829   4.444   4.151 -0.0578  0.2115 -0.3995
 7989SOL    HW135603   0.869   4.525   4.183 -1.6007  0.2791  1.3442
 7989SOL    HW235604   0.746   4.444   4.200  0.0892 -1.4274 -0.1633
 7990SOL     OW35605   0.083   2.112  12.134  0.0383 -0.3117  0.1146
 7990SOL    HW135606   0.159   2.129  12.189  1.0550  0.6090 -1.5625
 7990SOL    HW235607   0.053   2.030  12.173 -0.5680 -0.0173  0.2586
 7991SOL     OW35608   1.626   2.246   7.102 -0.4485 -0.3109  0.1385
 7991SOL    HW135609   1.626   2.150   7.107  0.3593 -0.4094 -1.9244
 7991SOL    HW235610   1.636   2.264   7.009  0.9217 -1.9726 -0.0304
 7992SOL     OW35611   2.345   2.068   3.650  0.0523  0.1250 -0.4669
 7992SOL    HW135612   2.364   2.021   3.731  0.0782  0.0404 -0.5222
 7992SOL    HW235613   2.250   2.077   3.658  0.3668  2.5403  0.4319
 7993SOL     OW35614   0.022   1.399  10.199  0.5475 -0.2343 -0.3739
 7993SOL    HW135615   0.078   1.342  10.252 -1.2463 -1.2642  0.4177
 7993SOL    HW235616   0.090   1.459  10.168  0.2195 -0.3648 -1.3340
 7994SOL     OW35617   0.235   3.381   2.263 -0.5858  0.9057  0.1016
 7994SOL    HW135618   0.155   3.434   2.262 -0.6678  0.7940  0.4848
 7994SOL    HW235619   0.227   3.352   2.172  1.3293 -1.7973  0.8022
 7995SOL     OW35620   0.894   0.942   7.600 -0.5045  0.4448 -0.0214
 7995SOL    HW135621   0.862   0.864   7.554 -1.2392 -0.0864  1.3930
 7995SOL    HW235622   0.815   0.994   7.609  0.0694  1.5764 -1.4386
 7996SOL     OW35623   0.965   3.428   3.132  0.3067 -0.2113 -0.2906
 7996SOL    HW135624   0.975   3.496   3.198 -0.1777 -1.3127  0.9083
 7996SOL    HW235625   0.872   3.436   3.111  0.0505 -1.1566  0.5456
 7997SOL     OW35626   0.264   1.805   2.519 -0.0513  0.0908 -0.4913
 7997SOL    HW135627   0.253   1.751   2.441 -2.1651 -1.0231  0.5844
 7997SOL    HW235628   0.356   1.790   2.540  0.0056 -0.5900 -1.2086
 7998SOL     OW35629   4.417   3.376  13.447  0.3530  0.7915 -0.2419
 7998SOL    HW135630   4.355   3.340  13.510  0.8153  0.2779 -0.0872
 7998SOL    HW235631   4.355   3.424  13.391 -1.0570 -0.8682 -0.1222
 7999SOL     OW35632   3.145   0.478   4.729  0.5605  0.0566 -0.2716
 7999SOL    HW135633   3.083   0.467   4.801  1.6099  0.1616  0.6342
 7999SOL    HW235634   3.115   0.406   4.672  0.7658  0.1719 -0.5259
 8000SOL     OW35635   3.846   3.075   6.557  0.1567  0.2417  0.3193
 8000SOL    HW135636   3.858   3.168   6.576  0.7680  0.9789 -3.6946
 8000SOL    HW235637   3.894   3.038   6.631 -1.3400  1.8281  2.0963
 8001SOL     OW35638   3.222   0.396   7.396 -0.4837  0.4239  0.0158
 8001SOL    HW135639   3.304   0.445   7.402 -0.3089  0.1797 -0.4078
 8001SOL    HW235640   3.207   0.369   7.305  0.3787  1.4892 -0.4372
 8002SOL     OW35641   2.854   1.302   7.347  0.1767  0.0838 -0.0096
 8002SOL    HW135642   2.839   1.218   7.390  1.9581 -1.2117 -1.9217
 8002SOL    HW235643   2.868   1.269   7.259 -1.3289  2.4592 -1.1472
 8003SOL     OW35644   3.270   3.041   6.757 -0.5709 -0.1914 -0.6522
 8003SOL    HW135645   3.219   3.042   6.838  1.1533  1.8804  0.4185
 8003SOL    HW235646   3.324   2.963   6.763 -0.5771 -0.3314 -2.2092
 8004SOL     OW35647   1.077   2.390   5.936 -0.0055 -0.4489 -0.2042
 8004SOL    HW135648   0.993   2.420   5.901  1.2137  2.0695 -0.9568
 8004SOL    HW235649   1.081   2.427   6.024 -2.7761 -0.7403  0.0318
 8005SOL     OW35650   4.509   3.335   7.069  0.3222  0.4588 -0.2342
 8005SOL    HW135651   4.535   3.355   6.979  1.2327 -2.0221 -0.5020
 8005SOL    HW235652   4.503   3.421   7.111  0.5559  0.8129 -0.9423
 8006SOL     OW35653   0.820   0.820   4.791 -0.5642 -0.5335  0.2327
 8006SOL    HW135654   0.786   0.904   4.821  0.8416 -0.3496  1.3139
 8006SOL    HW235655   0.775   0.754   4.844 -1.1112 -0.4372 -0.1129
 8007SOL     OW35656   1.034   2.594   5.341 -0.4526  0.3718 -0.4679
 8007SOL    HW135657   1.116   2.562   5.380 -0.4645  0.7964 -0.0957
 8007SOL    HW235658   0.985   2.514   5.362 -0.5788  0.0575 -1.9770
 8008SOL     OW35659   1.065   1.521   5.706  0.7713 -0.1379 -0.1855
 8008SOL    HW135660   0.991   1.489   5.757  0.3421 -0.5184 -1.0515
 8008SOL    HW235661   1.027   1.598   5.664  0.8129  0.7958  1.4867
 8009SOL     OW35662   1.454   0.132   0.322  0.0555  0.3535  0.0310
 8009SOL    HW135663   1.508   0.211   0.313 -1.8564  1.9712  2.6980
 8009SOL    HW235664   1.443   0.113   0.229 -0.3798  0.3288  0.0859
 8010SOL     OW35665   2.139   4.440   9.562  0.0800  0.3532 -0.1883
 8010SOL    HW135666   2.074   4.403   9.503 -0.1454 -0.5387  0.6128
 8010SOL    HW235667   2.159   4.363   9.616  1.3089 -0.2221 -1.4466
 8011SOL     OW35668   2.362   0.219  17.372 -0.1958 -0.2543 -0.3214
 8011SOL    HW135669   2.363   0.305  17.414 -0.1880 -0.1541 -0.5232
 8011SOL    HW235670   2.353   0.158  17.445  1.2953 -0.7091 -0.5059
 8012SOL     OW35671   3.398   1.892   3.093 -0.0870 -0.6389 -0.5073
 8012SOL    HW135672   3.465   1.923   3.032 -0.2221 -1.0943 -0.8903
 8012SOL    HW235673   3.318   1.917   3.046  0.4818  0.8379 -0.6966
 8013SOL     OW35674   2.235   2.429   8.202  0.0724  0.1052 -0.5119
 8013SOL    HW135675   2.287   2.379   8.139  1.6844  1.9746 -0.6746
 8013SOL    HW235676   2.298   2.501   8.213 -2.8039  2.5121  0.3667
 8014SOL     OW35677   2.260   2.298  11.496 -0.4314  0.3691 -0.1532
 8014SOL    HW135678   2.300   2.337  11.574  1.2090  1.5062 -1.5649
 8014SOL    HW235679   2.301   2.212  11.492 -4.7185 -1.6170 -1.6988
 8015SOL     OW35680   4.396   1.674   3.472 -0.8675  0.5089 -0.2141
 8015SOL    HW135681   4.434   1.758   3.444 -0.4482  0.3736 -0.0450
 8015SOL    HW235682   4.343   1.692   3.549  0.5060  0.7501  0.6837
 8016SOL     OW35683   2.250   1.064  11.962 -0.3139  0.4802 -0.2631
 8016SOL    HW135684   2.304   1.113  12.024  0.2399  2.0582 -1.9779
 8016SOL    HW235685   2.237   0.974  11.992 -0.4801  0.4254 -0.4992
 8017SOL     OW35686   2.665   2.512   6.200 -0.8951  0.2029 -0.8816
 8017SOL    HW135687   2.599   2.468   6.147 -0.5506  0.1789 -1.2895
 8017SOL    HW235688   2.702   2.574   6.137 -1.5932  0.9471 -0.5685
 8018SOL     OW35689   1.951   2.071  14.458 -0.6791 -0.3560  0.2829
 8018SOL    HW135690   1.944   2.032  14.372 -0.6718 -0.8556  0.5091
 8018SOL    HW235691   1.863   2.108  14.457 -0.0084  1.2737  0.1866
 8019SOL     OW35692   3.663   1.846  12.107  0.0631 -0.0641  0.2572
 8019SOL    HW135693   3.597   1.895  12.155  2.1976  2.0572  1.0277
 8019SOL    HW235694   3.666   1.910  12.035  0.0803  1.7666  1.8981
 8020SOL     OW35695   4.100   1.298   2.934  0.9140 -0.8951 -0.4690
 8020SOL    HW135696   4.121   1.243   2.858 -1.4979 -2.3249 -0.0989
 8020SOL    HW235697   4.103   1.237   3.007 -1.0197 -0.3352  0.0491
 8021SOL     OW35698   3.297   1.539   3.588  0.2064  0.1611 -0.0318
 8021SOL    HW135699   3.236   1.536   3.662  0.6602 -0.2481  0.3251
 8021SOL    HW235700   3.376   1.507   3.631  0.3312 -0.2190 -0.5524
 8022SOL     OW35701   1.577   1.930   4.025 -0.2618  0.6444  0.0265
 8022SOL    HW135702   1.607   1.915   3.935 -1.1678 -0.2995 -0.1167
 8022SOL    HW235703   1.530   2.013   4.032 -0.9960  0.2343 -0.0777
 8023SOL     OW35704   3.215   2.326  16.706  0.3677  0.0961 -0.2333
 8023SOL    HW135705   3.192   2.281  16.625 -0.4504  3.4887 -1.8458
 8023SOL    HW235706   3.285   2.263  16.725  1.2448  1.5871  1.5480
 8024SOL     OW35707   3.507   3.542  10.925  0.0545 -0.6776 -0.2139
 8024SOL    HW135708   3.466   3.627  10.936  2.5140  0.4671  0.1579
 8024SOL    HW235709   3.530   3.516  11.014  0.5519 -2.1095 -0.7465
 8025SOL     OW35710   0.615   1.258   0.522  0.1359 -0.8520 -0.8083
 8025SOL    HW135711   0.573   1.333   0.565  0.4002  0.0430 -2.1283
 8025SOL    HW235712   0.705   1.289   0.521 -0.5930  1.2553 -1.1319
 8026SOL     OW35713   1.615   4.061  10.000  0.5393 -0.2711 -0.1124
 8026SOL    HW135714   1.645   4.132   9.943  1.8950 -0.8716 -0.1338
 8026SOL    HW235715   1.645   3.989   9.943  2.4683  1.4630 -1.2881
 8027SOL     OW35716   2.547   0.778   9.482  0.3747 -0.2128  0.2366
 8027SOL    HW135717   2.569   0.750   9.393  2.8049 -0.6229  0.9881
 8027SOL    HW235718   2.521   0.695   9.522  0.1493 -0.9106 -1.3655
 8028SOL     OW35719   1.862   2.768  15.592  0.1578 -0.4440 -0.5715
 8028SOL    HW135720   1.866   2.846  15.536  1.9339 -0.0909  0.0535
 8028SOL    HW235721   1.923   2.706  15.551  1.8155 -0.3561  1.7871
 8029SOL     OW35722   1.835   2.834   4.474 -0.0641 -0.0041 -0.2584
 8029SOL    HW135723   1.882   2.907   4.434 -0.7836  0.9369  0.6241
 8029SOL    HW235724   1.791   2.795   4.398 -1.0978 -0.3693  0.5210
 8030SOL     OW35725   4.442   1.186   3.140 -0.2165  0.0917 -0.3744
 8030SOL    HW135726   4.433   1.260   3.080  0.4848  1.6274  1.4017
 8030SOL    HW235727   4.392   1.122   3.089 -0.6386 -0.2725  0.4976
 8031SOL     OW35728   4.250   1.373   6.521 -0.0782 -0.2072  0.2763
 8031SOL    HW135729   4.300   1.302   6.479 -0.4633 -0.6808  0.6145
 8031SOL    HW235730   4.327   1.426   6.539  0.5001 -0.7793 -0.5125
 8032SOL     OW35731   4.188   3.528   7.299 -0.4058  0.0679  0.1189
 8032SOL    HW135732   4.231   3.489   7.223 -0.8162  1.2536 -0.7239
 8032SOL    HW235733   4.097   3.535   7.268  0.0730 -0.3570 -1.4120
 8033SOL     OW35734   3.582   0.178   9.279 -0.0169  0.1990  1.0126
 8033SOL    HW135735   3.622   0.194   9.364  1.1672  0.5242  0.3873
 8033SOL    HW235736   3.539   0.093   9.287  0.6775 -0.2449  0.0430
 8034SOL     OW35737   2.513   0.491   0.096  0.0823  0.0365  0.1913
 8034SOL    HW135738   2.450   0.477   0.167 -1.8194  0.9161 -1.3122
 8034SOL    HW235739   2.580   0.423   0.099  0.9291  0.7859 -1.3883
 8035SOL     OW35740   1.975   2.166  12.320 -0.0739  0.0347 -0.2878
 8035SOL    HW135741   2.042   2.099  12.335 -1.0400 -0.8412  0.1245
 8035SOL    HW235742   1.896   2.137  12.367  0.3594 -3.2715 -1.6207
 8036SOL     OW35743   0.140   2.119   0.246 -0.3558 -0.3321  0.4426
 8036SOL    HW135744   0.062   2.100   0.298 -0.6494 -0.9912 -0.2262
 8036SOL    HW235745   0.114   2.205   0.215  0.5767  0.7968  2.8139
 8037SOL     OW35746   0.268   4.664   8.852  0.5473 -0.0334 -0.1417
 8037SOL    HW135747   0.209   4.702   8.787  0.3577  0.8175  0.5170
 8037SOL    HW235748   0.197   4.634   8.909  0.3684 -2.9850 -1.9428
 8038SOL     OW35749   1.334   0.305   7.679  0.4927 -0.1094 -0.4480
 8038SOL    HW135750   1.332   0.301   7.775 -0.8067  0.5429 -0.4473
 8038SOL    HW235751   1.273   0.377   7.666 -0.5936 -1.0975 -0.8101
 8039SOL     OW35752   4.644   4.546   7.593  0.0838  0.0217 -0.3753
 8039SOL    HW135753   4.639   4.472   7.533 -3.4653  1.2209 -1.5714
 8039SOL    HW235754   4.613   4.622   7.545  0.5687 -0.7559 -1.9065
 8040SOL     OW35755   4.042   3.996   2.333 -0.2881 -0.2637 -0.1109
 8040SOL    HW135756   4.025   4.037   2.248 -1.8384 -0.8290 -0.0694
 8040SOL    HW235757   4.125   4.043   2.344 -0.8820  1.0425 -1.2538
 8041SOL     OW35758   1.561   0.031   2.064  0.0817  0.4237 -0.1489
 8041SOL    HW135759   1.632   0.065   2.119 -0.4050 -0.2593  0.9200
 8041SOL    HW235760   1.552   4.689   2.116  2.4233  1.2632  1.5404
 8042SOL     OW35761   1.864   1.246   8.636 -0.2207  0.1199 -0.2431
 8042SOL    HW135762   1.875   1.341   8.637 -2.4700  0.3808 -0.5300
 8042SOL    HW235763   1.794   1.225   8.698  1.5915 -2.1592  1.0315
 8043SOL     OW35764   2.232   0.489   8.462  0.0482 -0.8902 -0.2261
 8043SOL    HW135765   2.284   0.438   8.524  1.7085  1.1429  0.0596
 8043SOL    HW235766   2.228   0.571   8.511 -0.3930 -2.0226  1.6277
 8044SOL     OW35767   1.738   1.360  13.672  0.2633 -0.0063 -0.3099
 8044SOL    HW135768   1.761   1.351  13.580  1.3349 -0.8566  0.0445
 8044SOL    HW235769   1.795   1.289  13.701  1.7342  1.4436  0.3653
 8045SOL     OW35770   4.337   4.297  16.807 -0.9933 -0.3126 -0.5381
 8045SOL    HW135771   4.348   4.371  16.747 -2.0758  1.4444  1.4523
 8045SOL    HW235772   4.244   4.306  16.831 -0.8592 -0.4801  0.0396
 8046SOL     OW35773   0.341   1.475   1.955 -0.0905 -0.0654  0.1711
 8046SOL    HW135774   0.412   1.501   1.897 -0.4016 -2.0291 -1.0829
 8046SOL    HW235775   0.312   1.393   1.917  0.1060  0.7055 -1.6316
 8047SOL     OW35776   1.567   1.293  16.057 -0.4142  0.7297  0.0662
 8047SOL    HW135777   1.641   1.234  16.073 -1.1218  0.0338  0.7899
 8047SOL    HW235778   1.547   1.270  15.966 -0.7882  0.0111  0.3327
 8048SOL     OW35779   2.413   4.668   5.325  0.6281 -0.1062 -0.1747
 8048SOL    HW135780   2.322   4.679   5.298  0.2660 -1.7849  0.3221
 8048SOL    HW235781   2.453   4.689   5.241 -0.8375 -2.5083 -1.5092
 8049SOL     OW35782   4.228   0.343   8.468  0.2453 -0.3888  0.1372
 8049SOL    HW135783   4.203   0.390   8.388 -0.5234  1.4000  1.4377
 8049SOL    HW235784   4.308   0.387   8.498  1.4397 -1.8128 -0.9378
 8050SOL     OW35785   1.269   3.835   7.827  0.6838  0.2177 -0.5589
 8050SOL    HW135786   1.317   3.892   7.766  1.3882  0.2069 -0.0138
 8050SOL    HW235787   1.308   3.865   7.909  0.3553  0.7667 -0.6034
 8051SOL     OW35788   0.563   1.879   6.400 -0.0324 -0.1570 -0.2951
 8051SOL    HW135789   0.559   1.967   6.439  0.4898 -0.1196 -0.3231
 8051SOL    HW235790   0.523   1.834   6.474 -0.2102 -0.0899 -0.3509
 8052SOL     OW35791   1.568   4.553   5.633  0.0123 -0.3151 -0.2121
 8052SOL    HW135792   1.618   4.531   5.554 -1.0267  2.3297 -1.5977
 8052SOL    HW235793   1.528   4.467   5.650  0.9406 -0.4593  1.2161
 8053SOL     OW35794   1.607   1.970   5.389  0.1717  0.1513  0.1108
 8053SOL    HW135795   1.598   1.881   5.422 -0.4198 -0.5190 -1.8933
 8053SOL    HW235796   1.609   1.949   5.296  0.8146  0.4067  0.0686
 8054SOL     OW35797   3.563   1.282   0.860  0.9298 -0.0604  0.5817
 8054SOL    HW135798   3.511   1.283   0.940 -0.9943 -1.5530 -0.6210
 8054SOL    HW235799   3.506   1.230   0.803  1.6661  0.1798 -0.3624
 8055SOL     OW35800   1.577   3.101   9.586  0.2787 -0.1622  0.4818
 8055SOL    HW135801   1.484   3.126   9.586  1.0430  2.6363 -0.4016
 8055SOL    HW235802   1.574   3.044   9.509 -0.2232 -0.8553  1.0199
 8056SOL     OW35803   4.293   3.150   2.716 -0.2089  0.1326  0.3996
 8056SOL    HW135804   4.214   3.201   2.696 -0.4376  0.8939  3.1859
 8056SOL    HW235805   4.260   3.091   2.785  1.6336 -0.6619  0.5903
 8057SOL     OW35806   3.462   3.577   9.225  0.0485  0.3212 -0.2292
 8057SOL    HW135807   3.516   3.550   9.298 -0.6909 -2.5896 -0.7686
 8057SOL    HW235808   3.519   3.616   9.159 -1.2409 -2.2881 -2.8902
 8058SOL     OW35809   2.560   0.429  14.882 -0.4835 -0.1000 -0.2678
 8058SOL    HW135810   2.533   0.407  14.971 -0.2455 -1.4478 -0.5257
 8058SOL    HW235811   2.655   0.425  14.875 -0.4051 -1.7786  1.7005
 8059SOL     OW35812   0.743   0.324   4.724 -0.7199  0.0895  0.7591
 8059SOL    HW135813   0.703   0.400   4.767 -0.5049  0.0857  0.9646
 8059SOL    HW235814   0.688   0.306   4.647  0.5885  0.5736 -0.2997
 8060SOL     OW35815   2.578   1.503   8.133 -0.0709 -0.2491  0.0109
 8060SOL    HW135816   2.596   1.410   8.149  1.2061  0.2627  1.4804
 8060SOL    HW235817   2.650   1.512   8.071 -0.3865 -0.7487 -0.4271
 8061SOL     OW35818   3.270   1.285   0.443  0.5394 -0.0379 -0.0952
 8061SOL    HW135819   3.238   1.284   0.353 -0.4411 -0.6046  0.2525
 8061SOL    HW235820   3.222   1.359   0.478  0.3881  0.4242 -1.2992
 8062SOL     OW35821   1.047   2.030   2.791 -0.5874 -0.1400 -0.2847
 8062SOL    HW135822   1.090   1.957   2.834  0.0709 -0.8166 -2.0713
 8062SOL    HW235823   1.003   2.079   2.860 -0.3026  2.2919 -1.8425
 8063SOL     OW35824   1.341   3.338   1.419  0.4418  0.1868 -0.7758
 8063SOL    HW135825   1.426   3.294   1.422  0.7923  0.8060 -1.7081
 8063SOL    HW235826   1.363   3.397   1.347 -0.7200 -1.8410 -2.7950
 8064SOL     OW35827   3.967   1.347   7.795 -0.2993  0.3419  0.7152
 8064SOL    HW135828   3.897   1.396   7.752  0.8628 -0.2177 -1.8027
 8064SOL    HW235829   3.931   1.266   7.761 -1.6147  0.7547  1.1383
 8065SOL     OW35830   4.467   4.309   1.479 -0.2600 -0.0459 -0.0167
 8065SOL    HW135831   4.515   4.293   1.399 -0.8889  2.0361 -0.8214
 8065SOL    HW235832   4.462   4.217   1.504 -0.7766  0.0840  0.3642
 8066SOL     OW35833   3.605   3.311  15.758  0.1126 -0.2107  0.5348
 8066SOL    HW135834   3.646   3.323  15.844  1.6414  0.5778 -0.2952
 8066SOL    HW235835   3.522   3.274  15.788 -0.3304 -1.2855 -1.9906
 8067SOL     OW35836   1.237   3.289   8.796  0.3085 -0.0737  0.4515
 8067SOL    HW135837   1.295   3.365   8.787 -1.2207  1.0200 -0.2168
 8067SOL    HW235838   1.304   3.223   8.779  0.1919  0.2660 -1.3859
 8068SOL     OW35839   3.326   1.053   7.026 -0.1458 -0.1006  0.1230
 8068SOL    HW135840   3.406   1.105   7.033 -0.0329  0.0686 -2.4584
 8068SOL    HW235841   3.271   1.111   6.974  2.4554 -0.1881 -2.7292
 8069SOL     OW35842   1.983   0.036   5.344  0.0429 -0.1727  0.1426
 8069SOL    HW135843   2.045   0.026   5.417  0.4337  0.5048 -0.0947
 8069SOL    HW235844   1.972   0.131   5.349 -1.6257 -0.4425  1.4369
 8070SOL     OW35845   4.472   3.965   8.487 -0.4319  0.1511  0.6081
 8070SOL    HW135846   4.510   3.910   8.419 -1.5697  0.1851 -0.0626
 8070SOL    HW235847   4.536   4.036   8.491  0.3804 -0.5454 -0.0138
 8071SOL     OW35848   1.587   1.885   6.168  0.0091 -0.1740 -0.1986
 8071SOL    HW135849   1.558   1.823   6.234  3.0304  0.2939  1.5633
 8071SOL    HW235850   1.664   1.847   6.125  1.3474 -1.1069  3.0522
 8072SOL     OW35851   1.445   2.472   6.797  0.2957 -0.1770 -0.1910
 8072SOL    HW135852   1.351   2.485   6.782  0.0812 -0.1776  1.1000
 8072SOL    HW235853   1.474   2.531   6.867 -2.4038  1.3706 -0.3605
 8073SOL     OW35854   2.178   3.181   4.532  0.0398 -0.1853  0.5996
 8073SOL    HW135855   2.119   3.185   4.456 -0.0419 -0.7535  0.6341
 8073SOL    HW235856   2.157   3.267   4.568  0.3947 -0.9400  2.6325
 8074SOL     OW35857   3.546   4.006   9.089  0.1664  0.2314  0.4163
 8074SOL    HW135858   3.606   3.995   9.162 -1.0198  0.6901  1.4535
 8074SOL    HW235859   3.486   4.045   9.152 -1.7087  0.4292 -1.4963
 8075SOL     OW35860   2.688   1.010  12.863 -0.5357 -0.3107  0.0349
 8075SOL    HW135861   2.627   0.965  12.804  0.6156  0.3929 -1.7019
 8075SOL    HW235862   2.686   0.962  12.945 -1.3847 -1.0430 -0.4070
 8076SOL     OW35863   3.544   0.798   5.732 -0.1150  0.4602  0.3803
 8076SOL    HW135864   3.565   0.890   5.718 -0.3308 -0.0500 -3.2972
 8076SOL    HW235865   3.450   0.817   5.722 -0.1178 -0.0577 -0.5346
 8077SOL     OW35866   4.219   4.437   1.477 -0.1137 -0.5558  1.0179
 8077SOL    HW135867   4.299   4.384   1.469  0.0816  0.1320 -1.7960
 8077SOL    HW235868   4.218   4.457   1.570 -0.0889 -0.3396  0.9743
 8078SOL     OW35869   0.999   3.007   7.864  0.2746  0.0541  0.0776
 8078SOL    HW135870   1.003   3.101   7.879  1.7276  0.1400 -0.8401
 8078SOL    HW235871   1.070   2.989   7.802 -0.1999  0.3665 -0.5519
 8079SOL     OW35872   4.188   3.447   8.453 -0.1042  0.4549  0.2939
 8079SOL    HW135873   4.107   3.498   8.455  0.3051  1.0738  0.7071
 8079SOL    HW235874   4.194   3.420   8.545 -1.7252  0.3115  0.3639
 8080SOL     OW35875   0.658   0.264   1.800 -0.0455  0.6958  0.5650
 8080SOL    HW135876   0.712   0.343   1.798 -0.2990  0.8148 -1.2022
 8080SOL    HW235877   0.609   0.297   1.876 -2.0341 -2.0165  0.4675
 8081SOL     OW35878   3.806   3.565   3.042 -0.2449 -0.1902  0.0742
 8081SOL    HW135879   3.786   3.483   3.088 -2.0586  2.0576  3.3266
 8081SOL    HW235880   3.726   3.614   3.060  2.1548  2.8668  2.6238
 8082SOL     OW35881   0.691   3.756   7.670 -0.7474  0.0863  0.4022
 8082SOL    HW135882   0.623   3.688   7.672  0.3054 -0.9839 -0.6696
 8082SOL    HW235883   0.759   3.718   7.615 -1.6062 -1.3919  0.3473
 8083SOL     OW35884   1.052   0.371   1.790  0.7260 -0.2739 -0.0636
 8083SOL    HW135885   1.035   0.465   1.783 -0.6425 -0.5999 -1.2263
 8083SOL    HW235886   1.118   0.352   1.724  2.0540 -0.7137  1.4129
 8084SOL     OW35887   3.618   3.420   8.419  0.4998 -0.1483 -0.5653
 8084SOL    HW135888   3.641   3.416   8.326  0.8598  0.5531 -0.5130
 8084SOL    HW235889   3.582   3.506   8.442  1.8034  0.1797  0.2182
 8085SOL     OW35890   3.829   2.823   1.085  0.0046  0.0801  0.1280
 8085SOL    HW135891   3.917   2.786   1.098  0.5234  0.4801 -2.2738
 8085SOL    HW235892   3.816   2.877   1.162 -2.6513 -1.7937  0.9845
 8086SOL     OW35893   4.014   0.168   1.543  0.2880 -0.2198  0.0093
 8086SOL    HW135894   4.033   0.074   1.543  1.1073 -0.0545  0.0954
 8086SOL    HW235895   4.091   0.191   1.595  0.2248 -1.2754  0.5772
 8087SOL     OW35896   2.510   3.643   5.169 -0.2064  0.1869  0.8499
 8087SOL    HW135897   2.474   3.674   5.085 -3.3231 -2.4764  1.1990
 8087SOL    HW235898   2.535   3.730   5.202  1.2537 -0.2092  0.8008
 8088SOL     OW35899   3.078   1.513   2.931  0.6913  0.3823 -0.4783
 8088SOL    HW135900   3.161   1.466   2.932  1.3436  1.5569  1.7385
 8088SOL    HW235901   3.013   1.447   2.907  1.1310  0.2375 -1.2386
 8089SOL     OW35902   2.767   3.428   9.907  0.2318 -0.0281  0.2724
 8089SOL    HW135903   2.681   3.430   9.865 -0.7492 -1.5280  2.2056
 8089SOL    HW235904   2.764   3.498   9.971 -0.8189 -0.3299  0.5484
 8090SOL     OW35905   1.767   3.048   4.126  0.9384 -0.7643  0.4276
 8090SOL    HW135906   1.672   3.041   4.134  0.8985 -0.3286  0.3473
 8090SOL    HW235907   1.770   3.144   4.125  0.8805 -0.7509  1.2680
 8091SOL     OW35908   0.895   0.074   1.487  0.3023  0.0034  0.8013
 8091SOL    HW135909   0.891   0.093   1.581 -1.5408 -0.4900  0.8150
 8091SOL    HW235910   0.855   0.157   1.461  1.0691  0.3614  0.7454
 8092SOL     OW35911   2.542   0.100   7.678  0.9869 -0.1831 -0.0282
 8092SOL    HW135912   2.616   0.145   7.719 -1.0434  1.4330  1.8432
 8092SOL    HW235913   2.470   0.147   7.720  0.2649 -3.3049  2.2641
 8093SOL     OW35914   2.502   2.061  16.489  0.0059 -0.2543  0.0618
 8093SOL    HW135915   2.580   2.113  16.470  1.4050 -2.5283 -0.3737
 8093SOL    HW235916   2.494   2.059  16.585  1.8827  1.3142  0.2497
 8094SOL     OW35917   1.716   2.876   1.322 -0.0493 -0.1015 -0.2867
 8094SOL    HW135918   1.720   2.839   1.411  1.3314  2.0875  0.5490
 8094SOL    HW235919   1.782   2.944   1.332 -2.0753  1.5050  2.1506
 8095SOL     OW35920   0.547   0.138   8.597 -0.0556 -0.2125 -0.1808
 8095SOL    HW135921   0.551   0.232   8.578 -0.0036 -0.0109  0.8094
 8095SOL    HW235922   0.524   0.140   8.690  1.4998  0.1325  0.2087
 8096SOL     OW35923   1.645   2.510  13.626 -0.0996  0.3455 -0.5052
 8096SOL    HW135924   1.723   2.554  13.659 -0.9001  1.2726  0.1474
 8096SOL    HW235925   1.603   2.579  13.576 -2.6142 -1.7962 -1.3738
 8097SOL     OW35926   2.264   1.342   2.358  0.9527 -0.3250  0.4548
 8097SOL    HW135927   2.251   1.266   2.300 -0.0293  0.0054  0.2537
 8097SOL    HW235928   2.177   1.382   2.352  1.0567  0.1991  2.4368
 8098SOL     OW35929   0.752   2.729   2.209  0.3114 -0.1406  0.4438
 8098SOL    HW135930   0.801   2.717   2.128 -1.2970 -1.8887 -0.2718
 8098SOL    HW235931   0.674   2.676   2.198  0.8547 -1.0962  1.1805
 8099SOL     OW35932   0.107   3.552  13.823  0.2073  0.1684 -0.1043
 8099SOL    HW135933   0.065   3.638  13.826 -0.6043 -0.3216  2.5038
 8099SOL    HW235934   0.030   3.496  13.817  0.7694 -0.6336  0.2066
 8100SOL     OW35935   1.033   2.498   1.870 -0.1548 -0.4665 -0.0153
 8100SOL    HW135936   1.120   2.462   1.887  0.4750  1.3381  0.6361
 8100SOL    HW235937   1.008   2.445   1.795  0.0652  0.5937 -0.8366
 8101SOL     OW35938   1.218   2.005   0.505 -0.3123  0.4282  0.5563
 8101SOL    HW135939   1.156   2.029   0.436  0.8872 -0.8501 -0.9863
 8101SOL    HW235940   1.167   1.948   0.562  1.0804 -1.1565  0.2361
 8102SOL     OW35941   0.760   1.659  12.905  0.0967 -0.2398 -0.2573
 8102SOL    HW135942   0.754   1.569  12.936  0.6351 -0.0600  0.3847
 8102SOL    HW235943   0.835   1.652  12.847  0.9379  1.5014  0.6173
 8103SOL     OW35944   2.739   3.317   1.749  0.2479  0.6860 -0.0279
 8103SOL    HW135945   2.675   3.291   1.816 -1.3062 -1.6592 -2.4199
 8103SOL    HW235946   2.688   3.325   1.668 -0.8745 -2.6020  0.3645
 8104SOL     OW35947   1.084   2.511  10.005 -0.0640 -0.2052  0.5126
 8104SOL    HW135948   1.058   2.569   9.933 -1.2116  1.2574  2.1097
 8104SOL    HW235949   1.171   2.549  10.020  0.1828 -0.7367  0.4099
 8105SOL     OW35950   2.619   3.372   2.513  0.5470 -0.4146 -0.2551
 8105SOL    HW135951   2.591   3.423   2.437 -0.7020 -1.0815 -0.2442
 8105SOL    HW235952   2.566   3.295   2.496 -0.8037  0.6387 -0.7569
 8106SOL     OW35953   3.010   1.240   0.581 -0.0902  0.1002  0.0461
 8106SOL    HW135954   2.991   1.202   0.495 -1.9930 -0.9977  0.9731
 8106SOL    HW235955   2.966   1.322   0.562  1.4258  1.3695  1.9827
 8107SOL     OW35956   4.083   0.363   8.946  0.4827  0.2425 -0.3784
 8107SOL    HW135957   4.044   0.448   8.969  1.1934  1.0492 -2.1833
 8107SOL    HW235958   4.176   0.382   8.948  0.7753 -1.1607 -1.0678
 8108SOL     OW35959   3.622   2.103   2.780  0.1132  0.1955  0.0742
 8108SOL    HW135960   3.610   2.143   2.866 -1.2520 -0.4047  0.1506
 8108SOL    HW235961   3.578   2.019   2.789 -1.0033  0.7545 -0.2296
 8109SOL     OW35962   0.019   2.004   9.152 -0.6861 -0.0969  0.1825
 8109SOL    HW135963   4.716   1.940   9.209 -2.8036  1.3459  0.2756
 8109SOL    HW235964   0.068   1.946   9.093 -0.7589  0.0447 -0.0194
 8110SOL     OW35965   4.681   1.385   2.175  0.2632 -0.2279  0.3648
 8110SOL    HW135966   0.001   1.425   2.111  0.5019  0.2038  0.8495
 8110SOL    HW235967   4.630   1.323   2.123  0.6265  0.0726 -0.3475
 8111SOL     OW35968   2.770   1.156   4.838 -0.2578  0.1274  0.1649
 8111SOL    HW135969   2.721   1.074   4.847 -1.9954  0.8627 -2.3526
 8111SOL    HW235970   2.700   1.214   4.868 -1.1516 -0.8000 -0.1283
 8112SOL     OW35971   1.962   0.516   0.813  0.2942 -0.0973 -0.0456
 8112SOL    HW135972   1.914   0.441   0.850  1.5524 -0.0405  1.7221
 8112SOL    HW235973   2.044   0.497   0.860 -0.1069 -0.0192  0.6761
 8113SOL     OW35974   0.250   1.253   2.892  0.7125 -0.7853  0.5078
 8113SOL    HW135975   0.193   1.176   2.894  0.7433 -0.8133  0.3328
 8113SOL    HW235976   0.312   1.235   2.821 -0.6277  1.4028 -1.2069
 8114SOL     OW35977   0.518   0.757  13.194  0.6154  0.1013 -0.2791
 8114SOL    HW135978   0.540   0.670  13.230  1.2038  0.3748  0.0287
 8114SOL    HW235979   0.579   0.810  13.245  0.0407  0.8851 -0.4061
 8115SOL     OW35980   4.173   4.558   0.069 -0.0502  0.2616  0.0478
 8115SOL    HW135981   4.169   4.591   0.159 -0.7903  4.1867 -1.4258
 8115SOL    HW235982   4.082   4.576   0.047 -0.6132 -0.4168  1.8670
 8116SOL     OW35983   2.491   0.573   7.496 -0.3592 -0.2573 -0.3573
 8116SOL    HW135984   2.501   0.668   7.487  1.5347 -0.5579 -1.5962
 8116SOL    HW235985   2.578   0.538   7.474  0.1421 -0.3186  1.6850
 8117SOL     OW35986   4.510   1.477   1.287 -0.2616  0.2479 -0.0948
 8117SOL    HW135987   4.522   1.416   1.214  1.7585 -1.4588  1.6531
 8117SOL    HW235988   4.415   1.487   1.286 -0.1054  1.7603  1.1434
 8118SOL     OW35989   2.111   1.092   8.142 -0.3495 -0.2307 -0.0313
 8118SOL    HW135990   2.168   1.118   8.069  1.3264  0.0186  1.3593
 8118SOL    HW235991   2.142   1.010   8.181 -2.0642 -0.2921  1.2064
 8119SOL     OW35992   4.030   0.106   7.445 -0.2705 -0.0757 -0.7811
 8119SOL    HW135993   4.095   0.054   7.493 -0.0105 -1.2903 -2.4511
 8119SOL    HW235994   4.079   0.102   7.363 -1.6248 -0.5957 -1.5728
 8120SOL     OW35995   3.457   3.925   3.638  0.0544  0.4904 -0.2491
 8120SOL    HW135996   3.495   4.011   3.655 -1.8359  1.0786  1.0702
 8120SOL    HW235997   3.475   3.914   3.545 -0.1569  0.1001 -0.2419
 8121SOL     OW35998   3.311   2.554   5.878 -0.0527 -0.3983 -0.1835
 8121SOL    HW135999   3.267   2.470   5.889 -0.7324  0.1159  0.9526
 8121SOL    HW236000   3.248   2.601   5.823  1.2959 -0.4654 -1.7689
 8122SOL     OW36001   2.205   3.694   4.864  0.1890  0.6630 -0.0902
 8122SOL    HW136002   2.148   3.738   4.801  0.1674  1.4486  0.4697
 8122SOL    HW236003   2.161   3.732   4.941  1.1796  2.4338 -0.3985
 8123SOL     OW36004   0.431   2.244  15.221 -0.3548 -0.0670  0.3414
 8123SOL    HW136005   0.444   2.150  15.213 -1.9484 -0.2895  0.4254
 8123SOL    HW236006   0.514   2.265  15.265  0.7400 -2.8617 -0.4331
 8124SOL     OW36007   0.346   1.058  12.991 -0.4139  0.0099  0.0624
 8124SOL    HW136008   0.438   1.084  12.999  0.2485 -2.2249 -0.4055
 8124SOL    HW236009   0.298   1.136  12.960  1.0273  0.6372 -0.5921
 8125SOL     OW36010   3.484   2.110  12.196  0.4189  0.2726 -0.2982
 8125SOL    HW136011   3.542   2.182  12.170 -1.4763  1.8795 -0.1072
 8125SOL    HW236012   3.399   2.155  12.193 -0.1507 -0.7017  1.5319
 8126SOL     OW36013   2.861   0.037   1.461 -0.2042 -0.1121  0.4606
 8126SOL    HW136014   2.939   0.035   1.517  0.7219  3.3222 -0.6660
 8126SOL    HW236015   2.874   4.708   1.394 -1.5712 -1.7621  1.8788
 8127SOL     OW36016   1.822   4.573  16.037 -0.3173 -0.0006  0.6240
 8127SOL    HW136017   1.792   4.663  16.021  1.3189  0.3527 -0.3990
 8127SOL    HW236018   1.813   4.567  16.132 -1.9145  1.2762  0.5546
 8128SOL     OW36019   0.075   3.153   4.241 -0.3388  0.4701  0.5298
 8128SOL    HW136020   0.005   3.208   4.208 -0.1950  2.0011  2.7279
 8128SOL    HW236021   0.093   3.109   4.158  1.5601  0.5206  0.9119
 8129SOL     OW36022   0.530   1.511   0.606 -0.7224  0.5241  0.3390
 8129SOL    HW136023   0.480   1.557   0.673 -0.3314  0.1330  0.9004
 8129SOL    HW236024   0.587   1.581   0.575 -1.3934  0.9331  0.0441
 8130SOL     OW36025   2.180   1.242   5.352  0.8998  0.1975  0.0402
 8130SOL    HW136026   2.200   1.188   5.429 -1.1068  0.3108  0.6349
 8130SOL    HW236027   2.115   1.307   5.379 -0.4296 -0.0607 -2.5678
 8131SOL     OW36028   3.440   0.591   1.567  0.7383 -0.3666  0.6863
 8131SOL    HW136029   3.465   0.610   1.657  1.9864 -0.1054  0.2870
 8131SOL    HW236030   3.520   0.621   1.523 -0.8988  1.8875 -0.7333
 8132SOL     OW36031   3.894   2.617  13.429  0.0748  0.1001 -0.8689
 8132SOL    HW136032   3.805   2.602  13.396 -1.4429  4.6515  1.2756
 8132SOL    HW236033   3.926   2.678  13.362  1.4599 -0.8028 -1.0341
 8133SOL     OW36034   4.553   4.508  15.996  0.0187 -0.4508  0.3896
 8133SOL    HW136035   4.647   4.487  15.994  0.4363  1.2579  1.8797
 8133SOL    HW236036   4.534   4.488  16.087 -0.7001 -0.8652  0.1451
 8134SOL     OW36037   0.540   3.229  17.738 -0.0058  0.0646 -0.1330
 8134SOL    HW136038   0.533   3.184   0.070 -1.4550 -0.3965 -0.4976
 8134SOL    HW236039   0.592   3.175  17.677 -0.9930  0.9603 -1.7800
 8135SOL     OW36040   2.270   3.443   6.244  0.0159 -0.4707 -0.8339
 8135SOL    HW136041   2.300   3.507   6.180  0.3821 -1.7184 -1.9090
 8135SOL    HW236042   2.272   3.358   6.198  1.5168 -0.3621 -0.9702
 8136SOL     OW36043   0.942   2.875   3.537 -0.5980  0.0421  0.4859
 8136SOL    HW136044   1.033   2.876   3.506 -0.5265  0.1772  0.6987
 8136SOL    HW236045   0.943   2.961   3.580  1.3196  1.0206 -1.4778
 8137SOL     OW36046   3.056   3.961   2.235 -0.0875 -0.5787  0.3901
 8137SOL    HW136047   2.963   3.943   2.220 -0.3311  0.6991  0.3197
 8137SOL    HW236048   3.089   3.928   2.151 -0.5988  2.3620 -0.9831
 8138SOL     OW36049   3.656   1.709   7.436 -0.5335  0.2463 -0.0419
 8138SOL    HW136050   3.600   1.786   7.422 -1.5899 -0.8084 -1.6823
 8138SOL    HW236051   3.739   1.753   7.452 -1.2901  0.9559  1.8463
 8139SOL     OW36052   3.454   4.709   4.981 -0.4522 -0.1016 -0.3604
 8139SOL    HW136053   3.485   0.060   4.965  0.1349 -0.2473 -0.0551
 8139SOL    HW236054   3.385   4.704   4.916 -2.9369  0.1734  2.2831
 8140SOL     OW36055   3.911   0.984  12.230 -0.1175 -0.4710  0.3895
 8140SOL    HW136056   3.835   0.939  12.193 -0.8223  1.2374 -0.2107
 8140SOL    HW236057   3.906   1.068  12.185  0.2299 -0.4954  0.3032
 8141SOL     OW36058   4.553   2.350   0.046  0.6818 -0.2747 -0.1895
 8141SOL    HW136059   4.479   2.366  17.738  0.9734 -0.1907 -0.5264
 8141SOL    HW236060   4.552   2.254   0.039 -1.3694 -0.1402 -2.0264
 8142SOL     OW36061   0.169   1.542   1.239 -0.7943  0.2461 -0.2765
 8142SOL    HW136062   0.215   1.522   1.320  0.4074 -2.4616 -1.6327
 8142SOL    HW236063   0.129   1.628   1.254  0.2573  0.8443 -0.8594
 8143SOL     OW36064   1.073   0.068  11.968 -0.1027  0.2282 -0.1014
 8143SOL    HW136065   1.074   0.107  12.056  0.9119 -1.5043  0.6748
 8143SOL    HW236066   1.126   0.134  11.923  2.5558 -0.3828  2.0884
 8144SOL     OW36067   2.736   3.690   6.144  0.0126  0.5439  0.0142
 8144SOL    HW136068   2.654   3.662   6.104 -0.4420  0.7683  0.7885
 8144SOL    HW236069   2.750   3.767   6.089  0.2366  0.9725  0.6707
 8145SOL     OW36070   2.334   2.536   1.679  0.0434  0.0060 -0.1320
 8145SOL    HW136071   2.290   2.461   1.639  0.5397 -0.6854  0.6411
 8145SOL    HW236072   2.415   2.492   1.704  0.3509 -0.6828 -2.3100
 8146SOL     OW36073   3.209   4.006   9.829  0.5615 -0.3344  0.0158
 8146SOL    HW136074   3.221   4.101   9.833  0.2093 -0.1934 -2.2096
 8146SOL    HW236075   3.293   3.978   9.864  0.3086 -1.5456 -0.3360
 8147SOL     OW36076   4.683   2.581   5.293  0.1884 -0.5187 -0.0689
 8147SOL    HW136077   4.655   2.660   5.246  1.0741 -0.2629 -0.1640
 8147SOL    HW236078   4.735   2.535   5.227  2.0342 -0.7426  1.5490
 8148SOL     OW36079   4.125   4.068   8.174 -0.6449  0.2452  0.3107
 8148SOL    HW136080   4.189   4.126   8.215  2.1926 -2.1596 -0.7406
 8148SOL    HW236081   4.189   4.005   8.140 -0.2130  0.1600  1.2873
 8149SOL     OW36082   0.819   2.794   7.397 -0.2966 -0.8703 -0.2101
 8149SOL    HW136083   0.814   2.823   7.488  0.8469 -1.1495 -0.0474
 8149SOL    HW236084   0.855   2.875   7.360 -1.0097 -1.1532 -1.5326
 8150SOL     OW36085   1.080   4.280  15.150 -0.1365 -0.1836  0.2275
 8150SOL    HW136086   0.997   4.295  15.194 -0.8248 -0.4789 -0.9733
 8150SOL    HW236087   1.101   4.362  15.104 -0.7771  0.2240  0.6735
 8151SOL     OW36088   3.037   0.411   1.304  0.5379 -0.0415 -0.0823
 8151SOL    HW136089   3.057   0.490   1.252  1.1215  0.7308  1.3130
 8151SOL    HW236090   3.101   0.413   1.375  1.5510  0.9424 -1.0118
 8152SOL     OW36091   2.087   3.781   5.109  0.2593 -0.1764  0.3676
 8152SOL    HW136092   2.058   3.731   5.185  2.0933 -0.5887  0.7886
 8152SOL    HW236093   2.017   3.839   5.077  0.3673  0.3079  1.0174
 8153SOL     OW36094   4.710   0.956   4.799  0.3106 -0.1520 -0.0017
 8153SOL    HW136095   0.033   1.021   4.833  0.4558  0.5111 -1.5586
 8153SOL    HW236096   0.033   0.932   4.731  0.6068 -0.4646  0.3762
 8154SOL     OW36097   1.548   1.688   7.711  0.7299  0.1269  0.0289
 8154SOL    HW136098   1.630   1.734   7.692  0.6254  0.3607  0.1489
 8154SOL    HW236099   1.492   1.760   7.681  1.6434  0.2561 -1.4025
 8155SOL     OW36100   3.831   2.978   6.301 -0.3676 -0.0239  0.0954
 8155SOL    HW136101   3.870   2.893   6.321  0.9894  0.0195 -2.3197
 8155SOL    HW236102   3.852   3.029   6.379 -1.4137 -0.0600  0.3992
 8156SOL     OW36103   2.616   1.324   4.462 -0.0889 -0.1810 -0.6137
 8156SOL    HW136104   2.664   1.275   4.395  0.3584 -0.0371 -0.4014
 8156SOL    HW236105   2.629   1.415   4.434  1.9340 -0.0448  0.7335
 8157SOL     OW36106   4.565   1.827   3.782 -0.3700  0.1074  0.0632
 8157SOL    HW136107   4.502   1.757   3.798 -0.7609  0.5571  0.4688
 8157SOL    HW236108   4.558   1.870   3.867 -1.3789 -2.2686  1.1988
 8158SOL     OW36109   1.082   3.085  11.842 -0.1082 -0.9672 -0.0353
 8158SOL    HW136110   1.051   2.996  11.855 -1.3500 -0.2838  1.6712
 8158SOL    HW236111   1.104   3.076  11.750 -0.6383 -1.1311 -0.1437
 8159SOL     OW36112   3.225   3.569  14.327 -0.5508 -0.1382  0.2717
 8159SOL    HW136113   3.265   3.614  14.401  2.8324 -3.0359  0.1531
 8159SOL    HW236114   3.277   3.489  14.323 -1.6560 -0.8810  0.5585
 8160SOL     OW36115   3.686   4.207   2.495  0.0063  0.0054 -0.2544
 8160SOL    HW136116   3.696   4.151   2.572 -1.1735 -0.1486 -0.2098
 8160SOL    HW236117   3.592   4.226   2.493 -0.8370 -4.0054  0.3232
 8161SOL     OW36118   1.634   1.467  12.493 -0.0042  0.6004 -0.0838
 8161SOL    HW136119   1.624   1.433  12.582 -0.6145  0.4778 -0.1970
 8161SOL    HW236120   1.655   1.385  12.450  0.9038 -1.1523  3.7306
 8162SOL     OW36121   3.067   1.384   8.843 -0.2315  0.3332 -0.1679
 8162SOL    HW136122   2.978   1.403   8.874 -0.1346 -0.2923  0.5037
 8162SOL    HW236123   3.097   1.474   8.829 -0.1803  0.3950  0.3235
 8163SOL     OW36124   4.094   0.570  14.971  0.0189 -0.1039 -0.4650
 8163SOL    HW136125   4.132   0.489  14.936 -2.2389 -0.8497 -1.2321
 8163SOL    HW236126   4.062   0.550  15.059  0.9920 -0.3073 -0.1609
 8164SOL     OW36127   0.075   0.427  13.602 -0.2287  0.1243 -0.4650
 8164SOL    HW136128   0.075   0.499  13.539 -1.1624  0.6221  0.1014
 8164SOL    HW236129   0.048   0.356  13.545  0.2154 -1.2142  0.9760
 8165SOL     OW36130   2.910   4.496   6.880  0.0854  0.7040  0.3458
 8165SOL    HW136131   2.845   4.445   6.832  0.3179  1.5723 -0.8905
 8165SOL    HW236132   2.897   4.584   6.846 -0.7760  0.4203 -0.0628
 8166SOL     OW36133   3.790   1.054   5.217  0.4117 -0.1596 -0.1599
 8166SOL    HW136134   3.701   1.077   5.189 -0.3194 -0.9072  1.4941
 8166SOL    HW236135   3.774   1.060   5.311  2.1095 -0.2531  0.1392
 8167SOL     OW36136   2.105   2.792   8.163  0.2447 -0.0466  0.1744
 8167SOL    HW136137   2.089   2.712   8.114 -3.8068  1.1500 -0.4412
 8167SOL    HW236138   2.151   2.848   8.100 -2.2776 -1.1382 -2.5878
 8168SOL     OW36139   2.796   2.185   3.378  0.0283 -0.2321  0.5254
 8168SOL    HW136140   2.750   2.266   3.398 -0.2677 -0.2594 -0.0764
 8168SOL    HW236141   2.882   2.225   3.369 -0.4591 -0.1281 -3.3985
 8169SOL     OW36142   2.542   1.047   5.701  0.5292  0.0125  0.5299
 8169SOL    HW136143   2.580   1.135   5.698  1.7565 -0.4964  1.2277
 8169SOL    HW236144   2.593   1.002   5.633  0.1303 -1.3331  1.1139
 8170SOL     OW36145   1.743   3.903   8.026  0.1829 -0.4995  0.5872
 8170SOL    HW136146   1.787   3.910   8.111  1.8747  1.5678 -0.4755
 8170SOL    HW236147   1.761   3.984   7.979 -0.0058  0.4507  2.1680
 8171SOL     OW36148   3.306   2.141   0.220 -0.6732  0.6275  0.4365
 8171SOL    HW136149   3.297   2.052   0.188 -0.4587  0.8103 -0.1470
 8171SOL    HW236150   3.214   2.161   0.234 -1.1003 -1.9166  1.2275
 8172SOL     OW36151   2.733   0.046   7.113 -0.1263 -0.0796 -0.0229
 8172SOL    HW136152   2.665   4.734   7.069 -0.3319 -0.6890  0.9961
 8172SOL    HW236153   2.779   4.712   7.155  0.1348 -0.7702 -1.4955
 8173SOL     OW36154   1.810   0.198   3.210  0.0793 -0.0660  0.4634
 8173SOL    HW136155   1.893   0.173   3.251 -0.8633 -1.4286  1.5648
 8173SOL    HW236156   1.734   0.169   3.260 -2.2586  0.7352 -2.6324
 8174SOL     OW36157   1.576   0.306  15.913  0.4774 -0.6134  0.0091
 8174SOL    HW136158   1.498   0.258  15.883  2.7720 -2.9964 -2.1303
 8174SOL    HW236159   1.628   0.307  15.833  1.3263  2.1090  0.6037
 8175SOL     OW36160   2.513   1.817   9.347  0.0154  0.2471  0.2824
 8175SOL    HW136161   2.442   1.770   9.305  2.2607 -1.1356 -1.9860
 8175SOL    HW236162   2.579   1.807   9.278  0.7355  1.3838  0.8010
 8176SOL     OW36163   1.642   2.981  15.433  0.0182 -0.1154 -0.0778
 8176SOL    HW136164   1.563   3.009  15.388 -0.4625 -1.2778  0.0503
 8176SOL    HW236165   1.661   3.055  15.490  2.2424  0.2901 -1.3206
 8177SOL     OW36166   4.443   2.937   4.052  0.4256  0.6642 -0.7442
 8177SOL    HW136167   4.371   2.902   3.999 -0.9358  0.6955  1.1083
 8177SOL    HW236168   4.513   2.930   3.986  1.6879 -3.2607  0.9788
 8178SOL     OW36169   0.174   2.096  10.112 -0.0509 -0.0106 -0.1836
 8178SOL    HW136170   0.258   2.070  10.150 -0.1964  1.0033  0.8388
 8178SOL    HW236171   0.201   2.157  10.043 -1.1173  0.3401 -0.2883
 8179SOL     OW36172   2.433   0.606   2.279 -0.3970 -0.0873  0.2991
 8179SOL    HW136173   2.346   0.571   2.294 -0.8695  0.6307 -0.7804
 8179SOL    HW236174   2.467   0.607   2.369  0.3565  1.1289  0.0051
 8180SOL     OW36175   1.868   4.093  13.242  0.2600 -0.1427  0.1435
 8180SOL    HW136176   1.962   4.088  13.227 -0.0111  1.1564 -1.9985
 8180SOL    HW236177   1.863   4.007  13.283 -0.4984 -0.2242 -0.1161
 8181SOL     OW36178   2.474   1.395   9.243 -0.1111  0.1495 -0.0263
 8181SOL    HW136179   2.483   1.301   9.229  0.5749  0.4375 -1.4703
 8181SOL    HW236180   2.522   1.442   9.175  0.0408 -1.7970 -1.2644
 8182SOL     OW36181   3.382   4.695   4.090  0.3864 -0.2821 -0.0182
 8182SOL    HW136182   3.395   0.043   4.130  2.2730 -0.5381 -0.0953
 8182SOL    HW236183   3.340   4.716   4.007 -1.2068 -0.2266  0.7868
 8183SOL     OW36184   2.944   0.420   6.220 -0.0185 -0.5195 -0.1188
 8183SOL    HW136185   2.976   0.506   6.193 -1.0398 -0.0338  0.2281
 8183SOL    HW236186   2.898   0.394   6.140  0.2860 -1.8006  0.1100
 8184SOL     OW36187   3.644   0.353  15.746  0.0315  0.2227  0.1090
 8184SOL    HW136188   3.697   0.278  15.719 -0.1376 -0.3704  1.3993
 8184SOL    HW236189   3.705   0.425  15.728 -0.4293  0.3833 -0.7812
 8185SOL     OW36190   0.478   0.981   4.419  1.1003 -0.3720  0.6462
 8185SOL    HW136191   0.532   0.920   4.369 -0.8067 -0.4920 -1.2990
 8185SOL    HW236192   0.536   1.027   4.479  0.3676  2.1071 -0.5397
 8186SOL     OW36193   1.461   4.557  17.418 -0.0394  0.1069 -0.2529
 8186SOL    HW136194   1.389   4.590  17.471  0.4392 -0.7712  0.9494
 8186SOL    HW236195   1.534   4.575  17.477 -1.2353  1.1346  0.9243
 8187SOL     OW36196   3.562   2.762   7.368  0.0376 -0.8467 -0.5434
 8187SOL    HW136197   3.652   2.761   7.336 -0.6049 -1.4854 -2.3211
 8187SOL    HW236198   3.524   2.678   7.340 -1.0093  0.3929 -2.8437
 8188SOL     OW36199   2.773   1.237   2.069  0.1242 -0.2893  0.0727
 8188SOL    HW136200   2.693   1.192   2.097  0.9847 -2.9185 -1.7981
 8188SOL    HW236201   2.830   1.162   2.055  1.9718  1.2327 -0.4492
 8189SOL     OW36202   4.602   2.925   3.821 -0.5966 -0.6592  0.3117
 8189SOL    HW136203   4.617   2.835   3.792 -3.3799 -1.5552  1.5862
 8189SOL    HW236204   4.600   2.970   3.737 -1.0083 -1.0571  0.1063
 8190SOL     OW36205   0.210   2.166   7.714 -0.6346 -0.0332  0.2911
 8190SOL    HW136206   0.250   2.186   7.799  1.2572 -0.5906 -0.4788
 8190SOL    HW236207   0.174   2.254   7.700  1.3210  0.5940 -0.6945
 8191SOL     OW36208   0.209   2.890  16.756  0.3995  0.4261  0.2819
 8191SOL    HW136209   0.232   2.887  16.663  0.8998  1.3633  0.3745
 8191SOL    HW236210   0.281   2.839  16.792  2.0382  0.1964 -3.3649
 8192SOL     OW36211   4.248   0.644   8.627 -0.4508 -0.2550  0.5156
 8192SOL    HW136212   4.275   0.685   8.544  0.2190  1.5741  1.6416
 8192SOL    HW236213   4.297   0.703   8.684  1.0063 -1.3749  0.4069
 8193SOL     OW36214   3.598   3.408   4.896 -0.4637 -0.6526  0.5525
 8193SOL    HW136215   3.589   3.412   4.800  1.0084  2.3196  0.5703
 8193SOL    HW236216   3.540   3.332   4.909  2.0803 -2.4861  1.2629
 8194SOL     OW36217   0.008   4.664   9.414  0.0029 -0.7394 -0.1823
 8194SOL    HW136218   4.658   4.659   9.452 -0.6739  0.2512 -1.6237
 8194SOL    HW236219   4.716   4.714   9.339  0.3670 -2.1407 -1.2543
 8195SOL     OW36220   2.898   4.574  14.063 -0.2023  0.0573  0.2533
 8195SOL    HW136221   2.928   4.552  14.151 -1.6396 -2.8677  0.0272
 8195SOL    HW236222   2.967   4.634  14.036 -1.2297  1.3759  0.6026
 8196SOL     OW36223   2.608   4.458   1.350 -0.0906 -0.9966  0.4738
 8196SOL    HW136224   2.634   4.464   1.442  0.8197  0.7261  0.1073
 8196SOL    HW236225   2.638   4.546   1.325 -1.2723 -0.6957  0.1292
 8197SOL     OW36226   2.405   3.761   4.579  0.1893 -0.7075 -0.0710
 8197SOL    HW136227   2.347   3.831   4.550 -0.2366 -0.8487  0.4502
 8197SOL    HW236228   2.340   3.690   4.580 -2.0468  1.3781  3.4016
 8198SOL     OW36229   0.146   1.850  17.158  0.1339 -0.3385  0.0509
 8198SOL    HW136230   0.052   1.846  17.177  0.6890 -0.7539  2.6767
 8198SOL    HW236231   0.157   1.779  17.095  2.1715  1.2652 -1.3958
 8199SOL     OW36232   0.638   0.541   7.637  0.1597 -0.4899  0.2645
 8199SOL    HW136233   0.639   0.534   7.541  2.1115  1.4635  0.1247
 8199SOL    HW236234   0.545   0.549   7.656  0.4097 -0.9692  1.7092
 8200SOL     OW36235   2.079   2.482   9.332  0.0576  0.0488 -0.6448
 8200SOL    HW136236   2.164   2.511   9.298  0.2126 -1.6944 -1.6981
 8200SOL    HW236237   2.084   2.513   9.423 -0.4090 -0.1801 -0.5406
 8201SOL     OW36238   0.948   3.691  13.482 -0.5566  0.1567 -0.4145
 8201SOL    HW136239   0.930   3.649  13.566  0.7231 -2.0968 -1.2583
 8201SOL    HW236240   0.945   3.615  13.423 -1.1086 -1.2137  1.3903
 8202SOL     OW36241   1.758   3.840   6.090 -0.1289 -0.7058  0.5130
 8202SOL    HW136242   1.843   3.803   6.067 -0.3058 -0.7756 -0.0284
 8202SOL    HW236243   1.707   3.825   6.010  1.9804 -3.6524 -0.2727
 8203SOL     OW36244   2.666   1.515  12.658  0.1968  0.3080  0.2288
 8203SOL    HW136245   2.742   1.548  12.705  0.1931 -2.0063  1.8899
 8203SOL    HW236246   2.668   1.425  12.691  1.0331 -0.6824 -2.5222
 8204SOL     OW36247   3.974   3.751   8.329  0.3161 -0.1328  0.6623
 8204SOL    HW136248   3.969   3.847   8.331  0.4577 -0.0820 -0.7365
 8204SOL    HW236249   3.976   3.725   8.421  1.6252  3.3195  1.6165
 8205SOL     OW36250   3.801   1.169   7.678 -0.3279  0.2173 -0.4928
 8205SOL    HW136251   3.802   1.073   7.670  0.9967  0.0241  1.8419
 8205SOL    HW236252   3.710   1.180   7.704 -0.5708 -0.5145 -1.0275
 8206SOL     OW36253   2.678   4.201   1.639  0.2641 -0.1731  0.2690
 8206SOL    HW136254   2.660   4.136   1.707  0.1859 -0.4630 -0.0305
 8206SOL    HW236255   2.628   4.175   1.562 -0.1811 -1.1882  0.9082
 8207SOL     OW36256   3.795   4.627   1.505  0.0654 -0.3618 -0.2423
 8207SOL    HW136257   3.750   4.707   1.531 -0.6543 -1.1505  0.9307
 8207SOL    HW236258   3.734   4.560   1.533 -0.7944 -0.2100 -1.7371
 8208SOL     OW36259   3.092   2.639  12.777  0.3173 -0.4298  0.8900
 8208SOL    HW136260   3.178   2.612  12.810  1.6593  0.5962 -1.7989
 8208SOL    HW236261   3.103   2.614  12.685  1.2315  2.4819  0.2158
 8209SOL     OW36262   2.435   2.625   5.472 -0.0402  0.0814  0.7935
 8209SOL    HW136263   2.346   2.617   5.438 -0.2243 -2.6021  1.9252
 8209SOL    HW236264   2.422   2.642   5.565  0.3961 -1.5953  1.1659
 8210SOL     OW36265   1.326   4.606   3.605 -0.5811  0.4086 -0.1496
 8210SOL    HW136266   1.351   4.630   3.694  0.4675 -2.4762  0.3463
 8210SOL    HW236267   1.248   4.553   3.623  0.8579 -2.2589 -1.8193
 8211SOL     OW36268   2.499   4.021   8.884  0.3223 -0.2944 -0.0366
 8211SOL    HW136269   2.544   4.085   8.939 -2.6217  0.8038  1.1112
 8211SOL    HW236270   2.466   3.966   8.956 -2.0328 -0.7499 -1.4752
 8212SOL     OW36271   4.506   4.076   0.741  0.6361  0.1322 -0.0935
 8212SOL    HW136272   4.437   4.028   0.786 -0.3164 -1.3538 -3.1486
 8212SOL    HW236273   4.457   4.083   0.659  0.7903 -0.1161 -0.2043
 8213SOL     OW36274   4.636   2.259   3.757  0.0915 -0.1330 -0.4005
 8213SOL    HW136275   4.615   2.269   3.849  2.6352 -1.1515  0.2957
 8213SOL    HW236276   4.730   2.239   3.755  0.0889 -0.2233  0.5238
 8214SOL     OW36277   2.853   0.581   9.080 -0.4798 -0.0082 -0.0566
 8214SOL    HW136278   2.839   0.523   9.155 -0.0843 -1.7266 -1.3218
 8214SOL    HW236279   2.781   0.641   9.100  0.0553  0.3323  0.8706
 8215SOL     OW36280   4.352   1.314   5.211  0.8031 -0.0615  0.0412
 8215SOL    HW136281   4.314   1.399   5.234  0.0336 -0.7360  1.2681
 8215SOL    HW236282   4.356   1.278   5.299 -3.6685  1.3779  0.8360
 8216SOL     OW36283   2.716   0.645   7.720  0.2413 -0.0652 -0.1552
 8216SOL    HW136284   2.733   0.730   7.679 -2.7584  0.7636  0.2865
 8216SOL    HW236285   2.802   0.606   7.708  0.6039  0.9688 -0.8746
 8217SOL     OW36286   0.909   4.047   4.610 -0.2780 -0.0012 -0.7038
 8217SOL    HW136287   0.862   4.125   4.638 -1.3473 -0.6417 -0.7148
 8217SOL    HW236288   0.884   4.005   4.692  2.5376  1.1573  0.7438
 8218SOL     OW36289   0.208   0.416   7.943  0.3449 -0.0606  0.4339
 8218SOL    HW136290   0.170   0.383   7.861  1.3935 -0.7493  0.2191
 8218SOL    HW236291   0.270   0.484   7.916 -0.5901  1.5508  2.4159
 8219SOL     OW36292   4.724   3.017   8.086 -0.0783 -0.2003 -0.0304
 8219SOL    HW136293   0.076   2.985   8.084 -0.4250 -1.1789 -0.3199
 8219SOL    HW236294   4.682   2.938   8.119 -2.8222  1.1828 -0.2281
 8220SOL     OW36295   1.522   1.606  13.348  0.3680 -0.3354 -0.4490
 8220SOL    HW136296   1.593   1.618  13.285 -0.2415  3.4356 -0.3767
 8220SOL    HW236297   1.491   1.517  13.332  1.1602 -0.4015 -1.6212
 8221SOL     OW36298   1.018   2.908  10.955 -0.1360  0.0549  0.1011
 8221SOL    HW136299   1.100   2.954  10.935  0.4796 -0.8197  0.5851
 8221SOL    HW236300   0.995   2.945  11.040 -2.5363 -0.4506 -0.3552
 8222SOL     OW36301   1.214   3.760   6.326  0.5208 -0.1710 -0.2933
 8222SOL    HW136302   1.149   3.775   6.395 -1.1728 -0.4933 -1.8295
 8222SOL    HW236303   1.288   3.770   6.387 -1.2203 -0.1737  1.8429
 8223SOL     OW36304   3.139   3.747  15.476 -0.0267 -0.2607  0.2724
 8223SOL    HW136305   3.204   3.735  15.407 -1.2233 -0.7785 -0.7687
 8223SOL    HW236306   3.157   3.675  15.537  0.8968 -1.1421 -1.0193
 8224SOL     OW36307   4.293   4.543  16.602 -0.4093 -0.3323 -0.3639
 8224SOL    HW136308   4.342   4.480  16.549  0.2778 -0.5540  0.5223
 8224SOL    HW236309   4.371   4.583  16.640 -0.7837  0.7648 -0.7643
 8225SOL     OW36310   3.088   1.186   8.655 -0.1781  0.2351  0.1811
 8225SOL    HW136311   3.014   1.161   8.599  0.7203  0.2999 -1.0584
 8225SOL    HW236312   3.059   1.264   8.701 -1.0409 -0.9758  1.6766
 8226SOL     OW36313   1.066   0.905  11.369  0.1599  0.2288 -0.4987
 8226SOL    HW136314   1.088   0.830  11.425  0.3537  1.6867  1.3859
 8226SOL    HW236315   0.972   0.913  11.387  0.3919  1.4808  0.1751
 8227SOL     OW36316   2.470   2.598   0.370  0.2061  0.5017 -0.1420
 8227SOL    HW136317   2.530   2.541   0.321 -2.1826 -1.6141 -0.6123
 8227SOL    HW236318   2.477   2.671   0.309 -0.2941  0.4960 -0.2044
 8228SOL     OW36319   0.442   4.581   7.691 -0.1955 -0.2626  0.5017
 8228SOL    HW136320   0.358   4.598   7.732  0.1342 -0.8269  1.4259
 8228SOL    HW236321   0.448   4.486   7.707  2.3229 -0.3274 -0.8404
 8229SOL     OW36322   4.163   2.289  12.397  0.0991  0.0380 -0.4480
 8229SOL    HW136323   4.105   2.253  12.330 -1.0260 -0.6789  0.9189
 8229SOL    HW236324   4.102   2.360  12.418  1.8376  1.9204 -1.6851
 8230SOL     OW36325   2.012   4.345   9.335  0.0726 -0.1723  0.0767
 8230SOL    HW136326   1.932   4.375   9.291  1.2540  3.5984  0.5193
 8230SOL    HW236327   2.033   4.265   9.287  1.0842  0.7914 -1.0756
 8231SOL     OW36328   2.638   2.364   4.101 -0.2131 -0.1293 -0.1336
 8231SOL    HW136329   2.624   2.278   4.060  1.2554 -0.7366  0.6457
 8231SOL    HW236330   2.609   2.350   4.191 -0.3658 -3.5217 -0.6816
 8232SOL     OW36331   1.833   3.874   4.046  0.0370 -0.5293 -0.2663
 8232SOL    HW136332   1.893   3.848   4.115 -0.4532  0.0299  0.3661
 8232SOL    HW236333   1.894   3.937   4.006  0.1420  0.8011  2.0093
 8233SOL     OW36334   1.904   3.982  14.086  0.1455  0.4570  0.1698
 8233SOL    HW136335   1.816   3.964  14.120 -0.4530 -0.6944 -1.9926
 8233SOL    HW236336   1.881   4.008  13.998  3.2267  2.2963 -0.1013
 8234SOL     OW36337   3.073   2.163   9.332 -0.2403  0.2992  0.7216
 8234SOL    HW136338   2.994   2.214   9.347  0.8894  2.1025  0.4865
 8234SOL    HW236339   3.118   2.229   9.281 -0.1200 -0.4889 -0.1976
 8235SOL     OW36340   1.508   4.619  12.010  0.0031  0.0534  0.5892
 8235SOL    HW136341   1.548   4.642  12.094 -0.8242 -0.0077  1.0020
 8235SOL    HW236342   1.439   4.685  12.007  0.9240  0.9158 -1.5003
 8236SOL     OW36343   4.691   1.348   3.942 -0.4936 -0.5618 -0.1625
 8236SOL    HW136344   4.657   1.320   4.028  0.1953  2.4883  1.1094
 8236SOL    HW236345   4.609   1.360   3.893  0.2172 -1.4677 -1.5527
 8237SOL     OW36346   0.038   1.881  12.260 -0.4890  0.4744 -0.3185
 8237SOL    HW136347   0.096   1.845  12.326 -0.6345  1.9678  0.6365
 8237SOL    HW236348   4.690   1.847  12.283 -0.3612  2.1784  2.6999
 8238SOL     OW36349   2.538   3.131   6.106  0.5384  0.0301 -0.2745
 8238SOL    HW136350   2.544   3.035   6.103 -0.6642 -0.0540  0.0154
 8238SOL    HW236351   2.575   3.153   6.191 -0.6004  2.6321 -0.4417
 8239SOL     OW36352   0.295   1.000   9.354 -0.7801 -0.1565  0.0578
 8239SOL    HW136353   0.342   1.076   9.388  1.5271 -0.2947 -2.7652
 8239SOL    HW236354   0.372   0.945   9.340  0.8629  2.2917 -0.5253
 8240SOL     OW36355   2.962   4.279   9.891  0.2485  0.5594 -0.3165
 8240SOL    HW136356   2.918   4.340   9.951  0.4069  0.4626 -0.1005
 8240SOL    HW236357   3.053   4.274   9.920  0.0635 -3.8369 -0.5698
 8241SOL     OW36358   3.468   0.184  16.637  0.2767 -0.2798 -0.0316
 8241SOL    HW136359   3.442   0.093  16.625  0.6977 -0.3108 -0.6938
 8241SOL    HW236360   3.499   0.206  16.549  1.8417  2.0953  1.0962
 8242SOL     OW36361   3.452   1.947   1.047 -0.3997  0.0590  0.1782
 8242SOL    HW136362   3.403   1.913   0.972  0.4670 -0.8108  0.0071
 8242SOL    HW236363   3.522   1.995   1.002 -0.6847  0.4527  0.1537
 8243SOL     OW36364   1.725   1.129  17.556  0.2242 -0.7491  0.5687
 8243SOL    HW136365   1.704   1.049  17.602 -1.6087 -2.6076 -3.4975
 8243SOL    HW236366   1.821   1.129  17.560  0.0694 -0.1555  4.2438
 8244SOL     OW36367   1.734   0.103   3.685 -0.2150  0.1401  0.1628
 8244SOL    HW136368   1.646   0.090   3.720 -0.4819 -1.3233 -1.0363
 8244SOL    HW236369   1.741   0.024   3.632 -2.6308  0.6542 -0.9192
 8245SOL     OW36370   4.703   1.552  12.712 -0.3893 -0.5356  0.1762
 8245SOL    HW136371   4.699   1.639  12.672  0.0607 -2.3205 -3.7988
 8245SOL    HW236372   4.626   1.551  12.768  0.0275 -0.3463  0.7472
 8246SOL     OW36373   2.378   0.803  14.947 -0.4952  0.4584  0.4535
 8246SOL    HW136374   2.289   0.792  14.981 -1.4360  0.1689 -2.1018
 8246SOL    HW236375   2.362   0.866  14.877  0.5954  1.6895  1.3129
 8247SOL     OW36376   3.873   3.420   9.298  0.1486 -0.4477 -0.6116
 8247SOL    HW136377   3.842   3.494   9.246  0.6121  0.2687  0.1215
 8247SOL    HW236378   3.948   3.468   9.334  0.5042 -1.5037  0.0571
 8248SOL     OW36379   4.671   1.791   2.182  0.2966 -0.1981  0.1961
 8248SOL    HW136380   4.665   1.856   2.251 -1.3408  0.0988 -0.2248
 8248SOL    HW236381   4.677   1.712   2.237 -1.9701  0.0180  0.7715
 8249SOL     OW36382   2.731   2.854   7.936 -0.2257 -0.1244 -0.3556
 8249SOL    HW136383   2.716   2.886   8.025  1.7900  0.4880 -0.2436
 8249SOL    HW236384   2.807   2.798   7.946  0.4996  0.8019 -0.6902
 8250SOL     OW36385   1.320   2.644   2.672  0.1771  0.4204  0.4254
 8250SOL    HW136386   1.251   2.648   2.606 -0.4774 -1.2358  0.9901
 8250SOL    HW236387   1.292   2.718   2.725  2.3194  0.7024  1.1541
 8251SOL     OW36388   2.079   0.252   6.752 -0.8039 -0.4669 -0.1722
 8251SOL    HW136389   2.090   0.331   6.699  0.8571  0.4686  1.5742
 8251SOL    HW236390   2.127   0.271   6.832 -0.7127  0.5696 -0.4635
 8252SOL     OW36391   2.111   0.418   3.630  0.0592 -0.0564  0.1322
 8252SOL    HW136392   2.085   0.506   3.603 -0.2977 -0.1483  0.1688
 8252SOL    HW236393   2.183   0.416   3.567  0.7008  1.5862  0.8128
 8253SOL     OW36394   4.367   2.573   8.077 -0.0563  0.0207  0.2159
 8253SOL    HW136395   4.443   2.608   8.030  0.1882 -1.6522 -0.6248
 8253SOL    HW236396   4.359   2.488   8.033 -0.8173 -0.7668  1.8979
 8254SOL     OW36397   1.668   0.341   7.581 -0.1158 -0.2620 -0.1167
 8254SOL    HW136398   1.624   0.307   7.659 -1.3504 -1.4539 -1.3421
 8254SOL    HW236399   1.761   0.324   7.600 -0.2540 -0.5599  0.2928
 8255SOL     OW36400   2.340   0.150   9.557  0.1153  0.4913  0.3830
 8255SOL    HW136401   2.261   0.097   9.564 -0.4943  1.2293 -0.9980
 8255SOL    HW236402   2.335   0.164   9.462  1.6984  0.2784  0.2698
 8256SOL     OW36403   2.519   0.438   5.821  0.1483 -0.2078  0.3589
 8256SOL    HW136404   2.524   0.526   5.785 -0.3496 -1.2599 -2.2441
 8256SOL    HW236405   2.556   0.463   5.906 -0.6623  0.5663  0.4881
 8257SOL     OW36406   0.419   4.255   3.693  0.1371  0.0913  0.3349
 8257SOL    HW136407   0.452   4.173   3.732  1.6212 -0.4166 -1.9492
 8257SOL    HW236408   0.477   4.259   3.617 -0.3177 -0.7285 -0.0627
 8258SOL     OW36409   3.557   0.707  10.780  0.0048  0.4206  0.3633
 8258SOL    HW136410   3.518   0.649  10.845 -1.1968 -1.3404 -1.9225
 8258SOL    HW236411   3.482   0.767  10.777 -0.3062 -0.0152 -0.6807
 8259SOL     OW36412   0.007   3.713   8.098  0.2258 -0.4412 -0.1604
 8259SOL    HW136413   0.093   3.675   8.114 -0.2391 -1.9897 -1.2823
 8259SOL    HW236414   4.705   3.627   8.114 -1.5616  0.6528  1.1739
 8260SOL     OW36415   3.597   1.192  15.278 -0.9503 -0.4545  0.1492
 8260SOL    HW136416   3.680   1.236  15.300 -0.1970 -0.2049 -3.1939
 8260SOL    HW236417   3.543   1.244  15.337  3.7834  0.4213  3.7659
 8261SOL     OW36418   4.209   3.553   4.652  0.6273 -0.0551  0.4673
 8261SOL    HW136419   4.238   3.619   4.715 -2.3789  2.0635 -0.3658
 8261SOL    HW236420   4.197   3.487   4.720 -1.1817 -0.1556  0.0450
 8262SOL     OW36421   1.482   4.214   6.655 -0.4714 -0.3702 -0.2856
 8262SOL    HW136422   1.513   4.304   6.639  0.9692 -0.8276 -0.0629
 8262SOL    HW236423   1.406   4.238   6.707  0.8014  0.0773  1.3580
 8263SOL     OW36424   0.636   0.165   6.874 -0.1886  0.3940  0.5609
 8263SOL    HW136425   0.712   0.138   6.925  0.9813 -2.1299 -2.5460
 8263SOL    HW236426   0.669   0.209   6.795  0.4504 -0.1787  0.5132
 8264SOL     OW36427   2.755   0.297   7.750 -0.7801 -0.5138  0.3310
 8264SOL    HW136428   2.765   0.279   7.844  1.0223  0.9881  0.4301
 8264SOL    HW236429   2.839   0.340   7.732 -0.4493 -0.5963  1.6301
 8265SOL     OW36430   0.989   4.447   7.051 -0.0356  0.7581  0.1680
 8265SOL    HW136431   0.954   4.392   7.121 -0.0833  1.1332  0.4397
 8265SOL    HW236432   1.003   4.534   7.088  0.6630  0.7722 -0.1193
 8266SOL     OW36433   1.746   1.739  12.805 -0.0584 -0.2553  0.1510
 8266SOL    HW136434   1.701   1.801  12.862 -0.5080  0.7799 -1.3396
 8266SOL    HW236435   1.716   1.656  12.841 -0.9893 -1.3258 -3.1525
 8267SOL     OW36436   3.235   0.591   7.712 -0.0130 -0.2112 -0.3939
 8267SOL    HW136437   3.218   0.678   7.677  1.9410 -0.1038 -1.0782
 8267SOL    HW236438   3.304   0.564   7.652 -0.5179  0.5939 -1.3217
 8268SOL     OW36439   4.329   1.204  17.337  0.6610  0.0791  0.0919
 8268SOL    HW136440   4.253   1.213  17.281  0.9640  0.9240 -0.1855
 8268SOL    HW236441   4.312   1.145  17.411  0.4710 -0.2924 -0.2498
 8269SOL     OW36442   0.272   4.075   3.839  0.5762 -0.2255  0.2997
 8269SOL    HW136443   0.183   4.095   3.870 -0.5482 -1.6945 -2.0150
 8269SOL    HW236444   0.277   4.144   3.772  0.2562 -1.6553 -1.2066
 8270SOL     OW36445   0.110   0.033   8.650  0.3251  0.3166 -0.6547
 8270SOL    HW136446   0.149   0.108   8.606  0.9320  0.8691  0.8234
 8270SOL    HW236447   0.018   0.060   8.656  0.4403  0.4317  0.5932
 8271SOL     OW36448   4.441   2.535   7.677 -0.4998  0.4985  0.2770
 8271SOL    HW136449   4.421   2.447   7.646 -1.2991  0.4662  0.8883
 8271SOL    HW236450   4.368   2.585   7.642 -1.0173  0.9487  1.9810
 8272SOL     OW36451   4.387   0.809   5.177 -0.4054  0.6531  0.5091
 8272SOL    HW136452   4.326   0.842   5.111 -1.4693 -3.4484 -0.5362
 8272SOL    HW236453   4.469   0.831   5.131  0.9383 -0.2389  2.4721
 8273SOL     OW36454   1.864   1.911   6.770 -0.4446  0.0625 -0.1054
 8273SOL    HW136455   1.899   1.993   6.802  2.6811 -0.8900 -1.0651
 8273SOL    HW236456   1.770   1.921   6.755 -0.1453 -0.7988 -2.5714
 8274SOL     OW36457   2.723   1.639   2.602  0.0871  0.1184 -0.4526
 8274SOL    HW136458   2.740   1.733   2.604 -1.1951  0.3201  0.7962
 8274SOL    HW236459   2.656   1.638   2.670 -1.3882  0.3455 -1.8825
 8275SOL     OW36460   2.570   0.803   2.784 -0.2522 -0.2522  0.1035
 8275SOL    HW136461   2.510   0.877   2.789 -0.7735 -0.6477 -0.4164
 8275SOL    HW236462   2.603   0.788   2.873 -3.5807  0.9023  1.5178
 8276SOL     OW36463   4.600   2.049   5.485 -0.4302  0.8349  0.3488
 8276SOL    HW136464   4.594   1.954   5.473  3.7297  0.4804  0.8901
 8276SOL    HW236465   4.556   2.078   5.565 -1.4712  2.0172 -0.6408
 8277SOL     OW36466   1.008   1.929   4.124  0.4152  0.3991  0.2513
 8277SOL    HW136467   0.934   1.989   4.118  0.1864  0.2011  1.0242
 8277SOL    HW236468   1.061   1.955   4.048 -0.7528  1.6795 -0.1174
 8278SOL     OW36469   4.224   4.170   6.880  0.0051 -0.3006  0.1583
 8278SOL    HW136470   4.186   4.228   6.946 -2.9713 -1.0435 -0.8984
 8278SOL    HW236471   4.317   4.192   6.880 -0.0736  0.0064  2.1663
 8279SOL     OW36472   0.045   0.104  10.278 -0.2174 -0.2293 -0.8768
 8279SOL    HW136473   4.704   0.054  10.300 -0.1806  0.3021  0.4843
 8279SOL    HW236474   0.094   0.050  10.217  0.6039 -1.9856  1.3144
 8280SOL     OW36475   2.998   2.747   0.603 -0.2309 -0.0223 -0.2717
 8280SOL    HW136476   3.072   2.782   0.555 -0.5013 -0.4042 -0.9736
 8280SOL    HW236477   2.962   2.820   0.654  0.2618 -0.8907  1.3303
 8281SOL     OW36478   1.454   1.949   0.538  0.2809  0.4349 -0.1177
 8281SOL    HW136479   1.366   1.985   0.525  0.3165  0.3714 -0.5155
 8281SOL    HW236480   1.460   1.886   0.466 -2.4540  0.4361 -0.3450
 8282SOL     OW36481   2.754   3.768  11.463  0.2508 -0.2430  0.2411
 8282SOL    HW136482   2.678   3.817  11.430  0.0713 -0.5398  0.2208
 8282SOL    HW236483   2.824   3.827  11.435  0.2971 -0.3442  0.1432
 8283SOL     OW36484   0.583   3.818   4.625  0.4886 -0.4613  0.1915
 8283SOL    HW136485   0.529   3.893   4.599  0.9711  0.1638  0.9673
 8283SOL    HW236486   0.515   3.770   4.671 -0.0273  1.5620  1.5372
 8284SOL     OW36487   1.283   0.374   1.667  0.0986 -0.5865  0.1638
 8284SOL    HW136488   1.363   0.323   1.652 -1.0059 -2.8686  1.9379
 8284SOL    HW236489   1.307   0.459   1.632  1.4880 -0.9648  0.2131
 8285SOL     OW36490   4.090   3.947   4.257 -0.5835 -0.4114  0.1317
 8285SOL    HW136491   4.173   3.979   4.222 -1.4083  0.3832 -1.0998
 8285SOL    HW236492   4.032   3.993   4.196  1.6394 -0.5481 -2.0747
 8286SOL     OW36493   3.472   2.974   3.831 -0.0456  0.4189  0.1624
 8286SOL    HW136494   3.497   2.986   3.740  3.2641 -0.3774  0.9715
 8286SOL    HW236495   3.555   2.987   3.876  1.8052 -0.5511 -3.0235
 8287SOL     OW36496   0.660   2.246  17.028  0.2696 -0.4663 -0.9166
 8287SOL    HW136497   0.658   2.338  17.053  0.6075 -0.2651 -1.6341
 8287SOL    HW236498   0.745   2.247  16.983  1.1237  2.3962  0.7872
 8288SOL     OW36499   1.043   3.676   6.132 -0.4026 -0.1116 -0.4350
 8288SOL    HW136500   1.115   3.695   6.192  0.4066 -1.5324 -0.9655
 8288SOL    HW236501   1.043   3.751   6.072  0.7673  0.3605  0.1661
 8289SOL     OW36502   1.739   3.302   9.029 -0.6050 -0.1082 -0.1069
 8289SOL    HW136503   1.644   3.317   9.032 -0.3290  1.4176  1.1576
 8289SOL    HW236504   1.726   3.207   9.035 -1.2333  0.1590  2.8585
 8290SOL     OW36505   2.258   3.326  16.109  0.8138  0.1553  0.1367
 8290SOL    HW136506   2.200   3.335  16.185  0.2049 -0.7222 -0.2299
 8290SOL    HW236507   2.323   3.392  16.133  0.8013 -0.2876  1.3991
 8291SOL     OW36508   1.878   2.122   6.499  0.2778  0.3115 -0.2469
 8291SOL    HW136509   1.896   2.028   6.497 -0.8486  0.1486 -2.5235
 8291SOL    HW236510   1.909   2.138   6.410  1.7956  0.8799  0.3886
 8292SOL     OW36511   1.826   3.465   8.228  0.5315  0.3816  0.4465
 8292SOL    HW136512   1.860   3.512   8.152 -0.7426 -0.6145 -0.7237
 8292SOL    HW236513   1.806   3.377   8.198 -1.4180  0.2054  2.2774
 8293SOL     OW36514   4.512   2.292  10.960  0.4724  0.1287  0.7644
 8293SOL    HW136515   4.520   2.276  10.866 -0.1995 -1.1182  0.9215
 8293SOL    HW236516   4.542   2.383  10.966  1.4770 -0.2494  1.4756
 8294SOL     OW36517   0.909   1.648   8.146 -0.3227 -0.2711 -0.3735
 8294SOL    HW136518   0.909   1.580   8.213  0.3593  0.7341  0.6348
 8294SOL    HW236519   0.992   1.634   8.100  0.7094 -0.9525  1.7018
 8295SOL     OW36520   4.129   4.130   5.304  0.0510  0.3528  0.3349
 8295SOL    HW136521   4.054   4.087   5.264 -0.4793  1.3122  0.2978
 8295SOL    HW236522   4.108   4.223   5.295  0.2378  0.6103  2.7362
 8296SOL     OW36523   3.128   4.061  11.145 -0.1208 -0.0561 -0.1073
 8296SOL    HW136524   3.103   3.975  11.111 -1.2981 -0.4066  1.6635
 8296SOL    HW236525   3.078   4.119  11.087 -1.6489 -0.4465  0.8132
 8297SOL     OW36526   4.468   4.498  16.240  0.1770 -0.2991  0.1060
 8297SOL    HW136527   4.424   4.464  16.318 -0.9688  0.6579 -0.1120
 8297SOL    HW236528   4.411   4.574  16.229  0.5532  0.2614  1.9263
 8298SOL     OW36529   4.046   4.021  17.312  0.3289 -0.8952 -0.3175
 8298SOL    HW136530   3.975   4.002  17.251  1.1403 -0.5217 -1.3921
 8298SOL    HW236531   4.070   3.932  17.338  2.4774  0.0653  0.9975
 8299SOL     OW36532   0.565   1.587  14.965  0.3003 -0.1226 -0.5857
 8299SOL    HW136533   0.629   1.557  15.030  0.3550  0.0707 -0.5513
 8299SOL    HW236534   0.610   1.558  14.886 -2.0661  0.7952 -2.2706
 8300SOL     OW36535   2.113   4.693   4.374 -0.0472 -0.9250  0.7916
 8300SOL    HW136536   2.124   0.041   4.336 -0.6909 -0.5560  1.4259
 8300SOL    HW236537   2.175   4.690   4.447  1.6370  1.3672 -0.5654
 8301SOL     OW36538   0.348   4.161   6.515  0.0538  0.0718  0.4788
 8301SOL    HW136539   0.263   4.201   6.536 -0.3368 -0.6266  0.2398
 8301SOL    HW236540   0.321   4.122   6.432  2.3936  1.9903 -1.1802
 8302SOL     OW36541   3.477   3.172   0.659 -0.2802  0.0228  0.2500
 8302SOL    HW136542   3.436   3.089   0.637 -0.9453  0.2221  0.7269
 8302SOL    HW236543   3.408   3.235   0.635  1.6305  1.6215 -1.0077
 8303SOL     OW36544   2.942   1.998   3.789  0.1624  0.2603  0.6211
 8303SOL    HW136545   2.931   1.947   3.709 -0.8222  1.0254  0.2762
 8303SOL    HW236546   2.975   2.084   3.763 -1.4751  0.7827  0.3169
 8304SOL     OW36547   4.017   1.187  16.955 -0.1462  0.4008  0.3930
 8304SOL    HW136548   3.984   1.109  16.911 -1.1302  2.1890 -2.0776
 8304SOL    HW236549   4.028   1.157  17.046  1.2114  1.0515  0.4365
 8305SOL     OW36550   3.640   4.467   4.431  0.0934  0.2149  0.5636
 8305SOL    HW136551   3.732   4.489   4.441  0.1961 -0.8123  1.7863
 8305SOL    HW236552   3.628   4.522   4.353 -0.3227 -0.4701  0.1420
 8306SOL     OW36553   2.858   3.866   3.633  0.3856  0.0089  0.1575
 8306SOL    HW136554   2.779   3.893   3.680 -0.5053 -0.2966 -1.1761
 8306SOL    HW236555   2.878   3.782   3.674  0.1421 -0.6737 -1.1445
 8307SOL     OW36556   4.559   1.342   5.717 -0.1135  0.1512  0.3683
 8307SOL    HW136557   4.580   1.309   5.630  0.2375 -1.1655  0.9576
 8307SOL    HW236558   4.472   1.374   5.692 -0.3082  0.4863  1.4604
 8308SOL     OW36559   3.731   3.317   4.106 -0.0574 -0.0250  0.4048
 8308SOL    HW136560   3.673   3.385   4.071  0.3956 -1.3506 -2.9119
 8308SOL    HW236561   3.673   3.286   4.175 -0.8315  0.4925 -0.0170
 8309SOL     OW36562   3.720   0.291   4.978  0.2130 -0.7001 -0.4146
 8309SOL    HW136563   3.697   0.270   5.068  1.9984  1.2656  0.4893
 8309SOL    HW236564   3.639   0.259   4.938  1.0251 -3.3148  0.0151
 8310SOL     OW36565   2.686   0.936   5.487 -0.1895 -0.6053 -0.3770
 8310SOL    HW136566   2.629   0.916   5.412 -1.3825 -1.2534  0.6874
 8310SOL    HW236567   2.760   0.984   5.451  0.6012 -1.0906  0.5744
 8311SOL     OW36568   2.141   0.983  13.050 -0.6249  0.0927 -0.3739
 8311SOL    HW136569   2.206   1.013  12.987  0.2329  2.5835  1.6596
 8311SOL    HW236570   2.176   1.025  13.129 -1.1239 -0.1931  0.0001
 8312SOL     OW36571   4.569   1.348   1.067 -0.8609  0.2732  0.5957
 8312SOL    HW136572   4.576   1.326   0.974  2.1213  1.9457  0.3973
 8312SOL    HW236573   4.663   1.336   1.081 -0.7151  2.6307  1.6066
 8313SOL     OW36574   3.438   3.139  14.740 -0.1335 -0.3996 -0.7282
 8313SOL    HW136575   3.419   3.217  14.688  0.0470 -1.5310 -2.4822
 8313SOL    HW236576   3.494   3.093  14.678 -0.4497  0.0458 -1.3375
 8314SOL     OW36577   4.051   3.583   2.941 -0.7679  0.0054 -0.3739
 8314SOL    HW136578   4.080   3.561   3.029 -0.7891  0.3568 -0.2799
 8314SOL    HW236579   3.956   3.596   2.949 -0.4999 -0.8562  3.9096
 8315SOL     OW36580   0.232   3.250   4.782  0.5851 -0.7382  0.5596
 8315SOL    HW136581   0.235   3.345   4.795 -1.0534 -0.5525 -0.4359
 8315SOL    HW236582   0.151   3.235   4.832  0.9732 -1.9618  0.8125
 8316SOL     OW36583   1.128   0.245   3.612 -0.1750  0.4386 -0.6580
 8316SOL    HW136584   1.087   0.302   3.547 -2.2347  0.2616  0.4842
 8316SOL    HW236585   1.062   0.234   3.681 -0.4193  0.1965 -0.9309
 8317SOL     OW36586   1.493   2.675   0.452 -0.0653  0.3653 -0.5087
 8317SOL    HW136587   1.551   2.643   0.522  1.5586  0.0061 -2.0271
 8317SOL    HW236588   1.534   2.641   0.373 -0.2562  1.8124 -1.2269
 8318SOL     OW36589   1.266   0.809   8.890 -0.0231 -0.1602  0.2774
 8318SOL    HW136590   1.173   0.817   8.867  0.5440  2.2306 -1.1143
 8318SOL    HW236591   1.268   0.717   8.918 -1.1311 -1.5163 -4.0543
 8319SOL     OW36592   3.108   4.322   5.587 -0.2169 -0.4425  0.0867
 8319SOL    HW136593   3.065   4.395   5.631 -0.7716  0.4136 -1.8926
 8319SOL    HW236594   3.161   4.303   5.665  0.7849  0.4052 -0.4002
 8320SOL     OW36595   0.151   3.106  11.214  0.3696 -0.3331 -0.7273
 8320SOL    HW136596   0.187   3.086  11.300 -0.5306 -0.3774 -0.3699
 8320SOL    HW236597   0.062   3.110  11.247  0.0107 -0.1220 -1.7220
 8321SOL     OW36598   1.660   4.074   8.441  0.3196  0.0258  0.4138
 8321SOL    HW136599   1.751   4.048   8.455  0.3529  0.2763  0.6707
 8321SOL    HW236600   1.626   4.001   8.494  4.0639 -1.8829  0.1466
 8322SOL     OW36601   4.415   4.020  15.987 -0.4842 -0.2855  0.1377
 8322SOL    HW136602   4.396   3.973  15.905  3.1348 -1.1508 -0.1876
 8322SOL    HW236603   4.425   3.946  16.046  2.3048 -0.2340 -0.3069
 8323SOL     OW36604   3.045   2.480   2.232  0.2088  0.3771  0.1703
 8323SOL    HW136605   2.973   2.427   2.199  0.7698 -0.8670  0.9151
 8323SOL    HW236606   3.047   2.447   2.322  0.3572 -0.7432 -0.2431
 8324SOL     OW36607   2.603   2.900   4.058 -0.1391  0.6479 -0.0656
 8324SOL    HW136608   2.529   2.909   4.119  0.0852 -0.5452  0.3904
 8324SOL    HW236609   2.591   2.967   3.991 -2.1976 -0.4403 -0.8088
 8325SOL     OW36610   2.772   3.652  10.062  0.0986 -0.0234  0.0197
 8325SOL    HW136611   2.725   3.706  10.125 -1.4273 -0.4065 -0.7863
 8325SOL    HW236612   2.859   3.689  10.076 -0.0731  0.0158  0.9716
 8326SOL     OW36613   2.659   0.888   4.925 -0.2864  0.0676 -0.7253
 8326SOL    HW136614   2.636   0.860   5.013 -0.7088  1.7788 -0.2819
 8326SOL    HW236615   2.574   0.924   4.898  0.5082  1.6355 -1.1597
 8327SOL     OW36616   0.189   4.287   6.895 -0.3198  0.1039  0.3340
 8327SOL    HW136617   0.173   4.233   6.818  1.4945  0.7497 -0.5021
 8327SOL    HW236618   0.192   4.227   6.969 -1.4503 -0.0583  0.2566
 8328SOL     OW36619   3.957   1.633   9.691 -0.3694 -0.5821 -0.0920
 8328SOL    HW136620   3.903   1.712   9.687 -0.1318 -0.3810  0.6249
 8328SOL    HW236621   3.965   1.603   9.782 -1.1028 -0.2811  0.0791
 8329SOL     OW36622   3.716   3.618   6.518  0.4063 -0.4301 -0.2467
 8329SOL    HW136623   3.667   3.670   6.454  2.7018 -0.0907 -1.7386
 8329SOL    HW236624   3.642   3.590   6.572  0.6479 -0.1496  0.2392
 8330SOL     OW36625   4.218   3.311   7.454 -0.0129 -0.1883 -0.2047
 8330SOL    HW136626   4.210   3.405   7.438 -2.6682 -0.1211  1.5233
 8330SOL    HW236627   4.210   3.286   7.362  1.9059 -0.1400 -0.3907
 8331SOL     OW36628   3.339   2.220   4.809  0.0171 -0.0022  0.2134
 8331SOL    HW136629   3.354   2.309   4.776 -2.2267 -0.9027 -3.2171
 8331SOL    HW236630   3.261   2.245   4.858  1.0766  1.9885  0.9373
 8332SOL     OW36631   0.587   0.773  11.678  0.1468  0.4509 -0.9114
 8332SOL    HW136632   0.667   0.726  11.655 -1.6376 -3.0766  0.1618
 8332SOL    HW236633   0.618   0.864  11.682 -0.4034  0.5575  0.9222
 8333SOL     OW36634   0.645   0.758   5.031  0.3209  0.1813 -0.6356
 8333SOL    HW136635   0.665   0.852   5.036  2.3355 -0.2411 -0.8213
 8333SOL    HW236636   0.609   0.745   5.118  1.2083  1.5578 -0.0712
 8334SOL     OW36637   1.433   1.754   6.936 -0.3037 -0.5896 -0.0719
 8334SOL    HW136638   1.460   1.685   6.876  1.9903 -1.0670  1.5236
 8334SOL    HW236639   1.488   1.730   7.011 -2.0184 -1.6014  0.8591
 8335SOL     OW36640   2.286   3.525   9.871  0.0102 -0.0531  0.0486
 8335SOL    HW136641   2.374   3.544   9.904  0.9257  0.4595 -2.6965
 8335SOL    HW236642   2.298   3.457   9.805 -0.2926  2.1490 -2.2594
 8336SOL     OW36643   2.330   3.746   7.368  0.4540  0.3133  0.1520
 8336SOL    HW136644   2.281   3.751   7.286  0.4142  2.9228  0.3441
 8336SOL    HW236645   2.418   3.771   7.339  0.3162  0.2460 -0.3301
 8337SOL     OW36646   2.705   0.894  10.919  0.2516  0.3423 -0.8117
 8337SOL    HW136647   2.646   0.892  10.995  0.8817  2.5255 -0.2884
 8337SOL    HW236648   2.685   0.806  10.887  1.4837  0.4147 -1.7427
 8338SOL     OW36649   3.181   2.538   4.524 -0.3291  0.9289  0.2511
 8338SOL    HW136650   3.114   2.604   4.505  0.2984  0.6540 -2.8920
 8338SOL    HW236651   3.128   2.486   4.584 -2.5460  2.2029 -0.5833
 8339SOL     OW36652   3.447   2.058  15.756 -0.1553  0.0284  0.2436
 8339SOL    HW136653   3.355   2.038  15.767  0.2398 -2.7307 -1.3432
 8339SOL    HW236654   3.437   2.151  15.772  4.7657  0.2313  2.3460
 8340SOL     OW36655   1.102   4.613   6.842 -0.8226  0.3326  0.2983
 8340SOL    HW136656   1.073   4.549   6.907 -0.2888 -1.0799 -0.8606
 8340SOL    HW236657   1.167   4.658   6.897 -0.1187 -0.2212 -0.0837
 8341SOL     OW36658   4.113   4.650   1.700  0.3055 -0.3541 -0.7513
 8341SOL    HW136659   4.158   4.626   1.781 -1.5279 -0.0177  0.3706
 8341SOL    HW236660   4.021   4.628   1.718  0.4744  0.9666  1.7145
 8342SOL     OW36661   4.242   3.451   2.427 -0.4202  0.0257 -0.2691
 8342SOL    HW136662   4.183   3.514   2.469  0.5456  0.8953 -0.2089
 8342SOL    HW236663   4.308   3.432   2.493  1.0291  1.3695 -1.2927
 8343SOL     OW36664   3.277   4.164  15.481  0.2111 -0.3554 -0.5717
 8343SOL    HW136665   3.261   4.241  15.535  0.2278 -1.1534  0.5762
 8343SOL    HW236666   3.185   4.151  15.456 -0.0240 -0.0531  0.1366
 8344SOL     OW36667   4.324   2.551   6.527  0.0627 -0.1317 -0.7017
 8344SOL    HW136668   4.345   2.644   6.536  1.2808 -0.5233  0.4350
 8344SOL    HW236669   4.412   2.518   6.507 -1.3435 -2.6422 -2.9082
 8345SOL     OW36670   1.688   4.156   6.183 -0.2459  0.2597  0.1550
 8345SOL    HW136671   1.601   4.188   6.209 -1.1684 -0.1401 -2.4396
 8345SOL    HW236672   1.716   4.085   6.241  1.4686 -0.3676 -1.4518
 8346SOL     OW36673   4.314   1.968   2.818 -0.6503  0.4004  0.0050
 8346SOL    HW136674   4.218   1.969   2.815 -0.7841  2.0693  4.7796
 8346SOL    HW236675   4.339   1.883   2.853 -0.7330  0.1209 -0.6317
 8347SOL     OW36676   0.554   1.646   6.043 -0.4521  0.3847  0.4993
 8347SOL    HW136677   0.580   1.729   6.083 -0.9403  1.6956 -1.8871
 8347SOL    HW236678   0.600   1.582   6.097 -1.9688 -0.4538  0.7881
 8348SOL     OW36679   2.629   1.054   5.181  0.4454  0.0470 -0.3963
 8348SOL    HW136680   2.634   0.959   5.177  0.7205 -0.0521  2.0913
 8348SOL    HW236681   2.715   1.080   5.148  0.3487 -1.2310 -1.6341
 8349SOL     OW36682   3.956   4.207  11.537 -0.0288 -0.2261  0.1043
 8349SOL    HW136683   3.983   4.284  11.488  2.3260 -1.2918 -0.2723
 8349SOL    HW236684   3.879   4.175  11.490  1.3965  0.8045 -2.9623
 8350SOL     OW36685   2.676   3.087   3.456  0.0530  0.1477 -0.1312
 8350SOL    HW136686   2.725   3.088   3.538  0.9483  0.4737 -0.6733
 8350SOL    HW236687   2.585   3.085   3.489  0.1326 -0.7352  0.0375
 8351SOL     OW36688   1.114   0.011  15.032 -0.6843  0.5831 -0.3073
 8351SOL    HW136689   1.093   0.097  15.071 -0.6400  0.2005  0.5665
 8351SOL    HW236690   1.168   0.037  14.958 -0.9700  0.6967 -0.4775
 8352SOL     OW36691   2.977   4.656  16.864 -0.2346  0.0122 -0.0390
 8352SOL    HW136692   2.919   4.703  16.803  0.6862  1.9387  0.5816
 8352SOL    HW236693   2.981   4.710  16.943 -0.7831  0.1732 -0.1151
 8353SOL     OW36694   2.947   2.037   2.815  0.7627 -0.3686  0.2398
 8353SOL    HW136695   3.039   2.013   2.824  1.0615 -0.2054 -2.5252
 8353SOL    HW236696   2.946   2.057   2.909  1.0149 -0.6800  0.3086
 8354SOL     OW36697   0.817   0.885   7.856 -0.1409 -0.2861  0.1250
 8354SOL    HW136698   0.850   0.912   7.770 -1.5040 -0.9935 -0.6311
 8354SOL    HW236699   0.802   0.791   7.846 -0.4988 -0.1397 -0.6918
 8355SOL     OW36700   4.323   1.937   1.686  0.2183 -0.2337 -0.3157
 8355SOL    HW136701   4.255   2.000   1.663  0.9818 -0.7863 -4.0868
 8355SOL    HW236702   4.368   1.906   1.608 -0.7622 -1.0679 -0.5541
 8356SOL     OW36703   1.541   1.724   2.035 -0.1255 -0.0522 -0.0427
 8356SOL    HW136704   1.575   1.812   2.052  2.7095 -1.0084 -0.8204
 8356SOL    HW236705   1.608   1.682   1.981 -0.8345 -0.2078 -0.8120
 8357SOL     OW36706   4.501   2.660   3.798  0.1145 -0.3719  0.1177
 8357SOL    HW136707   4.558   2.598   3.844 -1.4628 -0.3089  2.1522
 8357SOL    HW236708   4.446   2.593   3.757  1.7396 -2.0401  0.6352
 8358SOL     OW36709   2.319   4.320  10.560  0.2239  0.6834 -0.3744
 8358SOL    HW136710   2.272   4.368  10.491  0.2162 -0.1775 -0.9541
 8358SOL    HW236711   2.245   4.279  10.605  0.0883 -0.5751 -1.7857
 8359SOL     OW36712   3.851   0.032   5.365 -0.3891 -0.2338  0.3151
 8359SOL    HW136713   3.885   0.121   5.369  2.5656 -1.3412 -0.1866
 8359SOL    HW236714   3.886   0.008   5.450 -0.1529  1.0228  0.5701
 8360SOL     OW36715   2.002   3.790   6.320 -0.0486 -0.0453  0.5825
 8360SOL    HW136716   2.039   3.867   6.363 -3.4870 -0.1795  3.7136
 8360SOL    HW236717   1.915   3.827   6.306  0.7184  0.7858 -2.1327
 8361SOL     OW36718   1.428   0.706   2.283 -0.8712  0.1801 -0.1231
 8361SOL    HW136719   1.420   0.794   2.246 -1.7633  1.0134  2.0618
 8361SOL    HW236720   1.409   0.657   2.202  0.8999 -1.6488  0.5652
 8362SOL     OW36721   2.849   3.999   5.724  0.4560 -0.4274  0.0964
 8362SOL    HW136722   2.835   3.953   5.641  0.8341  2.0648 -1.3558
 8362SOL    HW236723   2.811   4.085   5.704  0.7988 -0.4899 -0.8341
 8363SOL     OW36724   4.395   0.228   7.401  0.1705  0.4206 -0.1819
 8363SOL    HW136725   4.474   0.280   7.381  0.2126 -0.1068 -1.3898
 8363SOL    HW236726   4.363   0.267   7.483  0.3486  0.5721 -0.1833
 8364SOL     OW36727   3.828   4.101   1.253  0.5297  0.1790  0.3193
 8364SOL    HW136728   3.868   4.069   1.172  1.6780 -2.0866  1.7564
 8364SOL    HW236729   3.838   4.022   1.306  2.3775 -0.9141 -1.6625
 8365SOL     OW36730   0.407   4.481   6.267 -0.0728 -0.3648  0.0620
 8365SOL    HW136731   0.339   4.427   6.227  0.8202 -1.9255  0.6390
 8365SOL    HW236732   0.462   4.511   6.195  1.7313  1.0773  2.0263
 8366SOL     OW36733   3.203   0.187   5.814  0.3343  0.3930 -0.3858
 8366SOL    HW136734   3.149   0.167   5.737 -0.3821  0.5050  0.0889
 8366SOL    HW236735   3.252   0.106   5.828 -1.1159 -0.1020  1.9199
 8367SOL     OW36736   2.579   3.714   2.518  0.5257  0.2707  0.3749
 8367SOL    HW136737   2.669   3.688   2.500 -0.3730 -3.2084  0.9224
 8367SOL    HW236738   2.548   3.709   2.428 -0.2226  3.8286  0.4403
 8368SOL     OW36739   1.058   3.807   6.540  0.1029 -0.0741 -0.4459
 8368SOL    HW136740   1.099   3.844   6.618  2.6066 -1.5464 -1.0506
 8368SOL    HW236741   0.972   3.846   6.525 -0.4882 -2.3160 -2.9245
 8369SOL     OW36742   1.973   1.734  12.310  0.2810 -0.9190  0.5351
 8369SOL    HW136743   1.904   1.718  12.373  0.2797 -1.9562  0.2772
 8369SOL    HW236744   2.014   1.818  12.332  0.9916 -0.9115 -0.8219
 8370SOL     OW36745   1.875   4.341   4.868 -0.5779 -0.3392  0.1195
 8370SOL    HW136746   1.875   4.386   4.784  0.4007  2.3461  1.5741
 8370SOL    HW236747   1.914   4.259   4.839 -1.9446 -1.6808  2.0161
 8371SOL     OW36748   4.455   2.994  11.041  0.1599  0.1680  0.4203
 8371SOL    HW136749   4.383   3.024  11.096  0.6875  1.7790  0.2468
 8371SOL    HW236750   4.521   2.982  11.109  3.3724  1.1280 -2.4744
 8372SOL     OW36751   3.275   4.284   9.490 -0.4213 -0.0292  0.0042
 8372SOL    HW136752   3.191   4.260   9.451 -0.2137  0.9086 -1.0140
 8372SOL    HW236753   3.271   4.235   9.572  2.3318 -1.0382 -0.4445
 8373SOL     OW36754   1.964   1.991   7.100  0.2802  0.4362  0.2009
 8373SOL    HW136755   1.942   2.039   7.019  1.0060 -2.0114 -1.4509
 8373SOL    HW236756   1.881   2.006   7.146 -0.3324  0.2686 -0.8416
 8374SOL     OW36757   2.619   4.546  12.079  0.2379  0.4662  0.1907
 8374SOL    HW136758   2.558   4.619  12.071 -0.4197 -0.2983 -1.7614
 8374SOL    HW236759   2.658   4.548  11.992  0.3341 -1.8442  0.1738
 8375SOL     OW36760   2.313   0.962   2.727  0.1420 -0.4350  0.6467
 8375SOL    HW136761   2.276   1.022   2.792 -2.4675 -0.1915 -1.0626
 8375SOL    HW236762   2.233   0.923   2.693 -0.0998  0.6137  0.0026
 8376SOL     OW36763   1.250   4.691  17.633  0.1814  0.0759  0.2110
 8376SOL    HW136764   1.291   0.007  17.701 -0.0396 -0.6112  0.9021
 8376SOL    HW236765   1.197   4.637  17.692  1.6546 -1.5818  0.0341
 8377SOL     OW36766   0.167   0.894   4.570  0.0651 -1.1138  0.2792
 8377SOL    HW136767   0.259   0.920   4.571  0.0417 -1.0167 -0.8745
 8377SOL    HW236768   0.170   0.822   4.508  0.8047 -1.9428  1.2769
 8378SOL     OW36769   1.889   3.299   2.652 -0.0948  0.0463  0.0392
 8378SOL    HW136770   1.896   3.204   2.660  0.2591 -0.1805 -2.7180
 8378SOL    HW236771   1.907   3.299   2.558  1.7569 -1.7761  0.3859
 8379SOL     OW36772   2.834   0.022   7.435 -0.2841  0.4509  0.1711
 8379SOL    HW136773   2.840   4.729   7.525  1.4495  0.8417  0.1922
 8379SOL    HW236774   2.835   4.681   7.381 -2.1504  0.9601 -0.5979
 8380SOL     OW36775   3.485   1.087   6.468 -0.1949 -0.2982  0.3715
 8380SOL    HW136776   3.487   1.180   6.447 -1.9025 -0.8509 -2.2340
 8380SOL    HW236777   3.566   1.058   6.425 -0.5328 -2.8368  1.4265
 8381SOL     OW36778   2.653   2.213   4.891 -0.0561 -0.1093  0.0872
 8381SOL    HW136779   2.657   2.156   4.814  2.2813  1.1478 -0.7050
 8381SOL    HW236780   2.652   2.146   4.960  0.9503 -0.2334 -0.0237
 8382SOL     OW36781   3.734   4.009   8.901  0.2477 -0.4764  0.2838
 8382SOL    HW136782   3.665   4.007   8.968  0.9853 -1.2205  1.0241
 8382SOL    HW236783   3.678   4.001   8.824  0.5451  1.7484 -0.1480
 8383SOL     OW36784   0.133   2.122  10.484  0.2014  0.1881 -0.7510
 8383SOL    HW136785   0.143   2.048  10.544 -0.1637  1.6576  1.1308
 8383SOL    HW236786   0.209   2.180  10.490  0.9950 -0.8112 -1.2226
 8384SOL     OW36787   0.912   3.711   6.799 -0.3790 -0.1105  0.5431
 8384SOL    HW136788   0.968   3.788   6.790 -0.4340  0.1175  2.0740
 8384SOL    HW236789   0.965   3.660   6.860 -1.3474 -2.6118 -0.7232
 8385SOL     OW36790   1.530   3.322  11.586  0.4173 -0.3959 -0.1773
 8385SOL    HW136791   1.471   3.254  11.553 -2.5829  1.6181  1.0548
 8385SOL    HW236792   1.595   3.332  11.516 -0.2927 -1.9876 -1.0562
 8386SOL     OW36793   2.574   3.482   3.089 -0.0118 -0.4156 -0.0821
 8386SOL    HW136794   2.485   3.477   3.122  1.5434 -0.3811  4.0929
 8386SOL    HW236795   2.555   3.543   3.018  0.6940  1.4660  1.3289
 8387SOL     OW36796   0.619   2.920  15.087  0.2677  0.3363  0.0506
 8387SOL    HW136797   0.627   2.827  15.066 -2.2467  0.0899  0.1290
 8387SOL    HW236798   0.681   2.959  15.025  0.6497  0.1236  0.2997
 8388SOL     OW36799   4.285   0.280   1.602 -0.4058 -0.1253 -0.3734
 8388SOL    HW136800   4.262   0.275   1.695  1.2377  3.3696  0.2484
 8388SOL    HW236801   4.376   0.309   1.605 -1.0410  1.8238  0.4110
 8389SOL     OW36802   4.080   2.673   9.102  0.5308  0.2529 -0.4156
 8389SOL    HW136803   3.986   2.675   9.088  0.6848  0.2420 -1.4300
 8389SOL    HW236804   4.076   2.706   9.192  1.2203  3.2533 -1.4727
 8390SOL     OW36805   2.320   1.434   7.282 -0.3099  0.4410  0.0676
 8390SOL    HW136806   2.319   1.494   7.357 -2.3726 -0.1136  0.4921
 8390SOL    HW236807   2.414   1.424   7.293  0.0073  2.9087 -0.2426
 8391SOL     OW36808   4.416   4.430   2.796 -0.1031 -0.5378 -0.2975
 8391SOL    HW136809   4.393   4.385   2.877  1.9832  2.6751  2.0843
 8391SOL    HW236810   4.511   4.431   2.807 -0.3360 -2.6044  1.9362
 8392SOL     OW36811   0.953   0.532   2.023  0.0392 -0.0668  0.0308
 8392SOL    HW136812   0.959   0.451   2.072  2.4271  0.4739  0.6148
 8392SOL    HW236813   0.885   0.524   1.956 -0.7336  1.6167  0.6014
 8393SOL     OW36814   2.064   0.841  15.326  0.0245 -1.0759  0.1142
 8393SOL    HW136815   1.983   0.808  15.288 -0.6922 -1.6520  2.1096
 8393SOL    HW236816   2.041   0.929  15.358  1.4999 -0.1588 -1.3372
 8394SOL     OW36817   4.247   0.507   7.847 -0.2450 -0.4853 -0.3355
 8394SOL    HW136818   4.281   0.594   7.867  0.6439 -0.6442 -1.1843
 8394SOL    HW236819   4.169   0.515   7.903 -0.8016 -1.6936 -0.9117
 8395SOL     OW36820   0.421   1.563  15.612  0.1139 -0.0162 -0.8463
 8395SOL    HW136821   0.469   1.481  15.602  0.5781  0.0182  1.1412
 8395SOL    HW236822   0.481   1.619  15.563 -1.5757  0.3392 -2.4911
 8396SOL     OW36823   3.288   2.553   8.169 -0.4509 -0.1628 -0.0029
 8396SOL    HW136824   3.381   2.536   8.158 -0.1294  0.4968  1.6859
 8396SOL    HW236825   3.261   2.472   8.211  1.0817 -1.2159 -1.0817
 8397SOL     OW36826   2.613   4.345   7.111 -0.3171  0.1057  0.4781
 8397SOL    HW136827   2.549   4.274   7.116 -3.0860  2.5083 -0.7866
 8397SOL    HW236828   2.689   4.294   7.084  0.2296  0.7432  0.8089
 8398SOL     OW36829   3.411   3.245   4.323 -0.1574 -0.1911 -0.3729
 8398SOL    HW136830   3.339   3.305   4.304  0.5605  0.3629 -1.3221
 8398SOL    HW236831   3.384   3.174   4.265  2.8881 -2.7486  1.3600
 8399SOL     OW36832   3.193   2.359   3.945  0.1786 -1.0281 -0.1859
 8399SOL    HW136833   3.196   2.413   4.024  1.2208 -0.2561 -0.7654
 8399SOL    HW236834   3.220   2.419   3.876  1.4475 -0.3793  0.8786
 8400SOL     OW36835   0.871   2.307   0.607  0.8036 -0.1582  0.0432
 8400SOL    HW136836   0.828   2.223   0.594 -0.6973  0.5397  0.5678
 8400SOL    HW236837   0.930   2.306   0.532 -0.6535 -0.8052 -1.0937
 8401SOL     OW36838   1.719   1.704   3.350  0.0358  0.0606  0.0214
 8401SOL    HW136839   1.785   1.677   3.415  0.7366  0.2458 -0.6060
 8401SOL    HW236840   1.693   1.619   3.315  3.2754 -1.2065  0.6744
 8402SOL     OW36841   1.359   1.671   4.060 -0.1960 -0.0775 -0.7168
 8402SOL    HW136842   1.358   1.728   4.137 -0.0401 -0.7166 -0.2405
 8402SOL    HW236843   1.264   1.664   4.048 -0.3892 -0.4095  1.0834
 8403SOL     OW36844   2.889   1.079   8.466 -0.1441 -0.4724  0.2455
 8403SOL    HW136845   2.904   1.129   8.386 -2.4840  0.4752  0.4101
 8403SOL    HW236846   2.956   1.011   8.453  0.3748  0.0838 -0.0347
 8404SOL     OW36847   2.973   3.262   6.038 -0.0964  0.0821  0.2617
 8404SOL    HW136848   2.938   3.207   6.108  0.7136 -0.0555  0.5543
 8404SOL    HW236849   3.066   3.267   6.057  0.3041 -0.1583 -1.6410
 8405SOL     OW36850   2.945   2.753  15.027  0.2246  0.5316  0.1531
 8405SOL    HW136851   2.999   2.722  15.099 -1.8534 -2.6877  0.3115
 8405SOL    HW236852   2.856   2.723  15.043 -0.5324  1.9480 -1.4006
 8406SOL     OW36853   2.665   2.100   3.975  0.0983 -0.3489 -0.4416
 8406SOL    HW136854   2.756   2.083   3.951 -0.6683 -1.5392 -2.5208
 8406SOL    HW236855   2.625   2.108   3.888 -1.7286  2.9254  0.6724
 8407SOL     OW36856   2.130   4.723   9.439  0.1174 -0.3461 -0.2882
 8407SOL    HW136857   2.132   4.635   9.476  0.7220 -0.8297 -1.4962
 8407SOL    HW236858   2.073   4.718   9.363 -0.8024 -0.6946  0.4249
 8408SOL     OW36859   2.395   3.103  16.086  0.3628 -0.1654 -0.5327
 8408SOL    HW136860   2.335   3.036  16.054  2.0648 -2.3322  0.8394
 8408SOL    HW236861   2.343   3.184  16.085 -0.0461 -0.4196  0.4548
 8409SOL     OW36862   3.634   3.879   7.434  0.0750  0.8746  0.2363
 8409SOL    HW136863   3.598   3.942   7.497  1.0437  1.2563  0.4190
 8409SOL    HW236864   3.713   3.849   7.480  0.2856  0.0752 -0.6375
 8410SOL     OW36865   0.115   2.778  14.162  0.1640 -0.1141 -0.1315
 8410SOL    HW136866   0.067   2.756  14.082 -0.8586  1.9646 -0.0863
 8410SOL    HW236867   0.059   2.744  14.232 -2.0150 -1.0834 -2.3400
 8411SOL     OW36868   2.787   3.835   4.088  0.2538  0.1980 -0.2010
 8411SOL    HW136869   2.820   3.829   4.178  0.7696 -0.0804 -0.4077
 8411SOL    HW236870   2.797   3.929   4.075 -0.9074  0.4637  0.8268
 8412SOL     OW36871   0.521   0.384   6.953  0.4448 -0.4649 -0.1641
 8412SOL    HW136872   0.519   0.384   7.049  2.4530  0.9847 -0.1168
 8412SOL    HW236873   0.551   0.296   6.932  1.6217 -0.0317 -0.3014
 8413SOL     OW36874   2.045   2.113  11.852 -0.5805  0.1651 -0.5331
 8413SOL    HW136875   2.051   2.135  11.759  0.3696  1.4898 -0.1620
 8413SOL    HW236876   2.139   2.105  11.869 -0.4780  0.9488 -0.7464
 8414SOL     OW36877   2.924   0.141   5.986  0.0570 -0.0534 -0.4229
 8414SOL    HW136878   2.943   0.111   5.898 -0.8969  0.0954 -0.6756
 8414SOL    HW236879   3.004   0.109   6.028 -0.0679  1.8335  1.2670
 8415SOL     OW36880   2.901   0.497   6.704  0.3962  0.0559  0.1429
 8415SOL    HW136881   2.982   0.451   6.683 -0.5385 -1.5383 -0.0244
 8415SOL    HW236882   2.906   0.503   6.799 -1.9381 -0.8495  0.3332
 8416SOL     OW36883   2.071   0.835   2.671  0.8447 -0.0037  0.4669
 8416SOL    HW136884   2.004   0.891   2.708  0.5279  0.2202 -0.4403
 8416SOL    HW236885   2.019   0.778   2.615  1.9091 -1.6280  1.1211
 8417SOL     OW36886   4.022   2.590  11.432  0.3077  0.0302  0.1425
 8417SOL    HW136887   4.098   2.533  11.420  1.1457  0.7588  2.0991
 8417SOL    HW236888   4.051   2.671  11.391 -2.9869  0.4919 -1.2418
 8418SOL     OW36889   1.723   2.198  12.166 -0.0939 -0.3163 -0.1072
 8418SOL    HW136890   1.813   2.212  12.197 -0.2543 -2.2410  1.1995
 8418SOL    HW236891   1.736   2.218  12.073  2.1611 -0.1923  0.2384
 8419SOL     OW36892   4.156   2.438   6.121  0.3158  0.1351  0.2441
 8419SOL    HW136893   4.240   2.399   6.099  1.3144  1.4055  1.8143
 8419SOL    HW236894   4.152   2.417   6.215  0.5166 -1.7238 -0.1551
 8420SOL     OW36895   2.003   4.679   6.212  0.1535 -0.6339 -0.5338
 8420SOL    HW136896   2.031   4.638   6.294  3.2962 -0.3357 -1.4879
 8420SOL    HW236897   2.078   4.671   6.154  0.2213 -0.5532 -0.4566
 8421SOL     OW36898   1.806   2.920   1.698  0.1031  0.5008  0.2173
 8421SOL    HW136899   1.744   2.941   1.767 -0.6739  1.2634 -0.7134
 8421SOL    HW236900   1.858   2.999   1.684  0.1743  0.2825 -0.7715
 8422SOL     OW36901   0.686   1.402   7.005 -0.2157  0.1855 -0.2017
 8422SOL    HW136902   0.762   1.350   7.030  1.0944  1.0711 -2.3754
 8422SOL    HW236903   0.635   1.394   7.086 -1.9836 -0.4294 -1.3738
 8423SOL     OW36904   0.667   0.121   5.279 -0.5646 -0.3902 -0.1630
 8423SOL    HW136905   0.623   0.129   5.194 -0.3721 -2.8435 -0.5002
 8423SOL    HW236906   0.664   0.212   5.307 -2.8539 -0.2187 -0.9765
 8424SOL     OW36907   0.068   3.752   5.446  0.2441  0.4594  0.2333
 8424SOL    HW136908   4.717   3.757   5.481  0.5894  0.9897  1.0361
 8424SOL    HW236909   0.105   3.827   5.493  0.9204  1.5147 -1.9713
 8425SOL     OW36910   4.259   2.130   8.934 -0.0262 -0.2487 -0.0598
 8425SOL    HW136911   4.298   2.172   8.857 -0.7950 -0.1132 -0.3793
 8425SOL    HW236912   4.340   2.125   8.984 -0.6380  0.1530  0.9607
 8426SOL     OW36913   2.978   0.913  11.385 -0.7497  0.0186  0.4660
 8426SOL    HW136914   2.910   0.944  11.445  0.0160  0.5635  1.0488
 8426SOL    HW236915   2.935   0.935  11.302  1.1684  1.1360 -0.2281
 8427SOL     OW36916   3.285   3.199   3.467  0.3947 -0.1343 -0.2393
 8427SOL    HW136917   3.254   3.287   3.447 -1.4124 -1.0745 -1.5941
 8427SOL    HW236918   3.228   3.145   3.412 -0.5440  0.9550 -0.3147
 8428SOL     OW36919   3.121   2.391   6.554 -0.1143 -0.1536 -0.1048
 8428SOL    HW136920   3.141   2.326   6.622  0.2704  0.0582 -0.0118
 8428SOL    HW236921   3.030   2.372   6.533 -0.0875 -0.4431  0.0324
 8429SOL     OW36922   0.227   1.856  15.099  0.4396 -0.6677 -0.6721
 8429SOL    HW136923   0.316   1.875  15.127  0.2125 -1.2463  0.4240
 8429SOL    HW236924   0.181   1.880  15.180  2.5397 -0.3761  0.4332
 8430SOL     OW36925   1.242   0.458   3.126  0.7421 -0.4078  0.0900
 8430SOL    HW136926   1.245   0.362   3.124  0.0973 -0.4286 -0.1377
 8430SOL    HW236927   1.324   0.492   3.160 -0.0073  1.4125  0.0579
 8431SOL     OW36928   3.503   2.365  14.500 -0.0674 -0.4617 -0.0619
 8431SOL    HW136929   3.541   2.420  14.431  0.6324  0.1387  0.7962
 8431SOL    HW236930   3.526   2.420  14.576 -0.8051  0.0954 -0.2458
 8432SOL     OW36931   0.637   0.855   1.669  0.5123  0.0077 -0.1018
 8432SOL    HW136932   0.703   0.919   1.694 -0.4116  0.6840  0.6197
 8432SOL    HW236933   0.571   0.895   1.611 -0.9268 -1.1480  0.7422
 8433SOL     OW36934   1.088   4.090   6.531 -0.4829 -0.1230  0.4188
 8433SOL    HW136935   1.137   4.073   6.450 -1.6469 -0.1022 -0.2943
 8433SOL    HW236936   1.128   4.173   6.556 -2.4980  0.7094  0.8823
 8434SOL     OW36937   0.401   2.718   9.651  0.1340 -0.5260  0.3551
 8434SOL    HW136938   0.340   2.756   9.588 -2.6269 -2.6767  1.7739
 8434SOL    HW236939   0.483   2.759   9.623  0.0350 -1.5291 -1.4161
 8435SOL     OW36940   4.437   0.277  13.805 -0.1321 -0.1566  0.0453
 8435SOL    HW136941   4.432   0.188  13.839 -2.1657  0.4447  1.3107
 8435SOL    HW236942   4.343   0.288  13.791 -0.0578  2.0575  1.3809
 8436SOL     OW36943   4.232   2.101   3.040 -0.3214 -0.2527 -0.7567
 8436SOL    HW136944   4.232   2.181   2.987  2.7829 -1.2370 -2.2396
 8436SOL    HW236945   4.267   2.034   2.981  0.7413 -1.0880  0.8250
 8437SOL     OW36946   2.856   3.349  14.565  0.6965 -0.3327 -0.0244
 8437SOL    HW136947   2.889   3.432  14.529 -2.0540  1.6486  2.0801
 8437SOL    HW236948   2.827   3.311  14.482  1.1465  0.5942 -0.6008
 8438SOL     OW36949   2.033   0.795   8.859 -0.0183 -0.2224 -0.2071
 8438SOL    HW136950   2.054   0.880   8.897 -1.5968  0.0865 -0.0634
 8438SOL    HW236951   1.966   0.763   8.918 -0.6073 -0.4979 -1.0240
 8439SOL     OW36952   3.404   4.727   6.925 -0.1098 -0.0325 -0.4625
 8439SOL    HW136953   3.338   4.667   6.959  1.0511 -1.7503 -1.2528
 8439SOL    HW236954   3.486   4.678   6.911 -0.0494  0.0306 -0.3295
 8440SOL     OW36955   2.730   4.374   2.420 -0.2369 -0.1278 -0.2438
 8440SOL    HW136956   2.686   4.303   2.467  1.7953 -1.9304 -1.0821
 8440SOL    HW236957   2.815   4.369   2.464 -0.7482  1.8266  0.9429
 8441SOL     OW36958   4.380   1.364   5.966 -0.1840  0.4919 -0.3055
 8441SOL    HW136959   4.320   1.414   5.910 -1.6973 -0.9665  0.0190
 8441SOL    HW236960   4.374   1.273   5.936 -0.5171 -0.0572  1.4294
 8442SOL     OW36961   1.114   3.161  17.663  0.0392 -0.2363  0.1098
 8442SOL    HW136962   1.039   3.194  17.713 -0.7799 -1.9672 -0.0033
 8442SOL    HW236963   1.186   3.215  17.696  0.8329 -1.9981  1.2227
 8443SOL     OW36964   1.687   0.624   5.156 -0.0868 -0.5284 -0.6880
 8443SOL    HW136965   1.603   0.628   5.111  0.0547  1.9145 -0.7460
 8443SOL    HW236966   1.668   0.675   5.235 -0.8600  0.5487 -1.5813
 8444SOL     OW36967   0.656   1.083   8.842  0.0699 -0.1638  0.1707
 8444SOL    HW136968   0.569   1.051   8.867 -0.0875  2.4107  2.9593
 8444SOL    HW236969   0.723   1.029   8.883  0.2338 -0.2544 -0.2231
 8445SOL     OW36970   1.233   4.513   5.417 -0.1073  0.3471  0.6367
 8445SOL    HW136971   1.282   4.595   5.415 -2.3237  1.6701 -1.0757
 8445SOL    HW236972   1.301   4.460   5.376 -2.1082 -1.7318  0.0257
 8446SOL     OW36973   1.720   1.337   6.980 -0.0819  0.3959 -0.0117
 8446SOL    HW136974   1.773   1.381   7.046  0.9498 -2.7257  1.2221
 8446SOL    HW236975   1.721   1.400   6.908 -3.2420 -0.4941 -0.8692
 8447SOL     OW36976   0.786   2.602   6.152 -0.3224  0.7054 -0.2769
 8447SOL    HW136977   0.799   2.554   6.234 -1.1112 -1.6507 -1.5200
 8447SOL    HW236978   0.767   2.691   6.180  1.8460  0.6016  1.5403
 8448SOL     OW36979   1.428   0.504   1.060  0.4052  0.0279 -0.1402
 8448SOL    HW136980   1.484   0.506   0.983 -0.5093  0.3155 -0.7971
 8448SOL    HW236981   1.419   0.409   1.069 -1.1112  0.1693 -0.1486
 8449SOL     OW36982   0.265   2.195   7.113  0.1223 -0.3782 -0.7060
 8449SOL    HW136983   0.276   2.270   7.172 -1.1301  0.1490 -1.1501
 8449SOL    HW236984   0.189   2.144   7.140 -0.5178  0.5676 -0.7224
 8450SOL     OW36985   0.970   0.032   8.217  0.3704 -0.5422 -0.3256
 8450SOL    HW136986   0.933   0.010   8.302 -2.8208  1.2061 -1.2680
 8450SOL    HW236987   0.885   0.023   8.174  0.7185 -1.1383 -0.8972
 8451SOL     OW36988   0.725   3.907   8.057 -0.0534 -0.6040 -0.7375
 8451SOL    HW136989   0.738   3.818   8.089 -0.8987 -0.9463 -1.3335
 8451SOL    HW236990   0.806   3.953   8.079  0.2383 -1.3839 -0.2024
 8452SOL     OW36991   1.456   0.418   9.361 -0.0645  0.0149 -0.2214
 8452SOL    HW136992   1.436   0.510   9.348 -0.1525  0.1884  1.1531
 8452SOL    HW236993   1.466   0.402   9.268 -0.0037 -1.3363  0.0103
 8453SOL     OW36994   4.122   1.583  15.112 -0.4944 -0.2132 -0.1024
 8453SOL    HW136995   4.103   1.672  15.141  1.4404 -0.9691  3.4815
 8453SOL    HW236996   4.042   1.539  15.141 -0.6342 -0.8899 -1.5248
 8454SOL     OW36997   0.562   4.095   2.630 -0.0220  0.0714 -0.5559
 8454SOL    HW136998   0.503   4.122   2.700 -0.2274 -3.3442  0.6052
 8454SOL    HW236999   0.623   4.169   2.633  0.5993 -0.4743  0.3292
 8455SOL     OW37000   0.083   4.378  10.015 -0.0321  0.1617 -0.2644
 8455SOL    HW137001   0.157   4.320   9.999 -1.9357 -1.6888 -2.3142
 8455SOL    HW237002   0.027   4.308  10.049  0.8296 -0.9873 -1.2290
 8456SOL     OW37003   4.521   2.762  15.411  0.2564 -0.2316  0.0972
 8456SOL    HW137004   4.490   2.707  15.339 -0.9344 -0.1267  0.5331
 8456SOL    HW237005   4.566   2.831  15.362  0.8939  1.0743  2.4762
 8457SOL     OW37006   1.300   1.705   5.298 -0.2851  0.5666  0.6620
 8457SOL    HW137007   1.216   1.662   5.288 -0.0373 -0.1649  1.7156
 8457SOL    HW237008   1.283   1.784   5.350 -3.4645  2.3077 -3.1032
 8458SOL     OW37009   4.482   0.388  10.330 -0.3944  0.1426  0.3824
 8458SOL    HW137010   4.425   0.403  10.255 -0.0332  1.0756  0.3056
 8458SOL    HW237011   4.564   0.358  10.292 -1.0431  1.9622 -2.4625
 8459SOL     OW37012   1.582   3.155   2.908 -0.3606 -1.2334 -0.5845
 8459SOL    HW137013   1.597   3.062   2.926  1.0688 -0.7037  1.0450
 8459SOL    HW237014   1.600   3.155   2.814 -0.6756  0.8836 -0.6321
 8460SOL     OW37015   2.529   1.489   3.434 -0.1522  0.2686 -0.0561
 8460SOL    HW137016   2.470   1.451   3.499  1.5950 -1.9668  0.2135
 8460SOL    HW237017   2.559   1.421   3.374  0.6966 -0.4000  1.1410
 8461SOL     OW37018   3.842   0.611  14.213  1.0903  0.0986 -0.0510
 8461SOL    HW137019   3.903   0.685  14.214  0.2926  0.7734 -1.7109
 8461SOL    HW237020   3.848   0.581  14.123  0.1555 -3.7986  1.1908
 8462SOL     OW37021   0.330   1.069  15.273  0.2224 -0.6577  0.0422
 8462SOL    HW137022   0.340   1.164  15.269  0.2685 -0.6401  0.5475
 8462SOL    HW237023   0.408   1.039  15.226 -0.0964 -0.9321 -0.3042
 8463SOL     OW37024   2.206   0.257   5.175 -0.7191  0.6870 -0.1161
 8463SOL    HW137025   2.288   0.216   5.202 -2.5283 -2.5511  0.4196
 8463SOL    HW237026   2.143   0.220   5.236  0.0079 -1.6329 -0.7753
 8464SOL     OW37027   1.335   2.641  13.379  0.1887 -0.1756 -0.0916
 8464SOL    HW137028   1.398   2.655  13.449  0.3168  0.3191 -0.3094
 8464SOL    HW237029   1.312   2.733  13.364  0.2174 -0.1493  0.0302
 8465SOL     OW37030   2.561   1.429   0.829 -0.6892 -1.0600 -0.3934
 8465SOL    HW137031   2.595   1.453   0.743 -0.2240  1.6819  0.5511
 8465SOL    HW237032   2.483   1.384   0.799 -1.4769 -0.4281  0.6944
 8466SOL     OW37033   3.315   0.589   2.769 -0.3558 -0.1993 -0.8230
 8466SOL    HW137034   3.382   0.528   2.737  1.1317  1.0634 -0.1296
 8466SOL    HW237035   3.346   0.666   2.722 -1.1905 -0.1220 -1.2388
 8467SOL     OW37036   3.083   3.696   4.304  0.0609 -0.0750 -0.1303
 8467SOL    HW137037   3.004   3.745   4.329 -0.3678 -1.7337  1.6816
 8467SOL    HW237038   3.041   3.612   4.285  0.8376 -0.4124 -0.3703
 8468SOL     OW37039   1.801   3.241   5.477  0.2891 -0.0543  0.5091
 8468SOL    HW137040   1.841   3.323   5.448  0.0795 -0.1647 -0.0897
 8468SOL    HW237041   1.734   3.286   5.528 -0.4577 -0.9952  0.3619
 8469SOL     OW37042   2.108   2.572   8.002  0.2846  0.1083 -0.3201
 8469SOL    HW137043   2.168   2.508   8.040 -1.0212 -1.2145 -0.4882
 8469SOL    HW237044   2.151   2.603   7.922  2.1906  1.4625  1.2420
 8470SOL     OW37045   0.632   1.025  11.767  0.0294 -0.4741 -0.2610
 8470SOL    HW137046   0.667   1.060  11.685  3.7791 -1.0374  1.0788
 8470SOL    HW237047   0.698   1.053  11.831 -1.2594 -0.9553  1.2914
 8471SOL     OW37048   3.204   3.136   2.340 -0.5135  0.7452 -0.0538
 8471SOL    HW137049   3.175   3.056   2.296 -0.8789  0.4369  0.7493
 8471SOL    HW237050   3.292   3.144   2.302 -0.0760  0.6481  0.9383
 8472SOL     OW37051   3.628   3.572  14.945  0.0046 -0.4266  0.3021
 8472SOL    HW137052   3.658   3.499  14.891  0.2407 -0.6475  0.7311
 8472SOL    HW237053   3.564   3.538  15.008 -0.3919  0.6523  0.4789
 8473SOL     OW37054   2.686   3.642   4.757  0.6187  0.8957  0.4096
 8473SOL    HW137055   2.617   3.708   4.752 -0.9505 -0.8451 -0.5389
 8473SOL    HW237056   2.660   3.592   4.835 -1.2218  1.3847  0.0914
 8474SOL     OW37057   0.444   2.963  14.060 -0.3073 -0.2972  0.0298
 8474SOL    HW137058   0.535   2.981  14.039  0.0017 -0.4503  1.2488
 8474SOL    HW237059   0.417   3.044  14.102 -0.3843  0.1333 -0.8455
 8475SOL     OW37060   3.901   1.679   5.596 -0.7619 -0.2022 -0.4491
 8475SOL    HW137061   3.812   1.708   5.619 -0.8108  0.5706 -1.6356
 8475SOL    HW237062   3.955   1.754   5.621 -1.4000  0.4230 -0.9224
 8476SOL     OW37063   3.330   2.169   7.134  0.0586 -0.3261 -0.5080
 8476SOL    HW137064   3.334   2.140   7.043 -1.7741  0.1828 -0.7633
 8476SOL    HW237065   3.279   2.250   7.126  0.4965  0.2612  2.5489
 8477SOL     OW37066   0.609   4.327   6.942 -0.1383  0.0214 -0.0061
 8477SOL    HW137067   0.698   4.315   6.907  0.1886  0.5298  0.6565
 8477SOL    HW237068   0.580   4.417   6.925 -1.5641 -0.5444 -0.5576
 8478SOL     OW37069   3.906   3.398   4.920 -0.3268  0.2070 -0.1906
 8478SOL    HW137070   3.888   3.483   4.961  0.5104  0.0296  0.5277
 8478SOL    HW237071   3.849   3.396   4.843  1.5186 -0.3240 -1.5575
 8479SOL     OW37072   1.910   3.067   1.348 -0.0469  0.2458  0.1646
 8479SOL    HW137073   1.966   3.089   1.274 -0.4260  0.6828  0.0097
 8479SOL    HW237074   1.973   3.008   1.389  0.7148 -0.8466 -2.5781
 8480SOL     OW37075   1.394   1.348   3.190 -0.1045  0.8192 -0.0611
 8480SOL    HW137076   1.335   1.413   3.229  0.3335  1.1753 -0.0012
 8480SOL    HW237077   1.379   1.282   3.257  1.1924 -1.1785 -1.7282
 8481SOL     OW37078   0.525   2.065   4.388 -0.2547  0.3577 -0.0291
 8481SOL    HW137079   0.507   2.070   4.482  0.0353  0.7234  0.0043
 8481SOL    HW237080   0.435   2.062   4.356 -0.3077 -0.7345  0.1974
 8482SOL     OW37081   1.976   2.959   0.525  0.2510 -0.0523 -0.3660
 8482SOL    HW137082   1.949   2.868   0.536  1.1823 -0.4117 -1.0257
 8482SOL    HW237083   1.895   3.009   0.535  1.1942  1.4625 -0.1931
 8483SOL     OW37084   2.291   2.205   6.645 -0.2437 -0.7957  0.0646
 8483SOL    HW137085   2.305   2.299   6.649  1.6141 -0.9905 -2.1129
 8483SOL    HW237086   2.260   2.195   6.555  2.7026  0.4911 -1.0974
 8484SOL     OW37087   1.944   1.421  15.175  0.2594 -0.2888  0.0221
 8484SOL    HW137088   1.979   1.504  15.144 -0.9886  0.3662  0.3739
 8484SOL    HW237089   1.855   1.445  15.200  1.6877  3.5884  1.3111
 8485SOL     OW37090   1.654   2.896   7.531 -0.1098 -0.2788 -0.4619
 8485SOL    HW137091   1.719   2.943   7.584  0.1827  1.2226 -2.1751
 8485SOL    HW237092   1.672   2.803   7.544  0.1018  0.0457  1.5794
 8486SOL     OW37093   1.132   3.836   3.207  0.1447 -0.0719  0.4927
 8486SOL    HW137094   1.151   3.928   3.187  0.8754 -0.2713  0.2875
 8486SOL    HW237095   1.102   3.802   3.124 -0.3390  0.0761  0.6066
 8487SOL     OW37096   2.679   2.641  15.030  0.1084 -0.7074  0.0920
 8487SOL    HW137097   2.601   2.636  14.974  0.8652  2.1021 -1.2331
 8487SOL    HW237098   2.643   2.596  15.106  1.1579  1.0002  1.6157
 8488SOL     OW37099   2.119   2.648   5.642 -0.0471 -0.3499 -0.5036
 8488SOL    HW137100   2.084   2.559   5.640  2.3971 -1.2227 -4.2776
 8488SOL    HW237101   2.043   2.701   5.618 -1.1608 -0.7782  2.1382
 8489SOL     OW37102   3.054   0.054   9.925 -0.3545 -0.2226 -0.2498
 8489SOL    HW137103   2.961   0.072   9.942 -0.1725 -1.6316  2.1639
 8489SOL    HW237104   3.090   0.142   9.912  0.2650 -0.6246 -1.2718
 8490SOL     OW37105   0.743   1.124   2.653 -0.4660 -0.2722  0.3417
 8490SOL    HW137106   0.781   1.052   2.703  0.8095  1.3563  1.7263
 8490SOL    HW237107   0.758   1.199   2.711  2.7747  0.1142 -1.0103
 8491SOL     OW37108   1.474   1.979   3.589  0.6757  0.0100 -0.1019
 8491SOL    HW137109   1.505   2.067   3.570 -1.4986  0.9721  0.7772
 8491SOL    HW237110   1.533   1.979   3.665 -0.5539 -1.1482  0.8541
 8492SOL     OW37111   0.418   2.063   4.923  0.4643 -0.3487  0.5509
 8492SOL    HW137112   0.344   2.113   4.957  0.9677  1.5081 -1.1318
 8492SOL    HW237113   0.488   2.092   4.983  1.2862  1.7360 -1.4369
 8493SOL     OW37114   0.220   2.835   9.489 -0.0219  0.3062 -0.1080
 8493SOL    HW137115   0.154   2.903   9.483  0.2357  0.7669  2.1192
 8493SOL    HW237116   0.170   2.757   9.464  0.6271 -0.9373  2.4728
 8494SOL     OW37117   2.979   0.436   4.941  0.0744  0.2705 -0.6241
 8494SOL    HW137118   2.997   0.465   5.031 -3.0923  0.1528  0.0599
 8494SOL    HW237119   2.959   0.345   4.960  2.3401 -0.3329 -1.1803
 8495SOL     OW37120   3.139   3.668   4.610  0.1783  0.0966 -0.7302
 8495SOL    HW137121   3.142   3.690   4.517  1.3187  0.0329 -0.7080
 8495SOL    HW237122   3.224   3.688   4.649  1.0470  0.3767 -2.7585
 8496SOL     OW37123   1.639   0.783   9.357  0.1226 -0.0697 -0.1176
 8496SOL    HW137124   1.565   0.737   9.397  0.3424 -0.2280  0.1041
 8496SOL    HW237125   1.706   0.715   9.345 -2.8345 -2.6251 -2.3791
 8497SOL     OW37126   3.935   3.740   4.820  0.0210  0.0328  0.1178
 8497SOL    HW137127   3.976   3.820   4.854  0.0183 -0.2657  0.8230
 8497SOL    HW237128   3.870   3.718   4.888  0.1104  1.6014  0.7214
 8498SOL     OW37129   2.632   2.610   2.534 -0.1101  0.2928  0.1954
 8498SOL    HW137130   2.642   2.602   2.439 -1.6702  0.6961  0.0012
 8498SOL    HW237131   2.617   2.522   2.567  3.3157 -0.0734  0.8121
 8499SOL     OW37132   1.803   2.035   5.948 -0.2333  0.2129  0.0155
 8499SOL    HW137133   1.732   2.007   5.890 -1.3269  2.8935  0.0704
 8499SOL    HW237134   1.843   1.960   5.993 -1.4538  0.9467  2.3152
 8500SOL     OW37135   0.128   3.368   5.973 -0.5331  0.4726  0.4179
 8500SOL    HW137136   0.111   3.459   5.998 -1.4881  0.1073  1.0830
 8500SOL    HW237137   0.051   3.359   5.916  0.2726 -0.2148 -0.5562
 8501SOL     OW37138   2.678   3.778   0.527  0.0637  0.0761 -0.1549
 8501SOL    HW137139   2.711   3.689   0.522  1.5633  0.5699  1.0692
 8501SOL    HW237140   2.640   3.777   0.615 -0.2531  0.6312 -0.2781
 8502SOL     OW37141   1.078   0.002   3.357 -0.1775 -0.2087 -0.1120
 8502SOL    HW137142   1.090   4.684   3.434  0.0353  0.4514  0.3421
 8502SOL    HW237143   1.158   0.055   3.360  1.2483 -2.4010  0.9363
 8503SOL     OW37144   3.213   3.370   8.320 -0.2715  0.3153 -0.1864
 8503SOL    HW137145   3.214   3.465   8.312 -1.9956  0.4509  1.0610
 8503SOL    HW237146   3.268   3.364   8.398 -1.3935 -0.1497  0.5860
 8504SOL     OW37147   1.475   2.971   6.537 -0.1204 -0.6820 -0.2285
 8504SOL    HW137148   1.473   2.888   6.585 -0.8031 -0.1640  0.6375
 8504SOL    HW237149   1.394   2.989   6.488  0.7929  2.4958 -0.5484
 8505SOL     OW37150   2.874   2.406   1.386  0.3217 -0.3280  0.0662
 8505SOL    HW137151   2.821   2.485   1.399  0.9793  0.1357 -0.1031
 8505SOL    HW237152   2.950   2.449   1.348  0.4700  0.3255  1.0964
 8506SOL     OW37153   0.367   1.849  11.564 -0.1484  0.0791  0.3964
 8506SOL    HW137154   0.377   1.811  11.477 -2.2106 -0.0071  0.1972
 8506SOL    HW237155   0.282   1.892  11.557 -0.1737  0.1244  0.9935
 8507SOL     OW37156   3.023   3.491  17.683  0.1111  0.1287  0.1061
 8507SOL    HW137157   2.971   3.413  17.665  0.6038 -0.2589  0.3435
 8507SOL    HW237158   2.994   3.507   0.020  0.5681  1.3274  0.0393
 8508SOL     OW37159   4.074   1.528   7.979 -0.7724  0.3364 -0.0615
 8508SOL    HW137160   4.060   1.467   7.907 -0.3240 -1.1041  1.0510
 8508SOL    HW237161   3.996   1.583   7.977  0.0307  1.6099  3.0623
 8509SOL     OW37162   1.688   0.292   2.711  0.3868 -0.2127 -0.6536
 8509SOL    HW137163   1.714   0.203   2.685  0.4888 -0.2024 -0.5858
 8509SOL    HW237164   1.718   0.297   2.801  3.4001  0.0159 -1.6590
 8510SOL     OW37165   1.728   0.215  13.095  0.3521 -0.2612  0.1562
 8510SOL    HW137166   1.809   0.165  13.101 -0.6762 -1.9458 -0.1701
 8510SOL    HW237167   1.682   0.165  13.163 -2.7485  2.3813  0.0303
 8511SOL     OW37168   2.149   3.459   5.071 -0.2664 -0.4482  0.1251
 8511SOL    HW137169   2.104   3.465   5.155  0.8424 -0.1647  0.7035
 8511SOL    HW237170   2.175   3.551   5.061 -0.0252 -0.4245  1.0159
 8512SOL     OW37171   2.806   1.952   8.336 -0.0462 -0.2420 -0.5437
 8512SOL    HW137172   2.835   1.895   8.265 -0.4059 -0.1551 -0.7625
 8512SOL    HW237173   2.768   1.883   8.391 -0.1918 -1.5819 -2.3397
 8513SOL     OW37174   2.377   3.446   4.781 -0.0885 -0.2770  0.3371
 8513SOL    HW137175   2.305   3.439   4.718  0.8810  1.0366 -0.9340
 8513SOL    HW237176   2.351   3.524   4.830 -1.3073 -1.6981  1.9565
 8514SOL     OW37177   4.307   2.293   7.595 -0.2834 -0.6149  0.4357
 8514SOL    HW137178   4.229   2.237   7.602 -0.1556 -0.8674 -0.1161
 8514SOL    HW237179   4.370   2.223   7.580 -0.4619 -0.5996 -0.4109
 8515SOL     OW37180   3.074   1.728   2.606  0.5138  0.3648  0.4073
 8515SOL    HW137181   3.106   1.707   2.694  1.4898 -1.1998 -0.3245
 8515SOL    HW237182   2.992   1.678   2.607  0.4000  0.5865  1.9484
 8516SOL     OW37183   3.163   3.984   1.160 -0.6659  0.0016 -0.0383
 8516SOL    HW137184   3.255   3.982   1.132 -0.4179 -0.5910  0.8287
 8516SOL    HW237185   3.153   4.062   1.213 -1.8029  0.0857 -0.3688
 8517SOL     OW37186   1.939   4.037   5.232 -0.8034 -0.1632  1.0067
 8517SOL    HW137187   2.029   4.042   5.201 -0.0151 -1.4901  3.0740
 8517SOL    HW237188   1.901   4.120   5.202 -2.0858 -0.5861  1.4267
 8518SOL     OW37189   1.916   3.352   2.346 -0.3917  0.2044 -0.3283
 8518SOL    HW137190   1.984   3.305   2.298 -1.1320  0.9194 -2.0551
 8518SOL    HW237191   1.842   3.291   2.344 -0.2399 -0.0174  0.7979
 8519SOL     OW37192   3.354   4.205   1.281 -0.5345 -0.1355  0.0932
 8519SOL    HW137193   3.374   4.150   1.357  1.1433  0.4393  0.0780
 8519SOL    HW237194   3.433   4.228   1.233 -1.0263 -1.2887 -1.2411
 8520SOL     OW37195   2.637   1.927   1.697 -0.3890  0.0009 -0.0671
 8520SOL    HW137196   2.702   1.857   1.690 -0.8758 -0.6233  1.7550
 8520SOL    HW237197   2.570   1.883   1.644  1.6588 -0.1054 -2.5738
 8521SOL     OW37198   3.263   0.670   6.301 -0.0053  0.1506  0.1475
 8521SOL    HW137199   3.287   0.757   6.268  1.0069 -0.1170  0.2049
 8521SOL    HW237200   3.348   0.628   6.290 -0.0143  0.5054 -1.2755
 8522SOL     OW37201   1.709   0.940   3.514 -0.3429 -0.7488 -0.5583
 8522SOL    HW137202   1.756   1.023   3.524  3.9942 -2.9930 -2.3705
 8522SOL    HW237203   1.645   0.942   3.585  0.4722  1.2984  0.1281
 8523SOL     OW37204   1.033   1.499  16.495  0.3082  0.1045 -0.5665
 8523SOL    HW137205   0.959   1.486  16.436  1.6323 -1.6810 -1.8158
 8523SOL    HW237206   1.101   1.461  16.440  0.4933 -0.0269 -0.2482
 8524SOL     OW37207   2.201   0.009   8.631 -0.4796 -0.0879 -0.8367
 8524SOL    HW137208   2.163   4.691   8.564 -0.3160 -1.4001  0.1780
 8524SOL    HW237209   2.262   4.685   8.672  0.7112  2.3642  1.1002
 8525SOL     OW37210   3.421   4.062   1.505 -0.5460 -0.3016  0.3110
 8525SOL    HW137211   3.495   4.112   1.540 -0.6567 -0.0580  0.1933
 8525SOL    HW237212   3.411   3.994   1.572  2.5313  1.0034  2.1245
 8526SOL     OW37213   0.921   1.191   2.126  0.8985 -0.2999  0.7451
 8526SOL    HW137214   0.869   1.118   2.093 -0.1975  0.6109  0.4671
 8526SOL    HW237215   0.922   1.185   2.221  0.9726  0.6148  0.8031
 8527SOL     OW37216   4.069   1.370   0.653 -0.4290 -0.2980  0.0422
 8527SOL    HW137217   3.978   1.365   0.681  0.3516 -0.0323  2.5618
 8527SOL    HW237218   4.046   1.396   0.563 -0.3580 -0.4331 -0.0149
 8528SOL     OW37219   4.052   2.280   6.881 -0.0243 -0.1321  0.4148
 8528SOL    HW137220   4.076   2.326   6.962  0.4000 -0.8762  0.7078
 8528SOL    HW237221   4.138   2.262   6.845 -1.4961  1.4458 -3.8082
 8529SOL     OW37222   3.738   4.376   6.553 -0.1137  0.0720  0.4011
 8529SOL    HW137223   3.647   4.356   6.576 -0.1470  0.4209  0.5728
 8529SOL    HW237224   3.773   4.365   6.641  0.5306  0.5882  0.2115
 8530SOL     OW37225   0.401   1.835  16.939 -0.4130 -0.5382 -0.0163
 8530SOL    HW137226   0.481   1.804  16.981  0.4796  1.2237 -0.4074
 8530SOL    HW237227   0.404   1.921  16.980  2.0542 -1.4554  1.6473
 8531SOL     OW37228   0.137   2.311   2.676 -0.4628 -0.3961 -0.4360
 8531SOL    HW137229   0.145   2.267   2.591 -1.3586  0.8094 -1.1385
 8531SOL    HW237230   0.122   2.238   2.737  0.0218 -1.5828 -1.7283
 8532SOL     OW37231   3.340   0.262   1.632  0.2391 -0.0968 -0.3157
 8532SOL    HW137232   3.433   0.248   1.616  0.4876 -1.2147  2.0473
 8532SOL    HW237233   3.326   0.221   1.717 -1.1837 -2.1581 -1.5359
 8533SOL     OW37234   1.875   2.136   4.966  0.4895 -0.2301 -0.1911
 8533SOL    HW137235   1.884   2.163   4.875 -1.2547 -1.6616 -0.8005
 8533SOL    HW237236   1.884   2.218   5.014 -0.2668  0.2309 -0.8393
 8534SOL     OW37237   3.793   4.128   3.218 -0.4118  0.0942 -0.4150
 8534SOL    HW137238   3.708   4.151   3.180 -0.2610  0.0899 -0.7621
 8534SOL    HW237239   3.782   4.130   3.313 -0.3303 -0.1519 -0.4018
 8535SOL     OW37240   3.186   1.206   7.647 -0.3971 -0.6297  0.2668
 8535SOL    HW137241   3.148   1.285   7.609  0.9068  0.5569  1.4845
 8535SOL    HW237242   3.210   1.161   7.566  0.0509  1.7830 -0.9403
 8536SOL     OW37243   0.692   3.370   3.117 -0.1644  0.2948 -0.2201
 8536SOL    HW137244   0.602   3.361   3.087 -0.6935 -0.6788  1.6705
 8536SOL    HW237245   0.712   3.292   3.170  1.9550  0.8341 -0.2211
 8537SOL     OW37246   0.300   1.033   7.338 -0.4815  0.1599 -0.4421
 8537SOL    HW137247   0.337   1.118   7.361  1.4906 -1.1722  1.3954
 8537SOL    HW237248   0.369   0.970   7.361 -0.3410  1.0245  1.4761
 8538SOL     OW37249   4.504   2.836   5.443  0.2207 -0.0094  0.7706
 8538SOL    HW137250   4.595   2.848   5.415  0.6277 -3.7197  0.5309
 8538SOL    HW237251   4.486   2.744   5.424 -2.9768  0.4703  1.4718
 8539SOL     OW37252   1.151   4.167   9.008 -0.6748  0.4735 -0.3223
 8539SOL    HW137253   1.210   4.229   8.965  0.4212 -0.7950 -0.6494
 8539SOL    HW237254   1.110   4.119   8.936 -2.3877  2.9268 -1.0108
 8540SOL     OW37255   3.199   4.026   3.795  1.1093  0.0555  0.2810
 8540SOL    HW137256   3.171   4.081   3.722  1.0500 -0.6138 -0.1966
 8540SOL    HW237257   3.264   3.971   3.751  0.2012 -1.4489  0.8450
 8541SOL     OW37258   4.678   0.571   6.434  0.1184  0.0576  0.2875
 8541SOL    HW137259   4.688   0.523   6.352  0.2510  0.1705  0.2367
 8541SOL    HW237260   4.729   0.508   6.484 -0.7984  1.0201  2.4360
 8542SOL     OW37261   2.836   2.385   9.031  0.6202  0.0509  0.4112
 8542SOL    HW137262   2.830   2.379   8.936  1.4265  0.2237  0.3464
 8542SOL    HW237263   2.844   2.474   9.064  0.4080 -0.6038  2.2224
 8543SOL     OW37264   2.320   2.551  12.896 -0.6582 -0.0489 -0.3238
 8543SOL    HW137265   2.344   2.525  12.807 -0.6917 -0.8939 -0.0916
 8543SOL    HW237266   2.410   2.565  12.925  0.1741 -1.2538 -2.2844
 8544SOL     OW37267   1.198   4.632   7.792  0.1247  0.1078  0.4412
 8544SOL    HW137268   1.268   4.681   7.834  1.2851 -0.1794 -1.1416
 8544SOL    HW237269   1.155   4.588   7.865  0.5694  0.1011  0.6946
 8545SOL     OW37270   4.666   0.230   3.715 -0.3865 -0.1711 -0.0237
 8545SOL    HW137271   4.690   0.137   3.708  0.2819  0.0059 -0.0236
 8545SOL    HW237272   4.659   0.232   3.810  0.8538 -0.1346  0.0688
 8546SOL     OW37273   1.663   3.984  12.038  0.2345 -0.0482 -0.4152
 8546SOL    HW137274   1.575   3.947  12.042  0.8236 -1.3914  0.2633
 8546SOL    HW237275   1.708   3.930  12.103 -2.0949  0.0810  1.2639
 8547SOL     OW37276   2.553   2.626   5.029 -0.1531 -0.3209  0.7897
 8547SOL    HW137277   2.610   2.587   4.963  0.7994  2.1839  0.1072
 8547SOL    HW237278   2.615   2.691   5.061 -0.8297  0.6146  0.2253
 8548SOL     OW37279   0.492   4.715  10.789  0.1073  0.1465 -0.5660
 8548SOL    HW137280   0.430   4.738  10.858  2.6081  1.1955  1.3474
 8548SOL    HW237281   0.554   4.660  10.836  0.7250 -1.8104 -3.6833
 8549SOL     OW37282   1.822   2.253  11.906  0.1103  0.8044 -0.1199
 8549SOL    HW137283   1.903   2.206  11.888 -0.5037 -1.1723  2.3217
 8549SOL    HW237284   1.772   2.221  11.830  2.7794 -0.4866 -1.3096
 8550SOL     OW37285   2.546   0.054   9.738 -0.1026 -0.4816  0.0651
 8550SOL    HW137286   2.502   4.728   9.794 -1.1435 -0.4365 -0.7203
 8550SOL    HW237287   2.478   0.071   9.673 -1.1558  1.5699  1.7044
 8551SOL     OW37288   3.872   3.703   7.833 -0.4037 -0.7272 -0.0637
 8551SOL    HW137289   3.877   3.767   7.904  0.2916 -0.5626 -0.2546
 8551SOL    HW237290   3.830   3.750   7.761  0.3536  0.6681  0.3991
 8552SOL     OW37291   2.916   1.677   8.652 -0.1579  0.2707 -0.0047
 8552SOL    HW137292   2.850   1.611   8.631  2.1512 -1.2770 -2.4139
 8552SOL    HW237293   2.941   1.691   8.561  0.1869  1.4334  0.2690
 8553SOL     OW37294   0.505   4.496   0.816  0.0439 -0.5193  0.2072
 8553SOL    HW137295   0.411   4.502   0.802  0.2719 -0.8632 -1.3954
 8553SOL    HW237296   0.502   4.495   0.912  1.3463  1.1828  0.2774
 8554SOL     OW37297   3.182   0.332   7.121  0.4584  0.1722 -0.0581
 8554SOL    HW137298   3.253   0.270   7.108 -1.1675 -1.3440 -1.7140
 8554SOL    HW237299   3.191   0.380   7.039  1.3342 -0.6411 -0.4317
 8555SOL     OW37300   3.530   2.628  12.642 -0.6068  0.1719 -0.5579
 8555SOL    HW137301   3.512   2.656  12.553 -1.6372  0.9994 -0.0895
 8555SOL    HW237302   3.520   2.536  12.616  0.0896  0.3721 -1.5150
 8556SOL     OW37303   1.535   2.360  16.905 -0.1055  0.2699 -0.7074
 8556SOL    HW137304   1.571   2.375  16.818 -1.6596 -0.2080 -1.4487
 8556SOL    HW237305   1.531   2.264  16.910  1.6653  0.3072  1.4815
 8557SOL     OW37306   4.530   4.710   7.427  0.3364  0.2148 -0.4261
 8557SOL    HW137307   4.525   4.691   7.333 -1.0059  1.7123 -0.6573
 8557SOL    HW237308   4.485   0.055   7.441 -1.4951 -0.6058 -1.5094
 8558SOL     OW37309   4.380   3.828  17.099 -0.6816  0.7094 -0.1554
 8558SOL    HW137310   4.446   3.897  17.096  1.7377 -1.6418 -0.2983
 8558SOL    HW237311   4.384   3.807  17.192 -1.9748  2.0509  0.2099
 8559SOL     OW37312   4.244   3.283   4.107  1.0130  0.4244 -0.5451
 8559SOL    HW137313   4.263   3.374   4.128 -2.3621  1.4023 -1.8342
 8559SOL    HW237314   4.159   3.288   4.065 -0.5020 -0.7565  2.3538
 8560SOL     OW37315   0.836   2.005   0.124  0.1627  0.2701 -0.1880
 8560SOL    HW137316   0.826   1.926   0.070 -1.4079 -0.6848  1.4960
 8560SOL    HW237317   0.785   2.070   0.076 -1.0979  0.8572  1.9558
 8561SOL     OW37318   4.562   0.124   8.638  0.1354 -0.4898  0.1699
 8561SOL    HW137319   4.492   0.090   8.583 -0.5060 -0.3433  0.8905
 8561SOL    HW237320   4.521   0.197   8.685  2.2269 -0.4808  1.9842
 8562SOL     OW37321   3.722   2.611  11.616  0.5040  0.1592 -0.0278
 8562SOL    HW137322   3.763   2.552  11.552 -1.9531 -1.1472 -0.4231
 8562SOL    HW237323   3.637   2.565  11.620  2.0641 -2.7119  0.1810
 8563SOL     OW37324   1.832   3.748  17.662 -0.1772  0.7741 -0.0320
 8563SOL    HW137325   1.849   3.686  17.591 -1.8844 -0.0863  0.3255
 8563SOL    HW237326   1.910   3.803  17.651 -0.6290  1.2933 -0.6522
 8564SOL     OW37327   0.268   3.534   1.364  0.4134 -0.3071 -0.4103
 8564SOL    HW137328   0.349   3.529   1.415 -1.0223 -0.2009  1.8330
 8564SOL    HW237329   0.211   3.469   1.404  0.4405  0.2938  0.5879
 8565SOL     OW37330   1.055   3.171   8.564 -0.4251 -0.3265  0.0606
 8565SOL    HW137331   1.017   3.088   8.592 -1.8812 -0.1928 -1.5459
 8565SOL    HW237332   1.004   3.182   8.484 -0.9400  0.9564  0.5482
 8566SOL     OW37333   2.885   1.782   0.231  0.0784  0.0857  0.0155
 8566SOL    HW137334   2.807   1.825   0.197  0.1503  0.2333  0.0375
 8566SOL    HW237335   2.903   1.840   0.306  1.4588  0.8072 -0.8832
 8567SOL     OW37336   1.186   2.239   6.340  0.2817  0.4634 -0.0054
 8567SOL    HW137337   1.224   2.156   6.313 -1.0563  0.0853 -0.7196
 8567SOL    HW237338   1.247   2.276   6.404  0.1345 -0.7949  0.8516
 8568SOL     OW37339   2.751   1.821  15.677  0.3197  0.4520  0.4151
 8568SOL    HW137340   2.706   1.789  15.598 -0.3896 -2.4898  2.0456
 8568SOL    HW237341   2.779   1.907  15.644 -0.6730 -0.2782 -2.3860
 8569SOL     OW37342   3.807   2.740   9.078  0.3918  0.4239  0.3564
 8569SOL    HW137343   3.786   2.825   9.117 -2.4527 -0.6082  1.1477
 8569SOL    HW237344   3.724   2.693   9.091  1.4459 -1.7980 -1.0115
 8570SOL     OW37345   1.752   0.021   2.768 -0.6182 -0.2820 -0.1915
 8570SOL    HW137346   1.756   4.685   2.829  1.4359  0.0007  0.0271
 8570SOL    HW237347   1.660   0.040   2.752  0.1617  2.4774 -1.4171
 8571SOL     OW37348   2.352   1.218   8.057 -0.0851  0.4716 -0.6161
 8571SOL    HW137349   2.398   1.162   7.996  0.4077  0.3655 -0.1450
 8571SOL    HW237350   2.421   1.237   8.120  0.6821 -0.2445 -1.2579
 8572SOL     OW37351   2.560   2.234   9.021 -0.3237 -0.0341 -0.4190
 8572SOL    HW137352   2.553   2.285   8.940  1.2384 -0.5055 -0.8658
 8572SOL    HW237353   2.589   2.153   8.978 -1.5485 -1.2158  0.9831
 8573SOL     OW37354   1.385   0.288   3.708 -0.0770  0.0221 -0.3971
 8573SOL    HW137355   1.385   0.370   3.659  0.0965  0.6683  0.6888
 8573SOL    HW237356   1.292   0.274   3.693 -0.2536 -0.0874  0.8697
 8574SOL     OW37357   4.701   0.822   1.059 -0.2201 -0.2813 -0.4359
 8574SOL    HW137358   0.028   0.757   1.035  0.9260  0.1848  1.3750
 8574SOL    HW237359   4.729   0.840   1.149  1.1898 -3.3306 -0.2623
 8575SOL     OW37360   0.544   4.399   6.500 -0.1435  0.6599 -0.2762
 8575SOL    HW137361   0.493   4.318   6.506  0.6155  0.1247 -1.0000
 8575SOL    HW237362   0.510   4.429   6.416 -0.0177  1.8187  0.0942
 8576SOL     OW37363   3.877   1.179   2.445 -0.7701 -0.4812  0.3728
 8576SOL    HW137364   3.822   1.215   2.375 -0.4450  1.8433  1.3114
 8576SOL    HW237365   3.903   1.089   2.424 -3.2879 -1.1904  0.2913
 8577SOL     OW37366   3.819   0.235   3.150 -0.3488 -0.3394 -0.1835
 8577SOL    HW137367   3.756   0.164   3.162  0.9916 -1.6614 -0.9751
 8577SOL    HW237368   3.780   0.281   3.224 -0.1606 -0.3929 -0.0499
 8578SOL     OW37369   0.370   3.717   3.035  0.3849  0.0274  0.0079
 8578SOL    HW137370   0.456   3.704   3.075  0.4573  2.8348  0.7613
 8578SOL    HW237371   0.332   3.777   3.100  1.1902 -0.0937  0.5938
 8579SOL     OW37372   1.550   1.378   3.997  0.4622 -0.1155  0.0982
 8579SOL    HW137373   1.496   1.322   4.052 -1.5236  1.1101 -0.5970
 8579SOL    HW237374   1.632   1.356   4.041  0.5388  1.7488  0.9206
 8580SOL     OW37375   3.669   0.440   1.058 -0.0697  0.3461 -0.5665
 8580SOL    HW137376   3.684   0.353   1.020 -1.2337 -0.8654  1.7188
 8580SOL    HW237377   3.730   0.496   1.009 -0.1435 -0.1225 -1.2066
 8581SOL     OW37378   2.378   2.291  17.162  0.2372 -0.4644  0.0965
 8581SOL    HW137379   2.290   2.285  17.201 -0.5173 -1.0337 -1.7290
 8581SOL    HW237380   2.363   2.377  17.123 -0.2776 -0.6938 -0.2055
 8582SOL     OW37381   4.286   2.907   8.284  0.5445  0.1630  0.7658
 8582SOL    HW137382   4.374   2.906   8.323  0.7346 -0.1180  0.3230
 8582SOL    HW237383   4.283   3.000   8.264  3.1233  0.0061 -0.4443
 8583SOL     OW37384   0.823   0.653  11.640  0.5534 -0.0251 -0.2443
 8583SOL    HW137385   0.794   0.563  11.622 -0.0733  0.2717 -0.6936
 8583SOL    HW237386   0.900   0.643  11.696 -0.7314  0.2285  1.5376
 8584SOL     OW37387   3.859   0.381   6.185 -0.1938 -0.4201 -0.4724
 8584SOL    HW137388   3.764   0.378   6.174 -0.3256 -2.2212  1.1914
 8584SOL    HW237389   3.878   0.335   6.104 -2.3004  0.2404 -1.3531
 8585SOL     OW37390   1.232   1.322   5.466  0.3374  0.0351 -0.1123
 8585SOL    HW137391   1.237   1.388   5.535 -0.1548 -1.7718  1.6583
 8585SOL    HW237392   1.244   1.238   5.510  1.2048  0.2033 -0.0331
 8586SOL     OW37393   4.068   1.194   0.091  0.3071  0.3226  0.3001
 8586SOL    HW137394   4.036   1.182   0.002  0.1149  1.7114  0.1822
 8586SOL    HW237395   4.005   1.259   0.124 -1.1079 -1.4212  1.0146
 8587SOL     OW37396   4.121   3.328   5.992  0.1638  0.0792  0.3935
 8587SOL    HW137397   4.079   3.394   6.047  0.6439  0.2708  0.5308
 8587SOL    HW237398   4.072   3.325   5.910  0.3743 -0.7497  0.2964
 8588SOL     OW37399   4.070   0.487  11.141 -0.2234 -0.4092  0.4753
 8588SOL    HW137400   4.159   0.490  11.176 -0.3720  0.0878  0.8201
 8588SOL    HW237401   4.026   0.567  11.171  0.2776  0.2133 -0.4704
 8589SOL     OW37402   2.477   2.594  10.658 -0.1583 -0.6732 -0.6114
 8589SOL    HW137403   2.472   2.514  10.606 -1.1969 -0.5198 -0.7510
 8589SOL    HW237404   2.533   2.568  10.731  0.7240  2.6268 -0.1071
 8590SOL     OW37405   3.237   2.466   2.031  0.0537  0.4143  0.0074
 8590SOL    HW137406   3.276   2.381   2.050 -1.0163  0.3068  1.7451
 8590SOL    HW237407   3.190   2.481   2.113 -2.5605  0.8485 -1.5547
 8591SOL     OW37408   0.188   0.103   3.054  0.3923  0.2012 -0.5167
 8591SOL    HW137409   0.138   0.172   3.099 -0.7812 -0.6258 -0.5736
 8591SOL    HW237410   0.234   0.160   2.992 -0.8998  1.2021 -0.5663
 8592SOL     OW37411   0.580   2.644   3.740  0.3789  0.2906 -0.2225
 8592SOL    HW137412   0.615   2.728   3.711 -0.0489  0.6729  0.3765
 8592SOL    HW237413   0.656   2.608   3.787  2.3295  3.9455 -0.5555
 8593SOL     OW37414   1.240   1.632   3.577 -0.7317 -0.0217 -0.1407
 8593SOL    HW137415   1.254   1.596   3.489  0.6997 -0.4950  0.2894
 8593SOL    HW237416   1.330   1.662   3.592 -0.1739 -2.8941  2.2370
 8594SOL     OW37417   1.736   4.308  14.082 -0.2885  0.3917  0.0917
 8594SOL    HW137418   1.758   4.231  14.030 -1.4096  0.7713 -0.9520
 8594SOL    HW237419   1.652   4.332  14.044 -0.0789 -2.8311 -2.3914
 8595SOL     OW37420   4.404   2.901   6.869 -0.2891 -0.0175 -0.8252
 8595SOL    HW137421   4.337   2.969   6.878 -0.8660 -0.6040 -0.7301
 8595SOL    HW237422   4.470   2.959   6.830  1.0080  0.2869  1.8534
 8596SOL     OW37423   3.879   4.025   1.839  0.2506  0.1800 -0.1239
 8596SOL    HW137424   3.793   3.986   1.853  0.8429 -0.7458  0.8843
 8596SOL    HW237425   3.889   4.068   1.924  0.4898 -1.4874  0.6727
 8597SOL     OW37426   1.036   0.614  16.435  0.3082  0.3929 -0.3085
 8597SOL    HW137427   1.125   0.606  16.400  0.4306  2.5428 -0.4802
 8597SOL    HW237428   1.048   0.561  16.514 -1.0005  1.1340  0.3800
 8598SOL     OW37429   2.731   0.559   5.445  0.1625 -0.2380 -0.1346
 8598SOL    HW137430   2.802   0.569   5.382  0.0569 -1.0727 -0.3814
 8598SOL    HW237431   2.761   0.622   5.511 -2.4063  1.4304 -0.5854
 8599SOL     OW37432   2.429   3.962   5.544 -0.3444  0.0409  0.1955
 8599SOL    HW137433   2.456   3.975   5.453 -0.2082 -1.3055  0.0438
 8599SOL    HW237434   2.455   4.045   5.585 -0.4812  1.3186 -2.3202
 8600SOL     OW37435   4.543   4.026   5.377  0.0276 -0.5435  0.2525
 8600SOL    HW137436   4.528   4.013   5.471 -0.4480  0.9567  0.3683
 8600SOL    HW237437   4.638   4.037   5.372 -0.0278 -0.1752  0.0582
 8601SOL     OW37438   2.721   4.074   9.504  0.1116 -0.3945  0.3774
 8601SOL    HW137439   2.780   4.079   9.580 -0.0259  1.9553  0.3065
 8601SOL    HW237440   2.727   3.979   9.491 -2.1527 -0.6844  1.4889
 8602SOL     OW37441   2.479   0.608   2.585 -0.0222  0.1343 -0.0825
 8602SOL    HW137442   2.424   0.556   2.644 -2.5376  1.6411 -1.1350
 8602SOL    HW237443   2.555   0.633   2.638  0.0600 -1.7893  0.7207
 8603SOL     OW37444   4.017   0.608   2.449  0.6147  0.1484  0.4792
 8603SOL    HW137445   4.079   0.608   2.522 -0.8345  0.6944  1.7155
 8603SOL    HW237446   3.955   0.543   2.480  0.4129  1.2246  2.3298
 8604SOL     OW37447   1.644   1.888  14.962 -0.0587  0.1451  0.1407
 8604SOL    HW137448   1.739   1.881  14.953  0.1068  2.0395  0.3590
 8604SOL    HW237449   1.618   1.877  14.870  1.1812 -3.2791  0.2086
 8605SOL     OW37450   0.915   4.317   7.272  0.0888  0.3793 -0.1585
 8605SOL    HW137451   0.979   4.247   7.283 -1.6184 -1.4263 -1.7542
 8605SOL    HW237452   0.833   4.269   7.260 -0.3918  0.6003  2.3111
 8606SOL     OW37453   1.416   0.989  12.031  0.6114  0.1389 -0.1800
 8606SOL    HW137454   1.458   0.926  11.972  1.5774 -0.6215  1.3368
 8606SOL    HW237455   1.481   1.002  12.100  1.1174  1.9363 -0.9764
 8607SOL     OW37456   3.264   2.187  11.973 -0.2326  0.3632  0.8910
 8607SOL    HW137457   3.174   2.157  11.964  0.4700 -1.6818  0.6701
 8607SOL    HW237458   3.308   2.102  11.966 -0.7061  0.2737 -0.9161
 8608SOL     OW37459   2.759   3.284  12.046  0.2905  0.2846 -0.3422
 8608SOL    HW137460   2.793   3.365  12.008 -0.2221  1.6392  2.1247
 8608SOL    HW237461   2.756   3.229  11.967 -1.7577 -1.9080  1.2460
 8609SOL     OW37462   0.663   0.787   2.519  0.5858  0.2676  0.3105
 8609SOL    HW137463   0.626   0.813   2.434  0.6277  1.4237  0.6417
 8609SOL    HW237464   0.732   0.853   2.530  0.0529  0.6829  1.1093
 8610SOL     OW37465   3.575   1.551   9.696 -0.1392 -0.2345 -0.1760
 8610SOL    HW137466   3.643   1.504   9.743  1.9906  0.3754 -2.6885
 8610SOL    HW237467   3.552   1.476   9.642  1.1520 -0.8508  0.1520
 8611SOL     OW37468   3.044   1.411   5.886 -0.1152 -0.2446  1.1363
 8611SOL    HW137469   3.031   1.496   5.844  0.8665 -0.6244  0.0625
 8611SOL    HW237470   3.037   1.344   5.819  0.7796 -0.3969  1.1958
 8612SOL     OW37471   1.525   0.506  14.496  0.1195 -0.1805 -0.2098
 8612SOL    HW137472   1.585   0.541  14.429  1.2896  1.8179  1.8883
 8612SOL    HW237473   1.468   0.458  14.436 -0.3755  0.6127 -0.3684
 8613SOL     OW37474   2.880   0.763   8.026  0.2069  0.5756  0.1887
 8613SOL    HW137475   2.784   0.760   8.028  0.2002 -1.1317 -2.2480
 8613SOL    HW237476   2.906   0.699   7.959 -0.4432 -1.5039  1.9008
 8614SOL     OW37477   2.180   4.479   4.235  0.2402 -0.0214 -1.1166
 8614SOL    HW137478   2.100   4.430   4.252 -0.2857  0.6867 -1.5137
 8614SOL    HW237479   2.146   4.560   4.273  0.4491 -0.2240 -0.5089
 8615SOL     OW37480   0.506   3.943   5.889  0.2948 -0.0416 -0.3403
 8615SOL    HW137481   0.464   3.866   5.850  1.1345 -0.4450 -0.4425
 8615SOL    HW237482   0.450   3.972   5.961 -0.3703 -0.3736 -0.7194
 8616SOL     OW37483   4.560   3.118   2.064  0.3086 -0.1629  0.1655
 8616SOL    HW137484   4.467   3.111   2.042 -0.1236 -1.6595  2.5400
 8616SOL    HW237485   4.559   3.164   2.148 -1.3828  0.4483 -0.1811
 8617SOL     OW37486   2.233   0.764  16.243 -0.4032 -0.8055 -0.3987
 8617SOL    HW137487   2.248   0.858  16.258  1.7681 -0.7747 -2.6357
 8617SOL    HW237488   2.313   0.737  16.198  0.6609 -0.2853  1.1772
 8618SOL     OW37489   0.701   2.850   6.507 -0.2564 -0.8247 -0.4642
 8618SOL    HW137490   0.694   2.887   6.595  0.7570 -1.9306  0.0833
 8618SOL    HW237491   0.797   2.845   6.502 -0.2858 -1.8543 -0.0464
 8619SOL     OW37492   1.147   4.638  14.398 -0.0358  0.3958  0.1040
 8619SOL    HW137493   1.187   4.652  14.484 -0.8760  0.0353  0.5463
 8619SOL    HW237494   1.099   4.720  14.388  0.8243  1.0103  0.9161
 8620SOL     OW37495   4.433   3.760   4.538 -0.5580 -0.2533 -0.3799
 8620SOL    HW137496   4.445   3.667   4.517 -0.8165 -0.6082  1.0562
 8620SOL    HW237497   4.340   3.767   4.515 -0.7538  1.2604  0.8972
 8621SOL     OW37498   0.457   4.230   3.147  0.1713  0.5714  0.0423
 8621SOL    HW137499   0.393   4.291   3.184 -0.1800  2.5055 -3.7823
 8621SOL    HW237500   0.540   4.277   3.148 -0.6395  2.0166 -1.7317
 8622SOL     OW37501   1.533   2.237  11.542  0.0273  0.6396  0.4138
 8622SOL    HW137502   1.562   2.328  11.550  1.6378  0.0971  0.7308
 8622SOL    HW237503   1.556   2.212  11.452  1.1481  0.9550  0.6133
 8623SOL     OW37504   0.653   4.574  15.931  0.3153  0.2757  0.0735
 8623SOL    HW137505   0.588   4.644  15.939 -0.3620 -0.5371  1.6600
 8623SOL    HW237506   0.667   4.529  16.015 -1.7543 -1.3570 -0.4390
 8624SOL     OW37507   2.110   3.254  15.286  0.2282 -0.0967 -0.5231
 8624SOL    HW137508   2.070   3.309  15.219  0.5210 -0.1311 -0.7263
 8624SOL    HW237509   2.189   3.224  15.242  0.5340 -1.9608  1.3114
 8625SOL     OW37510   1.357   2.659  10.026 -0.9765  0.2531 -0.3084
 8625SOL    HW137511   1.416   2.584  10.014 -0.0209  1.0998 -0.9267
 8625SOL    HW237512   1.391   2.711   9.953 -0.0194  2.8651  2.0090
 8626SOL     OW37513   2.579   2.010   6.386  0.7634 -0.3161 -0.0497
 8626SOL    HW137514   2.655   2.056   6.421  0.0055  0.5140  0.5218
 8626SOL    HW237515   2.614   1.942   6.329  3.8961  1.6877 -0.4968
 8627SOL     OW37516   0.719   1.808   8.229  0.3701  0.2960 -0.2807
 8627SOL    HW137517   0.769   1.814   8.310  1.5808 -2.6537 -0.7878
 8627SOL    HW237518   0.760   1.734   8.183  0.1670 -0.7748  1.2545
 8628SOL     OW37519   4.132   0.004   4.725 -0.2374  0.0271  0.0071
 8628SOL    HW137520   4.056   4.697   4.760  0.1664  0.6387  1.6406
 8628SOL    HW237521   4.092   0.080   4.684  2.2478  1.0630 -0.4881
 8629SOL     OW37522   0.262   0.364   2.898  0.4049 -0.2598 -0.0706
 8629SOL    HW137523   0.346   0.347   2.940 -0.4816  0.2912  1.8890
 8629SOL    HW237524   0.224   0.434   2.950 -0.0751 -0.1046 -0.6242
 8630SOL     OW37525   4.386   1.768   7.496  0.1432 -0.4595  0.0053
 8630SOL    HW137526   4.387   1.747   7.589 -2.8703 -1.3408 -0.1730
 8630SOL    HW237527   4.340   1.851   7.502  1.7662  0.5630 -1.3781
 8631SOL     OW37528   0.389   4.606  13.120  0.3247  0.1592 -0.0649
 8631SOL    HW137529   0.449   4.668  13.161  2.1439 -1.4224 -0.3448
 8631SOL    HW237530   0.448   4.539  13.087  2.8502  2.9353 -1.1586
 8632SOL     OW37531   0.627   4.367   9.021 -0.1347  0.1869  0.0933
 8632SOL    HW137532   0.568   4.440   9.038 -0.2351  0.3099 -0.7799
 8632SOL    HW237533   0.632   4.333   9.111  0.7794 -0.2487 -0.1182
 8633SOL     OW37534   4.436   2.118  11.710  0.1321  0.6748 -0.0702
 8633SOL    HW137535   4.454   2.210  11.689  1.1970  0.5863  0.4295
 8633SOL    HW237536   4.393   2.092  11.629 -2.0880 -0.1114  1.3727
 8634SOL     OW37537   3.607   0.605  14.843  0.2370  0.4117 -0.5852
 8634SOL    HW137538   3.557   0.530  14.875 -1.8535  1.0964 -2.2452
 8634SOL    HW237539   3.558   0.680  14.876 -0.2747 -0.2727  0.2151
 8635SOL     OW37540   0.034   4.390  16.013  0.7337  0.1335 -0.0864
 8635SOL    HW137541   0.006   4.298  16.020 -0.0190  0.3385 -0.4217
 8635SOL    HW237542   0.129   4.380  16.026  1.1634  0.6521 -2.7580
 8636SOL     OW37543   0.514   1.128  16.845  0.4146  0.0947  0.1969
 8636SOL    HW137544   0.573   1.095  16.778  0.8486 -0.4577  0.8439
 8636SOL    HW237545   0.513   1.058  16.910  1.2731 -0.7099 -0.6634
 8637SOL     OW37546   2.361   4.321  11.814 -0.1755  0.2615 -0.5395
 8637SOL    HW137547   2.302   4.384  11.773  0.7089  0.3554 -1.6726
 8637SOL    HW237548   2.336   4.236  11.777 -1.4244  0.7000 -0.6946
 8638SOL     OW37549   3.912   1.062  10.814 -0.1203 -0.0260 -1.0577
 8638SOL    HW137550   3.933   1.153  10.793 -3.2559  0.9954  0.2192
 8638SOL    HW237551   3.890   1.023  10.730  1.6774 -1.4258 -0.8492
 8639SOL     OW37552   2.080   4.661   1.785  0.2635  0.7647 -0.5190
 8639SOL    HW137553   2.136   4.735   1.807  0.6592  0.3841 -0.2372
 8639SOL    HW237554   2.093   4.603   1.860 -0.7465  1.1992 -0.0081
 8640SOL     OW37555   3.338   1.883  17.063 -0.6511  0.0051 -0.4256
 8640SOL    HW137556   3.319   1.968  17.104  1.6857  0.8637 -1.1421
 8640SOL    HW237557   3.263   1.833  17.095  0.5289 -1.2012  0.4548
 8641SOL     OW37558   1.020   3.379   3.576  0.0519 -0.1731 -0.3350
 8641SOL    HW137559   0.943   3.379   3.519 -0.3811 -3.3733  0.2877
 8641SOL    HW237560   1.044   3.472   3.580  0.9195 -0.4435  0.8971
 8642SOL     OW37561   3.796   0.943   2.992 -0.3177 -0.3119 -0.1306
 8642SOL    HW137562   3.841   0.866   3.027 -1.4173 -1.1377 -0.5124
 8642SOL    HW237563   3.795   0.999   3.069  1.5174 -0.1822 -0.2013
 8643SOL     OW37564   0.143   4.148   4.348 -0.0725 -0.7274 -1.0461
 8643SOL    HW137565   0.216   4.108   4.300  1.4564 -0.5430  1.1206
 8643SOL    HW237566   0.153   4.107   4.434  0.6836  1.1486 -0.2389
 8644SOL     OW37567   3.762   0.214   7.453  0.2025 -0.3972 -0.4763
 8644SOL    HW137568   3.755   0.130   7.408  1.4288  0.7667 -2.8449
 8644SOL    HW237569   3.856   0.203   7.466 -0.2575 -0.0705  3.0830
 8645SOL     OW37570   1.599   1.062   2.119 -0.1566  0.3119 -0.0674
 8645SOL    HW137571   1.653   1.084   2.195  1.6059 -0.8013 -0.9944
 8645SOL    HW237572   1.620   1.142   2.070  0.7257 -0.2370 -0.5860
 8646SOL     OW37573   0.755   2.424   4.740  0.1753  0.7558  0.0481
 8646SOL    HW137574   0.792   2.469   4.664  2.6640 -0.9904  0.2493
 8646SOL    HW237575   0.796   2.338   4.743 -1.2452  0.0514 -0.7869
 8647SOL     OW37576   0.669   2.452  11.290  0.2093 -0.1033 -0.2437
 8647SOL    HW137577   0.590   2.411  11.323 -1.1368  1.7366 -1.1993
 8647SOL    HW237578   0.652   2.439  11.197  1.8252 -1.9618 -0.2716
 8648SOL     OW37579   0.033   2.749   4.268 -0.1124  0.1847 -0.8679
 8648SOL    HW137580   0.060   2.808   4.338 -1.1795 -1.5880  1.0156
 8648SOL    HW237581   0.077   2.784   4.190  2.2292 -0.2718  0.2529
 8649SOL     OW37582   3.076   3.159   4.169 -0.1179  0.6525  0.0613
 8649SOL    HW137583   3.083   3.208   4.086  0.7805  1.0129  0.3490
 8649SOL    HW237584   3.069   3.070   4.135  1.8993 -0.3049  2.2237
 8650SOL     OW37585   3.837   2.111  10.712  0.6969 -0.4506  0.2033
 8650SOL    HW137586   3.901   2.076  10.649  2.0131 -0.4488  1.5382
 8650SOL    HW237587   3.839   2.032  10.766  2.4868 -0.0364  0.7491
 8651SOL     OW37588   1.637   1.921   7.935  0.5885 -0.0423 -0.2240
 8651SOL    HW137589   1.683   2.004   7.944 -1.2225  0.8296  0.8235
 8651SOL    HW237590   1.616   1.911   8.028  0.2427 -0.8456 -0.3848
 8652SOL     OW37591   0.644   2.835  14.592 -0.5022  0.0142 -0.0874
 8652SOL    HW137592   0.570   2.774  14.592  0.2227 -0.8801  2.0659
 8652SOL    HW237593   0.693   2.808  14.670 -1.9952 -0.2572  0.7681
 8653SOL     OW37594   2.838   0.581   0.289 -0.7554  0.5019 -0.1506
 8653SOL    HW137595   2.835   0.509   0.351  1.2654  0.5392  0.0033
 8653SOL    HW237596   2.791   0.544   0.214 -2.0471  1.3880  0.2256
 8654SOL     OW37597   4.399   3.624   5.796  0.3086 -0.4897  0.2828
 8654SOL    HW137598   4.433   3.535   5.796 -0.8997 -0.9500  2.8797
 8654SOL    HW237599   4.352   3.632   5.713 -0.5089  0.5719  0.8367
 8655SOL     OW37600   4.293   3.229  17.212 -0.7892  0.5223 -0.3637
 8655SOL    HW137601   4.225   3.296  17.202 -2.3346 -0.6480  2.2003
 8655SOL    HW237602   4.359   3.287  17.251  0.0865 -0.4908 -0.3140
 8656SOL     OW37603   2.217   1.377   1.236  0.3313  0.0051 -0.1731
 8656SOL    HW137604   2.294   1.427   1.260  2.2615 -2.2149 -1.7577
 8656SOL    HW237605   2.202   1.414   1.149  0.1044  1.7933  0.6379
 8657SOL     OW37606   0.220   0.200   9.095 -0.1408 -0.0222 -0.0373
 8657SOL    HW137607   0.180   0.220   9.179 -0.5764  0.4075 -0.3485
 8657SOL    HW237608   0.145   0.218   9.039  1.0779  1.1497 -1.3177
 8658SOL     OW37609   3.531   1.456   0.460  0.2917 -0.7819 -0.4120
 8658SOL    HW137610   3.546   1.425   0.371  0.1215  1.9928 -1.4052
 8658SOL    HW237611   3.442   1.420   0.462 -0.1689  0.3945  0.8916
 8659SOL     OW37612   1.436   0.829  11.586 -0.4791  0.0251  0.2511
 8659SOL    HW137613   1.407   0.773  11.514  1.9883  0.8788 -1.3898
 8659SOL    HW237614   1.392   0.909  11.557  2.6609  0.5473 -3.0615
 8660SOL     OW37615   0.895   4.249   3.180  0.4197  0.1017  0.3468
 8660SOL    HW137616   0.822   4.310   3.177 -0.1687 -0.5837  0.5819
 8660SOL    HW237617   0.972   4.301   3.205 -0.0875 -0.0065  2.1500
 8661SOL     OW37618   3.021   0.024  12.537  0.7003  0.2544  0.1943
 8661SOL    HW137619   2.934   0.064  12.544  0.8523  0.8312 -1.1038
 8661SOL    HW237620   3.013   4.693  12.603 -0.8802 -1.1381 -1.4474
 8662SOL     OW37621   2.714   0.908   3.092 -0.0861  0.2873  0.0095
 8662SOL    HW137622   2.767   0.953   3.158  1.1095 -3.1714  1.4252
 8662SOL    HW237623   2.646   0.973   3.075  0.4173  1.2163  1.6275
 8663SOL     OW37624   2.602   1.446   7.313 -0.3054  0.2976  0.0955
 8663SOL    HW137625   2.690   1.412   7.295 -0.2404  0.3924  0.2358
 8663SOL    HW237626   2.624   1.519   7.370  1.3092 -0.9295  1.0662
 8664SOL     OW37627   2.979   3.550   9.712 -0.0908  0.0979  0.0513
 8664SOL    HW137628   2.894   3.529   9.750 -0.9595  2.2937 -0.7238
 8664SOL    HW237629   3.003   3.620   9.773 -1.9726 -0.3443  1.2960
 8665SOL     OW37630   2.803   2.933   2.390 -0.2353 -0.1225 -0.1345
 8665SOL    HW137631   2.858   2.865   2.351  1.7461  1.3600  0.0555
 8665SOL    HW237632   2.775   2.888   2.469 -1.7936  2.5300  0.8492
 8666SOL     OW37633   0.256   3.698  16.331 -0.1347  0.0741  0.2776
 8666SOL    HW137634   0.171   3.713  16.289 -0.1346  0.9594  0.5913
 8666SOL    HW237635   0.311   3.686  16.253 -0.7680  0.9100 -0.3018
 8667SOL     OW37636   0.495   4.020   2.348 -0.3013 -0.4637  1.0608
 8667SOL    HW137637   0.478   4.091   2.411  2.2501  1.3117 -0.2518
 8667SOL    HW237638   0.590   4.027   2.336 -0.6514 -2.2218 -2.5146
 8668SOL     OW37639   3.876   2.778   5.835  0.4542 -0.1030  0.3243
 8668SOL    HW137640   3.894   2.720   5.761  3.8465  1.6140 -0.1977
 8668SOL    HW237641   3.960   2.823   5.838 -0.2524  1.2457  0.1069
 8669SOL     OW37642   4.051   0.900  13.283  0.2129  0.6217  0.1270
 8669SOL    HW137643   4.112   0.849  13.337  0.1213  0.5152  0.1282
 8669SOL    HW237644   4.064   0.985  13.324  2.2173  0.4009 -0.0499
 8670SOL     OW37645   1.080   4.532  12.862  0.0076  0.7888  0.9518
 8670SOL    HW137646   1.140   4.494  12.926  1.9386  1.4452 -0.4968
 8670SOL    HW237647   1.134   4.580  12.800  1.1169  1.0016  2.0861
 8671SOL     OW37648   0.907   0.347   8.311  0.4562 -0.1142  0.1650
 8671SOL    HW137649   0.842   0.359   8.242  1.5532  2.4169 -0.4542
 8671SOL    HW237650   0.876   0.265   8.348 -0.3138 -0.8902 -2.2017
 8672SOL     OW37651   1.287   3.014  17.236  0.2296  0.5102  0.0870
 8672SOL    HW137652   1.257   2.923  17.226  0.2836  0.6500 -1.3885
 8672SOL    HW237653   1.212   3.059  17.276 -0.5987  0.0489 -0.9355
 8673SOL     OW37654   0.517   0.072   4.505 -0.2222  0.2676 -0.5486
 8673SOL    HW137655   0.433   0.030   4.525  0.1203  0.2320  0.8272
 8673SOL    HW237656   0.519   0.155   4.553  0.7211 -0.8058  1.2518
 8674SOL     OW37657   0.709   4.414   5.654  0.8281  0.3456  0.1855
 8674SOL    HW137658   0.617   4.389   5.649  1.2002 -0.4754 -2.2385
 8674SOL    HW237659   0.728   4.430   5.562 -1.9196  0.1586 -0.3989
 8675SOL     OW37660   2.691   0.955   8.820 -0.6652 -0.1486 -0.5389
 8675SOL    HW137661   2.749   0.879   8.822  1.1826  1.3074  0.1730
 8675SOL    HW237662   2.614   0.928   8.870  0.7869 -1.5183  0.9119
 8676SOL     OW37663   0.259   3.830   2.547  0.0753  0.4048 -0.2731
 8676SOL    HW137664   0.313   3.808   2.623  0.0488  0.2535 -0.2981
 8676SOL    HW237665   0.302   3.780   2.478  0.9326  0.2014  0.4053
 8677SOL     OW37666   0.063   0.162  12.441 -0.3062 -0.4083  0.0007
 8677SOL    HW137667   0.126   0.233  12.456  1.1212 -1.5345 -0.6502
 8677SOL    HW237668   4.725   0.202  12.482 -0.1450 -1.3991  1.2555
 8678SOL     OW37669   0.528   1.810   4.116 -0.1468 -0.3919  0.0664
 8678SOL    HW137670   0.503   1.799   4.208  1.6365 -1.8124  0.3973
 8678SOL    HW237671   0.536   1.718   4.089  0.6679 -0.0359 -0.9029
 8679SOL     OW37672   0.966   1.749   6.370 -0.4516  0.0146 -0.4239
 8679SOL    HW137673   0.924   1.788   6.294 -2.4695  0.6203  0.9864
 8679SOL    HW237674   0.958   1.654   6.355 -0.2314 -0.2368  1.0079
 8680SOL     OW37675   3.414   0.068  10.997  0.4332 -0.6147  0.2032
 8680SOL    HW137676   3.389   4.715  11.006  1.0367 -0.8772 -0.7002
 8680SOL    HW237677   3.337   0.112  11.032 -0.0179 -1.3030  0.0559
 8681SOL     OW37678   4.688   4.721   6.390  0.0887 -0.0343  0.2718
 8681SOL    HW137679   0.026   4.663   6.388 -0.9994 -1.4784  0.3430
 8681SOL    HW237680   4.624   4.671   6.340 -0.3285  1.7865 -0.9993
 8682SOL     OW37681   2.205   4.645   5.167  0.7269  0.1417  0.1445
 8682SOL    HW137682   2.136   4.692   5.213  0.2236 -1.9209  1.5261
 8682SOL    HW237683   2.208   4.670   5.075 -0.2146  0.3104  0.1626
 8683SOL     OW37684   3.354   4.310   0.920 -0.1999  0.0052 -0.7884
 8683SOL    HW137685   3.276   4.320   0.975  0.1983 -0.8808 -0.0526
 8683SOL    HW237686   3.308   4.298   0.837  1.0691 -0.5952 -1.3930
 8684SOL     OW37687   2.449   4.504   2.612 -0.3771  0.2985  0.6107
 8684SOL    HW137688   2.540   4.473   2.609 -0.7152 -0.4642 -1.2161
 8684SOL    HW237689   2.428   4.544   2.528  2.4155 -0.5035 -0.4620
 8685SOL     OW37690   4.035   1.002   3.710 -0.2564  0.3341 -0.3610
 8685SOL    HW137691   4.110   1.049   3.674 -1.1388  1.2073 -1.0675
 8685SOL    HW237692   4.007   0.955   3.632  0.1035  1.3947 -1.1259
 8686SOL     OW37693   0.095   1.942  11.881  0.2322  0.0277 -0.2757
 8686SOL    HW137694   0.011   1.900  11.862  1.1276 -1.6818 -0.4556
 8686SOL    HW237695   0.082   1.996  11.959  0.5373  0.0487 -0.2396
 8687SOL     OW37696   1.802   2.059   8.769 -0.0895  0.7405 -0.0184
 8687SOL    HW137697   1.733   2.000   8.800 -0.1418  2.1185  2.5276
 8687SOL    HW237698   1.859   2.011   8.709  0.2261  2.4229 -1.0686
 8688SOL     OW37699   0.928   1.618   5.039  0.2663  0.6849  0.2912
 8688SOL    HW137700   0.834   1.632   5.031  0.0429 -1.7501 -1.6148
 8688SOL    HW237701   0.945   1.569   5.119  0.4311 -0.3481 -0.3753
 8689SOL     OW37702   2.425   2.066  11.569  0.4574  0.1331  0.0384
 8689SOL    HW137703   2.457   2.005  11.635 -1.1042  0.5227  1.1667
 8689SOL    HW237704   2.461   2.146  11.608  1.0284 -0.0268 -0.1648
 8690SOL     OW37705   4.059   2.094   1.851  0.4252 -0.6145 -0.0115
 8690SOL    HW137706   4.136   2.123   1.803  0.6365  0.2893  0.8758
 8690SOL    HW237707   4.094   2.092   1.940 -2.2275  3.0211  1.1023
 8691SOL     OW37708   0.128   2.606   4.558  0.5183 -0.6789 -0.0327
 8691SOL    HW137709   0.050   2.642   4.515  0.7654 -1.1457 -0.8724
 8691SOL    HW237710   0.153   2.536   4.498  1.4111  0.9540 -1.5542
 8692SOL     OW37711   2.370   4.185   1.105  0.0432 -0.3519 -0.1680
 8692SOL    HW137712   2.436   4.237   1.059  0.2943 -1.0276 -0.5665
 8692SOL    HW237713   2.408   4.160   1.188  0.7112  2.4695  0.3709
 8693SOL     OW37714   1.361   1.213   6.821  0.3304  0.4805  0.0666
 8693SOL    HW137715   1.328   1.292   6.778 -3.0193 -1.1004 -0.2642
 8693SOL    HW237716   1.389   1.252   6.904  2.1132  0.6733 -0.6385
 8694SOL     OW37717   1.966   3.684  16.256 -0.5989 -0.1505 -0.0104
 8694SOL    HW137718   1.955   3.774  16.225 -1.5192  0.5440  2.2791
 8694SOL    HW237719   1.877   3.648  16.256 -0.8086  0.3679 -2.1189
 8695SOL     OW37720   0.754   0.097   7.204  0.4965  0.4309  0.2917
 8695SOL    HW137721   0.685   0.159   7.229 -0.3736 -0.1589 -0.6883
 8695SOL    HW237722   0.811   0.099   7.281  0.8869 -0.8026  0.0336
 8696SOL     OW37723   2.207   3.578   4.496 -0.5806  0.5659 -0.2836
 8696SOL    HW137724   2.136   3.625   4.452 -0.7917  0.5714  0.0650
 8696SOL    HW237725   2.155   3.537   4.565  2.0721  0.6544  1.7521
 8697SOL     OW37726   3.264   3.431   4.187 -0.2345 -0.0054  0.1961
 8697SOL    HW137727   3.290   3.508   4.237 -0.7507  0.7386 -0.6566
 8697SOL    HW237728   3.213   3.479   4.121  1.4426 -0.4569 -1.4373
 8698SOL     OW37729   2.692   3.603  14.577  0.0081  0.3432 -0.0022
 8698SOL    HW137730   2.661   3.620  14.489  3.0413 -1.4391 -1.4055
 8698SOL    HW237731   2.782   3.617  14.549  0.3477 -0.4028  0.7114
 8699SOL     OW37732   0.155   1.100  14.379 -0.3069  0.3714 -0.4023
 8699SOL    HW137733   0.207   1.046  14.321 -1.0801 -0.5018 -0.2856
 8699SOL    HW237734   0.071   1.056  14.365 -0.8790  0.6067  2.1853
 8700SOL     OW37735   1.738   1.704   9.170 -0.0918  0.3459  0.0035
 8700SOL    HW137736   1.800   1.701   9.243 -1.0331 -3.2902  0.6802
 8700SOL    HW237737   1.723   1.798   9.169  0.7685  0.4897  1.3651
 8701SOL     OW37738   4.209   4.289   4.247 -0.2321 -0.6194  0.5229
 8701SOL    HW137739   4.161   4.285   4.164  0.6506 -0.2347 -0.0095
 8701SOL    HW237740   4.296   4.311   4.214 -0.9686  0.4830 -0.6818
 8702SOL     OW37741   3.020   3.609   3.691  0.1720  0.2115 -0.4528
 8702SOL    HW137742   2.997   3.530   3.739 -1.0080 -0.2318 -1.7659
 8702SOL    HW237743   3.092   3.637   3.747  1.3546 -0.2669 -1.7300
 8703SOL     OW37744   1.210   2.552   8.427  0.4253  0.6059  0.3025
 8703SOL    HW137745   1.121   2.574   8.455  0.5529 -2.0655  2.8889
 8703SOL    HW237746   1.222   2.468   8.472 -0.6791 -0.4466 -1.3628
 8704SOL     OW37747   1.044   4.020   4.173  0.2993 -0.0204  0.1600
 8704SOL    HW137748   1.108   3.955   4.199 -0.7566 -2.1062 -2.4766
 8704SOL    HW237749   0.962   3.994   4.215 -0.7045  2.7335 -0.0889
 8705SOL     OW37750   3.617   3.184  17.377 -0.3121 -0.4781 -0.1440
 8705SOL    HW137751   3.704   3.213  17.404 -0.7665  1.3470 -0.6198
 8705SOL    HW237752   3.573   3.269  17.376  1.0624  0.2419 -0.5414
 8706SOL     OW37753   3.458   3.509   5.863  0.3017 -0.4425  0.0293
 8706SOL    HW137754   3.425   3.542   5.946  0.4950 -0.2590  0.0344
 8706SOL    HW237755   3.422   3.568   5.796 -2.6985 -0.5445  1.5785
 8707SOL     OW37756   1.503   2.078  12.261  0.4439 -0.2931  0.0800
 8707SOL    HW137757   1.578   2.136  12.245 -2.0177  2.3118 -2.0712
 8707SOL    HW237758   1.531   2.000  12.307  1.8290 -0.4360 -1.0082
 8708SOL     OW37759   0.552   2.388   6.864 -0.2848 -0.2375 -0.1510
 8708SOL    HW137760   0.510   2.459   6.913  0.0111  0.0791 -0.3610
 8708SOL    HW237761   0.581   2.334   6.938  1.3006  1.8462  0.7548
 8709SOL     OW37762   2.464   3.184   3.953 -0.1908  0.6993  0.1127
 8709SOL    HW137763   2.412   3.243   4.009  1.3958 -0.4736  2.8384
 8709SOL    HW237764   2.408   3.110   3.933 -1.1288  1.5827 -0.5278
 8710SOL     OW37765   4.095   2.060   0.741  0.2984 -0.7427 -0.2804
 8710SOL    HW137766   4.158   2.020   0.681  1.4564  0.9128 -0.1602
 8710SOL    HW237767   4.166   2.107   0.784  0.1701 -3.9493  3.4481
 8711SOL     OW37768   2.694   4.402   5.143  0.4092 -0.0224  0.7116
 8711SOL    HW137769   2.693   4.490   5.106  1.3569 -0.0560  0.6159
 8711SOL    HW237770   2.766   4.356   5.102 -0.2333 -0.1322 -0.2919
 8712SOL     OW37771   1.922   3.937   1.172 -0.6383  0.6398 -0.5533
 8712SOL    HW137772   1.858   3.876   1.208  0.0344  1.3842  1.9209
 8712SOL    HW237773   1.949   3.980   1.253 -1.4755  1.1832 -0.5628
 8713SOL     OW37774   0.482   0.444   3.773 -0.3512 -0.4232 -0.0961
 8713SOL    HW137775   0.506   0.437   3.865 -2.8995  2.4130  0.7770
 8713SOL    HW237776   0.466   0.538   3.777 -0.1027 -0.2736 -2.2432
 8714SOL     OW37777   3.427   3.270   6.789  0.1271  0.2017  0.3246
 8714SOL    HW137778   3.375   3.199   6.752  0.0240  1.4773 -1.9828
 8714SOL    HW237779   3.364   3.321   6.840 -0.5693  0.7806 -1.1122
 8715SOL     OW37780   1.392   2.396  14.154  0.1466 -0.1422  0.1683
 8715SOL    HW137781   1.302   2.402  14.121 -0.2510  0.6244  1.3931
 8715SOL    HW237782   1.380   2.399  14.249  1.8175 -2.6368  0.4596
 8716SOL     OW37783   1.583   2.697  15.537 -0.9091  0.4242  0.4116
 8716SOL    HW137784   1.656   2.749  15.504  0.1150  0.0015  2.0423
 8716SOL    HW237785   1.544   2.752  15.605  1.8789  2.3436  0.4739
 8717SOL     OW37786   4.610   0.284   1.058 -0.5133 -0.0407 -0.0746
 8717SOL    HW137787   4.657   0.260   1.137  0.1421  0.1520 -0.4095
 8717SOL    HW237788   4.612   0.380   1.065 -1.1578 -0.1111  1.1205
 8718SOL     OW37789   0.871   0.118  12.365  0.0527 -0.5833  0.3487
 8718SOL    HW137790   0.884   0.101  12.459  2.2770  1.2934  0.3771
 8718SOL    HW237791   0.830   0.038  12.332  0.6865 -2.0299  3.0528
 8719SOL     OW37792   0.314   4.528   3.557 -0.4016  0.3133 -0.4608
 8719SOL    HW137793   0.292   4.570   3.640  0.6016 -0.6663  0.3068
 8719SOL    HW237794   0.368   4.458   3.593  1.8764  0.3007 -3.9023
 8720SOL     OW37795   3.146   2.747   5.756 -0.2383  0.4179 -0.1679
 8720SOL    HW137796   3.074   2.777   5.701  1.4918  1.6020 -1.8065
 8720SOL    HW237797   3.219   2.789   5.710  0.5856  1.1439  1.8058
 8721SOL     OW37798   2.999   4.266  14.607 -0.2593  0.4246  0.0314
 8721SOL    HW137799   2.939   4.339  14.595 -1.6001 -0.7111 -0.0876
 8721SOL    HW237800   3.042   4.286  14.690  0.0371 -0.0323 -0.0102
 8722SOL     OW37801   3.674   0.872  12.184  0.7399  0.1235  0.0035
 8722SOL    HW137802   3.684   0.818  12.262  2.4004  2.0115  1.1250
 8722SOL    HW237803   3.655   0.815  12.110 -1.4989  2.2243 -1.0435
 8723SOL     OW37804   3.191   2.393   3.196  0.8296  0.3774  0.0502
 8723SOL    HW137805   3.269   2.447   3.183  0.0845  1.1906 -1.0220
 8723SOL    HW237806   3.222   2.305   3.175 -0.1374  0.1880 -0.5967
 8724SOL     OW37807   3.746   1.292   8.578  0.2826 -0.3298  0.0015
 8724SOL    HW137808   3.798   1.268   8.654 -1.0562 -0.9189  0.7458
 8724SOL    HW237809   3.662   1.307   8.621  1.2211 -0.3260  1.8084
 8725SOL     OW37810   1.465   0.067   7.416 -0.2578 -0.2525  0.2546
 8725SOL    HW137811   1.445   0.161   7.418 -1.1158 -0.4408  0.3116
 8725SOL    HW237812   1.546   0.083   7.367 -1.3878 -0.7228 -1.7581
 8726SOL     OW37813   2.069   4.041   0.167 -0.6823  0.1327 -0.3660
 8726SOL    HW137814   2.053   3.953   0.131 -0.3127  1.0365 -2.7092
 8726SOL    HW237815   2.136   4.019   0.231  0.2190 -0.2258 -1.4321
 8727SOL     OW37816   4.112   3.249   4.732  0.4984  0.3890 -0.4535
 8727SOL    HW137817   4.167   3.239   4.810 -1.3105 -2.0648  0.4957
 8727SOL    HW237818   4.055   3.320   4.760  0.9347  0.5231  0.0844
 8728SOL     OW37819   2.432   1.803  16.086  0.7106 -0.0736 -0.0059
 8728SOL    HW137820   2.373   1.792  16.012 -0.5386 -0.0927  0.9851
 8728SOL    HW237821   2.512   1.782  16.037 -1.0431 -2.9825 -1.6417
 8729SOL     OW37822   2.942   1.017   7.966 -0.0836  0.1284 -0.0498
 8729SOL    HW137823   2.996   0.991   7.891  0.3315  2.2214 -0.4897
 8729SOL    HW237824   2.920   0.935   8.009 -1.1770  0.9116  0.8757
 8730SOL     OW37825   4.322   3.647   5.546 -0.1640 -0.3546 -0.0070
 8730SOL    HW137826   4.330   3.729   5.498  3.4783 -1.8240 -1.8949
 8730SOL    HW237827   4.293   3.593   5.473 -2.1879 -0.7320  1.0977
 8731SOL     OW37828   0.263   3.917  13.038 -0.3357  0.3661 -0.2198
 8731SOL    HW137829   0.356   3.938  13.025 -0.4197  0.1939 -1.1565
 8731SOL    HW237830   0.240   3.877  12.954 -2.3548  1.1925 -0.0594
 8732SOL     OW37831   4.008   1.599  11.117 -0.4383  0.3168 -0.2880
 8732SOL    HW137832   4.096   1.634  11.100 -0.7472 -0.0837 -2.7019
 8732SOL    HW237833   3.962   1.670  11.161 -1.3712 -0.3960 -0.1185
 8733SOL     OW37834   0.041   3.718  10.047  0.4530  0.2232 -0.3574
 8733SOL    HW137835   0.105   3.767   9.996  0.1616  1.2229  0.2266
 8733SOL    HW237836   0.073   3.628  10.046 -0.7071 -0.2051  0.8176
 8734SOL     OW37837   1.704   0.020  17.465 -0.0136  0.2138 -0.0835
 8734SOL    HW137838   1.793   0.042  17.438  0.0031  0.8164  0.4746
 8734SOL    HW237839   1.652   0.017  17.385  0.9568 -1.4522 -0.6737
 8735SOL     OW37840   0.981   1.301   3.577 -0.5530 -0.1809  0.4185
 8735SOL    HW137841   1.011   1.372   3.633  0.2388 -1.4577  1.6100
 8735SOL    HW237842   0.901   1.283   3.625 -1.2451  1.8521  0.0406
 8736SOL     OW37843   1.344   3.419   4.356  0.4713 -0.5448 -0.5650
 8736SOL    HW137844   1.297   3.462   4.428  0.1632  0.6724 -1.4833
 8736SOL    HW237845   1.333   3.326   4.372 -1.3661 -0.6461 -2.4667
 8737SOL     OW37846   4.079   1.670   2.949  0.4383 -0.4150  0.2134
 8737SOL    HW137847   4.058   1.763   2.940  1.4002 -0.4249 -2.1567
 8737SOL    HW237848   4.038   1.633   2.871  0.7794  0.0955 -0.2104
 8738SOL     OW37849   0.999   3.447  14.637  0.4534  0.0847 -0.2978
 8738SOL    HW137850   1.033   3.528  14.675 -0.0032  0.1932 -0.1168
 8738SOL    HW237851   1.068   3.416  14.578  2.2202  3.3957  0.0325
 8739SOL     OW37852   2.489   3.408   2.241  0.9781  0.2494 -0.6470
 8739SOL    HW137853   2.424   3.354   2.196  1.0745  0.9799 -1.6578
 8739SOL    HW237854   2.440   3.490   2.247 -0.6081 -0.8218  1.3331
 8740SOL     OW37855   4.123   3.760  17.247 -0.2150  0.2374 -0.7727
 8740SOL    HW137856   4.191   3.701  17.278 -0.8392 -0.4526 -0.7237
 8740SOL    HW237857   4.042   3.715  17.272 -0.1599  1.2146  1.1947
 8741SOL     OW37858   2.668   1.565  11.645 -0.3454 -0.1170  0.1915
 8741SOL    HW137859   2.617   1.551  11.565 -1.0630  0.5491  0.5343
 8741SOL    HW237860   2.680   1.473  11.670 -1.9127 -0.5045 -0.5108
 8742SOL     OW37861   2.319   2.762   1.005 -0.0127  0.1561  0.6573
 8742SOL    HW137862   2.282   2.679   0.977  0.5399 -0.4775  1.7973
 8742SOL    HW237863   2.395   2.762   0.948 -0.8744 -0.9265 -0.5026
 8743SOL     OW37864   3.948   3.373  15.280 -0.3634 -0.1580 -0.1109
 8743SOL    HW137865   3.874   3.362  15.339 -0.8343  1.1337 -0.4591
 8743SOL    HW237866   3.987   3.457  15.303  0.8943 -0.8823  0.4263
 8744SOL     OW37867   2.442   0.151   4.228 -0.1326 -0.0661  0.0726
 8744SOL    HW137868   2.356   0.161   4.268 -0.8247  0.1409 -1.4933
 8744SOL    HW237869   2.446   0.055   4.219  0.1713 -0.1193  0.7283
 8745SOL     OW37870   2.093   0.693   6.289 -0.0142 -0.1043  0.6592
 8745SOL    HW137871   2.069   0.781   6.263  0.7410 -0.4053 -1.0012
 8745SOL    HW237872   2.046   0.689   6.373 -0.3273  0.3305  0.5038
 8746SOL     OW37873   2.215   4.578   2.232  0.5142  0.2483 -0.0837
 8746SOL    HW137874   2.296   4.603   2.276  1.1925 -1.2795 -0.4430
 8746SOL    HW237875   2.188   4.508   2.291 -0.0125  0.0401 -0.5629
 8747SOL     OW37876   3.744   1.492   5.215 -1.5415  0.1924  0.9323
 8747SOL    HW137877   3.715   1.559   5.152  0.8869 -0.2268 -0.6339
 8747SOL    HW237878   3.657   1.452   5.225 -1.6144  0.1923  0.3128
 8748SOL     OW37879   0.690   2.839   3.980  0.3893  0.1235  0.2768
 8748SOL    HW137880   0.656   2.764   4.027 -0.3683 -0.0413 -0.5265
 8748SOL    HW237881   0.754   2.799   3.921 -1.0217 -1.0547 -0.4400
 8749SOL     OW37882   3.545   4.715   0.364  0.2071 -0.5351  0.0519
 8749SOL    HW137883   3.454   4.731   0.337  0.0356  0.9657  1.5112
 8749SOL    HW237884   3.590   0.009   0.286 -0.5142  2.9340  1.0689
 8750SOL     OW37885   1.087   2.096   7.269 -0.3535 -0.0734 -0.5575
 8750SOL    HW137886   1.084   2.107   7.364  1.1577 -0.3651 -0.4667
 8750SOL    HW237887   1.146   2.020   7.259 -0.7246 -0.1429 -2.1976
 8751SOL     OW37888   2.864   2.103   8.598 -0.2223 -0.0985  0.0369
 8751SOL    HW137889   2.776   2.107   8.561 -0.5644 -1.6991  0.6959
 8751SOL    HW237890   2.869   2.194   8.630 -0.3936 -0.3683  0.8305
 8752SOL     OW37891   1.162   1.751  16.783  0.5585 -0.1460 -0.5075
 8752SOL    HW137892   1.246   1.713  16.756  1.5532  1.3593  0.4665
 8752SOL    HW237893   1.146   1.811  16.710 -1.5166  0.6826  0.6174
 8753SOL     OW37894   0.001   3.932   4.171  0.1685  0.3920  0.6536
 8753SOL    HW137895   4.696   3.961   4.251 -0.3540  1.8372 -0.1613
 8753SOL    HW237896   4.710   3.841   4.166  2.9310 -0.4339 -0.8927
 8754SOL     OW37897   0.403   4.373   5.617  0.0260 -0.2543 -0.3633
 8754SOL    HW137898   0.311   4.400   5.611  0.2692  0.3968 -1.1566
 8754SOL    HW237899   0.385   4.297   5.671  1.1027 -0.8290 -0.8111
 8755SOL     OW37900   4.477   4.582  17.618  0.4452 -0.2262  0.2935
 8755SOL    HW137901   4.409   4.534  17.571  1.9935 -1.1067 -1.0606
 8755SOL    HW237902   4.479   4.663  17.567  3.1846 -0.9828 -0.7967
 8756SOL     OW37903   0.337   1.498  17.345 -0.1568  0.0624  0.0287
 8756SOL    HW137904   0.369   1.524  17.259  1.3760  0.7477  0.8097
 8756SOL    HW237905   0.399   1.545  17.400  1.3937  0.5293 -2.1236
 8757SOL     OW37906   3.524   3.772   4.572 -0.2163  0.0964  0.4451
 8757SOL    HW137907   3.519   3.867   4.560  0.2843  0.0993  0.2928
 8757SOL    HW237908   3.588   3.765   4.502 -1.3793 -0.5440 -0.5438
 8758SOL     OW37909   3.394   0.392   5.676 -0.2734  0.2991 -0.1103
 8758SOL    HW137910   3.303   0.365   5.662 -0.2644  0.7455 -1.0250
 8758SOL    HW237911   3.394   0.416   5.768  1.3096 -1.9630  0.4666
 8759SOL     OW37912   2.941   3.285   9.003  0.1246  0.6725 -0.0714
 8759SOL    HW137913   2.942   3.313   8.912  0.3543  0.1340 -0.2372
 8759SOL    HW237914   2.851   3.305   9.028  0.2276  0.6013  0.3609
 8760SOL     OW37915   4.325   2.415   1.384 -0.2639  0.5435  0.1524
 8760SOL    HW137916   4.350   2.507   1.378  0.2515  0.3148 -1.1722
 8760SOL    HW237917   4.271   2.424   1.463 -1.4995 -0.7071 -0.5366
 8761SOL     OW37918   1.956   1.451   4.433  0.1829 -0.0956  0.6508
 8761SOL    HW137919   1.973   1.414   4.347 -1.3377 -0.7923  0.6462
 8761SOL    HW237920   2.026   1.515   4.445 -0.2726  0.7750 -1.3925
 8762SOL     OW37921   2.480   3.714   0.072  0.6710 -0.1578  0.2601
 8762SOL    HW137922   2.395   3.732   0.032  0.0740 -1.7977  0.7807
 8762SOL    HW237923   2.489   3.620   0.085 -1.7439 -0.2961  0.8872
 8763SOL     OW37924   1.117   3.488   9.255  0.3003  0.1403 -0.6549
 8763SOL    HW137925   1.087   3.413   9.203  0.0654 -0.0465 -0.2518
 8763SOL    HW237926   1.209   3.469   9.272 -0.0994  1.2516  2.9202
 8764SOL     OW37927   4.671   3.482   8.180 -0.5420 -0.4566 -0.0566
 8764SOL    HW137928   4.583   3.451   8.158 -0.0809 -2.3909  0.7727
 8764SOL    HW237929   4.704   3.399   8.216 -2.6575 -0.9578  0.7004
 8765SOL     OW37930   2.097   4.077   7.544 -0.4396  0.6743 -0.0005
 8765SOL    HW137931   2.091   4.173   7.537 -0.8469  0.5032 -1.9433
 8765SOL    HW237932   2.147   4.080   7.626  1.3356 -1.4651 -1.0073
 8766SOL     OW37933   0.947   0.152   5.347  0.5435  0.0973  0.2403
 8766SOL    HW137934   0.984   0.141   5.434 -0.0823  0.8142  0.6029
 8766SOL    HW237935   0.853   0.164   5.361  0.2564  0.4851 -1.9314
 8767SOL     OW37936   1.448   1.531  16.975  0.0954  0.5851 -0.0021
 8767SOL    HW137937   1.370   1.530  17.031 -1.2245 -0.4705 -1.8866
 8767SOL    HW237938   1.424   1.586  16.901  1.3167 -2.0952 -2.3876
 8768SOL     OW37939   2.067   3.780   9.378  0.2032  0.4417  0.4094
 8768SOL    HW137940   2.122   3.849   9.414 -0.0543  0.8358  0.0453
 8768SOL    HW237941   2.098   3.708   9.433  0.2319  0.5099  0.4820
 8769SOL     OW37942   1.797   2.840   8.101  0.1820 -0.5040 -0.0927
 8769SOL    HW137943   1.803   2.748   8.125 -1.0920 -1.3709 -3.1723
 8769SOL    HW237944   1.815   2.833   8.008  3.5269  0.0640  0.5052
 8770SOL     OW37945   3.958   0.438  14.691 -0.4908 -0.0573  0.1698
 8770SOL    HW137946   4.018   0.374  14.731 -1.1838 -0.2220  0.9323
 8770SOL    HW237947   3.944   0.406  14.602 -1.5110 -1.1402  0.7247
 8771SOL     OW37948   0.887   0.833   4.478 -0.1539 -0.3747  0.5922
 8771SOL    HW137949   0.947   0.772   4.521  2.1368  1.2586 -0.2659
 8771SOL    HW237950   0.852   0.887   4.549 -1.4154  1.4812 -1.4330
 8772SOL     OW37951   0.249   1.429   1.480  0.1669  0.2256 -0.0587
 8772SOL    HW137952   0.173   1.404   1.532 -0.5987  0.1896 -1.2058
 8772SOL    HW237953   0.274   1.512   1.521 -1.0156  0.1396  0.8145
 8773SOL     OW37954   1.718   0.563   2.642  0.0865  0.1854  0.6277
 8773SOL    HW137955   1.636   0.583   2.687 -0.9566 -3.1453  0.2341
 8773SOL    HW237956   1.740   0.476   2.675 -0.0671  0.0994  0.5047
 8774SOL     OW37957   3.327   1.244   2.642 -0.2244  0.5315 -0.2576
 8774SOL    HW137958   3.232   1.231   2.651  0.0412 -0.1871  1.4611
 8774SOL    HW237959   3.344   1.290   2.724 -1.5351 -0.9850  0.8836
 8775SOL     OW37960   4.487   2.771   7.309 -0.4205  0.1979 -0.0111
 8775SOL    HW137961   4.471   2.863   7.286 -0.0229  0.0523 -0.8816
 8775SOL    HW237962   4.476   2.730   7.223  1.8429 -0.7563  0.1709
 8776SOL     OW37963   2.674   1.911   4.755 -0.5311  0.3819  0.1420
 8776SOL    HW137964   2.585   1.883   4.779  0.0458 -2.0057 -0.4995
 8776SOL    HW237965   2.671   1.924   4.660 -1.8608  1.6153  0.3461
 8777SOL     OW37966   1.397   1.791   1.776 -0.1392 -0.0640 -0.2787
 8777SOL    HW137967   1.446   1.757   1.851  0.3622 -0.4831 -0.7954
 8777SOL    HW237968   1.476   1.824   1.733  0.2680  0.3576  0.7888
 8778SOL     OW37969   2.777   0.394   0.046 -0.0116  0.4762  0.2001
 8778SOL    HW137970   2.817   0.471   0.007 -0.0454  0.0589 -0.6652
 8778SOL    HW237971   2.828   0.325   0.003 -0.8602 -0.0036 -0.0380
 8779SOL     OW37972   1.522   2.329   0.492 -0.6479  0.0829 -0.2920
 8779SOL    HW137973   1.451   2.315   0.555  0.6776  2.4873  1.7054
 8779SOL    HW237974   1.485   2.272   0.424 -0.0983 -0.0523 -0.4797
 8780SOL     OW37975   3.711   0.416   3.800  0.0924  0.4948 -0.4127
 8780SOL    HW137976   3.739   0.501   3.766  0.3153  0.2927 -0.7311
 8780SOL    HW237977   3.766   0.352   3.754 -0.0516 -0.4727  0.7512
 8781SOL     OW37978   0.628   0.718  16.259  0.1568  0.1849  0.4703
 8781SOL    HW137979   0.709   0.765  16.280  0.5501  0.4887 -1.7892
 8781SOL    HW237980   0.565   0.761  16.317 -2.1901  1.2914 -2.9162
 8782SOL     OW37981   0.686   1.238   2.404  0.4951  0.2117  0.7822
 8782SOL    HW137982   0.595   1.215   2.387  0.2263  2.1967 -0.5000
 8782SOL    HW237983   0.706   1.173   2.471  0.6786 -0.4397  0.1040
 8783SOL     OW37984   4.626   3.689   3.565  0.1240 -0.5708  0.0848
 8783SOL    HW137985   4.531   3.694   3.563  0.2109  1.1052  0.5651
 8783SOL    HW237986   4.655   3.688   3.474  1.1607 -0.7905  0.4195
 8784SOL     OW37987   2.836   0.804   1.597 -0.3240 -0.0574  0.0703
 8784SOL    HW137988   2.922   0.836   1.570  0.2186 -0.5604  1.2088
 8784SOL    HW237989   2.853   0.733   1.659 -0.4035 -0.4123 -0.3114
 8785SOL     OW37990   4.455   3.814   3.868  0.0730 -0.0322 -0.1874
 8785SOL    HW137991   4.467   3.817   3.962 -0.4582  1.1448 -0.1525
 8785SOL    HW237992   4.412   3.899   3.855  0.6837 -0.1718 -3.2493
 8786SOL     OW37993   4.007   0.377   4.032 -0.0840  0.2969  0.5756
 8786SOL    HW137994   4.075   0.428   4.076  1.5142 -0.2428 -1.2840
 8786SOL    HW237995   3.932   0.413   4.079  0.2307  1.5344  0.1105
 8787SOL     OW37996   1.984   2.388   7.044  0.7551  0.0572 -0.1521
 8787SOL    HW137997   2.034   2.348   7.116  1.2638  2.5375  0.9064
 8787SOL    HW237998   1.996   2.475   7.082  0.0512  1.3703 -2.9926
 8788SOL     OW37999   1.463   2.122  12.865  0.1004 -0.4249 -0.2427
 8788SOL    HW138000   1.487   2.196  12.922 -0.3872 -0.7597  0.3995
 8788SOL    HW238001   1.525   2.052  12.887 -0.7565 -0.1916  3.0081
 8789SOL     OW38002   2.669   4.379   6.770  0.6225 -0.0661  0.2485
 8789SOL    HW138003   2.672   4.314   6.699 -1.7629  1.8210 -1.5647
 8789SOL    HW238004   2.576   4.399   6.776  0.4408 -1.3669  1.7198
 8790SOL     OW38005   4.280   1.460   5.706 -0.2558 -0.0724 -0.1356
 8790SOL    HW138006   4.315   1.546   5.684  0.0909 -0.4409 -1.0369
 8790SOL    HW238007   4.228   1.453   5.626  4.0309 -2.4224 -2.7554
 8791SOL     OW38008   1.837   2.605   9.208 -0.6373  0.3159 -0.2533
 8791SOL    HW138009   1.903   2.558   9.258 -1.1348 -1.6429 -1.4374
 8791SOL    HW238010   1.841   2.571   9.118 -0.1293  0.0379 -0.1191
 8792SOL     OW38011   4.441   2.668  11.784  0.0863 -0.1528 -0.7595
 8792SOL    HW138012   4.535   2.686  11.788 -0.0576  0.0635  1.3732
 8792SOL    HW238013   4.432   2.579  11.750 -2.6250 -0.8956  1.8973
 8793SOL     OW38014   4.701   2.021   0.416 -0.4245 -0.2620  0.2830
 8793SOL    HW138015   4.700   1.934   0.377  2.6194 -0.6724  1.1018
 8793SOL    HW238016   4.608   2.036   0.431 -0.4347  0.2002 -0.2569
 8794SOL     OW38017   1.884   1.117   7.811 -0.0333  0.7570 -0.2338
 8794SOL    HW138018   1.958   1.070   7.773  0.5848  1.0681  0.6003
 8794SOL    HW238019   1.913   1.182   7.876 -1.8539  0.9096  0.4364
 8795SOL     OW38020   0.686   4.616  13.057  0.2615 -0.0593 -0.8154
 8795SOL    HW138021   0.749   4.638  12.989  1.1149 -0.9474 -0.3064
 8795SOL    HW238022   0.652   4.536  13.016 -0.4986 -0.2685  0.2117
 8796SOL     OW38023   0.332   0.160   3.941  0.0164 -0.3223 -0.0540
 8796SOL    HW138024   0.239   0.153   3.964  0.4405  1.8623  2.4035
 8796SOL    HW238025   0.375   0.195   4.020  0.6925 -0.3394 -0.4188
 8797SOL     OW38026   2.821   4.343   9.657 -0.0165 -0.7420 -0.4268
 8797SOL    HW138027   2.862   4.265   9.620  1.4612  1.6103 -3.7272
 8797SOL    HW238028   2.854   4.326   9.745 -0.4289 -0.4554 -0.2145
 8798SOL     OW38029   0.023   1.292   1.711 -0.0778  0.1068  0.1574
 8798SOL    HW138030   4.722   1.210   1.682 -0.3829  0.0912  0.6215
 8798SOL    HW238031   4.707   1.357   1.668 -1.6378 -0.9648  0.5315
 8799SOL     OW38032   3.158   2.162  16.503  0.4457  0.0239 -0.1748
 8799SOL    HW138033   3.133   2.158  16.411 -1.2386 -1.6411  0.3601
 8799SOL    HW238034   3.214   2.085  16.505  1.6862  0.9223 -0.5791
 8800SOL     OW38035   2.095   1.960   6.405  0.0454  0.4767  0.1672
 8800SOL    HW138036   2.118   2.050   6.386  1.4141 -0.1581 -1.1053
 8800SOL    HW238037   2.181   1.934   6.439 -1.0759 -1.1696  1.7856
 8801SOL     OW38038   3.982   2.385   8.165 -0.3623  0.2137  0.2198
 8801SOL    HW138039   3.974   2.348   8.253  0.7575 -2.2718 -0.7439
 8801SOL    HW238040   4.013   2.320   8.102  0.1446 -1.1821  1.9362
 8802SOL     OW38041   2.540   2.877   6.388 -0.1456 -0.4231 -0.5008
 8802SOL    HW138042   2.468   2.912   6.336 -0.9990 -2.6817 -0.8370
 8802SOL    HW238043   2.599   2.840   6.322 -0.3313  0.4071 -1.1223
 8803SOL     OW38044   2.396   4.126  13.167  0.1298  0.1680  0.8327
 8803SOL    HW138045   2.366   4.213  13.192 -1.5870 -1.2394  3.7205
 8803SOL    HW238046   2.410   4.129  13.073 -0.8990 -1.3070  0.6334
 8804SOL     OW38047   3.394   1.996  14.414 -0.1597  0.8746  0.3000
 8804SOL    HW138048   3.392   1.961  14.325 -1.3059  2.1492 -0.1814
 8804SOL    HW238049   3.390   1.920  14.471  2.3845 -0.7817 -1.7625
 8805SOL     OW38050   1.090   4.186   5.025  0.2758  0.5313  0.3845
 8805SOL    HW138051   1.118   4.262   5.076 -1.5408  2.9355 -2.1776
 8805SOL    HW238052   1.150   4.204   4.952  0.0130  0.6660  0.2014
 8806SOL     OW38053   1.830   2.231   4.701  0.1082 -0.1697 -0.7766
 8806SOL    HW138054   1.778   2.186   4.634  1.4665 -0.7854 -1.4082
 8806SOL    HW238055   1.797   2.321   4.695 -0.3897 -0.3871 -1.3184
 8807SOL     OW38056   2.836   2.328   5.435  0.0293  0.0611  0.0793
 8807SOL    HW138057   2.883   2.410   5.441  0.3861 -0.2081  0.9942
 8807SOL    HW238058   2.763   2.363   5.384 -2.1835 -1.0052  2.4679
 8808SOL     OW38059   0.539   3.532   1.458  0.0937  0.5708  0.6374
 8808SOL    HW138060   0.598   3.527   1.382  1.2441  1.2691  1.4765
 8808SOL    HW238061   0.581   3.600   1.510  1.0938  1.1316 -0.8864
 8809SOL     OW38062   3.635   1.967   2.403 -0.2346  0.3011  0.0043
 8809SOL    HW138063   3.541   1.958   2.386  0.4791 -1.4435 -2.9281
 8809SOL    HW238064   3.657   1.989   2.313  0.2806  2.5695  0.6886
 8810SOL     OW38065   2.589   2.724   3.583 -0.1350 -0.1015  0.1203
 8810SOL    HW138066   2.659   2.789   3.592 -0.4019  0.3216 -0.7622
 8810SOL    HW238067   2.527   2.748   3.651  1.9931  1.6511  1.4303
 8811SOL     OW38068   2.484   3.893   4.137  0.0842 -0.3581 -0.0122
 8811SOL    HW138069   2.546   3.951   4.181  0.7394 -0.7285 -0.4421
 8811SOL    HW238070   2.418   3.945   4.092 -0.0229  0.0576  0.6242
 8812SOL     OW38071   2.420   3.847   6.381 -0.0893 -0.3845 -0.6785
 8812SOL    HW138072   2.414   3.802   6.297  0.7519  0.0456 -0.9789
 8812SOL    HW238073   2.417   3.938   6.350 -0.6635 -0.4119 -0.6920
 8813SOL     OW38074   3.310   4.513   6.110 -0.1486 -0.7558 -0.1033
 8813SOL    HW138075   3.387   4.535   6.058 -0.9179 -0.6317 -1.2065
 8813SOL    HW238076   3.347   4.446   6.167 -1.0129 -0.6034  0.6318
 8814SOL     OW38077   1.664   3.053   0.513  0.3245 -0.4605 -0.5729
 8814SOL    HW138078   1.695   3.004   0.437  1.3153 -2.5575  1.1784
 8814SOL    HW238079   1.663   2.983   0.579 -1.1410 -1.8774 -2.0926
 8815SOL     OW38080   0.456   0.839  16.433 -0.0233  0.6287  0.5632
 8815SOL    HW138081   0.400   0.917  16.438 -1.7747 -0.7246  2.2250
 8815SOL    HW238082   0.448   0.813  16.525  1.0115 -0.4767  0.3356
 8816SOL     OW38083   4.016   0.325   6.405  0.2448  0.4017 -0.3311
 8816SOL    HW138084   3.955   0.353   6.473 -1.1160 -1.1976 -0.9043
 8816SOL    HW238085   3.977   0.360   6.324 -0.3243 -1.1625 -0.7451
 8817SOL     OW38086   4.600   4.137  10.549  0.4560  0.0866  0.1046
 8817SOL    HW138087   4.679   4.185  10.525 -0.0471  0.1199 -1.5278
 8817SOL    HW238088   4.649   4.055  10.557 -0.9120 -0.9541 -2.2510
 8818SOL     OW38089   2.557   4.118   3.810 -0.2434 -0.1596 -0.7253
 8818SOL    HW138090   2.606   4.136   3.890 -0.1693  0.4349 -0.9030
 8818SOL    HW238091   2.583   4.028   3.789 -1.4396 -1.5015  3.5823
 8819SOL     OW38092   3.289   0.076   1.838 -0.2222 -0.0883 -0.2863
 8819SOL    HW138093   3.283   4.720   1.855 -0.0573 -0.4661 -2.3075
 8819SOL    HW238094   3.262   0.121   1.919 -0.0157 -0.6556  0.0966
 8820SOL     OW38095   4.050   4.737   3.467  0.3783  0.3153  0.1912
 8820SOL    HW138096   4.079   0.071   3.413  1.2583  1.3355  2.0370
 8820SOL    HW238097   3.959   0.020   3.489  0.3590  1.4978 -1.0540
 8821SOL     OW38098   4.048   2.262   7.298  0.4429 -0.0932  0.0312
 8821SOL    HW138099   4.023   2.255   7.390  0.3396 -1.8867 -0.1264
 8821SOL    HW238100   4.009   2.186   7.255  2.4089 -0.6759 -0.7466
 8822SOL     OW38101   4.119   4.711   6.488  0.1615 -0.2071  0.2115
 8822SOL    HW138102   4.134   4.647   6.419  2.0173 -0.3898  0.7860
 8822SOL    HW238103   4.175   0.039   6.449  1.2090  0.6214  3.0859
 8823SOL     OW38104   2.631   4.138   2.563 -0.5779  0.2373  0.0537
 8823SOL    HW138105   2.535   4.134   2.569 -0.5727 -1.2107 -0.8579
 8823SOL    HW238106   2.654   4.045   2.570  5.0897  1.6245 -0.3825
 8824SOL     OW38107   1.212   2.592   0.452 -0.5781 -0.2725 -0.0375
 8824SOL    HW138108   1.288   2.637   0.488 -2.8422  0.7331  3.5261
 8824SOL    HW238109   1.151   2.619   0.521  0.4958 -4.1342  2.4124
 8825SOL     OW38110   1.615   0.929   7.543 -0.5757 -0.2254 -0.0347
 8825SOL    HW138111   1.690   0.883   7.582 -0.9282 -0.3089  0.5342
 8825SOL    HW238112   1.669   1.001   7.510  1.8358 -0.7303  2.7911
 8826SOL     OW38113   1.897   1.692  16.071  0.2976 -0.3185 -0.3223
 8826SOL    HW138114   1.849   1.611  16.090  0.2387 -0.7119 -2.0802
 8826SOL    HW238115   1.864   1.761  16.128 -1.0594 -0.1874 -1.2635
 8827SOL     OW38116   0.108   3.633   2.991 -0.0030 -0.0294 -0.2882
 8827SOL    HW138117   0.203   3.622   2.981  0.0266  0.7109 -0.8216
 8827SOL    HW238118   0.094   3.653   2.898 -3.6742 -1.8159 -0.1044
 8828SOL     OW38119   1.054   3.722   2.555  0.9334  0.0771  0.1176
 8828SOL    HW138120   1.090   3.791   2.611 -0.4989  1.9050 -1.2624
 8828SOL    HW238121   0.962   3.734   2.579  0.4778 -2.1249 -0.5351
 8829SOL     OW38122   2.187   4.286   1.428 -0.1956  0.1831  1.0286
 8829SOL    HW138123   2.243   4.269   1.504 -0.3223 -0.9276  0.8796
 8829SOL    HW238124   2.172   4.376   1.457  1.9755  0.8856 -0.0526
 8830SOL     OW38125   2.354   1.552   6.066  0.1971 -0.5960 -0.8262
 8830SOL    HW138126   2.263   1.576   6.051  0.2164 -1.0658 -1.6829
 8830SOL    HW238127   2.384   1.513   5.984 -0.7201 -1.5690 -0.6971
 8831SOL     OW38128   2.348   0.775  13.824 -0.2799 -0.1554  0.1923
 8831SOL    HW138129   2.286   0.761  13.753  1.2833  0.0670 -1.2268
 8831SOL    HW238130   2.303   0.749  13.904 -1.0340  1.1519  0.2003
 8832SOL     OW38131   4.586   1.237   5.063  0.3728  0.0848  0.4166
 8832SOL    HW138132   4.510   1.268   5.113 -0.0455 -0.1337 -0.0787
 8832SOL    HW238133   4.552   1.255   4.975  2.3795  0.5894 -0.2420
 8833SOL     OW38134   0.718   3.790   6.258 -0.2036  0.1297 -0.2666
 8833SOL    HW138135   0.774   3.853   6.303  1.5009 -1.1538 -0.6042
 8833SOL    HW238136   0.755   3.709   6.294 -0.3421  1.0944  2.0360
 8834SOL     OW38137   2.843   3.692   2.489 -0.3403  0.3008 -0.1614
 8834SOL    HW138138   2.878   3.653   2.569  0.4725 -2.4453 -1.8281
 8834SOL    HW238139   2.912   3.660   2.431  1.2742  1.6255  1.0597
 8835SOL     OW38140   4.654   2.816  10.940  0.6801  0.1381 -0.0200
 8835SOL    HW138141   4.584   2.880  10.954  0.1112 -0.7142  1.0350
 8835SOL    HW238142   4.723   2.882  10.932  0.0747  0.6561 -1.0117
 8836SOL     OW38143   4.650   0.026   9.177 -0.2612 -0.0871 -0.3808
 8836SOL    HW138144   4.635   0.118   9.196 -0.0899 -0.2394  0.5208
 8836SOL    HW238145   4.600   0.015   9.096 -0.0564  0.5220 -0.5893
 8837SOL     OW38146   0.888   0.492   6.759 -0.1319  0.5675  0.1814
 8837SOL    HW138147   0.853   0.502   6.847 -2.4612  1.0399 -0.7980
 8837SOL    HW238148   0.949   0.565   6.769  1.7499 -1.1208  1.1363
 8838SOL     OW38149   2.388   2.276   7.088  0.2325 -0.2808  0.2652
 8838SOL    HW138150   2.468   2.232   7.059 -0.0641  0.0624 -1.0793
 8838SOL    HW238151   2.383   2.350   7.027  0.5574 -0.2759  0.2458
 8839SOL     OW38152   3.581   2.669   8.790  0.5655  0.0323 -0.1014
 8839SOL    HW138153   3.654   2.625   8.833  0.8460  0.1841 -0.4224
 8839SOL    HW238154   3.571   2.746   8.845  0.8210 -1.9876  2.7743
 8840SOL     OW38155   3.716   4.646   6.440 -0.4356  0.5156 -0.1889
 8840SOL    HW138156   3.737   4.555   6.461 -1.8898  0.7139  2.1666
 8840SOL    HW238157   3.796   4.682   6.478 -0.3617  0.4351 -0.2686
 8841SOL     OW38158   1.581   2.761   7.861  0.1589 -0.5297  0.0001
 8841SOL    HW138159   1.669   2.797   7.846 -0.3111 -0.4680 -2.6832
 8841SOL    HW238160   1.542   2.839   7.822  2.8473  0.8240  0.0385
 8842SOL     OW38161   4.632   3.048   6.817  0.1396 -0.4781  0.0046
 8842SOL    HW138162   4.723   3.022   6.807  0.1664  0.4854 -2.3488
 8842SOL    HW238163   4.616   3.142   6.820  0.6232 -0.4367  1.0471
 8843SOL     OW38164   1.456   1.559   5.973 -0.3891 -0.5070 -0.5284
 8843SOL    HW138165   1.490   1.574   6.062 -0.3915  0.5537 -0.7163
 8843SOL    HW238166   1.507   1.618   5.918 -2.3604  0.0631 -1.7450
 8844SOL     OW38167   0.905   3.600  13.749  0.1848 -0.2034  0.1376
 8844SOL    HW138168   0.888   3.562  13.835  1.9613  0.3910  0.7535
 8844SOL    HW238169   0.876   3.690  13.764  1.0796  0.2174 -0.6520
 8845SOL     OW38170   2.829   3.855   9.865 -0.4592 -0.4738 -0.7552
 8845SOL    HW138171   2.787   3.813   9.790 -0.3751 -0.2689 -0.9162
 8845SOL    HW238172   2.861   3.783   9.920 -1.2207 -0.6705 -0.5690
 8846SOL     OW38173   0.264   0.693   7.263  0.3485  0.7552 -0.4567
 8846SOL    HW138174   0.334   0.639   7.298  1.6789  1.8418 -1.4676
 8846SOL    HW238175   0.311   0.747   7.199 -0.2189 -1.0651 -2.4073
 8847SOL     OW38176   2.690   3.714   8.463 -0.1980  0.4733  0.1142
 8847SOL    HW138177   2.768   3.659   8.468 -0.8312 -0.2769  1.9747
 8847SOL    HW238178   2.677   3.725   8.557 -0.9082 -0.2147  0.0989
 8848SOL     OW38179   1.819   4.627   2.122 -0.1220 -0.1426 -0.5935
 8848SOL    HW138180   1.802   4.571   2.198  1.6390 -1.4409 -1.1693
 8848SOL    HW238181   1.794   4.568   2.051  0.0607 -1.0132  0.0638
 8849SOL     OW38182   2.031   2.682   7.054 -0.2442  0.3372 -0.1738
 8849SOL    HW138183   1.960   2.691   6.990 -0.3350  0.8758 -0.0022
 8849SOL    HW238184   2.111   2.715   7.014  0.3988  1.9330  2.3740
 8850SOL     OW38185   2.353   1.248   9.586  0.6939 -0.0497  0.3014
 8850SOL    HW138186   2.307   1.165   9.600 -1.9989  1.8995  2.7185
 8850SOL    HW238187   2.285   1.301   9.546  0.1296  0.6926  2.2808
 8851SOL     OW38188   3.438   3.919   5.943 -0.0488  0.0312 -0.0486
 8851SOL    HW138189   3.420   3.834   5.984 -2.2501  0.8942  0.7826
 8851SOL    HW238190   3.350   3.945   5.914  1.1255  0.1591 -3.5411
 8852SOL     OW38191   0.574   0.862   8.107  0.3476  0.0154  1.0625
 8852SOL    HW138192   0.660   0.825   8.126 -0.2861 -2.0613 -0.0244
 8852SOL    HW238193   0.527   0.783   8.079  2.9051 -1.5291  1.1729
 8853SOL     OW38194   4.564   0.759   1.771 -0.2161  0.2157  0.1181
 8853SOL    HW138195   4.655   0.757   1.742  0.9593  2.4238  3.7972
 8853SOL    HW238196   4.518   0.772   1.688 -0.8480  2.3771  0.8203
 8854SOL     OW38197   0.773   0.456   7.390  0.1624 -0.3505  0.4295
 8854SOL    HW138198   0.834   0.459   7.464  0.5883 -0.4265  0.0797
 8854SOL    HW238199   0.835   0.405   7.338  1.7545  0.9635  1.0447
 8855SOL     OW38200   4.389   4.153   5.184  0.2676  0.1924 -0.3169
 8855SOL    HW138201   4.441   4.106   5.249 -0.9799 -0.9532 -0.1525
 8855SOL    HW238202   4.303   4.151   5.226  0.4640 -0.9344  0.0247
 8856SOL     OW38203   2.504   3.706   1.581 -0.4102  0.3383  0.5394
 8856SOL    HW138204   2.455   3.727   1.502 -0.0677  2.0622  0.7703
 8856SOL    HW238205   2.488   3.788   1.628 -1.3047 -0.1506  1.0814
 8857SOL     OW38206   1.510   4.604   7.175  0.1475 -0.6661 -0.1728
 8857SOL    HW138207   1.530   4.555   7.255 -0.6289  1.2550  1.1934
 8857SOL    HW238208   1.572   4.677   7.176 -0.8170  0.1624 -1.7619
 8858SOL     OW38209   0.208   2.420   2.104 -0.4792 -0.2304 -0.1192
 8858SOL    HW138210   0.285   2.379   2.143 -0.4118  0.9786  1.0025
 8858SOL    HW238211   0.194   2.357   2.033 -3.4502  1.3173 -0.8872
 8859SOL     OW38212   3.058   1.965   8.465  0.5927 -0.0376  0.2893
 8859SOL    HW138213   2.984   2.002   8.514 -1.2239 -3.3616  0.0876
 8859SOL    HW238214   3.130   1.993   8.522  1.4558 -0.0038 -0.8342
 8860SOL     OW38215   4.262   0.334  12.671  0.3656 -0.2298 -0.1119
 8860SOL    HW138216   4.335   0.372  12.720  1.9442 -2.1291 -0.9595
 8860SOL    HW238217   4.300   0.247  12.655  1.1313  0.1575 -0.4045
 8861SOL     OW38218   3.550   4.289   1.129  0.0150 -0.3671 -0.1779
 8861SOL    HW138219   3.500   4.303   1.049  0.4879 -0.2133 -0.4407
 8861SOL    HW238220   3.618   4.354   1.114 -0.3418  0.1415  0.4320
 8862SOL     OW38221   0.782   3.437   4.941 -0.3778  0.0586 -0.5144
 8862SOL    HW138222   0.769   3.530   4.924  1.8075  0.6447  1.0248
 8862SOL    HW238223   0.730   3.431   5.021  1.5529 -3.1255  0.5392
 8863SOL     OW38224   2.209   1.825   7.013  0.6475 -0.5836 -0.4572
 8863SOL    HW138225   2.124   1.863   7.033  2.1890  1.3071  2.5200
 8863SOL    HW238226   2.261   1.872   7.079  1.7052  1.7654 -2.9801
 8864SOL     OW38227   4.722   0.901   3.003  0.0824 -0.2464  0.1413
 8864SOL    HW138228   0.050   0.941   2.948  0.4273 -1.4123 -0.2682
 8864SOL    HW238229   4.646   0.911   2.946  0.7940 -0.0377 -0.7583
 8865SOL     OW38230   2.422   4.674   4.541  0.0801 -0.0547 -0.2980
 8865SOL    HW138231   2.496   4.735   4.545 -1.2098  1.5130 -0.3490
 8865SOL    HW238232   2.410   4.679   4.446  1.5165  0.3187 -0.4729
 8866SOL     OW38233   0.455   1.275   9.132 -0.2027 -0.2389 -0.1578
 8866SOL    HW138234   0.502   1.340   9.184 -1.1185 -0.1601  0.5845
 8866SOL    HW238235   0.490   1.195   9.170  0.5041  1.1779  2.1918
 8867SOL     OW38236   3.012   1.825   6.187 -0.1329 -0.0952  0.4136
 8867SOL    HW138237   3.039   1.882   6.259  0.1314  0.0969  0.1644
 8867SOL    HW238238   3.016   1.742   6.234 -0.6547  0.7089  1.8674
 8868SOL     OW38239   2.760   0.722   6.218 -0.1603 -0.3437 -0.2587
 8868SOL    HW138240   2.776   0.707   6.311 -0.2039 -3.5330 -0.7700
 8868SOL    HW238241   2.845   0.714   6.174  0.3832 -1.5209  1.0264
 8869SOL     OW38242   2.930   1.364   3.309  0.2256 -0.1567  0.2640
 8869SOL    HW138243   3.003   1.426   3.308  0.2284 -0.1916 -0.8347
 8869SOL    HW238244   2.927   1.346   3.403 -3.1539 -1.1659 -0.0257
 8870SOL     OW38245   1.848   2.499   3.382 -0.2558  0.0959  0.5284
 8870SOL    HW138246   1.887   2.440   3.317 -0.6490  0.7490 -0.2980
 8870SOL    HW238247   1.930   2.547   3.394  0.5736 -0.5166 -2.7862
 8871SOL     OW38248   0.096   1.764   5.480 -0.4418 -0.5902 -0.1119
 8871SOL    HW138249   0.060   1.706   5.548  2.2832  0.5739  2.3484
 8871SOL    HW238250   0.037   1.755   5.406 -0.6136  1.1737 -0.1826
 8872SOL     OW38251   1.278   4.340   7.125 -0.0434 -0.5222  0.6046
 8872SOL    HW138252   1.187   4.354   7.100  0.3734  0.0483 -0.6057
 8872SOL    HW238253   1.297   4.407   7.190 -0.0670  1.4581 -1.4610
 8873SOL     OW38254   2.999   1.762   9.152 -0.1834  0.0155  0.4894
 8873SOL    HW138255   2.965   1.673   9.167 -1.2298  0.3061 -0.1252
 8873SOL    HW238256   3.025   1.752   9.060  1.1183 -1.9464  1.0593
 8874SOL     OW38257   2.416   4.617   4.259 -0.7813 -0.3123  0.5188
 8874SOL    HW138258   2.352   4.548   4.242 -0.7627 -0.6353  1.7657
 8874SOL    HW238259   2.500   4.586   4.226 -0.0756  0.7394  1.3221
 8875SOL     OW38260   4.341   4.569   5.675 -0.1457  0.1078  0.1224
 8875SOL    HW138261   4.389   4.529   5.747 -0.2238  1.6019  1.0100
 8875SOL    HW238262   4.410   4.622   5.635 -0.5343  0.2778 -0.3247
 8876SOL     OW38263   3.360   0.723   9.151  0.0059  0.2270 -1.1040
 8876SOL    HW138264   3.279   0.747   9.195  0.5552 -0.1114  0.0771
 8876SOL    HW238265   3.312   0.657   9.101 -0.8149 -0.5702  0.7679
 8877SOL     OW38266   1.055   2.724  12.989 -0.1108 -0.0498 -0.2294
 8877SOL    HW138267   1.000   2.646  12.998  0.6755 -0.5336  0.3808
 8877SOL    HW238268   1.135   2.689  12.950  0.0460  0.7581 -0.6355
 8878SOL     OW38269   4.297   1.005   2.978  0.1137 -0.6477 -0.4590
 8878SOL    HW138270   4.372   0.955   2.944  1.3921  1.4636 -0.7451
 8878SOL    HW238271   4.226   0.955   2.938 -1.7515  0.7176  1.1374
 8879SOL     OW38272   0.389   2.641   8.433 -0.0370 -0.2371 -0.8616
 8879SOL    HW138273   0.363   2.729   8.405  0.4644  0.1934  0.0398
 8879SOL    HW238274   0.426   2.600   8.354 -1.2357 -0.2572 -1.4084
 8880SOL     OW38275   4.301   1.567   7.320 -0.2038  0.2437  0.3662
 8880SOL    HW138276   4.233   1.631   7.301  0.2428  1.3100  2.2970
 8880SOL    HW238277   4.317   1.586   7.413 -0.5395 -1.3298  0.7402
 8881SOL     OW38278   1.051   0.221   9.510  0.4139  0.3464 -0.6261
 8881SOL    HW138279   1.041   0.246   9.418 -2.7284  0.2445 -0.3074
 8881SOL    HW238280   1.039   0.305   9.554  0.0264  0.5066 -1.0347
 8882SOL     OW38281   2.777   4.557  15.290  0.4364  0.3683 -0.2610
 8882SOL    HW138282   2.719   4.631  15.271  1.6398  0.7758 -2.3331
 8882SOL    HW238283   2.849   4.608  15.327  1.2421 -1.5506  0.8044
 8883SOL     OW38284   2.484   3.542   8.349 -0.8035  0.1009  0.3259
 8883SOL    HW138285   2.505   3.553   8.256 -0.1733  1.9150  0.6853
 8883SOL    HW238286   2.522   3.623   8.384 -3.0678  0.5969  1.6485
 8884SOL     OW38287   3.288   4.020   1.885  0.4212  0.0500 -0.0227
 8884SOL    HW138288   3.297   3.930   1.854  0.6301 -0.3590  1.2240
 8884SOL    HW238289   3.211   4.053   1.839 -1.5914 -3.6344  0.7522
 8885SOL     OW38290   2.594   0.911   1.582  0.8282  0.4396  0.0321
 8885SOL    HW138291   2.682   0.874   1.572  1.1995  0.6243  2.6209
 8885SOL    HW238292   2.613   0.990   1.634 -0.8630  0.2175  1.0102
 8886SOL     OW38293   3.553   2.225   3.026 -0.3666 -0.2615 -0.2542
 8886SOL    HW138294   3.523   2.192   3.110  0.7760  0.6114  0.4990
 8886SOL    HW238295   3.498   2.303   3.024 -0.6241 -0.4442 -0.2775
 8887SOL     OW38296   2.786   3.971   8.372  0.5731 -0.0493 -0.0215
 8887SOL    HW138297   2.876   3.941   8.389  0.7089  1.0893  1.2809
 8887SOL    HW238298   2.741   3.910   8.430 -0.9050  0.9219 -0.1642
 8888SOL     OW38299   0.301   1.188   1.313  0.3346 -0.6494 -0.6225
 8888SOL    HW138300   0.217   1.210   1.272  0.6181 -0.2940 -1.0157
 8888SOL    HW238301   0.314   1.259   1.376 -1.6626 -0.2657 -0.6165
 8889SOL     OW38302   3.624   0.160   6.649 -0.4399  0.0461  0.2964
 8889SOL    HW138303   3.599   0.171   6.557 -0.3033  1.3522  0.4131
 8889SOL    HW238304   3.706   0.111   6.646 -1.3995 -1.4378 -1.8489
 8890SOL     OW38305   4.489   3.643   7.695  0.3294  0.3815 -0.8089
 8890SOL    HW138306   4.394   3.651   7.706  0.1769 -3.6546  1.0092
 8890SOL    HW238307   4.490   3.547   7.690  1.4251  0.3356  0.4522
 8891SOL     OW38308   3.508   2.982  11.470 -0.5329  0.1819 -0.6053
 8891SOL    HW138309   3.559   3.040  11.526 -2.3698  1.2193  0.0011
 8891SOL    HW238310   3.556   2.985  11.388  0.9546 -0.6296  0.2427
 8892SOL     OW38311   2.437   2.634   1.931  0.0923 -0.2387  0.0640
 8892SOL    HW138312   2.421   2.621   1.837 -0.7917  0.2534  0.1437
 8892SOL    HW238313   2.512   2.693   1.925  0.6247 -0.9635 -0.4489
 8893SOL     OW38314   4.621   0.959   5.667  0.3755 -0.3467  0.1655
 8893SOL    HW138315   4.561   0.885   5.672  0.1855 -0.1696  0.4816
 8893SOL    HW238316   4.645   0.974   5.575 -0.0285  3.1235  0.6195
 8894SOL     OW38317   1.528   3.288  10.143 -0.5566 -0.0950 -0.7623
 8894SOL    HW138318   1.477   3.323  10.069 -1.4016  1.3571  0.4992
 8894SOL    HW238319   1.615   3.269  10.110 -0.4410  0.0014 -0.5106
 8895SOL     OW38320   3.498   3.591  15.578 -0.0292  0.5503 -0.0744
 8895SOL    HW138321   3.515   3.682  15.600 -0.7575  0.5731  0.3928
 8895SOL    HW238322   3.402   3.592  15.580 -0.0131 -0.9548  1.3505
 8896SOL     OW38323   2.819   3.139   1.394 -0.1822 -0.0473  0.0693
 8896SOL    HW138324   2.763   3.213   1.370  0.8235 -0.3769 -3.2920
 8896SOL    HW238325   2.750   3.073   1.384 -0.2474  0.3399 -1.9396
 8897SOL     OW38326   0.784   1.487  16.927  0.5132  0.4788  0.1548
 8897SOL    HW138327   0.766   1.396  16.946  0.7012  0.7801  1.7422
 8897SOL    HW238328   0.855   1.472  16.864  0.8960  0.0927  0.6818
 8898SOL     OW38329   2.357   1.930   3.414 -0.0455 -0.4349 -0.0713
 8898SOL    HW138330   2.365   1.980   3.496 -0.2044 -0.4389 -0.0524
 8898SOL    HW238331   2.432   1.969   3.370  0.0596 -0.1966  0.3136
 8899SOL     OW38332   4.372   0.762   8.846  0.2229  0.1980  0.4236
 8899SOL    HW138333   4.409   0.845   8.874  0.6235  0.3817 -0.6640
 8899SOL    HW238334   4.450   0.709   8.864 -0.0973 -0.6837 -0.7394
 8900SOL     OW38335   0.281   3.283   6.188  0.1191  0.1123 -0.1574
 8900SOL    HW138336   0.356   3.230   6.161 -0.1394 -0.5812  0.4838
 8900SOL    HW238337   0.237   3.284   6.103 -0.2147  0.6916  0.0244
 8901SOL     OW38338   0.691   1.415  11.689 -0.0436  0.3412  0.4388
 8901SOL    HW138339   0.704   1.327  11.656 -3.6897 -0.1414  0.3518
 8901SOL    HW238340   0.696   1.462  11.606 -0.5319 -3.2722 -1.6230
 8902SOL     OW38341   3.261   0.071   4.417  0.4563  0.5584  0.1375
 8902SOL    HW138342   3.249   0.161   4.387  3.8839  0.6489 -0.9243
 8902SOL    HW238343   3.353   0.072   4.443  0.4279 -1.1767  0.3293
 8903SOL     OW38344   1.801   2.702   9.457  0.7405  0.0029 -0.1677
 8903SOL    HW138345   1.795   2.620   9.408  1.6900 -0.0324 -0.2283
 8903SOL    HW238346   1.797   2.761   9.381  2.5333  0.1084 -0.1751
 8904SOL     OW38347   0.706   2.328   8.875  0.7576 -0.4883 -0.2633
 8904SOL    HW138348   0.686   2.302   8.785  1.9246 -0.5170 -0.5151
 8904SOL    HW238349   0.632   2.299   8.929  1.4523  0.0000  0.9668
 8905SOL     OW38350   4.267   0.259   8.012 -0.4885 -0.2586  0.2002
 8905SOL    HW138351   4.185   0.265   7.964 -1.9489 -0.7961  2.6149
 8905SOL    HW238352   4.319   0.319   7.959 -0.2776 -0.0984  0.5944
 8906SOL     OW38353   2.145   4.443   4.620  0.0531  0.2260 -0.2491
 8906SOL    HW138354   2.129   4.349   4.613  1.9869 -0.0150 -1.5849
 8906SOL    HW238355   2.065   4.480   4.656 -1.4112 -1.9366 -1.3342
 8907SOL     OW38356   0.329   2.781   2.105 -0.2514 -0.1808 -0.2148
 8907SOL    HW138357   0.311   2.833   2.026  3.3983  0.2629 -0.7653
 8907SOL    HW238358   0.250   2.788   2.158 -0.2089  1.6173 -0.4086
 8908SOL     OW38359   0.994   3.966   2.420 -0.3453  0.8136 -0.1215
 8908SOL    HW138360   1.046   4.046   2.415  2.1958 -0.9351 -1.7147
 8908SOL    HW238361   1.058   3.902   2.451 -0.1952  0.6602 -0.7594
 8909SOL     OW38362   3.382   2.903   0.731  0.0296 -0.0171 -0.2741
 8909SOL    HW138363   3.404   2.958   0.806  0.6670 -0.9000  0.1894
 8909SOL    HW238364   3.467   2.870   0.701 -0.2728 -0.2677 -0.8463
 8910SOL     OW38365   1.503   2.322   5.239 -0.8291 -0.0165 -0.3240
 8910SOL    HW138366   1.527   2.296   5.150 -0.4458 -1.8640  0.2952
 8910SOL    HW238367   1.592   2.343   5.268 -1.2028  0.6666  0.3447
 8911SOL     OW38368   3.332   2.458   1.555  0.2440 -0.2305  0.3508
 8911SOL    HW138369   3.413   2.459   1.607 -1.4437 -2.8395  2.9946
 8911SOL    HW238370   3.362   2.496   1.472 -0.1201 -0.8913 -0.0800
 8912SOL     OW38371   3.468   3.956  14.216 -0.3319 -0.7143  0.0539
 8912SOL    HW138372   3.441   4.008  14.292  1.1280  1.4678 -0.9496
 8912SOL    HW238373   3.389   3.974  14.164 -0.5857  1.0917  1.0656
 8913SOL     OW38374   3.879   1.010   4.300 -0.2074  0.2628  0.1157
 8913SOL    HW138375   3.875   0.969   4.213  0.3746 -1.2200  0.7919
 8913SOL    HW238376   3.888   0.932   4.354  3.1860  1.1807  0.8616
 8914SOL     OW38377   0.543   2.608   6.039 -0.1138  0.3860  0.8055
 8914SOL    HW138378   0.501   2.674   6.095 -1.8495 -1.4543  1.6770
 8914SOL    HW238379   0.627   2.602   6.084  0.2764  1.6631  0.2470
 8915SOL     OW38380   2.612   1.590   5.584 -0.2702  0.2303 -0.4000
 8915SOL    HW138381   2.578   1.650   5.519  0.7856 -2.8073 -3.7500
 8915SOL    HW238382   2.547   1.520   5.573  0.1927 -0.0310 -1.4038
 8916SOL     OW38383   2.339   4.116   2.599 -0.5002 -0.0578  0.1649
 8916SOL    HW138384   2.268   4.060   2.631  0.7709  0.0678  3.2666
 8916SOL    HW238385   2.335   4.191   2.659  0.4279  0.6035 -0.6003
 8917SOL     OW38386   2.035   1.773   6.220  0.0843  0.2354 -0.2486
 8917SOL    HW138387   2.105   1.731   6.270 -0.8997  0.8546  1.6364
 8917SOL    HW238388   2.020   1.854   6.270 -1.3056 -1.2446  1.7014
 8918SOL     OW38389   0.301   2.330  14.958 -0.9084  0.2580  0.2272
 8918SOL    HW138390   0.305   2.301  15.049  0.7546 -2.4126 -0.6910
 8918SOL    HW238391   0.390   2.362  14.943 -1.2553 -0.4257 -3.4335
 8919SOL     OW38392   3.410   4.214   5.778  0.4307 -0.2504 -0.5081
 8919SOL    HW138393   3.335   4.267   5.805 -0.2288 -0.2654 -2.3089
 8919SOL    HW238394   3.453   4.189   5.860 -0.8261 -1.5986 -0.2714
 8920SOL     OW38395   4.570   0.548   9.188  0.2366  0.5150  0.6351
 8920SOL    HW138396   4.626   0.564   9.112 -1.0276 -0.3161 -0.4709
 8920SOL    HW238397   4.593   0.615   9.252 -1.1084  0.2983  1.3410
 8921SOL     OW38398   2.667   1.159   8.622  0.1421 -0.4283  0.5358
 8921SOL    HW138399   2.743   1.131   8.571  0.0623 -0.2979  0.3456
 8921SOL    HW238400   2.682   1.110   8.703 -1.6793  0.2885  1.3163
 8922SOL     OW38401   2.740   1.421   5.326 -0.0681  0.0481  0.1200
 8922SOL    HW138402   2.717   1.510   5.298  1.2277 -0.1920 -1.7078
 8922SOL    HW238403   2.655   1.380   5.310  0.5542 -0.9141 -0.7004
 8923SOL     OW38404   3.509   3.524   8.698  0.0021 -0.0917  0.0048
 8923SOL    HW138405   3.487   3.615   8.716 -0.3263  0.0508 -1.1152
 8923SOL    HW238406   3.594   3.524   8.742  0.9809 -1.3471 -1.8586
 8924SOL     OW38407   3.084   1.095   1.414 -0.2035 -0.2022 -0.0278
 8924SOL    HW138408   3.032   1.091   1.494 -2.0952 -0.9073 -1.2889
 8924SOL    HW238409   3.140   1.162   1.454 -1.0342  0.5040 -0.0606
 8925SOL     OW38410   3.393   2.844  17.083  0.1175  0.7324  0.1008
 8925SOL    HW138411   3.449   2.783  17.035 -2.3254  0.0952 -1.9781
 8925SOL    HW238412   3.450   2.878  17.151 -0.8129  3.7386 -0.6256
 8926SOL     OW38413   2.023   0.668  16.399  0.1559  0.3984 -0.2015
 8926SOL    HW138414   2.098   0.708  16.356  0.8528  0.2648  0.8924
 8926SOL    HW238415   2.030   0.700  16.489 -0.1226 -1.6675  0.5570
 8927SOL     OW38416   1.501   0.409  11.852  0.0553  0.0359  0.0518
 8927SOL    HW138417   1.406   0.400  11.851  0.2105 -1.4906 -1.9596
 8927SOL    HW238418   1.527   0.325  11.890  1.6327  0.2066 -0.6731
 8928SOL     OW38419   2.390   0.767   1.682  0.2085 -0.1250  0.1816
 8928SOL    HW138420   2.445   0.694   1.710  1.1031  0.3490 -0.3236
 8928SOL    HW238421   2.453   0.816   1.629  0.2520 -0.7114 -0.3150
 8929SOL     OW38422   2.824   4.375  10.562  0.3956  0.6712  0.3451
 8929SOL    HW138423   2.807   4.320  10.638  0.8507 -0.4013 -0.3324
 8929SOL    HW238424   2.782   4.458  10.586  0.4608  0.7629  0.1419
 8930SOL     OW38425   4.541   2.711   2.250 -0.1298 -0.4919  0.2111
 8930SOL    HW138426   4.446   2.713   2.258 -0.0032 -0.2623  1.6196
 8930SOL    HW238427   4.560   2.622   2.221 -2.1903 -0.4411 -1.2377
 8931SOL     OW38428   1.582   0.068   7.674  0.1596 -0.7392  0.3018
 8931SOL    HW138429   1.660   0.022   7.644 -0.1523 -1.3222  0.3896
 8931SOL    HW238430   1.539   0.084   7.590  0.2786 -2.7627 -0.1540
 8932SOL     OW38431   2.368   3.646  10.299  0.0710  0.6112 -0.3333
 8932SOL    HW138432   2.462   3.664  10.306  0.2732  0.3600 -2.3060
 8932SOL    HW238433   2.320   3.702  10.359  0.8860 -1.0352  1.8400
 8933SOL     OW38434   2.855   2.799   7.550 -0.7661  0.4093  0.0997
 8933SOL    HW138435   2.897   2.851   7.619  4.2887 -0.6060 -2.2636
 8933SOL    HW238436   2.769   2.841   7.544 -1.2480 -0.6820 -0.6039
 8934SOL     OW38437   1.373   1.134  10.344  0.4267  0.6472 -0.0710
 8934SOL    HW138438   1.424   1.066  10.299 -0.7376 -1.4573  1.8017
 8934SOL    HW238439   1.327   1.169  10.267 -2.4707 -1.1861  0.8035
 8935SOL     OW38440   2.203   0.770   3.071 -0.2778 -0.0121  0.3719
 8935SOL    HW138441   2.228   0.855   3.107 -0.4533  0.2635 -0.1484
 8935SOL    HW238442   2.111   0.779   3.048 -0.0951  0.0589 -0.3349
 8936SOL     OW38443   0.482   3.814  16.779  0.3979  0.4425 -0.1845
 8936SOL    HW138444   0.419   3.756  16.736 -0.3041  0.2828  1.0780
 8936SOL    HW238445   0.515   3.753  16.844 -1.2334  1.0708  1.2298
 8937SOL     OW38446   4.109   1.170   5.702 -0.3846 -0.3872  0.1154
 8937SOL    HW138447   4.030   1.116   5.704 -1.4190  1.1467  0.8201
 8937SOL    HW238448   4.132   1.170   5.795  0.6371 -1.4069 -0.1373
 8938SOL     OW38449   3.808   4.670   3.558  0.2995 -0.3238  0.1981
 8938SOL    HW138450   3.796   4.651   3.465 -1.0188  2.8186 -0.2600
 8938SOL    HW238451   3.797   4.581   3.591  1.9653 -1.0827 -1.3089
 8939SOL     OW38452   4.573   4.160   6.378  0.2005 -0.8588 -0.2995
 8939SOL    HW138453   4.506   4.092   6.369 -0.1964 -0.6727  1.3560
 8939SOL    HW238454   4.571   4.187   6.469  0.3026 -3.5862  0.5117
 8940SOL     OW38455   3.508   2.710  15.231  0.6883  0.2354 -0.3745
 8940SOL    HW138456   3.522   2.803  15.211  0.8157  0.5456  1.1320
 8940SOL    HW238457   3.468   2.682  15.149 -1.1206  0.7323  0.3303
 8941SOL     OW38458   4.424   2.357   3.406  0.1662  0.6941  0.3299
 8941SOL    HW138459   4.416   2.279   3.350  1.0053  1.7863 -1.3122
 8941SOL    HW238460   4.500   2.401   3.367  1.3352 -3.5481 -2.3028
 8942SOL     OW38461   0.602   4.731  15.160  0.3867  0.2609  0.0533
 8942SOL    HW138462   0.595   4.662  15.094  0.9441 -1.8445  2.1774
 8942SOL    HW238463   0.547   4.704  15.233 -0.1503 -0.5429 -0.6430
 8943SOL     OW38464   0.143   1.585  11.011  0.0550  0.1542 -0.5822
 8943SOL    HW138465   0.141   1.613  10.920  0.4756 -0.9766 -0.9423
 8943SOL    HW238466   0.052   1.557  11.026  0.2826  0.9836  2.4034
 8944SOL     OW38467   2.480   0.362   4.521 -0.0315 -0.4558 -0.3114
 8944SOL    HW138468   2.442   0.403   4.444  0.8807 -0.9886 -1.0533
 8944SOL    HW238469   2.475   0.437   4.580  0.6124 -0.1907 -0.5882
 8945SOL     OW38470   3.909   3.684  17.363  0.8539 -0.1328  0.0209
 8945SOL    HW138471   3.947   3.664  17.449  0.3098  2.9158  0.9656
 8945SOL    HW238472   3.827   3.634  17.365  0.4569  0.5310  0.5503
 8946SOL     OW38473   1.732   1.099   1.605  0.2071  0.4167 -0.0966
 8946SOL    HW138474   1.747   1.191   1.630 -2.9825  0.6238  1.1314
 8946SOL    HW238475   1.802   1.049   1.646 -1.6309 -2.7396 -0.7874
 8947SOL     OW38476   0.026   4.346   5.503 -0.2534 -0.1951  0.0568
 8947SOL    HW138477   0.103   4.400   5.521 -1.1523  1.8514 -2.2941
 8947SOL    HW238478   0.019   4.317   5.594  0.0696  1.0159  0.4573
 8948SOL     OW38479   0.101   4.542   9.113  0.2624  0.0748 -0.6508
 8948SOL    HW138480   0.109   4.629   9.153 -1.0539 -0.1664  0.1530
 8948SOL    HW238481   0.043   4.505   9.180 -0.9206  1.5201 -0.8662
 8949SOL     OW38482   0.016   3.413   1.894 -0.0912  0.2536 -0.0013
 8949SOL    HW138483   4.705   3.456   1.963 -0.0752  0.6493 -0.2331
 8949SOL    HW238484   0.015   3.481   1.826  2.3496  0.7485  0.4381
 8950SOL     OW38485   1.799   3.805   2.804  0.3125 -0.1014  0.3823
 8950SOL    HW138486   1.704   3.810   2.803  0.4492  2.9285  0.7516
 8950SOL    HW238487   1.827   3.795   2.713 -1.5870  1.7924 -0.4142
 8951SOL     OW38488   1.390   3.838   4.490  0.1536  0.4336 -0.2482
 8951SOL    HW138489   1.471   3.792   4.467  0.2423  1.0788 -1.2698
 8951SOL    HW238490   1.333   3.772   4.529  1.5413  0.4930  1.8560
 8952SOL     OW38491   3.657   2.869   5.690 -0.0645 -0.1139 -0.3453
 8952SOL    HW138492   3.734   2.866   5.747 -0.6298 -0.2682  0.4261
 8952SOL    HW238493   3.626   2.779   5.705  1.3440 -0.6490 -0.6716
 8953SOL     OW38494   2.971   0.192   9.271 -0.0995  0.5331 -0.2715
 8953SOL    HW138495   2.949   0.152   9.355  2.2733 -1.4657 -0.5853
 8953SOL    HW238496   3.059   0.158   9.254 -0.0776  0.3072  0.2986
 8954SOL     OW38497   1.977   2.058   4.367  0.5677  0.1608  0.1125
 8954SOL    HW138498   2.008   2.039   4.456  1.4954 -0.1441 -0.2742
 8954SOL    HW238499   1.956   2.151   4.367 -1.5103 -0.3349 -2.7599
 8955SOL     OW38500   3.946   3.884   5.652  1.0764 -0.2523  0.8463
 8955SOL    HW138501   4.021   3.920   5.605  0.2300  0.8663  0.3657
 8955SOL    HW238502   3.928   3.968   5.696  0.0602  0.5981 -1.2098
 8956SOL     OW38503   0.625   2.541  16.949 -0.5864  0.2196  0.2466
 8956SOL    HW138504   0.672   2.569  16.870  0.6199  0.1522  0.9349
 8956SOL    HW238505   0.547   2.510  16.903 -0.8717  1.4626 -0.1125
 8957SOL     OW38506   1.283   2.399   1.919  0.6025  0.1158 -0.2008
 8957SOL    HW138507   1.333   2.398   1.837  0.3868  0.8406 -0.3438
 8957SOL    HW238508   1.309   2.315   1.955  1.3219  1.2201  1.8151
 8958SOL     OW38509   2.905   3.146  14.756 -0.1013 -0.6640  1.1477
 8958SOL    HW138510   2.900   3.239  14.734 -0.0196 -0.8069  0.5510
 8958SOL    HW238511   2.865   3.100  14.682  0.2525 -0.4623  0.8321
 8959SOL     OW38512   2.121   1.895   7.962  0.0171 -0.2838 -0.3592
 8959SOL    HW138513   2.157   1.810   7.938  0.6622 -0.5579  1.5549
 8959SOL    HW238514   2.190   1.916   8.025  0.7300 -0.3363 -1.1200
 8960SOL     OW38515   0.266   4.104   5.172 -0.2407  0.6512  0.0346
 8960SOL    HW138516   0.205   4.157   5.121 -0.3574 -2.6824 -3.3011
 8960SOL    HW238517   0.228   4.108   5.260  1.2072  0.1839  0.6810
 8961SOL     OW38518   1.372   4.131  13.275  0.3756  0.0775 -0.6518
 8961SOL    HW138519   1.294   4.076  13.274  0.2183  0.2936 -0.3351
 8961SOL    HW238520   1.355   4.175  13.192  1.1668 -1.5395 -1.6584
 8962SOL     OW38521   0.959   3.904   3.500  0.0442  0.0321  0.4872
 8962SOL    HW138522   1.037   3.947   3.466  0.5734 -0.7393  0.7328
 8962SOL    HW238523   0.896   3.962   3.458  0.7401 -0.4656 -1.2125
 8963SOL     OW38524   4.653   3.291  11.055 -0.0251 -0.1863 -0.2154
 8963SOL    HW138525   4.710   3.297  11.132  0.4768 -4.6070 -0.2555
 8963SOL    HW238526   4.694   3.211  11.023 -1.8038 -2.2652  2.6946
 8964SOL     OW38527   3.245   0.699   8.003  0.0302 -0.4879 -0.3213
 8964SOL    HW138528   3.334   0.679   8.031  0.0886 -1.4905 -1.2143
 8964SOL    HW238529   3.261   0.727   7.912  2.1966  0.0150  0.2098
 8965SOL     OW38530   2.204   0.869   7.862  0.6351 -0.1171 -0.4756
 8965SOL    HW138531   2.212   0.850   7.955  0.0074  2.6127  0.1341
 8965SOL    HW238532   2.115   0.834   7.860 -1.2912  4.7050  2.0838
 8966SOL     OW38533   3.755   4.048   5.389  0.3587 -0.2348  0.0029
 8966SOL    HW138534   3.682   4.084   5.440 -0.0120 -0.4673 -0.3633
 8966SOL    HW238535   3.822   4.048   5.458  1.3888  1.9183 -0.9884
 8967SOL     OW38536   0.371   0.221  10.477 -0.5349  0.3238 -0.5317
 8967SOL    HW138537   0.281   0.235  10.508 -0.3429 -1.0259  0.6266
 8967SOL    HW238538   0.403   0.306  10.447  2.9824 -0.9365 -0.2474
 8968SOL     OW38539   3.399   0.651  12.206 -0.9500 -0.7815 -0.8399
 8968SOL    HW138540   3.366   0.574  12.159 -2.5750 -0.6263  0.0136
 8968SOL    HW238541   3.471   0.683  12.152  1.2897 -0.5754  2.3086
 8969SOL     OW38542   2.431   1.245   6.260  0.0120 -0.1453  0.1481
 8969SOL    HW138543   2.466   1.157   6.244 -1.0722 -0.6114  0.3954
 8969SOL    HW238544   2.361   1.250   6.195 -0.0686 -1.0175  0.1773
 8970SOL     OW38545   1.894   4.179   2.051  0.8281  0.9228  0.4793
 8970SOL    HW138546   1.971   4.126   2.074 -0.2271 -1.1797 -0.8568
 8970SOL    HW238547   1.893   4.160   1.958  1.8618  0.0984  0.6376
 8971SOL     OW38548   2.098   4.165   9.676  0.3000 -0.2023  0.2846
 8971SOL    HW138549   2.069   4.147   9.765  1.4397 -0.5117  0.5961
 8971SOL    HW238550   2.097   4.075   9.643 -2.2535  0.3288 -1.0308
 8972SOL     OW38551   2.632   3.288   1.277 -0.4781  0.4488 -0.0793
 8972SOL    HW138552   2.628   3.373   1.233 -1.9675 -0.1716 -1.1532
 8972SOL    HW238553   2.571   3.228   1.232 -1.4158  1.7357 -0.5134
 8973SOL     OW38554   4.129   3.450  17.175  0.1491  0.2372 -0.4298
 8973SOL    HW138555   4.040   3.462  17.143  0.4693 -0.5765 -1.6176
 8973SOL    HW238556   4.172   3.506  17.110 -1.1567  1.8005  0.0672
 8974SOL     OW38557   0.443   0.970   2.991  0.6246 -0.0058  0.5473
 8974SOL    HW138558   0.369   0.913   2.969 -1.6901  2.7517  1.1182
 8974SOL    HW238559   0.515   0.911   3.010  0.1524 -1.2283 -1.4588
 8975SOL     OW38560   3.505   0.028   2.059 -0.0556 -0.5281  0.8456
 8975SOL    HW138561   3.421   0.039   2.102 -0.1702 -0.1990  0.5467
 8975SOL    HW238562   3.469   0.022   1.970 -0.0272 -0.6083  0.8395
 8976SOL     OW38563   1.308   1.049  11.460  0.3839  0.0965 -0.4428
 8976SOL    HW138564   1.245   1.003  11.404 -0.2357 -1.1073  1.2573
 8976SOL    HW238565   1.261   1.130  11.481  1.1848 -0.6814  4.3366
 8977SOL     OW38566   2.184   0.752   9.685 -0.2237 -0.3059 -0.7784
 8977SOL    HW138567   2.259   0.697   9.663  1.6796  1.3963  1.5638
 8977SOL    HW238568   2.169   0.735   9.778  2.3349 -1.5802 -0.6108
 8978SOL     OW38569   2.885   3.001   4.555 -0.2983  0.2323  0.4379
 8978SOL    HW138570   2.869   3.020   4.648 -1.3660 -0.6049  0.4174
 8978SOL    HW238571   2.795   3.004   4.524 -0.1153  1.7789  0.0832
 8979SOL     OW38572   3.150   4.445   1.357  0.4596  0.8133 -0.1642
 8979SOL    HW138573   3.105   4.498   1.291  1.9554  2.9315  0.5099
 8979SOL    HW238574   3.179   4.375   1.299 -3.4774 -0.4147 -0.6406
 8980SOL     OW38575   4.710   4.129   8.237  0.1971  0.3379  0.5837
 8980SOL    HW138576   4.728   4.097   8.326  0.3460 -0.3737  0.2959
 8980SOL    HW238577   4.678   4.214   8.268  0.8529  0.8429 -0.1303
 8981SOL     OW38578   4.717   1.441   5.157 -0.6078 -0.3687 -0.4643
 8981SOL    HW138579   0.049   1.405   5.212 -3.6367 -1.3036  2.8046
 8981SOL    HW238580   4.683   1.359   5.122  0.7810 -0.8718 -0.6539
 8982SOL     OW38581   4.439   0.871   1.539 -0.2890 -0.0691  0.1882
 8982SOL    HW138582   4.418   0.794   1.486 -1.2667  0.5614 -0.3380
 8982SOL    HW238583   4.393   0.938   1.489  2.8824  2.0639  0.1049
 8983SOL     OW38584   0.802   1.807   2.889 -0.3220  0.2295 -0.1515
 8983SOL    HW138585   0.817   1.800   2.794  1.3035 -1.2539  0.1991
 8983SOL    HW238586   0.716   1.767   2.901 -0.6027  0.8056 -0.2716
 8984SOL     OW38587   1.762   1.158   4.399  0.0126 -0.2733  0.1960
 8984SOL    HW138588   1.718   1.088   4.351 -0.4150  1.2625 -1.6394
 8984SOL    HW238589   1.690   1.192   4.452  1.0062  0.9829  0.7419
 8985SOL     OW38590   4.397   3.415   8.101  0.3500 -0.2581  0.5486
 8985SOL    HW138591   4.316   3.372   8.128  0.2089 -1.2840 -1.5261
 8985SOL    HW238592   4.376   3.418   8.008  0.0107 -1.7437  0.5789
 8986SOL     OW38593   1.185   2.930   8.212  0.0902  0.3723  0.0299
 8986SOL    HW138594   1.187   3.022   8.184  0.4264  0.4527  0.3033
 8986SOL    HW238595   1.250   2.898   8.149 -1.2839 -0.6743 -0.8546
 8987SOL     OW38596   0.445   2.309   2.214 -0.1227  0.3204 -0.1176
 8987SOL    HW138597   0.483   2.298   2.301  0.9215  1.1484 -0.4700
 8987SOL    HW238598   0.450   2.222   2.174  2.6534  0.8573 -0.9088
 8988SOL     OW38599   4.287   1.518   0.729 -0.3375 -0.3174  0.2025
 8988SOL    HW138600   4.246   1.441   0.690  0.2060 -1.7402  2.3931
 8988SOL    HW238601   4.366   1.526   0.675 -0.3193  1.1371  0.4388
 8989SOL     OW38602   2.066   1.094   1.957 -0.4879 -0.1089  0.2003
 8989SOL    HW138603   1.980   1.056   1.938 -1.3937  1.3462  1.4375
 8989SOL    HW238604   2.079   1.138   1.873  2.8100  0.8038  1.1851
 8990SOL     OW38605   4.119   2.179  16.327  0.8747  0.1922 -0.4383
 8990SOL    HW138606   4.133   2.108  16.389  1.6878 -0.5075 -1.4185
 8990SOL    HW238607   4.202   2.185  16.281  0.1125 -1.3574 -2.0334
 8991SOL     OW38608   2.895   2.466  16.441 -0.5397 -0.3066  0.2883
 8991SOL    HW138609   2.966   2.434  16.386 -0.7309 -0.7187  0.2830
 8991SOL    HW238610   2.948   2.529  16.490  0.2444 -1.1875  0.5621
 8992SOL     OW38611   3.239   2.845   8.050  0.0138 -0.0885 -0.2163
 8992SOL    HW138612   3.295   2.825   7.975 -0.4291  0.2654 -0.6418
 8992SOL    HW238613   3.304   2.828   8.118 -0.2404  1.5912  0.4515
 8993SOL     OW38614   0.078   0.361   5.055  0.5684  0.1186  0.1259
 8993SOL    HW138615   0.022   0.303   5.108 -0.8301  2.0245  0.7292
 8993SOL    HW238616   0.098   0.421   5.127 -2.2032  1.2627 -0.0467
 8994SOL     OW38617   3.616   0.235   2.225  0.7556 -0.2994 -0.0898
 8994SOL    HW138618   3.581   0.152   2.195 -0.3632 -0.0456  0.5292
 8994SOL    HW238619   3.658   0.269   2.146 -0.1384  0.9256 -0.0371
 8995SOL     OW38620   2.416   4.255  13.755 -0.0278  0.6452  0.8552
 8995SOL    HW138621   2.401   4.173  13.708 -0.8982 -0.7661  3.5493
 8995SOL    HW238622   2.352   4.251  13.827 -0.7610  0.2286  0.1753
 8996SOL     OW38623   2.603   1.575   9.111 -0.0326 -0.2617  0.0402
 8996SOL    HW138624   2.642   1.555   9.026  3.7758  1.3185  1.4250
 8996SOL    HW238625   2.650   1.652   9.143 -2.1498  0.6215  1.0590
 8997SOL     OW38626   2.520   1.883   2.043 -0.4672 -0.0650  0.0386
 8997SOL    HW138627   2.587   1.870   2.110 -1.6436 -0.3299  1.1604
 8997SOL    HW238628   2.543   1.815   1.981 -2.2606  1.2994 -2.1184
 8998SOL     OW38629   0.591   0.521   3.450 -0.0989 -0.0624 -0.1667
 8998SOL    HW138630   0.565   0.607   3.483 -1.4281 -0.9255  0.9944
 8998SOL    HW238631   0.540   0.514   3.369 -0.9502 -2.0760  0.5599
 8999SOL     OW38632   0.122   3.764   4.739  0.4033 -0.4696  0.2793
 8999SOL    HW138633   0.039   3.807   4.759  0.2746 -0.8197  0.4998
 8999SOL    HW238634   0.129   3.769   4.644  1.1625  1.2513  0.4160
 9000SOL     OW38635   2.266   3.249   3.160 -0.2838 -0.0424  0.7005
 9000SOL    HW138636   2.329   3.210   3.099 -0.5474 -0.4605  0.6916
 9000SOL    HW238637   2.302   3.220   3.244 -0.0040  1.9105  1.2422
 9001SOL     OW38638   3.359   1.598   6.261  0.3060 -0.0586  0.0702
 9001SOL    HW138639   3.368   1.691   6.240 -3.6266 -0.4810 -3.2656
 9001SOL    HW238640   3.431   1.603   6.325 -0.9076 -0.8650  1.5077
 9002SOL     OW38641   1.202   2.882   6.991  0.4037 -0.2790 -0.1702
 9002SOL    HW138642   1.169   2.856   7.077 -0.3151 -0.7211 -0.5844
 9002SOL    HW238643   1.293   2.906   7.012  0.3428  1.5137 -1.9635
 9003SOL     OW38644   1.341   2.025   7.440  0.4363  0.2404 -0.2925
 9003SOL    HW138645   1.323   2.015   7.533  1.6964 -2.6014 -0.3286
 9003SOL    HW238646   1.300   2.110   7.431  1.5887  1.1198  3.0102
 9004SOL     OW38647   2.035   4.620   3.420  0.1168  0.3074  0.3285
 9004SOL    HW138648   1.997   4.707   3.432  1.8623  0.7514  2.5958
 9004SOL    HW238649   2.124   4.644   3.393  0.5078 -1.3690  0.1330
 9005SOL     OW38650   3.398   2.916   3.295 -0.4072  0.3005  0.3370
 9005SOL    HW138651   3.344   2.840   3.318  0.6365 -1.5421 -3.3050
 9005SOL    HW238652   3.326   2.974   3.271 -0.3038 -0.1000 -0.9026
 9006SOL     OW38653   2.352   1.916   6.492 -0.1600 -0.3545  0.2252
 9006SOL    HW138654   2.431   1.944   6.446 -1.1205  2.9684  0.6499
 9006SOL    HW238655   2.391   1.907   6.579  2.5136 -0.2401 -0.9272
 9007SOL     OW38656   2.875   2.242   5.961  0.1768  0.4556  0.7318
 9007SOL    HW138657   2.921   2.189   5.895  0.3548 -0.7068  1.7784
 9007SOL    HW238658   2.900   2.200   6.044  2.3576 -1.4927 -0.9145
 9008SOL     OW38659   4.323   1.829  17.459  0.5665  0.3906  0.1965
 9008SOL    HW138660   4.289   1.760  17.403  0.1300 -0.9460  2.0782
 9008SOL    HW238661   4.340   1.774  17.536 -0.7145 -0.0561  0.1655
 9009SOL     OW38662   2.733   3.600   1.199  0.7024 -0.5442 -0.9349
 9009SOL    HW138663   2.811   3.603   1.254  0.8085 -0.2757 -1.1005
 9009SOL    HW238664   2.764   3.623   1.111 -0.2445  0.9372 -0.8848
 9010SOL     OW38665   2.478   3.879   8.451 -0.1583  0.0543  0.2113
 9010SOL    HW138666   2.562   3.845   8.480  0.6403  1.3270 -0.6236
 9010SOL    HW238667   2.493   3.951   8.389 -2.3131 -0.4449 -0.8992
 9011SOL     OW38668   1.602   2.603   4.837 -0.5178  0.1493 -0.0569
 9011SOL    HW138669   1.522   2.556   4.814 -0.2345 -1.5199  2.3226
 9011SOL    HW238670   1.575   2.647   4.918 -1.5513 -1.6460  0.5791
 9012SOL     OW38671   3.227   4.169   8.945  0.5957 -0.1894 -0.3335
 9012SOL    HW138672   3.230   4.073   8.945 -2.7740 -0.2844 -0.3424
 9012SOL    HW238673   3.174   4.179   9.024 -0.7224  2.7769 -1.6345
 9013SOL     OW38674   0.988   4.351   7.640  0.9292  0.5640  0.1777
 9013SOL    HW138675   1.073   4.310   7.625  0.5672  0.1729 -0.8016
 9013SOL    HW238676   1.000   4.363   7.734 -3.6030  0.5324  0.7320
 9014SOL     OW38677   2.529   1.403   2.956  0.6652  0.4163  0.4677
 9014SOL    HW138678   2.618   1.376   2.977  0.3079  0.3460  1.9263
 9014SOL    HW238679   2.534   1.498   2.946  1.2544  0.0967 -2.2214
 9015SOL     OW38680   1.118   1.689  11.419  0.3469  0.3519  0.0904
 9015SOL    HW138681   1.172   1.614  11.444 -1.4795 -1.5583 -1.6746
 9015SOL    HW238682   1.030   1.652  11.415  1.1618 -1.5354 -0.6237
 9016SOL     OW38683   0.342   0.997   8.656  0.4406  0.0635 -0.1932
 9016SOL    HW138684   0.361   0.979   8.748  0.1587 -2.4781 -0.6351
 9016SOL    HW238685   0.290   1.076   8.665  0.7378  0.2845 -0.4085
 9017SOL     OW38686   2.090   2.156   9.577 -0.2405 -0.3801  0.5256
 9017SOL    HW138687   2.079   2.204   9.495 -0.3143  2.4794  2.2273
 9017SOL    HW238688   2.171   2.197   9.610  0.5075 -3.3201  2.3390
 9018SOL     OW38689   1.928   0.482   1.730  0.0606  0.2290 -0.1781
 9018SOL    HW138690   2.022   0.467   1.722 -0.0631 -0.7567  0.2883
 9018SOL    HW238691   1.928   0.575   1.751 -1.1035  0.0505  0.6382
 9019SOL     OW38692   4.607   3.686   8.582 -0.2299  0.2948  0.1217
 9019SOL    HW138693   4.534   3.676   8.520 -0.5239  0.3737  0.4544
 9019SOL    HW238694   4.637   3.772   8.556  1.9738 -0.1412  1.2685
 9020SOL     OW38695   1.167   1.779   2.859  0.4415 -0.1498  0.2980
 9020SOL    HW138696   1.168   1.723   2.782 -0.6151  0.7890 -0.3906
 9020SOL    HW238697   1.115   1.731   2.924 -1.3884 -0.8796 -1.7099
 9021SOL     OW38698   3.978   1.940   1.620 -0.3373  0.0373 -0.2837
 9021SOL    HW138699   4.003   1.999   1.691 -1.1009  1.0568 -0.8657
 9021SOL    HW238700   3.888   1.926   1.648 -0.3538 -0.0027 -0.3590
 9022SOL     OW38701   0.610   3.474   4.126  0.4660  0.3321 -0.1691
 9022SOL    HW138702   0.604   3.552   4.182  0.1825 -1.2080  1.9348
 9022SOL    HW238703   0.524   3.474   4.084 -0.8018 -0.9660  2.4305
 9023SOL     OW38704   1.024   1.974  10.522 -0.5166 -0.2237  0.5380
 9023SOL    HW138705   0.998   2.033  10.451 -0.1455  1.2725  1.6528
 9023SOL    HW238706   1.076   2.028  10.581 -0.7138 -0.1400  0.6328
 9024SOL     OW38707   1.075   3.632  10.088 -0.6650  0.5251 -0.1080
 9024SOL    HW138708   1.013   3.637  10.161 -2.4055 -1.0213 -1.5015
 9024SOL    HW238709   1.153   3.653  10.140  0.4729 -2.6504 -0.5413
 9025SOL     OW38710   1.285   3.185  10.216  0.4415 -0.4679 -0.3249
 9025SOL    HW138711   1.378   3.198  10.198 -0.3670  2.9883 -1.9567
 9025SOL    HW238712   1.292   3.157  10.307  0.3332 -1.6529 -0.6754
 9026SOL     OW38713   1.506   1.816  12.593 -0.2404  0.5329 -0.0478
 9026SOL    HW138714   1.413   1.807  12.610 -0.9606  4.1677 -2.1522
 9026SOL    HW238715   1.504   1.801  12.498 -3.2910  2.1897 -0.2444
 9027SOL     OW38716   3.313   0.046  12.585  0.3215 -0.4086  0.3957
 9027SOL    HW138717   3.308   0.134  12.549  1.2294 -0.1262  0.9492
 9027SOL    HW238718   3.230   0.017  12.549 -0.4786  1.8526  0.4854
 9028SOL     OW38719   3.868   0.481   5.824  0.1256 -0.1857 -0.1929
 9028SOL    HW138720   3.826   0.557   5.865 -2.8752 -1.6043 -0.6141
 9028SOL    HW238721   3.854   0.508   5.733  0.2243 -2.2459 -0.8137
 9029SOL     OW38722   4.018   2.937   1.341  0.4537  0.2997 -0.3552
 9029SOL    HW138723   4.049   3.000   1.406 -1.8020 -1.0489  2.0198
 9029SOL    HW238724   3.933   2.974   1.319 -0.1556 -2.0510 -2.0338
 9030SOL     OW38725   1.816   1.333  13.078 -0.1964 -0.0504  0.3509
 9030SOL    HW138726   1.749   1.380  13.029 -1.9521 -1.3354  1.5099
 9030SOL    HW238727   1.857   1.290  13.003 -1.7406  2.0881 -1.7001
 9031SOL     OW38728   0.627   1.599   7.695  0.0107  0.0631 -0.1103
 9031SOL    HW138729   0.716   1.586   7.660  0.5177  2.2149  0.3855
 9031SOL    HW238730   0.659   1.605   7.785 -1.8842  1.5791  0.4409
 9032SOL     OW38731   1.839   2.258   2.033  0.0765 -0.3289  0.3428
 9032SOL    HW138732   1.760   2.262   1.979 -0.0730  2.1366  0.7588
 9032SOL    HW238733   1.801   2.254   2.120  0.6367  0.6350  0.6289
 9033SOL     OW38734   3.104   1.051   7.208 -0.2878 -0.8415  0.4264
 9033SOL    HW138735   3.175   1.032   7.146 -0.1410 -2.9116  1.2141
 9033SOL    HW238736   3.033   1.090   7.158 -0.5405  1.5167  2.6318
 9034SOL     OW38737   0.198   4.451   4.033 -0.6793  0.0500 -0.4354
 9034SOL    HW138738   0.138   4.478   3.964  0.1225  0.9209 -0.7923
 9034SOL    HW238739   0.181   4.513   4.104 -1.8251  1.4115 -1.9027
 9035SOL     OW38740   2.161   1.875   3.751 -0.0833  0.3639 -0.3280
 9035SOL    HW138741   2.248   1.836   3.763 -0.1290  0.6960  1.1598
 9035SOL    HW238742   2.157   1.921   3.835  1.1823  1.9047 -1.1097
 9036SOL     OW38743   0.207   1.306   5.296 -0.6826 -0.5308 -0.1168
 9036SOL    HW138744   0.218   1.220   5.256  1.4532 -0.4991  0.4328
 9036SOL    HW238745   0.206   1.276   5.386 -1.2030 -1.0741 -0.2986
 9037SOL     OW38746   3.819   4.209   7.005 -0.0815  0.1707 -0.0960
 9037SOL    HW138747   3.799   4.145   7.073 -0.0982  0.3942  0.1060
 9037SOL    HW238748   3.789   4.162   6.927 -1.2794  1.0071 -0.1389
 9038SOL     OW38749   1.327   1.592   9.571  0.2289 -0.6589 -0.4555
 9038SOL    HW138750   1.255   1.575   9.632  2.2063  1.9379  2.5882
 9038SOL    HW238751   1.290   1.664   9.522  0.7931  0.8983  1.3927
 9039SOL     OW38752   2.778   1.271   2.466 -0.4243  0.3940  0.2392
 9039SOL    HW138753   2.807   1.194   2.515 -0.0923  0.4248  0.0935
 9039SOL    HW238754   2.706   1.243   2.409 -0.7051  2.6703 -0.5464
 9040SOL     OW38755   1.698   0.435   5.758  0.4828 -0.1697  0.0551
 9040SOL    HW138756   1.626   0.495   5.778 -2.0435 -1.2521 -5.7280
 9040SOL    HW238757   1.695   0.382   5.837  1.7082  0.8480  0.7995
 9041SOL     OW38758   2.011   3.140   3.523  0.4638  0.0084  0.4293
 9041SOL    HW138759   2.064   3.166   3.599  3.8268 -0.6900 -1.6550
 9041SOL    HW238760   1.976   3.227   3.506 -0.3753 -0.8468 -2.2171
 9042SOL     OW38761   2.211   1.141  14.328  0.2256 -0.1649 -0.3394
 9042SOL    HW138762   2.149   1.145  14.401  1.5748  1.5199  0.7039
 9042SOL    HW238763   2.293   1.154  14.375 -0.6063  0.5592  0.9325
 9043SOL     OW38764   0.723   0.516   2.276  0.1348  0.1554  0.3541
 9043SOL    HW138765   0.753   0.437   2.231 -0.6868  0.7020 -1.1441
 9043SOL    HW238766   0.668   0.566   2.216 -2.2568 -2.9854 -0.0518
 9044SOL     OW38767   1.681   4.697   5.234 -0.3740  0.0435  0.5396
 9044SOL    HW138768   1.666   4.677   5.141  0.2993  0.3770  0.3563
 9044SOL    HW238769   1.773   4.714   5.252 -0.3063  1.2535 -0.9612
 9045SOL     OW38770   4.140   0.287  15.948  0.7455 -0.4361 -0.2976
 9045SOL    HW138771   4.115   0.201  15.982  2.1568  0.8622  3.8955
 9045SOL    HW238772   4.154   0.334  16.030  0.9982 -0.3989 -0.3618
 9046SOL     OW38773   1.148   1.457  13.932 -0.4909  0.1366  0.3714
 9046SOL    HW138774   1.240   1.483  13.926 -0.3998 -0.6656 -1.4941
 9046SOL    HW238775   1.133   1.496  13.846 -0.2745 -0.5667  0.0125
 9047SOL     OW38776   1.614   1.962   1.881 -0.3086  0.3424  0.0770
 9047SOL    HW138777   1.691   1.954   1.937  0.0149 -1.3860 -0.6228
 9047SOL    HW238778   1.592   2.055   1.892  0.7231  0.6102 -0.1370
 9048SOL     OW38779   1.241   2.147   8.083  0.2907 -0.3101  0.0629
 9048SOL    HW138780   1.184   2.220   8.110  0.8853 -0.0336  0.5667
 9048SOL    HW238781   1.329   2.183   8.076  0.7987 -1.6548 -0.3159
 9049SOL     OW38782   3.754   0.685   4.148  0.0534  0.8203  0.5511
 9049SOL    HW138783   3.819   0.720   4.209  2.2756  0.7352 -1.7325
 9049SOL    HW238784   3.803   0.695   4.066  0.0484 -1.6251  0.2622
 9050SOL     OW38785   0.934   4.021   1.546  0.4556  0.5403 -0.3181
 9050SOL    HW138786   0.892   3.968   1.478 -1.8988  1.8847  0.1171
 9050SOL    HW238787   0.855   4.040   1.596  1.0176  0.8916  0.4329
 9051SOL     OW38788   1.220   3.814   4.260 -0.2020 -0.1686  0.1662
 9051SOL    HW138789   1.281   3.750   4.222  0.1990  0.5125 -0.3370
 9051SOL    HW238790   1.254   3.828   4.348  0.4302 -0.9025  0.0406
 9052SOL     OW38791   3.413   2.349  15.843  0.2207 -0.0254  0.3329
 9052SOL    HW138792   3.436   2.374  15.753 -3.5499 -0.2777 -0.7009
 9052SOL    HW238793   3.325   2.387  15.846  0.2689  0.4048 -3.8262
 9053SOL     OW38794   0.401   1.789   6.619  0.0244 -0.0740 -0.2983
 9053SOL    HW138795   0.359   1.862   6.665  0.2085  0.3313 -0.7684
 9053SOL    HW238796   0.428   1.740   6.697 -0.8582  0.2815  0.2255
 9054SOL     OW38797   1.409   3.120   3.229 -0.0424 -0.3868 -0.5251
 9054SOL    HW138798   1.465   3.046   3.255 -0.3354 -1.5810 -3.2726
 9054SOL    HW238799   1.360   3.076   3.160  1.2648 -0.0005 -1.7001
 9055SOL     OW38800   2.821   4.599   9.615  0.1414 -0.5389 -0.0394
 9055SOL    HW138801   2.758   4.594   9.543  2.5223  1.3971 -2.2361
 9055SOL    HW238802   2.836   4.508   9.642 -0.3842 -0.5254  0.3011
 9056SOL     OW38803   3.602   3.063   4.227 -0.7054  0.0119  0.7342
 9056SOL    HW138804   3.578   3.038   4.317  0.4736 -3.0577  0.1738
 9056SOL    HW238805   3.520   3.056   4.177 -0.6171 -0.8944  0.7137
 9057SOL     OW38806   2.278   4.202  17.335 -0.3808  0.5844 -0.0603
 9057SOL    HW138807   2.373   4.200  17.326 -0.1492  3.1934  1.5996
 9057SOL    HW238808   2.257   4.279  17.282  1.7684 -0.8142 -2.8864
 9058SOL     OW38809   0.416   0.288   7.557  0.0981 -0.4916  0.3028
 9058SOL    HW138810   0.355   0.232   7.510  0.8150 -0.5148 -0.6047
 9058SOL    HW238811   0.497   0.238   7.547  1.9447  2.3516  0.8792
 9059SOL     OW38812   2.569   2.773  10.497 -0.4884 -0.5642 -0.1027
 9059SOL    HW138813   2.527   2.712  10.558 -1.1764 -0.1219 -0.1264
 9059SOL    HW238814   2.647   2.796  10.546 -0.9503 -1.0389  0.8677
 9060SOL     OW38815   2.321   2.800   2.098 -0.6637 -0.3654  0.7610
 9060SOL    HW138816   2.341   2.708   2.086  0.4469  0.1655 -1.3208
 9060SOL    HW238817   2.290   2.822   2.010  1.6400  2.7475  0.7245
 9061SOL     OW38818   3.916   0.884   4.004  0.0169  0.2384  0.2671
 9061SOL    HW138819   3.925   0.817   3.936  1.6854  0.6001  0.1141
 9061SOL    HW238820   3.982   0.952   3.987 -2.4847  2.1567 -1.7604
 9062SOL     OW38821   3.649   2.392   4.789 -0.9844 -0.4697  0.0139
 9062SOL    HW138822   3.691   2.453   4.728 -0.1907 -0.1967  0.8370
 9062SOL    HW238823   3.566   2.440   4.798 -1.2718 -0.9207 -0.2079
 9063SOL     OW38824   1.489   3.161   8.713 -0.3943  0.0962  0.8629
 9063SOL    HW138825   1.554   3.231   8.705  0.7015 -0.8595  1.4639
 9063SOL    HW238826   1.506   3.118   8.630 -0.6701 -0.8269  1.2851
 9064SOL     OW38827   2.589   0.640  15.237  0.3242  0.0173 -0.2466
 9064SOL    HW138828   2.560   0.731  15.244  1.6493  0.3029  1.4983
 9064SOL    HW238829   2.677   0.650  15.274  0.6545  2.6252 -1.7598
 9065SOL     OW38830   2.140   1.800   5.508  0.1459  0.6428 -0.1260
 9065SOL    HW138831   2.113   1.880   5.462  0.7065  2.0549  1.9579
 9065SOL    HW238832   2.102   1.820   5.594  1.3123  2.9645 -0.1421
 9066SOL     OW38833   3.208   1.144   4.368 -0.5971 -0.9295  0.4354
 9066SOL    HW138834   3.227   1.068   4.313  0.7586  0.9914 -1.7569
 9066SOL    HW238835   3.134   1.178   4.318 -0.5045  1.0014  1.6007
 9067SOL     OW38836   1.022   0.420   3.429  0.2496  0.2633  0.7539
 9067SOL    HW138837   0.981   0.445   3.345 -0.0643 -4.5106 -0.5490
 9067SOL    HW238838   1.094   0.482   3.428  1.2055 -0.8400  0.4600
 9068SOL     OW38839   3.963   1.978   2.274 -0.0633  0.0212  0.3094
 9068SOL    HW138840   3.985   1.898   2.227 -0.4851  0.3259 -0.4244
 9068SOL    HW238841   4.012   2.046   2.228  1.4583  0.7071  2.9689
 9069SOL     OW38842   1.658   2.533   7.710 -0.2655  0.1316 -0.3237
 9069SOL    HW138843   1.750   2.558   7.698 -0.3656  0.6507 -0.0208
 9069SOL    HW238844   1.623   2.585   7.782 -1.1503 -2.4026  1.0836
 9070SOL     OW38845   0.991   1.658   3.028 -0.1757 -0.7583 -0.1441
 9070SOL    HW138846   0.918   1.692   2.976  0.2314  2.5769  1.4618
 9070SOL    HW238847   0.960   1.595   3.093  1.3643  0.5767  1.8735
 9071SOL     OW38848   3.941   3.436   3.730  0.5031  0.0517  0.7654
 9071SOL    HW138849   4.032   3.425   3.702  0.2699 -0.4258  0.1914
 9071SOL    HW238850   3.959   3.509   3.789 -2.8267  0.8024  0.8278
 9072SOL     OW38851   1.931   2.317   4.341 -0.0387  0.0578  0.3796
 9072SOL    HW138852   1.876   2.377   4.290 -0.1833 -0.6446 -0.2801
 9072SOL    HW238853   1.933   2.366   4.423 -1.0366  0.7894 -0.0382
 9073SOL     OW38854   3.873   3.324   0.773 -0.5180 -0.1371 -0.3665
 9073SOL    HW138855   3.883   3.289   0.684 -0.7471  1.0303 -0.8460
 9073SOL    HW238856   3.963   3.358   0.779 -0.7520  0.5958 -1.1285
 9074SOL     OW38857   2.297   0.407   2.803 -0.5980  1.0462 -0.3779
 9074SOL    HW138858   2.352   0.422   2.880  1.3170 -0.3974 -1.4535
 9074SOL    HW238859   2.256   0.494   2.799 -1.3109  0.6791 -0.9661
 9075SOL     OW38860   1.929   2.298   8.729  0.2534  0.5611  0.0448
 9075SOL    HW138861   1.859   2.320   8.668 -0.6604  0.0590  0.9098
 9075SOL    HW238862   1.890   2.213   8.750 -1.4641  1.2476 -0.3760
 9076SOL     OW38863   1.567   2.329   4.092  0.0694 -0.1096  0.1350
 9076SOL    HW138864   1.594   2.289   4.010 -0.4474 -1.4659  0.6260
 9076SOL    HW238865   1.602   2.270   4.159 -0.3234  1.2437  1.5270
 9077SOL     OW38866   1.089   3.672   3.586  0.0865 -0.1207 -0.3845
 9077SOL    HW138867   1.130   3.728   3.651 -0.6214 -0.1559  0.0835
 9077SOL    HW238868   1.035   3.737   3.541 -2.9826 -0.8158  2.3031
 9078SOL     OW38869   1.731   0.138   9.114  0.4355 -0.3894  0.0444
 9078SOL    HW138870   1.804   0.178   9.161 -0.4150  0.0665  0.9599
 9078SOL    HW238871   1.771   0.122   9.028 -0.4952 -1.5028 -0.1839
 9079SOL     OW38872   3.147   0.812   8.821 -0.3062  0.5006  0.2911
 9079SOL    HW138873   3.145   0.766   8.736  0.8200 -0.3258  0.7046
 9079SOL    HW238874   3.179   0.897   8.791 -1.3437  1.2561  1.3634
 9080SOL     OW38875   1.743   2.585   8.709 -0.2365  0.5343  0.5006
 9080SOL    HW138876   1.765   2.669   8.670 -0.1314  0.2340 -0.0847
 9080SOL    HW238877   1.690   2.545   8.640  0.8531 -0.5787  0.3158
 9081SOL     OW38878   2.730   3.338   2.087  0.4221 -0.1023 -0.4486
 9081SOL    HW138879   2.648   3.359   2.133  0.4736 -0.2428 -0.2897
 9081SOL    HW238880   2.787   3.330   2.164  1.0093 -1.1517 -0.9935
 9082SOL     OW38881   4.525   3.500  17.711 -0.1233  0.4566 -0.0310
 9082SOL    HW138882   4.611   3.463  17.692 -0.2689 -0.4294  1.0519
 9082SOL    HW238883   4.498   3.436   0.025 -0.8351  0.9180  0.1221
 9083SOL     OW38884   2.370   4.190   4.771 -0.3375  0.4011 -0.1772
 9083SOL    HW138885   2.402   4.146   4.850 -1.6985 -0.5748 -0.1698
 9083SOL    HW238886   2.404   4.279   4.778 -1.6739  0.9372 -0.4482
 9084SOL     OW38887   2.333   2.626   4.739 -0.1141  0.2943  0.2928
 9084SOL    HW138888   2.342   2.670   4.823 -1.7892  1.9621 -0.3922
 9084SOL    HW238889   2.281   2.691   4.691 -1.0271  0.0159  0.9016
 9085SOL     OW38890   0.303   1.463   8.023 -0.4266  0.0124 -0.0087
 9085SOL    HW138891   0.207   1.466   8.028 -0.4411  0.0100 -0.3042
 9085SOL    HW238892   0.316   1.392   7.961 -1.7231  0.1966 -0.4943
 9086SOL     OW38893   2.211   4.707   5.526  0.0999 -0.4478 -0.6503
 9086SOL    HW138894   2.304   4.688   5.513  0.3279  1.3638 -1.6937
 9086SOL    HW238895   2.217   0.028   5.601 -2.1649  0.1077 -0.9167
 9087SOL     OW38896   0.096   3.091   6.490 -0.0313  0.0381 -0.0159
 9087SOL    HW138897   0.149   3.040   6.551 -0.8858  0.6123  1.2124
 9087SOL    HW238898   0.107   3.175   6.534  1.2032 -0.5624  0.8330
 9088SOL     OW38899   1.697   1.034  16.016 -0.9148 -0.4709 -0.3525
 9088SOL    HW138900   1.782   1.006  15.980 -0.1376 -1.9413  2.6751
 9088SOL    HW238901   1.641   1.025  15.939  0.7491 -0.2474 -1.6061
 9089SOL     OW38902   3.083   2.099  12.700  0.5090 -0.5381  0.4232
 9089SOL    HW138903   3.110   2.037  12.632  1.2375 -0.4228  0.6054
 9089SOL    HW238904   3.149   2.167  12.684 -0.3378  0.5078  1.3762
 9090SOL     OW38905   2.726   1.554   5.845 -0.0596 -0.4348 -0.6506
 9090SOL    HW138906   2.648   1.571   5.792 -2.5867 -0.1111  3.2507
 9090SOL    HW238907   2.772   1.635   5.823  0.1602 -0.3845  0.0076
 9091SOL     OW38908   4.509   3.146   7.848 -0.3352  0.1432  0.5451
 9091SOL    HW138909   4.546   3.109   7.928 -1.4168  0.6379  1.2760
 9091SOL    HW238910   4.419   3.112   7.848 -0.4671  0.4571 -2.1485
 9092SOL     OW38911   3.188   1.340   6.530 -0.4881 -0.1819  0.2682
 9092SOL    HW138912   3.139   1.370   6.453 -1.3686 -0.6497  0.6492
 9092SOL    HW238913   3.277   1.345   6.497 -0.2607  0.6288  0.9899
 9093SOL     OW38914   1.020   2.296   5.650 -0.2906 -0.1853  0.0279
 9093SOL    HW138915   0.947   2.330   5.703 -1.3750 -1.3576 -0.7335
 9093SOL    HW238916   1.089   2.332   5.706 -0.2745  0.7785 -0.6197
 9094SOL     OW38917   0.935   4.577  10.792  0.3346  0.0450 -0.1358
 9094SOL    HW138918   0.925   4.482  10.784 -2.0004  0.1617  1.1475
 9094SOL    HW238919   0.870   4.587  10.862 -1.7646 -1.1917 -1.9175
 9095SOL     OW38920   4.462   4.033   5.641 -0.2375 -0.3160 -0.3961
 9095SOL    HW138921   4.433   4.113   5.598 -0.5066 -1.2518 -1.9608
 9095SOL    HW238922   4.432   4.040   5.731  0.4717 -0.9039 -0.1169
 9096SOL     OW38923   2.776   2.171   5.654 -0.1666  0.1073 -0.3519
 9096SOL    HW138924   2.859   2.201   5.691  0.7009  0.1294 -2.3195
 9096SOL    HW238925   2.783   2.219   5.571  3.1881  1.7360  0.8870
 9097SOL     OW38926   2.222   2.951   8.998 -0.2975  0.4307  0.0022
 9097SOL    HW138927   2.279   2.910   8.932 -0.2133 -0.4526  0.6264
 9097SOL    HW238928   2.239   2.901   9.078  0.9970  1.4216  0.3526
 9098SOL     OW38929   4.568   1.784  17.687  0.1612  0.1079  0.2812
 9098SOL    HW138930   4.556   1.734  17.607  0.9564 -3.9896  2.7521
 9098SOL    HW238931   4.491   1.748  17.731 -0.0030 -0.7136 -0.6764
 9099SOL     OW38932   1.346   0.698   3.249 -0.0714 -0.4871  0.0208
 9099SOL    HW138933   1.382   0.703   3.160  1.0491  1.4258  0.5645
 9099SOL    HW238934   1.434   0.701   3.288  0.1698  0.7392 -0.6016
 9100SOL     OW38935   3.368   0.941   6.243 -0.0172  0.0577 -0.3711
 9100SOL    HW138936   3.411   0.991   6.173 -1.4716 -0.0173 -1.3236
 9100SOL    HW238937   3.401   0.980   6.324 -0.3593  1.2404 -0.8111
 9101SOL     OW38938   2.577   1.715  11.841  0.1450 -0.1376  0.3915
 9101SOL    HW138939   2.603   1.689  11.752  1.5063  2.2022  0.1094
 9101SOL    HW238940   2.631   1.648  11.883  2.5000  1.5250  0.0421
 9102SOL     OW38941   4.066   3.668  13.620  0.3477  0.1186 -0.6028
 9102SOL    HW138942   3.992   3.724  13.597  0.8171  1.8926  2.2800
 9102SOL    HW238943   4.014   3.588  13.625  0.5706 -0.0174 -0.4404
 9103SOL     OW38944   3.416   4.218   2.484  0.1322  0.2855 -0.0965
 9103SOL    HW138945   3.359   4.165   2.540  1.3373 -0.1554  0.7093
 9103SOL    HW238946   3.377   4.205   2.398  3.0486  0.6671 -1.4574
 9104SOL     OW38947   2.306   3.507   3.192  0.3824 -0.4594 -0.3302
 9104SOL    HW138948   2.241   3.552   3.139  0.4195 -1.2145 -1.0066
 9104SOL    HW238949   2.263   3.422   3.197 -1.5577  0.5582  0.3475
 9105SOL     OW38950   4.523   3.143  14.724 -0.0719  0.0270  0.0915
 9105SOL    HW138951   4.602   3.089  14.720 -0.3955 -0.5018  0.7294
 9105SOL    HW238952   4.456   3.081  14.694 -1.4017  1.2634  0.5478
 9106SOL     OW38953   2.190   3.006   5.761  0.0193  0.0316  0.5389
 9106SOL    HW138954   2.107   3.015   5.714 -1.0409 -2.0377  2.0062
 9106SOL    HW238955   2.242   3.069   5.712 -0.7807  0.2509 -0.0383
 9107SOL     OW38956   3.050   3.818  11.131 -0.6649  0.3463 -0.6129
 9107SOL    HW138957   3.077   3.733  11.167 -1.2958 -0.1976 -1.4059
 9107SOL    HW238958   3.033   3.805  11.037 -1.2035  0.5076 -0.5348
 9108SOL     OW38959   0.146   2.948   5.792 -0.7578 -0.1382 -0.2546
 9108SOL    HW138960   0.192   3.028   5.819  1.2461 -1.7245  0.9798
 9108SOL    HW238961   0.225   2.896   5.806 -2.0409 -1.0732  3.3479
 9109SOL     OW38962   1.165   3.017  11.601  0.3117 -0.3248 -0.4731
 9109SOL    HW138963   1.197   3.015  11.511  3.1081 -1.0171  0.5582
 9109SOL    HW238964   1.241   3.031  11.657  0.2862 -1.3063 -0.1821
 9110SOL     OW38965   0.766   3.307   5.233  0.7251  0.2484  0.5272
 9110SOL    HW138966   0.706   3.357   5.287 -0.4779 -1.2048  0.5476
 9110SOL    HW238967   0.711   3.236   5.200  1.9762 -0.3069 -0.3942
 9111SOL     OW38968   1.147   1.551   0.154  0.2911  0.1192 -0.1521
 9111SOL    HW138969   1.137   1.459   0.130 -0.3580  0.2387 -0.3509
 9111SOL    HW238970   1.051   1.559   0.155  0.1813 -1.6423  1.1635
 9112SOL     OW38971   1.396   2.723   8.761  0.4653  0.4044  0.1816
 9112SOL    HW138972   1.407   2.742   8.668 -1.4102  0.6822  0.0184
 9112SOL    HW238973   1.398   2.815   8.788 -1.0701  0.2643  0.7771
 9113SOL     OW38974   1.099   1.798   1.691 -0.3846  0.3454  0.2963
 9113SOL    HW138975   1.128   1.710   1.716 -0.7119 -0.6686 -2.9350
 9113SOL    HW238976   1.180   1.848   1.694  0.7512 -1.5961  2.7171
 9114SOL     OW38977   2.631   3.217   7.393 -0.0203 -0.2929  0.0008
 9114SOL    HW138978   2.594   3.303   7.374  0.1901 -0.4379 -1.0673
 9114SOL    HW238979   2.662   3.229   7.482 -0.3646 -1.7105  0.3211
 9115SOL     OW38980   1.974   0.416  15.108  0.1371 -0.5738  0.4134
 9115SOL    HW138981   2.034   0.428  15.034 -0.6336  2.1434  0.2155
 9115SOL    HW238982   2.032   0.406  15.184  2.1664 -3.3491 -1.5415
 9116SOL     OW38983   2.853   0.093  11.243  0.2851  0.0873 -0.0524
 9116SOL    HW138984   2.787   0.072  11.309  0.7758  0.2139  0.4767
 9116SOL    HW238985   2.824   0.038  11.170 -0.0989  0.0539  0.1265
 9117SOL     OW38986   0.597   0.894  10.333  0.3036  0.2417  0.1091
 9117SOL    HW138987   0.664   0.842  10.377  3.2963  1.4871 -2.9417
 9117SOL    HW238988   0.516   0.859  10.369  0.8791  0.5482  1.7115
 9118SOL     OW38989   1.557   0.466   3.917 -0.5182 -0.0169 -0.2808
 9118SOL    HW138990   1.571   0.383   3.872  2.1687  0.2780  0.0003
 9118SOL    HW238991   1.576   0.534   3.853 -0.3809  1.2013  1.0535
 9119SOL     OW38992   1.832   3.719   2.550 -0.0855  0.0728 -0.0713
 9119SOL    HW138993   1.867   3.754   2.468 -0.0803 -1.7779 -0.8669
 9119SOL    HW238994   1.761   3.660   2.525 -1.1041  1.3205 -0.1170
 9120SOL     OW38995   0.434   4.661   7.413  0.1202  0.2850 -0.1185
 9120SOL    HW138996   0.340   4.659   7.396  0.1304 -0.3413 -0.1113
 9120SOL    HW238997   0.434   4.654   7.509  1.2145 -1.8605 -0.2696
 9121SOL     OW38998   4.338   3.194   9.945 -0.0208  0.3705 -0.1551
 9121SOL    HW138999   4.290   3.113   9.925  1.6981 -0.6165 -0.2779
 9121SOL    HW239000   4.359   3.211   9.853  3.1259  0.1074  0.4980
 9122SOL     OW39001   0.847   4.650   9.309 -0.5794  0.0571 -0.0055
 9122SOL    HW139002   0.814   4.571   9.350  0.0578  0.2557  0.8888
 9122SOL    HW239003   0.829   4.710   9.381 -0.4966  0.8877 -0.6596
 9123SOL     OW39004   0.682   4.050   9.612 -0.1093 -0.4821  0.6570
 9123SOL    HW139005   0.598   4.006   9.604 -0.0878 -0.7505  1.9225
 9123SOL    HW239006   0.652   4.134   9.648 -1.7542 -1.2015  0.9296
 9124SOL     OW39007   4.152   0.036   6.923  0.0597 -0.1652 -0.0231
 9124SOL    HW139008   4.210   0.100   6.964 -0.1102  1.6192 -2.5762
 9124SOL    HW239009   4.207   4.697   6.910  3.5627  2.2263  0.7345
 9125SOL     OW39010   0.154   1.275   5.588 -0.2341 -0.3209 -0.2715
 9125SOL    HW139011   0.222   1.210   5.603 -0.5610 -0.6394 -0.1594
 9125SOL    HW239012   0.199   1.357   5.572 -0.0569 -0.3112  0.2795
 9126SOL     OW39013   0.166   3.667   6.776  0.3417 -0.7211 -0.2136
 9126SOL    HW139014   0.250   3.648   6.732  0.2556  0.8507 -1.0358
 9126SOL    HW239015   0.198   3.688   6.864  1.9342 -0.8160 -0.7647
 9127SOL     OW39016   2.998   3.334   7.384  0.1925  0.3712  0.0269
 9127SOL    HW139017   2.948   3.270   7.434  1.2170 -0.2341  0.2884
 9127SOL    HW239018   2.936   3.344   7.312  0.0848 -0.2670  0.0248
 9128SOL     OW39019   1.998   4.295   6.333 -0.9902 -0.4520 -0.0721
 9128SOL    HW139020   1.921   4.347   6.311 -0.4635 -0.8358 -2.8305
 9128SOL    HW239021   2.009   4.246   6.251  1.0658  0.2659 -0.2101
 9129SOL     OW39022   1.570   3.876   3.979 -0.0334 -0.1254 -0.2034
 9129SOL    HW139023   1.548   3.795   4.024  0.0497 -0.6967 -1.2002
 9129SOL    HW239024   1.664   3.881   3.996 -0.4202  3.9750  0.7342
 9130SOL     OW39025   4.031   3.005   4.238  0.1447 -0.2725  0.1050
 9130SOL    HW139026   4.111   3.055   4.252  0.0895 -0.5718  1.4777
 9130SOL    HW239027   3.973   3.072   4.201  0.7901 -0.3822 -1.1131
 9131SOL     OW39028   0.264   1.183   8.187  0.6842 -0.5807 -0.4835
 9131SOL    HW139029   0.174   1.218   8.191  0.2826 -1.4288 -2.3714
 9131SOL    HW239030   0.279   1.229   8.104  1.9323 -0.3752 -0.1361
 9132SOL     OW39031   0.088   0.397  10.744  0.2587  0.2402  0.8490
 9132SOL    HW139032   0.000   0.434  10.736  0.9472  1.4252 -1.3003
 9132SOL    HW239033   0.130   0.412  10.659  1.0972 -1.3104  0.9946
 9133SOL     OW39034   3.278   0.633   9.876 -0.0615 -0.0991 -0.3333
 9133SOL    HW139035   3.237   0.603   9.794  0.7153 -0.5828 -0.5431
 9133SOL    HW239036   3.213   0.696   9.907  1.1219  0.9264  0.0205
 9134SOL     OW39037   1.273   1.583   3.300 -0.2509 -0.3359  0.2341
 9134SOL    HW139038   1.186   1.621   3.307  0.3233  0.6654  1.9591
 9134SOL    HW239039   1.324   1.664   3.307 -1.1194  0.2607 -0.3862
 9135SOL     OW39040   3.025   0.393  16.589 -0.4433  0.1567 -0.5419
 9135SOL    HW139041   2.982   0.465  16.543 -0.3052  0.2066 -0.5962
 9135SOL    HW239042   3.116   0.399  16.559  0.3745  0.4247  1.9588
 9136SOL     OW39043   4.284   0.037   2.727  0.7095  0.2745 -0.1068
 9136SOL    HW139044   4.330   4.730   2.656 -1.0588  1.6868 -2.1597
 9136SOL    HW239045   4.330   4.732   2.799 -1.0155 -0.8911  0.2985
 9137SOL     OW39046   0.476   3.387   8.196 -0.6100  0.7297 -0.4692
 9137SOL    HW139047   0.460   3.347   8.111  0.6670  1.0681 -0.8742
 9137SOL    HW239048   0.562   3.354   8.221  0.2596  1.1211 -2.9328
 9138SOL     OW39049   1.868   2.784   7.871  0.0260 -0.0461  0.0694
 9138SOL    HW139050   1.901   2.728   7.801  0.6261  2.8290 -1.9387
 9138SOL    HW239051   1.897   2.869   7.837 -0.1836  0.4015  1.0109
 9139SOL     OW39052   2.806   1.796   2.939 -0.6368 -0.4744 -0.3255
 9139SOL    HW139053   2.774   1.844   2.862 -0.2120  0.8729  0.3427
 9139SOL    HW239054   2.890   1.840   2.951 -0.4033 -0.7890 -0.8079
 9140SOL     OW39055   4.653   1.060   1.627 -0.5578  0.1570  0.4459
 9140SOL    HW139056   4.592   0.993   1.598  1.3532 -1.5425  0.3399
 9140SOL    HW239057   4.725   1.000   1.647 -0.5706  0.8841  2.6904
 9141SOL     OW39058   1.338   4.295   4.853  0.0953  0.0474 -0.3188
 9141SOL    HW139059   1.426   4.300   4.816 -0.5729  1.7064 -1.6284
 9141SOL    HW239060   1.354   4.344   4.934  0.9587  2.1899 -1.8137
 9142SOL     OW39061   4.123   2.882   2.564 -0.0191 -0.2269 -0.3230
 9142SOL    HW139062   4.214   2.910   2.555 -0.1396 -0.1624 -1.3074
 9142SOL    HW239063   4.123   2.856   2.656 -0.5305  0.3630 -0.1629
 9143SOL     OW39064   1.507   3.662  15.158  0.2619 -0.1630  0.7878
 9143SOL    HW139065   1.487   3.721  15.230 -0.5476  2.9198 -1.9570
 9143SOL    HW239066   1.416   3.643  15.132 -0.8254  2.5786  2.6223
 9144SOL     OW39067   0.976   2.051   7.040 -0.3219 -0.4257  0.1187
 9144SOL    HW139068   1.016   2.066   7.126 -0.8713 -0.9440  0.4643
 9144SOL    HW239069   1.029   1.980   7.005  2.0162 -0.6597  4.1734
 9145SOL     OW39070   0.836   2.939  13.636 -0.2333  0.5043 -0.6040
 9145SOL    HW139071   0.873   2.918  13.722 -1.2744 -0.2778 -0.3444
 9145SOL    HW239072   0.848   2.859  13.584 -0.8408 -1.3564  2.1135
 9146SOL     OW39073   0.768   4.192  11.426  0.1229 -0.5743  0.6567
 9146SOL    HW139074   0.703   4.217  11.491  0.7779  0.7658  0.8048
 9146SOL    HW239075   0.720   4.202  11.344  1.8515  2.1416 -0.0304
 9147SOL     OW39076   2.832   0.565   3.741 -0.2235  0.3522 -0.3235
 9147SOL    HW139077   2.839   0.512   3.821  0.8272 -0.6166 -1.0597
 9147SOL    HW239078   2.749   0.610   3.758 -1.0902 -0.2251 -3.0281
 9148SOL     OW39079   1.315   2.008   6.296  0.1508 -0.2373  0.1539
 9148SOL    HW139080   1.299   1.968   6.210 -2.4181 -1.0127  0.9794
 9148SOL    HW239081   1.401   2.049   6.286 -0.0058  0.2716  0.9199
 9149SOL     OW39082   3.898   0.085   6.581 -0.4028  0.1294  0.2140
 9149SOL    HW139083   3.918   0.154   6.643 -0.5551  1.2183 -0.9575
 9149SOL    HW239084   3.983   0.047   6.560  0.5092  1.4863  1.5453
 9150SOL     OW39085   1.935   2.343   0.118  0.2963 -0.0161  0.3146
 9150SOL    HW139086   1.978   2.265   0.153  0.4993  0.9488  2.2524
 9150SOL    HW239087   1.902   2.310   0.035  0.3781  0.3566  0.1340
 9151SOL     OW39088   1.600   1.554   8.855  0.4388 -0.4037 -0.4358
 9151SOL    HW139089   1.511   1.543   8.888  0.5313  0.7027  0.1966
 9151SOL    HW239090   1.653   1.578   8.931 -0.5308 -1.8700  0.7076
 9152SOL     OW39091   0.790   3.101   2.276 -0.1562  0.3447 -0.2639
 9152SOL    HW139092   0.727   3.163   2.238  2.2683  3.4209  0.6900
 9152SOL    HW239093   0.752   3.016   2.254 -0.4883  0.6393 -0.8218
 9153SOL     OW39094   0.981   0.115   8.748  0.3639  0.1213 -0.1699
 9153SOL    HW139095   0.915   0.129   8.816 -0.4261 -2.2609 -0.4423
 9153SOL    HW239096   0.994   0.202   8.710  1.5217 -0.8597 -2.0161
 9154SOL     OW39097   3.012   4.129   3.089  0.2350 -0.4742 -0.3621
 9154SOL    HW139098   2.986   4.189   3.159  0.9764 -0.9000  0.2787
 9154SOL    HW239099   3.010   4.044   3.132 -3.0026 -1.6725 -2.9054
 9155SOL     OW39100   4.015   2.928   3.883 -0.0020  0.0658 -0.2681
 9155SOL    HW139101   4.054   2.963   3.963  0.5867 -0.8081 -0.1737
 9155SOL    HW239102   4.088   2.867   3.872 -0.3374 -0.0535 -1.7101
 9156SOL     OW39103   2.638   3.905   7.203 -0.0581  0.1583  0.1268
 9156SOL    HW139104   2.575   3.973   7.176  0.1788 -0.6184 -2.3324
 9156SOL    HW239105   2.717   3.952   7.229  0.8448 -0.3835 -1.6903
 9157SOL     OW39106   0.631   4.661   4.173 -0.3929  0.1840 -0.1491
 9157SOL    HW139107   0.612   4.617   4.257 -1.7995  1.6387  0.2939
 9157SOL    HW239108   0.720   4.695   4.184  0.5176 -1.3572 -2.8396
 9158SOL     OW39109   0.288   1.468   0.911  0.0358  0.0775  0.2658
 9158SOL    HW139110   0.327   1.514   0.836  0.6417  0.2334  0.6745
 9158SOL    HW239111   0.368   1.443   0.957  1.5103  1.3883 -1.5564
 9159SOL     OW39112   2.649   3.325   4.466  0.2277 -0.0409  0.2048
 9159SOL    HW139113   2.686   3.413   4.474  0.8510 -0.2074 -0.7793
 9159SOL    HW239114   2.566   3.339   4.421 -1.0961 -0.7069  2.4315
 9160SOL     OW39115   0.725   3.829   2.917 -0.2556  0.1097  0.2988
 9160SOL    HW139116   0.670   3.873   2.982  3.1219  2.1568  1.7772
 9160SOL    HW239117   0.800   3.888   2.925  2.2266 -2.7302 -1.9375
 9161SOL     OW39118   0.860   1.347   0.608 -0.4722 -0.5938  0.0994
 9161SOL    HW139119   0.934   1.343   0.668 -0.0904 -1.4148 -0.4218
 9161SOL    HW239120   0.827   1.427   0.649  0.4763  0.8172 -1.8711
 9162SOL     OW39121   0.738   2.824   8.129 -0.2217  0.1070  0.3010
 9162SOL    HW139122   0.724   2.730   8.140  1.4059 -0.3225 -1.1497
 9162SOL    HW239123   0.833   2.819   8.118 -0.3833  0.0016 -0.9652
 9163SOL     OW39124   1.182   4.610   9.224 -0.8543 -0.4762 -0.5744
 9163SOL    HW139125   1.105   4.666   9.226  0.0802  0.7108  2.8075
 9163SOL    HW239126   1.224   4.639   9.143  0.1813  2.2075  0.8971
 9164SOL     OW39127   0.596   1.348  15.650 -0.5235  0.2762  0.2070
 9164SOL    HW139128   0.617   1.329  15.741 -0.4365 -1.8706 -0.2536
 9164SOL    HW239129   0.589   1.258  15.617  3.6091 -0.3993  1.2626
 9165SOL     OW39130   0.893   4.521   9.036  0.6406 -0.0819  0.1734
 9165SOL    HW139131   0.979   4.562   9.022 -0.4789  1.9734 -0.5839
 9165SOL    HW239132   0.858   4.580   9.103  0.0619 -0.9637  0.6413
 9166SOL     OW39133   3.297   4.334  14.727 -0.3167  0.5707  0.6255
 9166SOL    HW139134   3.272   4.321  14.636 -0.5649  4.0326  0.2033
 9166SOL    HW239135   3.217   4.368  14.767  0.0059  0.9511  0.9483
 9167SOL     OW39136   3.576   4.525   2.499  0.6149 -1.0593  0.1112
 9167SOL    HW139137   3.643   4.594   2.490  0.6376 -0.7985  2.0966
 9167SOL    HW239138   3.605   4.482   2.580  1.2002 -1.3636 -0.2588
 9168SOL     OW39139   3.097   4.347  11.937 -0.5302  0.0466  0.3436
 9168SOL    HW139140   3.175   4.361  11.990 -0.4281  1.3725 -0.1624
 9168SOL    HW239141   3.100   4.427  11.886 -0.8578  0.6783  1.3218
 9169SOL     OW39142   2.163   2.856  15.340 -0.2440 -0.0779 -0.0922
 9169SOL    HW139143   2.086   2.909  15.317 -0.5580  0.3836  2.0439
 9169SOL    HW239144   2.124   2.773  15.366 -0.9403 -0.0135 -0.9246
 9170SOL     OW39145   0.614   4.671   0.618 -0.0522  0.6916 -0.6018
 9170SOL    HW139146   0.594   4.595   0.673  1.3578  2.5355  2.4629
 9170SOL    HW239147   0.670   4.633   0.551 -0.8231 -0.1492 -0.7641
 9171SOL     OW39148   0.471   3.445  14.793  0.5033  0.4295  0.0051
 9171SOL    HW139149   0.564   3.443  14.770  0.0505 -1.4445 -1.6973
 9171SOL    HW239150   0.472   3.405  14.880  2.4661 -1.5973 -0.9483
 9172SOL     OW39151   2.078   2.340  12.026  0.8611 -0.0990 -0.2198
 9172SOL    HW139152   2.042   2.374  11.945  0.9804  1.1995  0.2736
 9172SOL    HW239153   2.024   2.261  12.038  0.9662  0.1822  2.2805
 9173SOL     OW39154   1.869   0.635   4.819 -0.5106 -0.5111  1.0136
 9173SOL    HW139155   1.866   0.563   4.881 -0.7109  2.3141  4.2746
 9173SOL    HW239156   1.790   0.621   4.766 -0.0516  1.0734 -0.1049
 9174SOL     OW39157   2.070   4.237  14.174  0.1436 -0.3320  0.3875
 9174SOL    HW139158   2.128   4.205  14.242  0.2330  0.7614  0.8248
 9174SOL    HW239159   2.009   4.168  14.150 -0.0203 -0.6610  1.7602
 9175SOL     OW39160   1.755   0.097   7.885  0.6414  0.0979 -0.0646
 9175SOL    HW139161   1.820   0.136   7.828  0.0247  1.7260  0.3467
 9175SOL    HW239162   1.684   0.095   7.822 -0.7515 -4.5772  1.6141
 9176SOL     OW39163   2.756   4.302   3.404  0.5408 -0.1442  1.3755
 9176SOL    HW139164   2.710   4.306   3.488  1.6319  0.3440  1.9545
 9176SOL    HW239165   2.834   4.355   3.419  0.1491  0.8032  0.0829
 9177SOL     OW39166   1.916   0.413  13.024  0.1327 -0.4847 -0.6214
 9177SOL    HW139167   1.900   0.417  12.930 -0.0761  1.5650 -0.4961
 9177SOL    HW239168   1.848   0.357  13.062 -0.5711  0.4302 -0.5176
 9178SOL     OW39169   1.004   4.038   5.686 -0.2657  0.4717  0.1631
 9178SOL    HW139170   0.957   3.999   5.612  0.1075  1.4894 -0.6241
 9178SOL    HW239171   1.076   4.071   5.632  0.4105  0.0163  0.7945
 9179SOL     OW39172   3.511   0.114   4.463  0.3578  0.2465 -0.7246
 9179SOL    HW139173   3.556   0.184   4.512  0.3289 -0.3316  0.1348
 9179SOL    HW239174   3.517   0.161   4.380  1.2345  1.8053  0.2101
 9180SOL     OW39175   3.058   2.366   0.338  0.4682 -0.6660 -0.4847
 9180SOL    HW139176   3.121   2.437   0.329 -0.3795 -0.1669 -2.6542
 9180SOL    HW239177   3.083   2.305   0.269  1.5194  0.4712 -1.0977
 9181SOL     OW39178   0.946   4.718   5.121 -0.4495  0.1429 -0.0776
 9181SOL    HW139179   0.930   0.050   5.059  0.9908  1.8066  1.4366
 9181SOL    HW239180   0.930   0.013   5.210 -2.2493 -0.4699 -0.1771
 9182SOL     OW39181   0.410   2.721  14.290  0.6868  0.0453  0.1590
 9182SOL    HW139182   0.383   2.658  14.357 -1.2176  1.3639  0.6128
 9182SOL    HW239183   0.505   2.722  14.292  0.7114  3.5215 -2.8444
 9183SOL     OW39184   4.656   1.773   7.733 -0.0372  0.2268  0.3868
 9183SOL    HW139185   4.570   1.750   7.766  0.1368  0.2950  0.8925
 9183SOL    HW239186   4.665   1.847   7.793  1.1146  0.0699  0.4093
 9184SOL     OW39187   1.742   2.180   7.939 -0.2285 -0.0680 -0.0035
 9184SOL    HW139188   1.773   2.235   7.867  0.2382  0.0663  0.2985
 9184SOL    HW239189   1.821   2.193   7.993  0.7825 -0.1082 -1.4739
 9185SOL     OW39190   3.164   1.938   2.435  0.3031 -0.1289  0.3173
 9185SOL    HW139191   3.132   1.907   2.519  2.6198 -1.5626  0.6596
 9185SOL    HW239192   3.185   1.855   2.393  1.9467 -0.2606  1.4126
 9186SOL     OW39193   3.561   1.231   2.136  0.2349  0.5968 -0.2901
 9186SOL    HW139194   3.514   1.243   2.053  1.4498 -0.7059 -1.1645
 9186SOL    HW239195   3.505   1.163   2.175 -0.6123 -0.7012 -3.7459
 9187SOL     OW39196   3.431   2.750   0.380  0.2663  0.0142  0.1709
 9187SOL    HW139197   3.475   2.760   0.464 -0.1718  0.1407  0.3865
 9187SOL    HW239198   3.487   2.800   0.321 -0.0423  0.5167  0.3012
 9188SOL     OW39199   3.131   0.701   4.145 -0.1587 -0.0715 -0.0474
 9188SOL    HW139200   3.047   0.656   4.151 -0.2882  0.2207  0.4294
 9188SOL    HW239201   3.188   0.634   4.109  0.4307  0.4452 -0.0896
 9189SOL     OW39202   3.822   4.429   6.815  0.0362  0.3099  0.3374
 9189SOL    HW139203   3.833   4.359   6.880 -1.6684 -1.0966 -0.8873
 9189SOL    HW239204   3.912   4.462   6.809  0.5680 -1.0401  0.9288
 9190SOL     OW39205   3.692   2.149   8.108  0.1707  0.4268 -0.3024
 9190SOL    HW139206   3.667   2.062   8.138  2.9177  0.3517  1.7492
 9190SOL    HW239207   3.630   2.161   8.035 -0.3937 -0.0227  0.1057
 9191SOL     OW39208   4.058   0.577   8.030  0.0725  0.3365 -0.0823
 9191SOL    HW139209   4.027   0.557   8.118  0.2715 -0.4272 -0.1870
 9191SOL    HW239210   4.010   0.656   8.007  0.9028  1.0087  0.5137
 9192SOL     OW39211   4.004   3.351   1.763 -0.4995 -0.7761 -0.0768
 9192SOL    HW139212   4.011   3.445   1.783 -0.0754 -0.6996 -0.5670
 9192SOL    HW239213   4.080   3.320   1.812  1.7608  2.6943 -1.3716
 9193SOL     OW39214   0.340   3.736   5.838 -0.2352 -0.4453 -0.1443
 9193SOL    HW139215   0.247   3.728   5.818 -0.6157  0.0125  1.4525
 9193SOL    HW239216   0.378   3.655   5.803  2.8426  0.6400  0.7098
 9194SOL     OW39217   4.368   1.061   8.562 -0.2938  0.8605 -0.1467
 9194SOL    HW139218   4.402   1.086   8.648  1.5606  1.2420 -1.0025
 9194SOL    HW239219   4.431   0.997   8.530  0.4316  0.8037  1.3983
 9195SOL     OW39220   3.986   4.586   5.010 -1.2821  0.4543 -0.0414
 9195SOL    HW139221   3.991   4.681   5.016  1.0027  0.3425 -0.1013
 9195SOL    HW239222   3.914   4.592   4.946 -1.4446 -2.3847 -0.1217
 9196SOL     OW39223   4.110   3.085   0.783  0.6083 -0.2034  0.0231
 9196SOL    HW139224   4.095   3.021   0.712  1.1036 -0.6557  0.3231
 9196SOL    HW239225   4.193   3.050   0.816  0.9761  0.3516 -0.3144
 9197SOL     OW39226   3.198   2.440  10.691  0.2485  0.5142 -0.6369
 9197SOL    HW139227   3.198   2.535  10.698 -2.0725  0.4805 -0.3514
 9197SOL    HW239228   3.177   2.422  10.600 -1.9284  3.4834 -0.6948
 9198SOL     OW39229   2.527   3.470  16.037 -0.0349 -0.1755 -0.0305
 9198SOL    HW139230   2.518   3.551  15.987  0.8182  1.2723  2.1694
 9198SOL    HW239231   2.486   3.504  16.116 -1.2472 -1.8683  0.0753
 9199SOL     OW39232   2.431   0.940   8.677 -0.4289 -0.1123 -0.0742
 9199SOL    HW139233   2.509   0.985   8.645 -0.2545  0.3778  1.0352
 9199SOL    HW239234   2.412   0.990   8.756 -1.4977  2.8759 -2.2372
 9200SOL     OW39235   0.513   0.405   9.307 -0.0988  0.4640 -0.3562
 9200SOL    HW139236   0.480   0.435   9.223 -0.6994  0.9914  0.0697
 9200SOL    HW239237   0.446   0.446   9.361  1.3919  1.2544  0.8982
 9201SOL     OW39238   0.661   3.708   6.938 -0.2390 -0.2071  0.2865
 9201SOL    HW139239   0.725   3.685   7.005 -0.4680  0.1394  0.6237
 9201SOL    HW239240   0.713   3.747   6.868  0.5773 -2.0235 -0.1194
 9202SOL     OW39241   2.004   2.843  10.830  0.0366 -0.1570  0.0442
 9202SOL    HW139242   2.092   2.877  10.845  1.3774 -4.2355  1.4050
 9202SOL    HW239243   2.025   2.750  10.822 -0.9108 -0.3233 -0.4990
 9203SOL     OW39244   1.093   0.662  10.096  0.5389  0.4828  0.2622
 9203SOL    HW139245   1.184   0.684  10.078  0.1010  0.0758 -2.4333
 9203SOL    HW239246   1.090   0.699  10.184  1.1463  2.2674 -0.4715
 9204SOL     OW39247   2.165   2.264   2.974  0.6143  0.0618 -0.6819
 9204SOL    HW139248   2.203   2.321   2.907  0.2794  0.5553 -0.4548
 9204SOL    HW239249   2.237   2.234   3.028 -0.7489 -0.1236  1.0323
 9205SOL     OW39250   1.475   0.561   5.843 -0.0120 -0.2333  0.3657
 9205SOL    HW139251   1.408   0.537   5.907  1.2744 -2.4273  0.8939
 9205SOL    HW239252   1.418   0.580   5.769  0.4594  0.9038  0.2837
 9206SOL     OW39253   2.254   2.260   8.447  0.1737 -0.0491 -0.5001
 9206SOL    HW139254   2.258   2.293   8.357 -0.6289 -0.0903 -0.5560
 9206SOL    HW239255   2.200   2.182   8.434 -1.0399  0.3304  2.2582
 9207SOL     OW39256   2.270   1.449   3.206  0.3044 -0.4369  0.3157
 9207SOL    HW139257   2.294   1.458   3.114  0.8334  0.6194  0.5615
 9207SOL    HW239258   2.286   1.536   3.243 -0.0700  0.2257 -1.0884
 9208SOL     OW39259   3.146   4.023   2.490  0.1331 -0.0453 -0.3029
 9208SOL    HW139260   3.114   3.969   2.417 -0.6378 -0.4281  0.3312
 9208SOL    HW239261   3.059   4.049   2.521  0.3201 -0.7296  0.8023
 9209SOL     OW39262   0.843   1.099  13.105 -0.0990  0.4470 -0.0719
 9209SOL    HW139263   0.866   1.022  13.054 -0.3997  0.5492 -0.3619
 9209SOL    HW239264   0.909   1.097  13.174  1.2441 -1.1506 -1.4191
 9210SOL     OW39265   4.562   0.553  11.239 -0.0745 -0.7335 -0.2039
 9210SOL    HW139266   4.622   0.511  11.301 -0.2223 -1.6307 -0.6680
 9210SOL    HW239267   4.514   0.476  11.209 -0.4672  0.0673 -1.6082
 9211SOL     OW39268   4.641   0.723   8.923  0.2123 -0.3160 -0.1587
 9211SOL    HW139269   4.694   0.799   8.950 -0.5469  0.9076 -2.1967
 9211SOL    HW239270   4.678   0.711   8.836 -0.6467 -1.8910 -0.3021
 9212SOL     OW39271   0.015   0.382  11.347 -0.2465 -0.6073  0.6848
 9212SOL    HW139272   0.080   0.341  11.290  0.3055  3.9125 -1.9785
 9212SOL    HW239273   0.083   0.426  11.397 -2.9893  2.6956  1.5136
 9213SOL     OW39274   2.577   1.396  12.967 -0.1958  0.0970  0.0434
 9213SOL    HW139275   2.581   1.372  13.059 -0.8249 -0.5509 -0.1043
 9213SOL    HW239276   2.663   1.367  12.935 -0.7313 -1.6446  0.2377
 9214SOL     OW39277   2.811   1.663  11.274  0.7270 -0.6371  0.1562
 9214SOL    HW139278   2.815   1.570  11.294 -0.9925 -0.3761  1.7276
 9214SOL    HW239279   2.898   1.683  11.309  0.3726  0.8875  0.1653
 9215SOL     OW39280   4.178   4.495   6.234 -0.1155 -0.0386 -0.7006
 9215SOL    HW139281   4.129   4.534   6.162 -1.1089 -2.7666 -1.4984
 9215SOL    HW239282   4.171   4.400   6.223  0.2857 -0.1483 -0.0463
 9216SOL     OW39283   3.718   1.672   8.285  0.0170  0.1422  0.0951
 9216SOL    HW139284   3.789   1.637   8.339 -0.5145  0.3922  0.9523
 9216SOL    HW239285   3.651   1.604   8.281 -1.8100  1.8016  2.4232
 9217SOL     OW39286   1.252   4.294   9.509  0.0214  0.4064 -0.2150
 9217SOL    HW139287   1.255   4.273   9.415 -0.2923  3.3107 -0.8871
 9217SOL    HW239288   1.279   4.385   9.491  0.1169  0.5708  0.7810
 9218SOL     OW39289   4.065   0.886   7.124  0.0599  0.1353  0.0790
 9218SOL    HW139290   4.141   0.872   7.181  0.1897 -3.2979 -0.9264
 9218SOL    HW239291   4.064   0.981   7.115  1.8484  0.1387 -0.0130
 9219SOL     OW39292   1.639   0.688   7.881  0.0453 -0.2415 -0.0176
 9219SOL    HW139293   1.639   0.678   7.786  0.1599 -1.7249  0.1382
 9219SOL    HW239294   1.666   0.780   7.879  2.7218 -1.0042  0.0197
 9220SOL     OW39295   0.647   0.835   3.279 -0.7140  0.0755  0.1094
 9220SOL    HW139296   0.619   0.922   3.251  1.6488  0.7471 -0.1677
 9220SOL    HW239297   0.685   0.849   3.365  0.9451 -0.8335 -0.4820
 9221SOL     OW39298   4.134   0.397   6.823  0.0213  0.4593 -0.6398
 9221SOL    HW139299   4.172   0.352   6.747  0.1106  2.5358 -1.8148
 9221SOL    HW239300   4.199   0.466   6.836  0.2141  0.5007 -1.8192
 9222SOL     OW39301   2.304   3.793  17.616 -0.0223  0.1644 -0.3168
 9222SOL    HW139302   2.329   3.720  17.560 -0.9468 -1.5581  1.4953
 9222SOL    HW239303   2.362   3.862  17.586  0.4868  0.2066  0.7841
 9223SOL     OW39304   1.013   2.928  15.758  0.0124  0.4292  0.3702
 9223SOL    HW139305   0.948   2.939  15.688 -0.4363  1.1895  0.9124
 9223SOL    HW239306   0.996   3.004  15.814  1.1932  1.6585 -0.9614
 9224SOL     OW39307   0.648   2.159  11.611 -0.5666  0.2794  0.0082
 9224SOL    HW139308   0.591   2.151  11.535 -0.0666 -0.3062 -0.3024
 9224SOL    HW239309   0.708   2.232  11.596 -0.2097 -0.4677 -2.1280
 9225SOL     OW39310   1.999   3.778  17.375 -0.0741  0.8210 -0.1851
 9225SOL    HW139311   2.012   3.802  17.284  1.3727  1.0189  0.0737
 9225SOL    HW239312   2.060   3.833  17.424  1.7102  0.8432 -2.4955
 9226SOL     OW39313   4.167   2.696   8.622  0.1800 -0.0099  0.0588
 9226SOL    HW139314   4.112   2.729   8.550 -1.0974 -0.1907  0.9551
 9226SOL    HW239315   4.100   2.696   8.691  0.4022  1.9600  0.2684
 9227SOL     OW39316   0.273   3.897   7.981  0.0481 -0.1789  0.2455
 9227SOL    HW139317   0.342   3.892   7.915 -0.4055  0.7298 -0.2933
 9227SOL    HW239318   0.319   3.837   8.041  0.0756  1.1399  1.5444
 9228SOL     OW39319   0.494   1.008  15.068 -0.4186  0.0073  0.3078
 9228SOL    HW139320   0.414   0.974  15.028 -0.9725 -0.3610  1.7209
 9228SOL    HW239321   0.544   1.023  14.988 -1.2649 -0.0600 -0.2290
 9229SOL     OW39322   4.678   0.495   9.792 -0.0960 -0.2040 -0.2347
 9229SOL    HW139323   4.623   0.436   9.843  2.3480 -1.9802  0.3288
 9229SOL    HW239324   4.615   0.560   9.759 -0.4908 -0.9053 -0.8595
 9230SOL     OW39325   4.660   2.243   4.032 -0.2653  0.0971 -0.7215
 9230SOL    HW139326   4.729   2.183   4.061  1.0279  1.0149 -1.8967
 9230SOL    HW239327   4.651   2.293   4.113  0.2270  1.7284 -1.6493
 9231SOL     OW39328   0.375   1.595  14.476  0.7705 -0.2289  0.4607
 9231SOL    HW139329   0.408   1.542  14.403 -0.0454  0.5279 -0.4637
 9231SOL    HW239330   0.281   1.586  14.463  1.1364 -1.0914 -1.6006
 9232SOL     OW39331   2.666   0.481   7.112  0.3128 -0.3303 -0.0136
 9232SOL    HW139332   2.660   0.569   7.148  2.2293 -0.3832  0.4497
 9232SOL    HW239333   2.621   0.423   7.173  0.7249  0.2522  0.8406
 9233SOL     OW39334   3.511   0.381   2.674  0.3300  0.4017 -0.7713
 9233SOL    HW139335   3.579   0.359   2.738  0.6779  0.3003 -1.1722
 9233SOL    HW239336   3.565   0.407   2.600 -0.1301 -1.2133 -1.6829
 9234SOL     OW39337   2.385   0.595   8.255  0.1573  0.5812  0.2580
 9234SOL    HW139338   2.347   0.526   8.310 -0.8090 -1.5573 -3.0887
 9234SOL    HW239339   2.407   0.540   8.180 -0.2613  1.9825 -0.8852
 9235SOL     OW39340   3.290   3.356   6.404  0.3482 -0.4238  0.1069
 9235SOL    HW139341   3.258   3.423   6.463  0.1054 -0.7079  0.3005
 9235SOL    HW239342   3.248   3.277   6.438 -0.3716 -1.2382 -2.6143
 9236SOL     OW39343   0.731   1.198  17.044 -0.7136 -0.0855 -0.6792
 9236SOL    HW139344   0.657   1.199  17.105  1.3648 -0.9382  1.9024
 9236SOL    HW239345   0.689   1.182  16.960  1.0365  2.9247 -2.1085
 9237SOL     OW39346   3.778   4.243  12.941 -0.3737  0.2565 -0.4943
 9237SOL    HW139347   3.686   4.233  12.968  0.1656  1.9471  1.9533
 9237SOL    HW239348   3.794   4.334  12.965 -0.0441 -0.0210  0.3409
 9238SOL     OW39349   3.485   3.501  15.161 -0.3244  0.6025  0.2317
 9238SOL    HW139350   3.444   3.414  15.166 -1.3420  1.0426 -0.2981
 9238SOL    HW239351   3.414   3.557  15.192  0.6726  2.1272 -0.2470
 9239SOL     OW39352   2.055   1.726   2.616 -0.0043  0.3425 -0.6619
 9239SOL    HW139353   2.125   1.759   2.673 -0.1643  1.4588 -1.1090
 9239SOL    HW239354   2.110   1.674   2.557 -1.7695 -0.7461 -1.3573
 9240SOL     OW39355   0.061   2.678   7.726  0.4371  0.8496 -0.0557
 9240SOL    HW139356   0.019   2.727   7.656 -1.3393 -1.8395 -0.8718
 9240SOL    HW239357   0.147   2.720   7.736  0.1520  1.4201  0.0320
 9241SOL     OW39358   1.065   0.671   7.847 -0.2260 -0.3020 -0.4462
 9241SOL    HW139359   1.088   0.762   7.826 -0.1130  0.2076  1.8931
 9241SOL    HW239360   1.070   0.675   7.942 -2.3576  2.0368 -0.4298
 9242SOL     OW39361   2.231   3.502   2.003 -0.4649 -0.3393  0.0920
 9242SOL    HW139362   2.242   3.420   2.051 -2.5447 -0.9418 -0.4743
 9242SOL    HW239363   2.187   3.457   1.931  0.3146 -2.1035  0.7249
 9243SOL     OW39364   0.051   4.123   9.081 -0.2495  0.5799  0.2882
 9243SOL    HW139365   4.724   4.052   9.082 -0.7549  1.0717  1.5186
 9243SOL    HW239366   0.003   4.204   9.097  0.7502  1.7366 -2.5108
 9244SOL     OW39367   3.254   2.770  15.105  0.2322 -0.6574 -0.1840
 9244SOL    HW139368   3.234   2.775  15.012 -1.5341  1.8941  0.3290
 9244SOL    HW239369   3.268   2.862  15.129  1.0205 -1.1375  1.2306
 9245SOL     OW39370   3.492   2.861   7.898  0.1440  0.2487 -0.3121
 9245SOL    HW139371   3.483   2.953   7.922 -2.9058 -0.6141  1.8524
 9245SOL    HW239372   3.588   2.858   7.896  0.1078 -1.0607  0.0533
 9246SOL     OW39373   2.237   2.220   3.991 -0.3673 -0.1001 -0.3133
 9246SOL    HW139374   2.191   2.295   4.029  0.7446  0.2109  0.4120
 9246SOL    HW239375   2.190   2.210   3.909  0.4393  1.7448 -0.9896
 9247SOL     OW39376   1.712   4.283   3.966 -0.4645  0.1389  0.1377
 9247SOL    HW139377   1.761   4.291   3.884  0.6688  0.0425  0.8017
 9247SOL    HW239378   1.768   4.324   4.033 -0.0706  0.0628 -0.1469
 9248SOL     OW39379   3.591   4.498   8.182 -0.4369 -0.1350 -0.0036
 9248SOL    HW139380   3.591   4.504   8.277  0.7082 -3.0482  0.1792
 9248SOL    HW239381   3.680   4.464   8.177 -0.0340  0.8263  0.5368
 9249SOL     OW39382   3.589   1.980   5.461  0.2698  0.5642  0.2372
 9249SOL    HW139383   3.651   1.952   5.394  1.5908  1.1083  1.2276
 9249SOL    HW239384   3.518   2.010   5.404 -0.4747 -1.9899 -0.1830
 9250SOL     OW39385   3.855   1.539   7.641 -0.7985  0.4257  0.0845
 9250SOL    HW139386   3.874   1.533   7.548 -0.1436  0.9765  0.1780
 9250SOL    HW239387   3.801   1.618   7.646 -0.9099  0.4019 -0.8068
 9251SOL     OW39388   0.730   0.523   3.128  0.1131  0.4495 -0.2620
 9251SOL    HW139389   0.768   0.588   3.187 -1.0338  1.0841 -0.2189
 9251SOL    HW239390   0.798   0.456   3.130  1.0277  1.3830  0.1216
 9252SOL     OW39391   4.100   2.441   6.389  0.6677  0.2875  0.5135
 9252SOL    HW139392   4.173   2.499   6.407  0.9186  0.6443 -1.6552
 9252SOL    HW239393   4.079   2.408   6.476 -1.8886 -0.7288 -0.4761
 9253SOL     OW39394   1.115   3.407   2.096  0.1063 -0.2409  0.0874
 9253SOL    HW139395   1.048   3.440   2.036  1.0973 -1.0168 -1.4255
 9253SOL    HW239396   1.127   3.494   2.135  0.4232 -1.0584  1.8227
 9254SOL     OW39397   1.162   0.987  14.962 -0.1586 -0.0691  0.4146
 9254SOL    HW139398   1.093   1.053  14.961  0.1102  0.1886 -0.8237
 9254SOL    HW239399   1.140   0.950  14.877  2.6436  3.0936 -1.7240
 9255SOL     OW39400   0.106   1.403  10.769  0.0325  0.2519  0.1500
 9255SOL    HW139401   0.154   1.413  10.851 -0.2428  0.4453  0.2841
 9255SOL    HW239402   0.050   1.326  10.784  0.2068 -0.0850 -0.9577
 9256SOL     OW39403   1.308   3.618   2.437  0.3050  0.4888 -0.1573
 9256SOL    HW139404   1.349   3.654   2.359 -3.8984 -1.9984 -3.5351
 9256SOL    HW239405   1.256   3.693   2.466 -0.6510 -0.0185 -0.5328
 9257SOL     OW39406   1.839   3.552  10.411  0.3504  0.0529  0.5170
 9257SOL    HW139407   1.834   3.550  10.316  1.3496  0.0395  0.4558
 9257SOL    HW239408   1.912   3.491  10.420  1.0085  0.5182 -1.6039
 9258SOL     OW39409   4.362   0.689   1.353  0.4438  0.0223 -0.1265
 9258SOL    HW139410   4.309   0.611   1.338 -0.5930  0.2579  2.3294
 9258SOL    HW239411   4.358   0.730   1.266  2.0229 -1.2041 -0.7782
 9259SOL     OW39412   3.556   3.694   7.951 -0.4096 -0.1937 -0.3525
 9259SOL    HW139413   3.544   3.773   7.898  0.6490  0.2594  0.0676
 9259SOL    HW239414   3.640   3.713   7.994 -1.0013  1.8725 -0.1282
 9260SOL     OW39415   0.306   3.280   4.331 -0.0881  0.5593 -0.3705
 9260SOL    HW139416   0.328   3.222   4.404 -0.5828 -1.2380 -1.6256
 9260SOL    HW239417   0.225   3.238   4.304  0.1920 -0.1384 -0.1311
 9261SOL     OW39418   1.625   3.945   6.769 -0.5881  0.1281 -0.1105
 9261SOL    HW139419   1.618   3.953   6.864  0.8089 -2.6248  0.2189
 9261SOL    HW239420   1.549   3.890   6.752 -1.1751  0.6919  0.6466
 9262SOL     OW39421   4.176   0.186  10.091  0.1083  0.1840 -0.4908
 9262SOL    HW139422   4.098   0.174  10.146 -0.1734  1.5372 -0.5942
 9262SOL    HW239423   4.220   0.103  10.108 -1.3223 -0.5693 -0.4120
 9263SOL     OW39424   0.271   1.491   3.200  0.0476  0.0109 -0.2592
 9263SOL    HW139425   0.242   1.505   3.110  1.1793 -0.3718 -0.6842
 9263SOL    HW239426   0.357   1.450   3.191  1.5650  2.6999  1.9285
 9264SOL     OW39427   3.096   2.094   8.225 -0.4942  0.0664 -0.1646
 9264SOL    HW139428   3.041   2.156   8.272 -0.1551  0.1285  0.1514
 9264SOL    HW239429   3.116   2.039   8.301  1.1576 -0.7188 -1.1553
 9265SOL     OW39430   2.324   1.704   2.486 -0.2472  0.7616  0.2364
 9265SOL    HW139431   2.361   1.791   2.501 -0.3940  1.0019 -0.7793
 9265SOL    HW239432   2.391   1.659   2.538 -1.4636 -1.8154 -0.4287
 9266SOL     OW39433   0.468   2.995   9.975 -0.3138 -0.1731 -0.3436
 9266SOL    HW139434   0.453   3.041  10.057 -0.5210 -0.5229 -0.1881
 9266SOL    HW239435   0.382   3.003   9.933 -1.4521 -1.8549  1.6867
 9267SOL     OW39436   3.382   3.543  16.522  0.3522 -0.1428 -0.0856
 9267SOL    HW139437   3.368   3.450  16.501 -0.8487  0.1347 -0.4888
 9267SOL    HW239438   3.402   3.583  16.437  0.5813 -1.7614 -0.8072
 9268SOL     OW39439   0.874   0.336  16.648 -0.6239  0.2228 -0.2800
 9268SOL    HW139440   0.910   0.289  16.724  2.5790  2.7122 -0.2590
 9268SOL    HW239441   0.799   0.384  16.685  0.1296 -0.6144  2.3106
 9269SOL     OW39442   1.847   2.053   2.700 -0.2146  0.1176  0.4257
 9269SOL    HW139443   1.831   2.146   2.688 -0.2119 -0.3174 -2.9216
 9269SOL    HW239444   1.758   2.029   2.727 -0.2473  0.5716  0.7272
 9270SOL     OW39445   3.154   1.584  17.598  0.3045 -0.7404  0.4531
 9270SOL    HW139446   3.201   1.645  17.655  1.5950 -1.0160 -0.3194
 9270SOL    HW239447   3.101   1.530  17.657 -0.8968 -1.0777 -0.9381
 9271SOL     OW39448   3.973   0.171   1.026 -0.3359 -0.0156 -0.4481
 9271SOL    HW139449   3.981   0.253   0.978 -1.6293 -0.7450 -1.8842
 9271SOL    HW239450   3.958   0.198   1.117  0.1002 -0.9406 -0.1055
 9272SOL     OW39451   2.482   0.695  12.497  0.3250  0.6400 -0.8174
 9272SOL    HW139452   2.488   0.601  12.513 -0.4448  0.5553 -1.0220
 9272SOL    HW239453   2.561   0.722  12.450 -0.4885  0.3546 -2.3340
 9273SOL     OW39454   0.068   0.076   8.171 -0.5980  0.0358  0.1837
 9273SOL    HW139455   0.087   0.165   8.199  0.3590 -0.4487  1.0684
 9273SOL    HW239456   0.057   0.045   8.261  0.1313 -3.4594 -0.9267
 9274SOL     OW39457   2.366   2.738   3.405  0.5736  0.3941  0.0874
 9274SOL    HW139458   2.440   2.743   3.466  1.8056  0.4328 -1.4230
 9274SOL    HW239459   2.301   2.782   3.460 -0.2921 -0.0694 -0.5494
 9275SOL     OW39460   3.659   2.827   0.880  0.7057 -0.2084  0.3547
 9275SOL    HW139461   3.739   2.828   0.932  0.9820 -0.7471 -0.0507
 9275SOL    HW239462   3.667   2.920   0.860 -0.5697 -0.1096  0.3076
 9276SOL     OW39463   1.844   2.285  11.290  0.2995  0.0686 -0.5750
 9276SOL    HW139464   1.750   2.269  11.298  0.5885 -0.7989  1.0916
 9276SOL    HW239465   1.872   2.280  11.382  0.3511  0.7998 -0.5452
 9277SOL     OW39466   0.076   2.249   2.380  0.0546 -0.1937  0.5337
 9277SOL    HW139467   0.137   2.188   2.422  1.2184 -0.1412 -1.0589
 9277SOL    HW239468   0.021   2.181   2.341 -0.4986  0.4414  0.2203
 9278SOL     OW39469   1.892   4.177   1.016  0.0162 -0.5749 -0.3624
 9278SOL    HW139470   1.965   4.231   1.048 -1.5192  1.7463 -0.7759
 9278SOL    HW239471   1.889   4.104   1.078  1.0629  1.0750  1.6382
 9279SOL     OW39472   2.433   0.490   1.112  0.2800 -0.4656 -0.1246
 9279SOL    HW139473   2.465   0.544   1.184 -2.1120  1.1701 -0.2881
 9279SOL    HW239474   2.508   0.478   1.054  0.7769  0.7480  0.2726
 9280SOL     OW39475   1.642   2.369   2.760 -0.0623  0.0194  0.8124
 9280SOL    HW139476   1.595   2.313   2.699 -0.7496  0.8169  0.6088
 9280SOL    HW239477   1.642   2.449   2.708 -1.0347  0.0251  0.8303
 9281SOL     OW39478   3.240   1.718   2.290 -0.0173 -0.1689  0.3557
 9281SOL    HW139479   3.331   1.724   2.261 -0.2560 -2.1815 -0.8849
 9281SOL    HW239480   3.241   1.654   2.361 -1.1226 -0.3141  0.2501
 9282SOL     OW39481   2.344   3.155   4.821  0.4053  0.1121  0.5414
 9282SOL    HW139482   2.372   3.246   4.809  0.4397 -0.1256 -1.2547
 9282SOL    HW239483   2.250   3.170   4.833  0.5524  1.4205  0.1074
 9283SOL     OW39484   3.933   4.608   6.047 -0.3604 -0.4775 -0.1734
 9283SOL    HW139485   3.873   4.624   6.120  0.7308  0.4816  0.5003
 9283SOL    HW239486   3.874   4.605   5.971 -0.9410  2.6359  0.1628
 9284SOL     OW39487   4.515   2.075   9.036  0.0782 -0.6441  0.3758
 9284SOL    HW139488   4.526   1.998   8.980  0.4931  1.2635 -2.1573
 9284SOL    HW239489   4.606   2.084   9.064  0.1754  1.3065 -0.5576
 9285SOL     OW39490   2.459   3.791   4.905 -0.1879  0.4055  0.6059
 9285SOL    HW139491   2.373   3.759   4.876  0.1898 -1.4601  1.5401
 9285SOL    HW239492   2.479   3.866   4.849  0.8452 -0.5466 -0.2972
 9286SOL     OW39493   0.946   1.827   9.319  0.4430  0.1450  0.3333
 9286SOL    HW139494   0.885   1.873   9.376  0.2789 -0.5171  0.6939
 9286SOL    HW239495   1.026   1.879   9.330  0.6851 -0.0828 -0.3228
 9287SOL     OW39496   3.296   4.355  12.117  0.4180 -0.1697 -0.5828
 9287SOL    HW139497   3.388   4.371  12.136  0.2245  0.5804 -0.2841
 9287SOL    HW239498   3.282   4.262  12.099  0.0925 -0.5854  1.8241
 9288SOL     OW39499   1.599   1.743   5.835 -0.2796 -0.5078 -0.3774
 9288SOL    HW139500   1.589   1.709   5.746 -4.3856 -0.3910  0.0037
 9288SOL    HW239501   1.546   1.822   5.824 -0.1072 -0.0461  2.1145
 9289SOL     OW39502   0.546   4.522  17.380  0.1534  0.0188 -0.5795
 9289SOL    HW139503   0.544   4.457  17.450 -0.1589  0.8273  0.1633
 9289SOL    HW239504   0.495   4.481  17.310  0.3407 -0.9083 -0.1712
 9290SOL     OW39505   3.300   0.681   4.788  0.2991  0.3422 -0.4892
 9290SOL    HW139506   3.225   0.624   4.771 -0.2524  1.4981 -1.9839
 9290SOL    HW239507   3.301   0.732   4.707  3.0186  2.4000  0.8336
 9291SOL     OW39508   4.356   2.957  16.033  0.0087 -0.2403 -0.0617
 9291SOL    HW139509   4.447   2.957  16.003  0.1352  0.6958  0.3356
 9291SOL    HW239510   4.359   3.017  16.108 -0.7266 -0.2128 -0.0537
 9292SOL     OW39511   0.126   3.729   4.445  0.1112  0.0956 -0.4283
 9292SOL    HW139512   0.186   3.656   4.429  1.2789  0.9796 -0.1649
 9292SOL    HW239513   0.062   3.711   4.377  1.3952  0.8781 -1.8578
 9293SOL     OW39514   4.155   4.590   9.346 -0.3360 -0.2166  0.3286
 9293SOL    HW139515   4.114   4.542   9.418  1.9878 -0.9063  1.1874
 9293SOL    HW239516   4.118   4.536   9.277  2.4183  1.8999 -2.7785
 9294SOL     OW39517   1.157   0.459  17.559 -0.1923  0.3130 -0.7466
 9294SOL    HW139518   1.167   0.540  17.609 -1.2189  0.2472 -0.4487
 9294SOL    HW239519   1.242   0.418  17.579  0.0110  1.5240  0.8712
 9295SOL     OW39520   3.649   2.983  13.708 -0.2036  0.2271 -0.1669
 9295SOL    HW139521   3.590   3.050  13.741  1.5700  1.6465  0.1258
 9295SOL    HW239522   3.703   2.966  13.785 -1.6025 -1.5671  0.4185
 9296SOL     OW39523   3.673   3.348   2.856 -0.6609 -0.1148 -0.1636
 9296SOL    HW139524   3.604   3.295   2.815 -1.0305  0.3793 -0.1800
 9296SOL    HW239525   3.730   3.274   2.878 -0.1912  1.0003  2.3069
 9297SOL     OW39526   4.423   3.421  16.928  0.0029 -0.5833 -0.2206
 9297SOL    HW139527   4.425   3.504  16.880  0.3642  0.0779  0.9477
 9297SOL    HW239528   4.332   3.395  16.920 -0.2726 -0.3838  2.4419
 9298SOL     OW39529   2.464   1.804   1.547 -0.8034  0.3166 -0.8490
 9298SOL    HW139530   2.417   1.762   1.619  0.6304 -1.7526 -1.0910
 9298SOL    HW239531   2.410   1.774   1.474  1.5473 -1.3035 -1.9412
 9299SOL     OW39532   2.890   1.810   7.328  0.0554  0.0728  0.2677
 9299SOL    HW139533   2.900   1.729   7.278 -0.0626  0.8217 -0.9782
 9299SOL    HW239534   2.933   1.789   7.410 -0.8849 -2.2180  0.1977
 9300SOL     OW39535   3.787   0.605  11.659  0.5899 -0.1448  0.0002
 9300SOL    HW139536   3.727   0.570  11.725  2.2630  0.7939  2.0450
 9300SOL    HW239537   3.759   0.538  11.598  0.8491  0.4311 -0.7456
 9301SOL     OW39538   0.852   3.366   4.078 -0.3747 -0.2377 -0.6762
 9301SOL    HW139539   0.763   3.401   4.084  0.5983  2.1550 -0.2748
 9301SOL    HW239540   0.886   3.399   3.995  1.2886 -0.1748  0.0308
 9302SOL     OW39541   2.832   0.291  13.225 -0.3231  0.2202  0.3138
 9302SOL    HW139542   2.903   0.254  13.277  0.3030 -0.3000 -0.9166
 9302SOL    HW239543   2.881   0.327  13.151  0.1097  1.0786  1.0109
 9303SOL     OW39544   0.995   0.212  15.397 -0.0301  0.1991  0.4653
 9303SOL    HW139545   1.005   0.241  15.306  0.0342 -0.5260  0.2438
 9303SOL    HW239546   0.939   0.135  15.388 -0.6901  0.8925 -1.4745
 9304SOL     OW39547   2.106   3.628   6.998  0.4676  0.3551 -0.2744
 9304SOL    HW139548   2.067   3.588   6.920 -2.8039  1.0703  0.9578
 9304SOL    HW239549   2.199   3.632   6.980  0.2159  1.4841 -1.2688
 9305SOL     OW39550   3.615   0.534   2.441 -1.0769 -0.5716 -0.2162
 9305SOL    HW139551   3.527   0.516   2.409 -1.0600 -1.6250  0.3442
 9305SOL    HW239552   3.652   0.587   2.370  0.3516 -0.1243  0.8643
 9306SOL     OW39553   2.690   3.154   4.700  0.4072  0.7184  0.0435
 9306SOL    HW139554   2.728   3.219   4.641  2.8104  0.4789  1.3170
 9306SOL    HW239555   2.628   3.120   4.636  0.4893  0.9233 -0.1457
 9307SOL     OW39556   4.517   1.735  12.330  0.4222  0.0465 -0.8903
 9307SOL    HW139557   4.527   1.704  12.240  0.3919  1.0766 -1.2441
 9307SOL    HW239558   4.467   1.815  12.316 -0.8743 -0.7015 -0.4858
 9308SOL     OW39559   3.765   0.729   7.901 -1.0703 -0.0456 -0.1509
 9308SOL    HW139560   3.776   0.640   7.934 -0.6924  0.8575  2.1110
 9308SOL    HW239561   3.722   0.766   7.978  2.9007  0.6801  1.6627
 9309SOL     OW39562   3.711   0.476   7.484  0.4590  0.1293 -0.3889
 9309SOL    HW139563   3.793   0.516   7.455 -0.0269  1.0806 -0.4653
 9309SOL    HW239564   3.738   0.386   7.464  0.7080 -0.3640  2.1843
 9310SOL     OW39565   3.297   4.039   7.964  0.5341 -0.0345 -0.1520
 9310SOL    HW139566   3.222   3.995   8.004  0.0214  0.1801 -0.8679
 9310SOL    HW239567   3.352   4.018   8.039  1.4459  1.8606 -0.2893
 9311SOL     OW39568   3.882   1.819   3.522  0.7845 -0.1337  0.7205
 9311SOL    HW139569   3.862   1.912   3.529  1.0640  0.0298 -0.8669
 9311SOL    HW239570   3.858   1.800   3.613  1.2112  0.3620  0.9326
 9312SOL     OW39571   3.620   0.142   8.745 -0.4811 -0.4312  0.5131
 9312SOL    HW139572   3.570   0.223   8.746  1.5375  0.8374 -0.1675
 9312SOL    HW239573   3.688   0.162   8.809  0.9541  1.5435 -1.5812
 9313SOL     OW39574   0.171   1.539   7.664 -0.4487  0.4086  0.1590
 9313SOL    HW139575   0.253   1.506   7.627  0.2466 -0.6379  2.6410
 9313SOL    HW239576   0.179   1.634   7.668 -0.7636  0.4506 -0.1961
 9314SOL     OW39577   3.966   1.631   3.926  0.5659 -0.8100  0.1947
 9314SOL    HW139578   3.915   1.650   4.005 -3.0738 -1.1673 -2.0757
 9314SOL    HW239579   3.980   1.722   3.900  0.2802 -0.9639 -0.4878
 9315SOL     OW39580   0.102   1.023   0.858 -0.3665  0.0431 -0.5796
 9315SOL    HW139581   0.018   1.013   0.903  0.1503  1.1288  0.6391
 9315SOL    HW239582   0.155   0.953   0.895 -0.9787 -0.5633 -0.8616
 9316SOL     OW39583   1.064   0.887   8.290 -0.2971 -0.2375  0.8264
 9316SOL    HW139584   1.005   0.925   8.355 -0.1761  0.0085  0.7912
 9316SOL    HW239585   1.037   0.938   8.214  2.8465  1.3488  0.7620
 9317SOL     OW39586   1.823   2.217   9.208 -0.2513 -0.0085  0.1898
 9317SOL    HW139587   1.826   2.279   9.282  2.2899 -2.1930  1.9330
 9317SOL    HW239588   1.912   2.182   9.208 -0.4709 -0.5574 -1.0791
 9318SOL     OW39589   4.287   3.119  15.757 -0.1847  0.2623 -0.6074
 9318SOL    HW139590   4.288   3.045  15.697  0.4567  1.2662 -1.8258
 9318SOL    HW239591   4.228   3.088  15.826  1.1810 -1.3273 -0.1727
 9319SOL     OW39592   0.731   0.406  11.569 -0.4047 -0.3086 -0.3746
 9319SOL    HW139593   0.747   0.414  11.475  0.2824 -2.4688 -0.4455
 9319SOL    HW239594   0.728   0.310  11.565 -0.2558 -0.3165 -0.3113
 9320SOL     OW39595   2.073   1.929   8.895 -0.0321 -0.3950 -0.4468
 9320SOL    HW139596   2.009   1.926   8.824  0.8678 -1.5864 -1.2124
 9320SOL    HW239597   2.097   2.022   8.894 -0.4357 -0.2820  1.4305
 9321SOL     OW39598   1.515   2.242   2.559 -0.0876 -0.2643  0.3033
 9321SOL    HW139599   1.468   2.160   2.573  0.6591 -0.7137  0.1414
 9321SOL    HW239600   1.444   2.292   2.599  1.8043  0.3055  2.9171
 9322SOL     OW39601   1.576   2.765   4.625  0.5871 -0.4136  0.0588
 9322SOL    HW139602   1.596   2.729   4.712  1.0967  1.5608  0.7403
 9322SOL    HW239603   1.630   2.705   4.573 -0.3221 -1.2966  0.1157
 9323SOL     OW39604   4.475   0.711   4.344  0.1312 -0.1801 -0.2946
 9323SOL    HW139605   4.460   0.655   4.420 -0.2333 -1.1721 -1.1068
 9323SOL    HW239606   4.390   0.733   4.307  1.2399 -0.0154 -2.7435
 9324SOL     OW39607   4.052   0.512   2.200 -0.3048 -0.5818  0.3661
 9324SOL    HW139608   4.040   0.543   2.290  0.4513  0.0959  0.2334
 9324SOL    HW239609   3.980   0.558   2.157  0.5889  1.8571  1.4712
 9325SOL     OW39610   1.523   3.373   5.966  0.3753  0.3631 -0.6780
 9325SOL    HW139611   1.458   3.308   5.940  0.3596 -0.4046  1.3080
 9325SOL    HW239612   1.474   3.413   6.038 -0.1345 -2.9445  0.8098
 9326SOL     OW39613   2.891   3.837   8.140  0.3368 -0.1758  0.0056
 9326SOL    HW139614   2.840   3.841   8.220  0.6684 -2.2352  0.3225
 9326SOL    HW239615   2.886   3.744   8.120  1.7252 -0.4040  0.6817
 9327SOL     OW39616   4.209   3.020  17.026 -0.0188 -0.1560  0.2320
 9327SOL    HW139617   4.169   2.963  17.091 -3.5196  1.2558 -0.7177
 9327SOL    HW239618   4.251   3.090  17.076  0.7784 -0.6185  0.2167
 9328SOL     OW39619   2.683   4.003  10.426 -0.1626  0.5442 -0.0499
 9328SOL    HW139620   2.634   4.084  10.438 -0.0957  0.6854 -0.7484
 9328SOL    HW239621   2.757   4.021  10.485 -0.4936 -0.1876  0.6005
 9329SOL     OW39622   0.513   4.516   8.440 -0.1256  0.0232 -0.1154
 9329SOL    HW139623   0.487   4.530   8.531  4.2664  0.8146  1.0017
 9329SOL    HW239624   0.510   4.599   8.391 -0.1934  0.3768  0.4903
 9330SOL     OW39625   0.874   1.703   4.723 -0.8769 -0.2611 -0.1298
 9330SOL    HW139626   0.792   1.684   4.767 -0.2517  1.0744  1.6072
 9330SOL    HW239627   0.866   1.647   4.645  3.6837 -0.2945 -0.5987
 9331SOL     OW39628   4.426   4.420   0.105  0.4061 -0.1043  0.1721
 9331SOL    HW139629   4.458   4.488   0.046  1.3833  0.6027  1.5245
 9331SOL    HW239630   4.333   4.445   0.101  0.5836  0.2441 -2.2074
 9332SOL     OW39631   3.899   1.001   8.145  0.0408  0.1670  0.3014
 9332SOL    HW139632   3.863   1.063   8.208 -2.3876  0.9559 -1.8657
 9332SOL    HW239633   3.919   0.924   8.198  0.3405  1.3820  1.9428
 9333SOL     OW39634   3.451   3.893   5.018 -0.2205 -0.1931 -0.0230
 9333SOL    HW139635   3.475   3.827   5.083 -2.3468 -0.3964  0.5549
 9333SOL    HW239636   3.515   3.963   5.035 -0.0590  0.0248 -1.5834
 9334SOL     OW39637   0.739   2.462   5.184 -0.3461 -0.1622 -0.1301
 9334SOL    HW139638   0.814   2.504   5.142 -0.1363  0.3501  0.7590
 9334SOL    HW239639   0.782   2.413   5.255 -0.3051  0.4084  0.2351
 9335SOL     OW39640   3.065   4.643   0.114 -0.1333  0.0975  0.1589
 9335SOL    HW139641   3.019   4.582   0.171  0.0631  1.1250  1.4018
 9335SOL    HW239642   3.118   4.580   0.064 -2.1875  0.5481 -2.5737
 9336SOL     OW39643   2.028   2.080  11.239 -0.2222 -0.2029 -0.4563
 9336SOL    HW139644   1.960   2.142  11.264  1.5287  0.8759  1.6227
 9336SOL    HW239645   2.084   2.072  11.316  1.6450  2.8011 -1.5193
 9337SOL     OW39646   0.866   3.394   5.655 -0.1549 -0.0266  0.1027
 9337SOL    HW139647   0.920   3.385   5.576 -0.8014 -0.6320 -0.2625
 9337SOL    HW239648   0.859   3.307   5.693  0.6951  0.5412  1.5787
 9338SOL     OW39649   3.348   3.285   1.053  0.4650  0.2279  0.7308
 9338SOL    HW139650   3.274   3.345   1.059  0.2762  0.1804 -1.0904
 9338SOL    HW239651   3.382   3.289   1.143  0.1002 -0.4379  0.8968
 9339SOL     OW39652   3.950   4.375   3.069  0.0939 -0.6161 -0.1644
 9339SOL    HW139653   3.875   4.323   3.039  0.1332 -2.2396  2.6177
 9339SOL    HW239654   3.927   4.391   3.161  2.3459  0.1893  0.2682
 9340SOL     OW39655   4.164   0.567   6.463 -0.0004 -0.0106 -0.9399
 9340SOL    HW139656   4.256   0.587   6.482  0.1909 -0.0423 -1.8579
 9340SOL    HW239657   4.148   0.500   6.530  0.6252 -1.1001 -1.8818
 9341SOL     OW39658   3.823   1.853   9.713  0.0575  0.7555 -0.2988
 9341SOL    HW139659   3.734   1.848   9.680  0.6853 -0.4968 -1.8253
 9341SOL    HW239660   3.836   1.948   9.706  3.1131  0.2786 -1.3133
 9342SOL     OW39661   1.966   1.525   7.615 -0.5683 -0.0036  0.0975
 9342SOL    HW139662   1.919   1.571   7.685 -0.6245  0.2882 -0.1356
 9342SOL    HW239663   2.054   1.526   7.652 -1.5722  0.9798  2.5211
 9343SOL     OW39664   0.532   0.639   5.900 -0.6054 -0.3269  0.9025
 9343SOL    HW139665   0.448   0.683   5.903 -0.9815 -0.8013 -2.8165
 9343SOL    HW239666   0.518   0.583   5.823 -4.1497 -0.6959  1.8367
 9344SOL     OW39667   3.939   3.587   8.555 -0.5552 -0.0836 -0.1149
 9344SOL    HW139668   3.977   3.566   8.641 -0.3085  2.4632  0.4016
 9344SOL    HW239669   3.875   3.521   8.532 -0.3051  1.1006 -4.1676
 9345SOL     OW39670   0.777   2.060   8.111  0.7903 -0.3356  0.3289
 9345SOL    HW139671   0.725   2.050   8.031  1.6012 -1.0209 -0.1168
 9345SOL    HW239672   0.770   1.969   8.141  1.0176 -0.3307  0.3949
 9346SOL     OW39673   1.899   2.960   9.714  0.0359 -0.1538 -0.2250
 9346SOL    HW139674   1.830   2.896   9.699  1.0608 -1.4374  0.4593
 9346SOL    HW239675   1.957   2.901   9.763  0.2369 -0.1072 -0.4059
 9347SOL     OW39676   0.018   0.028   4.996 -0.1778  0.1961 -0.3947
 9347SOL    HW139677   0.055   0.008   5.082  0.2294 -1.2853 -0.9206
 9347SOL    HW239678   4.671   0.056   5.027  0.1174 -0.1960  0.7569
 9348SOL     OW39679   1.380   1.204  14.888 -0.0427 -0.1424  0.2050
 9348SOL    HW139680   1.394   1.110  14.876  0.1513 -0.2475  1.2537
 9348SOL    HW239681   1.402   1.228  14.798 -1.3931 -0.0747 -0.1160
 9349SOL     OW39682   0.696   4.196   8.841 -0.1984  0.0430  0.4394
 9349SOL    HW139683   0.608   4.203   8.806 -0.3011 -0.6864  0.5436
 9349SOL    HW239684   0.692   4.265   8.908 -0.6010  0.2252  0.2219
 9350SOL     OW39685   3.151   2.386   9.138  0.1066 -0.1206  0.4137
 9350SOL    HW139686   3.097   2.382   9.059  1.3961  1.2269 -0.5334
 9350SOL    HW239687   3.090   2.432   9.196  2.1875  3.3135 -0.1438
 9351SOL     OW39688   2.122   1.108   2.250 -0.0090 -0.2475 -0.0439
 9351SOL    HW139689   2.113   1.114   2.155  5.6609 -1.4991 -0.6768
 9351SOL    HW239690   2.153   1.018   2.259 -1.0457 -0.6625 -0.6064
 9352SOL     OW39691   1.431   1.228   3.483  0.7171  0.6185  0.3584
 9352SOL    HW139692   1.489   1.303   3.492  3.1146 -1.0996 -0.8039
 9352SOL    HW239693   1.482   1.167   3.537  1.4149  0.8127 -0.0762
 9353SOL     OW39694   3.658   4.595   5.344 -0.5644 -0.1096  0.0704
 9353SOL    HW139695   3.732   4.655   5.340  0.9399 -1.8645  1.3533
 9353SOL    HW239696   3.605   4.631   5.415 -2.3761 -0.4730 -1.0878
 9354SOL     OW39697   1.667   3.252   7.242  0.2771 -0.2377  0.0057
 9354SOL    HW139698   1.757   3.220   7.242  1.0529  1.9323 -1.4830
 9354SOL    HW239699   1.625   3.167   7.233 -0.8125  0.5289 -2.1736
 9355SOL     OW39700   0.696   3.746   5.385 -0.1638 -0.7988 -0.5621
 9355SOL    HW139701   0.707   3.652   5.373  1.4659 -0.9347  2.0142
 9355SOL    HW239702   0.602   3.755   5.399 -0.2902 -1.2496 -1.1245
 9356SOL     OW39703   0.702   1.905  13.029  0.5582 -0.0211 -0.3171
 9356SOL    HW139704   0.716   1.904  13.124 -1.1280  0.1296 -0.0794
 9356SOL    HW239705   0.717   1.814  13.006 -3.0956 -1.0673  1.4610
 9357SOL     OW39706   3.366   1.823   3.619 -0.2585  0.0112 -0.0482
 9357SOL    HW139707   3.400   1.778   3.696 -0.8922  2.1351  1.4590
 9357SOL    HW239708   3.327   1.746   3.578  0.3742 -1.2593  1.7467
 9358SOL     OW39709   1.401   4.359   8.357  0.0938  0.2583 -0.4608
 9358SOL    HW139710   1.330   4.326   8.412  0.5840 -0.1479 -0.0773
 9358SOL    HW239711   1.367   4.441   8.321 -1.6948  0.0617  0.7939
 9359SOL     OW39712   1.601   0.468   0.860 -0.6198 -0.2554  0.2579
 9359SOL    HW139713   1.586   0.426   0.775 -0.4474  1.5748 -0.6800
 9359SOL    HW239714   1.681   0.417   0.873 -0.2892 -0.0639 -0.9565
 9360SOL     OW39715   0.288   2.078  12.903  0.6924  0.0464  0.0161
 9360SOL    HW139716   0.240   2.120  12.831  0.3274 -1.0398 -0.3844
 9360SOL    HW239717   0.233   2.103  12.977  0.0106 -0.5299 -0.2946
 9361SOL     OW39718   0.467   3.343   7.207  0.0239 -0.0449  0.1389
 9361SOL    HW139719   0.391   3.399   7.218 -1.2487 -1.6846 -0.3482
 9361SOL    HW239720   0.428   3.256   7.211  2.0490 -0.9279  1.0148
 9362SOL     OW39721   4.735   0.889  12.394  0.3000 -0.3683 -0.0143
 9362SOL    HW139722   4.690   0.860  12.315  1.4228 -0.9514 -0.4442
 9362SOL    HW239723   0.005   0.982  12.375  1.2863  0.0551  2.5408
 9363SOL     OW39724   4.656   1.087  15.803 -0.0724 -0.0043 -0.0396
 9363SOL    HW139725   4.622   1.112  15.717  0.5264 -0.1525 -0.3211
 9363SOL    HW239726   4.593   1.133  15.859  0.2969  0.6640 -0.1656
 9364SOL     OW39727   2.438   0.880   2.488  0.5286  0.0980  0.0891
 9364SOL    HW139728   2.389   0.931   2.552  1.4676  0.3279  0.6328
 9364SOL    HW239729   2.468   0.808   2.543  0.2372 -1.6422 -2.0327
 9365SOL     OW39730   2.982   2.496   3.323  0.2936  0.0985  0.1152
 9365SOL    HW139731   3.058   2.466   3.273  0.0117 -0.3302 -0.0603
 9365SOL    HW239732   2.919   2.484   3.251 -1.4314 -1.5490  1.8931
 9366SOL     OW39733   3.674   1.993   2.155  0.3424 -0.3031 -0.5113
 9366SOL    HW139734   3.757   1.945   2.155  0.7243  0.3632  0.1032
 9366SOL    HW239735   3.624   1.944   2.090  0.1039 -1.3984  0.4828
 9367SOL     OW39736   4.683   0.205   1.912  0.1574  0.0864  0.5516
 9367SOL    HW139737   4.622   0.149   1.864 -0.7772  0.9344  0.7464
 9367SOL    HW239738   4.676   0.166   1.999 -0.4867 -1.0354 -0.0059
 9368SOL     OW39739   2.667   2.913   8.201  0.5291 -0.0860 -0.0176
 9368SOL    HW139740   2.580   2.951   8.204  1.0839  1.3239 -2.1774
 9368SOL    HW239741   2.717   2.993   8.216  0.1705 -0.1673  1.6408
 9369SOL     OW39742   4.319   0.873   0.549  0.7962 -0.3968 -0.3042
 9369SOL    HW139743   4.384   0.872   0.480  1.1207  0.7440 -0.0220
 9369SOL    HW239744   4.234   0.879   0.506  1.7369 -0.1477 -2.0929
 9370SOL     OW39745   4.602   2.560  11.010  0.6575 -0.0728  0.1869
 9370SOL    HW139746   4.586   2.644  10.969 -2.6905  0.8705  3.4339
 9370SOL    HW239747   4.697   2.557  11.021  0.6864  0.1392 -0.0122
 9371SOL     OW39748   2.155   4.228   0.451  0.1035  0.1265 -0.1005
 9371SOL    HW139749   2.208   4.149   0.451  0.6929  0.5206 -0.6902
 9371SOL    HW239750   2.068   4.202   0.482  0.7348 -3.8883 -1.8001
 9372SOL     OW39751   2.362   1.965   3.923  0.0839 -0.0055 -0.0652
 9372SOL    HW139752   2.323   1.908   3.989 -0.2670 -0.1446 -0.3920
 9372SOL    HW239753   2.415   2.020   3.979  0.3812 -1.4132  1.0295
 9373SOL     OW39754   2.653   0.245   9.432 -0.4923  0.2868  0.1196
 9373SOL    HW139755   2.621   0.156   9.420  1.7699 -0.5652  0.4647
 9373SOL    HW239756   2.638   0.268   9.524  1.2706  2.2331 -0.0901
 9374SOL     OW39757   0.307   4.159  12.701 -0.6083  0.6803  0.7677
 9374SOL    HW139758   0.231   4.194  12.747 -0.8553 -2.9650  3.1216
 9374SOL    HW239759   0.266   4.146  12.616  0.6394  5.0169 -0.4959
 9375SOL     OW39760   0.206   1.722   8.333  0.5410  0.2760 -0.0374
 9375SOL    HW139761   0.230   1.686   8.248 -1.3376 -0.6233 -0.1898
 9375SOL    HW239762   0.289   1.744   8.375  0.1626  0.8079  0.4430
 9376SOL     OW39763   3.449   3.283   2.354  0.7459  0.2436  0.2994
 9376SOL    HW139764   3.467   3.376   2.342 -0.0874  0.2914 -0.5121
 9376SOL    HW239765   3.496   3.252   2.277 -0.4206 -1.5765  0.3149
 9377SOL     OW39766   4.281   1.327   4.761  0.2539 -0.2749 -0.0175
 9377SOL    HW139767   4.277   1.275   4.842 -0.1485  0.7310  0.6041
 9377SOL    HW239768   4.224   1.270   4.709  1.2110 -2.2691  1.1112
 9378SOL     OW39769   0.346   1.754   4.326 -0.9068 -0.2649 -0.3297
 9378SOL    HW139770   0.263   1.768   4.281 -0.5618 -1.1504 -1.2525
 9378SOL    HW239771   0.322   1.760   4.418  2.7154 -1.8249  0.7368
 9379SOL     OW39772   0.421   1.816   7.796 -0.1801  0.2289 -0.4567
 9379SOL    HW139773   0.468   1.734   7.784  2.8107  1.8571  0.3196
 9379SOL    HW239774   0.400   1.824   7.703  2.5434 -0.2513 -1.0873
 9380SOL     OW39775   2.685   0.278   2.557 -0.1023 -0.6544 -0.2686
 9380SOL    HW139776   2.732   0.217   2.613 -1.9069 -0.3894  1.5068
 9380SOL    HW239777   2.592   0.273   2.578  0.5899 -3.1810  2.1027
 9381SOL     OW39778   4.239   0.134   8.765 -0.6297 -0.1088 -0.0184
 9381SOL    HW139779   4.253   0.227   8.785  2.0838 -0.7120  0.9484
 9381SOL    HW239780   4.166   0.144   8.705  1.4243 -0.8889 -2.6272
 9382SOL     OW39781   1.562   4.652   9.204  0.4562  0.2210  0.1162
 9382SOL    HW139782   1.492   4.702   9.246 -0.4598  0.0523 -1.2043
 9382SOL    HW239783   1.627   4.722   9.200  0.3583  0.2863 -0.3462
 9383SOL     OW39784   3.930   4.119   4.107  0.0023  0.0608 -0.2852
 9383SOL    HW139785   3.851   4.172   4.095  1.3247  2.1489  0.1790
 9383SOL    HW239786   3.991   4.169   4.053  0.2602  0.6799  0.5712
 9384SOL     OW39787   3.538   1.308   9.581  1.0602  0.1717 -0.1032
 9384SOL    HW139788   3.492   1.248   9.523 -0.4805  0.8343  0.4308
 9384SOL    HW239789   3.616   1.253   9.584  0.6592 -0.2391  2.6145
 9385SOL     OW39790   3.123   1.509   5.578  0.2862  0.0517 -0.0843
 9385SOL    HW139791   3.081   1.594   5.591 -1.3862 -0.6262 -1.0519
 9385SOL    HW239792   3.071   1.459   5.515  0.8193 -1.3861  0.5954
 9386SOL     OW39793   2.013   2.660   2.094 -0.0752 -0.0206 -0.3557
 9386SOL    HW139794   2.078   2.666   2.164 -0.2238 -2.5408 -0.0195
 9386SOL    HW239795   2.024   2.573   2.057  0.2119  0.9145 -2.4623
 9387SOL     OW39796   2.298   1.577   6.954  0.1683  0.1639 -0.2299
 9387SOL    HW139797   2.243   1.514   6.999  0.3835  0.9333  1.1146
 9387SOL    HW239798   2.271   1.657   6.999  1.6156  0.6929 -0.3167
 9388SOL     OW39799   3.793   0.914  16.495  1.0471 -0.6215 -0.4854
 9388SOL    HW139800   3.854   0.904  16.423  1.3301  2.9566 -0.7403
 9388SOL    HW239801   3.787   1.007  16.516  1.5326 -0.4615 -1.0563
 9389SOL     OW39802   4.512   1.856   6.293 -0.0790  0.0542  0.3471
 9389SOL    HW139803   4.470   1.882   6.375  1.1444  0.5797  0.8141
 9389SOL    HW239804   4.594   1.906   6.295 -0.1730  0.2191  0.1563
 9390SOL     OW39805   1.766   2.365   7.298 -0.2112  0.2522 -0.6399
 9390SOL    HW139806   1.715   2.313   7.236  0.4043 -1.4147  0.2541
 9390SOL    HW239807   1.750   2.455   7.270  0.4417  0.4349 -0.4142
 9391SOL     OW39808   0.261   3.028  15.757  0.1372  0.0677  0.5387
 9391SOL    HW139809   0.296   3.072  15.679  0.0920  1.5013  1.3333
 9391SOL    HW239810   0.175   3.068  15.763  0.1373  0.5701 -2.8923
 9392SOL     OW39811   3.794   2.124   0.241  0.3278  0.4282  0.1890
 9392SOL    HW139812   3.850   2.158   0.311 -0.8039 -0.7026  1.6469
 9392SOL    HW239813   3.714   2.176   0.247  0.2231  0.0399  2.2010
 9393SOL     OW39814   3.568   1.936   7.219  0.7593  0.3552  0.2969
 9393SOL    HW139815   3.515   2.011   7.245 -1.7671 -0.5030 -2.3846
 9393SOL    HW239816   3.640   1.955   7.279  0.6279  2.9936 -0.3832
 9394SOL     OW39817   3.134   1.660   5.021 -0.2058 -0.0577 -0.0192
 9394SOL    HW139818   3.142   1.749   4.986 -1.8067 -0.2074 -0.7714
 9394SOL    HW239819   3.179   1.613   4.951  1.6118  0.8275  0.5584
 9395SOL     OW39820   1.986   2.029   9.825  0.5261 -0.1666 -0.0354
 9395SOL    HW139821   2.054   2.061   9.765  0.7616 -2.1087 -0.8049
 9395SOL    HW239822   1.933   2.108   9.840  0.0597 -0.3679 -0.6501
 9396SOL     OW39823   4.160   1.528   0.391  0.1493 -0.2550 -0.2445
 9396SOL    HW139824   4.135   1.591   0.323  1.2145 -0.7778 -1.1358
 9396SOL    HW239825   4.141   1.450   0.339  0.9319 -0.2600 -0.5358
 9397SOL     OW39826   3.308   0.209   8.608 -0.2082 -0.4501 -0.4335
 9397SOL    HW139827   3.368   0.275   8.642  0.2108 -0.7559 -0.5802
 9397SOL    HW239828   3.226   0.232   8.653  0.1851 -2.2556  1.1592
 9398SOL     OW39829   2.996   1.594   2.226 -0.6898  0.0987  0.1026
 9398SOL    HW139830   3.061   1.655   2.262  0.3833 -2.7809  3.0553
 9398SOL    HW239831   2.942   1.568   2.300 -0.8638 -1.9202 -0.7416
 9399SOL     OW39832   1.665   0.787   5.357 -0.2507 -0.0877 -0.3774
 9399SOL    HW139833   1.682   0.717   5.420  1.6964  0.3415 -0.4310
 9399SOL    HW239834   1.756   0.814   5.343 -0.7820  1.4047 -0.9884
 9400SOL     OW39835   1.611   0.095  13.299  0.3436 -0.1852  0.3081
 9400SOL    HW139836   1.592   0.127  13.387  0.2213  1.8977 -0.4733
 9400SOL    HW239837   1.523   0.084  13.263  1.0142  0.4028 -1.5735
 9401SOL     OW39838   1.158   3.256   4.947 -0.2971  0.2883 -0.5559
 9401SOL    HW139839   1.105   3.325   4.988  0.0949  0.2249  0.0766
 9401SOL    HW239840   1.104   3.180   4.964  1.0676 -0.8012 -1.1014
 9402SOL     OW39841   1.920   2.272   0.525  0.6112 -0.2365 -0.1900
 9402SOL    HW139842   2.003   2.226   0.515  0.5227 -0.3187 -0.5539
 9402SOL    HW239843   1.926   2.331   0.450  0.2140 -2.8913 -2.2948
 9403SOL     OW39844   4.380   4.146   3.198  0.5785 -0.2316 -0.0880
 9403SOL    HW139845   4.317   4.156   3.126 -3.0653  1.3093  3.3646
 9403SOL    HW239846   4.454   4.135   3.137  0.4771 -1.1281 -0.0481
 9404SOL     OW39847   2.087   2.170   4.658 -0.5103  0.0606 -0.3151
 9404SOL    HW139848   2.052   2.082   4.675  1.6283 -1.0137 -1.5323
 9404SOL    HW239849   2.008   2.224   4.667 -0.2008  0.4074  0.3374
 9405SOL     OW39850   4.044   0.699   4.931  0.4177  0.2755  0.3503
 9405SOL    HW139851   4.028   0.780   4.980  1.4253 -0.9508  2.7050
 9405SOL    HW239852   3.959   0.655   4.923 -0.0106  1.0491  0.6224
 9406SOL     OW39853   0.775   4.281  12.615  0.0767  0.6460  0.7026
 9406SOL    HW139854   0.818   4.315  12.694  0.2194 -0.3761  1.0603
 9406SOL    HW239855   0.719   4.219  12.661  1.5515  1.6884  3.8636
 9407SOL     OW39856   4.550   2.182   8.228  0.3376  0.0197  0.4053
 9407SOL    HW139857   4.599   2.191   8.309  2.9784  1.5265 -1.3731
 9407SOL    HW239858   4.485   2.112   8.238 -0.0565  0.3329  0.0245
 9408SOL     OW39859   1.363   0.410   6.472 -0.7218 -0.7041  0.0158
 9408SOL    HW139860   1.344   0.464   6.395 -0.0215 -0.3096  0.1174
 9408SOL    HW239861   1.280   0.364   6.486 -0.5123 -1.3800 -0.9462
 9409SOL     OW39862   1.126   2.888   2.189  0.3966 -1.0134  0.4023
 9409SOL    HW139863   1.085   2.975   2.196  1.2485 -0.4786 -1.1445
 9409SOL    HW239864   1.122   2.864   2.097 -0.2056 -0.1219  0.1905
 9410SOL     OW39865   4.069   1.978   8.557  0.5331  0.7494  0.3220
 9410SOL    HW139866   4.092   1.964   8.465  1.0151  0.0431  0.5514
 9410SOL    HW239867   4.129   1.912   8.592  2.5205  2.5782  0.3673
 9411SOL     OW39868   3.588   3.757   6.336 -0.3479 -0.9641 -0.3270
 9411SOL    HW139869   3.537   3.681   6.308 -1.1747 -0.5591  0.1075
 9411SOL    HW239870   3.633   3.779   6.254 -0.1795  2.0013  0.5720
 9412SOL     OW39871   4.081   1.456   5.910  0.0267  0.5370  0.6736
 9412SOL    HW139872   4.098   1.363   5.894 -0.1867  0.5909  0.1138
 9412SOL    HW239873   4.135   1.497   5.842 -0.5711 -0.8354 -0.6208
 9413SOL     OW39874   2.121   4.303   1.173 -0.7625 -0.2105 -0.4166
 9413SOL    HW139875   2.154   4.277   1.260 -2.0279  0.9184  0.4042
 9413SOL    HW239876   2.193   4.263   1.124  0.2302  2.1138 -0.8597
 9414SOL     OW39877   3.192   1.383  16.243 -0.4888  0.0080  0.1386
 9414SOL    HW139878   3.181   1.477  16.230  0.2228 -0.0257 -0.7442
 9414SOL    HW239879   3.253   1.359  16.174 -0.7480 -0.8669  0.2189
 9415SOL     OW39880   3.170   1.227   6.901 -0.0832 -0.0245 -0.4207
 9415SOL    HW139881   3.147   1.183   6.819  0.3848 -0.7042 -0.1912
 9415SOL    HW239882   3.130   1.313   6.890  2.0159  0.9708 -0.1735
 9416SOL     OW39883   2.958   4.526   5.685 -0.4471 -0.4303 -0.0014
 9416SOL    HW139884   2.946   4.607   5.734  0.2092  0.0680 -0.6484
 9416SOL    HW239885   2.949   4.557   5.594  0.3125  0.6414  0.2817
 9417SOL     OW39886   2.508   3.638  14.846  0.4203 -0.4428  0.0355
 9417SOL    HW139887   2.442   3.698  14.880  0.9434  0.6117 -0.7833
 9417SOL    HW239888   2.519   3.674  14.758  1.7425  1.8322  1.1182
 9418SOL     OW39889   1.711   0.182   2.243 -0.2350  0.1083  0.4021
 9418SOL    HW139890   1.804   0.206   2.235 -0.0582 -0.6352  0.2309
 9418SOL    HW239891   1.707   0.119   2.316  1.0598  2.0235  2.1232
 9419SOL     OW39892   1.385   2.733   5.414 -0.5774  0.2805 -0.8266
 9419SOL    HW139893   1.445   2.753   5.342 -1.9841  0.3622 -1.9804
 9419SOL    HW239894   1.368   2.642   5.392  2.5618 -0.1449 -1.5799
 9420SOL     OW39895   0.698   4.407   3.170 -0.3558 -0.6396  0.4856
 9420SOL    HW139896   0.698   4.413   3.074 -2.0875 -1.0514  0.4507
 9420SOL    HW239897   0.677   4.496   3.199  0.1282 -0.2989 -0.1908
 9421SOL     OW39898   1.338   2.171   2.070  0.1498  0.1923  0.0267
 9421SOL    HW139899   1.273   2.109   2.101  0.1864 -0.1727 -0.6286
 9421SOL    HW239900   1.418   2.122   2.088 -0.3932 -0.1364  1.5662
 9422SOL     OW39901   3.654   2.571  13.346  0.1637  0.6556 -0.5098
 9422SOL    HW139902   3.643   2.642  13.409 -1.3920 -0.3946  0.4004
 9422SOL    HW239903   3.572   2.532  13.379  1.3227 -2.1451 -0.9015
 9423SOL     OW39904   4.290   2.954  12.387  0.2845  0.4627  0.7242
 9423SOL    HW139905   4.343   3.025  12.425  1.7576 -0.9003  1.2228
 9423SOL    HW239906   4.227   2.945  12.458  0.1220 -2.8954  0.1438
 9424SOL     OW39907   0.294   3.741  13.602 -0.4461  0.2779 -0.6871
 9424SOL    HW139908   0.199   3.728  13.598 -0.9379  3.2433  1.0665
 9424SOL    HW239909   0.338   3.662  13.571  1.1539  0.7350  0.4080
 9425SOL     OW39910   3.504   1.234   3.390  0.6871  0.3640  0.4897
 9425SOL    HW139911   3.510   1.181   3.469 -0.9645  0.6227  0.7883
 9425SOL    HW239912   3.591   1.274   3.392  1.3385 -0.9944 -0.9782
 9426SOL     OW39913   3.320   1.730   9.490 -0.0754  0.6950 -0.5128
 9426SOL    HW139914   3.305   1.692   9.404  0.8919 -1.3681  0.2205
 9426SOL    HW239915   3.243   1.693   9.534  0.7537  0.4506  0.7320
 9427SOL     OW39916   2.905   4.004   9.152 -0.3401 -0.1636  0.0147
 9427SOL    HW139917   2.898   3.936   9.085  1.7818  0.9109 -1.3224
 9427SOL    HW239918   2.868   3.963   9.230  0.1408  1.6536  1.2102
 9428SOL     OW39919   1.120   3.743   9.076  0.2186  0.5509  0.2909
 9428SOL    HW139920   1.085   3.664   9.035  2.6628 -2.0624  3.2652
 9428SOL    HW239921   1.187   3.764   9.010  0.2975  1.2155  0.5860
 9429SOL     OW39922   4.377   2.289   8.009  0.5780 -0.7021 -0.1858
 9429SOL    HW139923   4.444   2.266   8.074  0.4785  2.0776  0.9351
 9429SOL    HW239924   4.413   2.272   7.922  2.6156  0.2888  0.4538
 9430SOL     OW39925   3.446   2.778   1.745 -0.2418 -0.1133  0.2650
 9430SOL    HW139926   3.391   2.767   1.668  0.8320  1.9535 -0.7776
 9430SOL    HW239927   3.386   2.747   1.814 -1.2435 -0.0373 -0.5790
 9431SOL     OW39928   4.052   1.207   3.210  0.5362 -0.4953  0.0568
 9431SOL    HW139929   4.073   1.293   3.248  3.8371 -0.0956 -2.6731
 9431SOL    HW239930   3.957   1.200   3.221  0.3416 -1.3629 -2.3103
 9432SOL     OW39931   3.179   2.950   0.534  0.3935 -0.0069 -0.3015
 9432SOL    HW139932   3.144   3.018   0.592  0.9004  0.5175 -0.6095
 9432SOL    HW239933   3.252   2.928   0.592 -0.6096  1.2484  1.4661
 9433SOL     OW39934   0.076   0.079   4.395 -0.0544 -0.0817 -0.7441
 9433SOL    HW139935   4.731   0.056   4.436  1.4885 -0.5874  2.0582
 9433SOL    HW239936   0.043   0.145   4.333  0.1584  0.1014 -0.6636
 9434SOL     OW39937   2.520   2.366   1.793 -0.0661 -0.4590 -0.2011
 9434SOL    HW139938   2.527   2.325   1.707  1.8980 -0.6750  0.0568
 9434SOL    HW239939   2.522   2.285   1.845  0.4674 -0.8612 -0.8471
 9435SOL     OW39940   4.072   2.693   1.441  0.2159  0.0590  0.5991
 9435SOL    HW139941   4.166   2.685   1.460  0.5972  3.9453  0.4486
 9435SOL    HW239942   4.074   2.774   1.391 -0.0859 -0.2234  0.1384
 9436SOL     OW39943   1.742   4.458   1.915  0.5526 -0.3439 -0.7081
 9436SOL    HW139944   1.648   4.454   1.895  0.1519  2.1905  0.6918
 9436SOL    HW239945   1.768   4.366   1.910  0.5048 -0.4100  0.2963
 9437SOL     OW39946   1.173   2.924   6.464 -0.7397  0.5253  0.5816
 9437SOL    HW139947   1.191   2.992   6.399  2.8037 -0.3359  0.6621
 9437SOL    HW239948   1.157   2.977   6.542  1.1079  1.4756  0.3320
 9438SOL     OW39949   2.203   3.184   3.733  0.2369  0.7258  0.1797
 9438SOL    HW139950   2.189   3.264   3.782 -2.5119  1.2318 -1.4255
 9438SOL    HW239951   2.170   3.125   3.801 -2.6144  2.1455  0.0166
 9439SOL     OW39952   3.434   2.801   4.717  0.1367  0.4051  0.4763
 9439SOL    HW139953   3.342   2.828   4.723 -0.6977 -1.6531 -2.8421
 9439SOL    HW239954   3.481   2.852   4.783 -1.8856  1.9438  0.7124
 9440SOL     OW39955   3.011   2.786   2.309  0.3620  0.0865 -0.1462
 9440SOL    HW139956   3.029   2.695   2.285 -1.4566 -0.0247 -1.0572
 9440SOL    HW239957   3.076   2.833   2.256  1.6751  3.6014  4.6193
 9441SOL     OW39958   3.951   1.140  10.244 -0.0713 -0.2118  0.2554
 9441SOL    HW139959   3.855   1.144  10.247  0.0563  0.5246  3.0081
 9441SOL    HW239960   3.958   1.234  10.259  2.9793 -0.7721  2.3686
 9442SOL     OW39961   4.260   0.727   2.088 -0.3801 -0.2180  0.0428
 9442SOL    HW139962   4.201   0.792   2.125  0.2726  1.4331 -1.7971
 9442SOL    HW239963   4.214   0.647   2.114  1.6938 -0.9229  1.4729
 9443SOL     OW39964   0.243   2.893   4.609 -0.4229 -0.4127  0.1057
 9443SOL    HW139965   0.221   2.801   4.621 -0.5316 -0.5820 -1.3991
 9443SOL    HW239966   0.186   2.908   4.534 -1.1485  2.5987  1.2186
 9444SOL     OW39967   3.059   1.553   0.215 -0.8813  0.3478  0.2688
 9444SOL    HW139968   3.007   1.631   0.197  0.8244  1.7313  1.2792
 9444SOL    HW239969   3.095   1.594   0.294 -0.4793  2.0603 -0.8062
 9445SOL     OW39970   3.130   0.572   9.092  0.2252  0.4769  0.1548
 9445SOL    HW139971   3.037   0.588   9.079  0.3822 -0.5012 -2.1882
 9445SOL    HW239972   3.152   0.506   9.026 -0.2928  0.2640  0.1913
 9446SOL     OW39973   2.147   4.458  12.757 -0.4122  0.2635 -0.9320
 9446SOL    HW139974   2.154   4.414  12.842 -2.3319  0.2514 -0.7955
 9446SOL    HW239975   2.065   4.505  12.765  1.2062  3.0412 -0.6342
 9447SOL     OW39976   3.746   4.207   4.516 -0.1355 -0.4841 -0.4729
 9447SOL    HW139977   3.839   4.223   4.499  0.0460  0.3352  1.3193
 9447SOL    HW239978   3.711   4.296   4.520  2.6826  0.6020  0.4211
 9448SOL     OW39979   3.299   3.656   2.401  0.8804 -0.6096 -0.0185
 9448SOL    HW139980   3.347   3.614   2.473 -1.4435 -1.1629  1.1982
 9448SOL    HW239981   3.210   3.623   2.400  0.4328  0.6435 -0.9606
 9449SOL     OW39982   2.976   4.634   0.674 -0.6932 -0.0366 -0.0850
 9449SOL    HW139983   2.995   4.696   0.603 -2.6841  2.2795  1.3786
 9449SOL    HW239984   2.988   4.692   0.749  3.0789 -1.1821  0.2011
 9450SOL     OW39985   0.028   3.664  16.141  0.2381 -0.5644 -0.2896
 9450SOL    HW139986   4.710   3.588  16.152  1.1727 -1.4906 -1.9612
 9450SOL    HW239987   0.011   3.691  16.051 -1.7873  0.9790  0.5596
 9451SOL     OW39988   2.110   1.893   5.971 -0.2178  0.6167 -0.2483
 9451SOL    HW139989   2.073   1.861   6.054 -0.2718  0.2686 -0.4058
 9451SOL    HW239990   2.142   1.808   5.940 -2.7292 -0.2054 -0.6055
 9452SOL     OW39991   4.090   1.212   4.591 -0.0953  0.1172  0.7355
 9452SOL    HW139992   4.120   1.276   4.526 -0.4680 -1.8417 -1.3383
 9452SOL    HW239993   3.996   1.232   4.592  0.5770  3.2445  3.4216
 9453SOL     OW39994   1.665   4.348   7.620 -0.3670  0.7139 -0.0003
 9453SOL    HW139995   1.707   4.283   7.564 -4.0303 -2.1071  0.4869
 9453SOL    HW239996   1.653   4.290   7.695 -0.2188 -1.4614 -1.6605
 9454SOL     OW39997   0.323   3.604   6.172 -0.1428  0.4087  0.2989
 9454SOL    HW139998   0.231   3.618   6.149 -0.4557 -2.0700 -0.0158
 9454SOL    HW239999   0.332   3.509   6.175 -1.8426  0.2753  1.0715
 9455SOL     OW40000   3.117   4.113   4.454 -0.1127  0.5581 -0.4760
 9455SOL    HW140001   3.185   4.179   4.464  1.1665 -0.9653  0.8118
 9455SOL    HW240002   3.091   4.102   4.545 -0.6984  1.4873 -0.5274
 9456SOL     OW40003   1.122   2.015  17.751 -0.2992  0.4788 -0.3757
 9456SOL    HW140004   1.173   1.954   0.052 -0.4168 -0.9757 -1.9358
 9456SOL    HW240005   1.142   2.101   0.037 -1.7726  1.1027 -1.0101
 9457SOL     OW40006   1.139   4.430   2.775  0.0731 -0.5063  0.3842
 9457SOL    HW140007   1.120   4.523   2.788 -0.8068 -0.6761  0.2875
 9457SOL    HW240008   1.094   4.405   2.694  0.8382 -2.9627  0.7393
 9458SOL     OW40009   2.884   3.874  12.959 -0.6003  0.0988 -0.4695
 9458SOL    HW140010   2.964   3.853  12.910  0.9605  2.9471  0.8512
 9458SOL    HW240011   2.857   3.784  12.978 -1.0686  0.9466  2.8416
 9459SOL     OW40012   4.246   4.574   3.090 -0.0093 -0.3054  0.1626
 9459SOL    HW140013   4.280   4.630   3.021  1.0644 -0.7184  0.3653
 9459SOL    HW240014   4.274   4.616   3.171  0.7358  0.0794 -0.3015
 9460SOL     OW40015   0.072   3.241   5.450 -0.0587  0.7142 -0.3839
 9460SOL    HW140016   0.052   3.156   5.490 -1.2247  1.7047  1.1672
 9460SOL    HW240017   0.162   3.223   5.425  0.1035  0.6953  0.2067
 9461SOL     OW40018   1.119   1.152   5.786 -0.0590  0.2153  0.0272
 9461SOL    HW140019   1.162   1.215   5.843  0.0755  1.2693 -1.2466
 9461SOL    HW240020   1.183   1.089   5.752 -0.9359  0.1644 -1.5314
 9462SOL     OW40021   1.109   2.613  16.347  0.4342 -0.6465 -0.0258
 9462SOL    HW140022   1.158   2.670  16.287 -0.0705 -1.3147 -1.0606
 9462SOL    HW240023   1.182   2.557  16.375 -1.1107 -2.5361  0.1826
 9463SOL     OW40024   2.540   3.246  17.445 -0.4965  0.0143 -0.2267
 9463SOL    HW140025   2.481   3.299  17.392  0.3348  0.3040 -0.8670
 9463SOL    HW240026   2.623   3.278  17.410 -0.7018  0.8809  0.0968
 9464SOL     OW40027   2.644   4.534   3.886 -0.0754  0.4463  0.1627
 9464SOL    HW140028   2.573   4.492   3.936  0.0227 -0.3352 -0.3495
 9464SOL    HW240029   2.615   4.535   3.795 -1.8994 -0.0561  0.7233
 9465SOL     OW40030   1.419   3.714   6.496 -0.3009 -0.5659  0.1479
 9465SOL    HW140031   1.494   3.711   6.436  0.5195 -0.6322  1.1797
 9465SOL    HW240032   1.453   3.654   6.563  0.1333  0.7569  1.0926
 9466SOL     OW40033   0.643   3.732  13.378 -0.3426 -0.5249  0.2046
 9466SOL    HW140034   0.730   3.721  13.339 -0.6394  1.7038 -1.1137
 9466SOL    HW240035   0.635   3.828  13.383  2.4086 -0.2955  0.2332
 9467SOL     OW40036   0.342   2.439   5.741  0.4119 -0.0520 -0.2053
 9467SOL    HW140037   0.331   2.381   5.666 -0.2945  0.5361 -0.5636
 9467SOL    HW240038   0.277   2.507   5.719  0.4153 -0.0407 -0.1813
 9468SOL     OW40039   1.740   2.471   4.653  0.3867 -0.4543 -0.1762
 9468SOL    HW140040   1.682   2.500   4.724  0.0825  0.4967 -0.8157
 9468SOL    HW240041   1.683   2.475   4.576  1.8363  2.1155 -1.1293
 9469SOL     OW40042   3.342   3.232  15.167 -0.4424  0.3068 -0.7656
 9469SOL    HW140043   3.410   3.212  15.102  0.5428  0.2695  0.2554
 9469SOL    HW240044   3.295   3.149  15.174  0.6442 -0.2077  0.4825
 9470SOL     OW40045   2.301   1.591   9.354 -0.3471 -0.1620  0.5218
 9470SOL    HW140046   2.281   1.600   9.261 -1.1830 -1.3584  0.5756
 9470SOL    HW240047   2.352   1.510   9.350 -0.7149 -0.4061  0.7619
 9471SOL     OW40048   4.028   1.742   2.142 -0.0545  0.1816 -0.6768
 9471SOL    HW140049   3.975   1.702   2.073 -1.3905  1.2856 -0.3084
 9471SOL    HW240050   4.027   1.669   2.204 -0.2843  1.0866  0.3833
 9472SOL     OW40051   3.841   1.434   5.811 -0.1834 -0.3398  0.5573
 9472SOL    HW140052   3.826   1.453   5.718 -0.4782 -1.6306  0.3411
 9472SOL    HW240053   3.928   1.471   5.828  0.1246 -0.6299 -0.3975
 9473SOL     OW40054   0.462   3.660   9.508  0.0943  0.1582 -0.7140
 9473SOL    HW140055   0.481   3.751   9.489 -1.9783  0.3098 -2.0284
 9473SOL    HW240056   0.518   3.627   9.438 -0.0314 -0.0606 -0.7153
 9474SOL     OW40057   3.633   2.624   3.860  0.4769  0.2790 -0.1736
 9474SOL    HW140058   3.634   2.690   3.791 -3.3261  0.1985 -0.3015
 9474SOL    HW240059   3.696   2.662   3.921  1.0053 -0.9558  0.0536
 9475SOL     OW40060   3.887   0.385   6.639 -0.1308  0.1293  0.0033
 9475SOL    HW140061   3.793   0.373   6.631 -0.0073 -0.6750 -0.2837
 9475SOL    HW240062   3.903   0.445   6.711  2.2877  0.4132 -0.7636
 9476SOL     OW40063   1.717   1.220   3.744  0.1838  0.2732  0.2429
 9476SOL    HW140064   1.691   1.294   3.689  0.7530  0.6105  0.4219
 9476SOL    HW240065   1.634   1.203   3.789  0.7374  1.0199  1.5524
 9477SOL     OW40066   3.454   4.535   9.940  0.0373 -0.2393 -0.4665
 9477SOL    HW140067   3.483   4.458   9.988  1.7086  0.4456 -0.3899
 9477SOL    HW240068   3.431   4.600  10.006  1.1442  0.4567 -0.7780
 9478SOL     OW40069   3.835   1.941   6.783 -0.0825 -0.4681 -0.0803
 9478SOL    HW140070   3.831   2.014   6.845 -0.5924 -1.6633  1.2998
 9478SOL    HW240071   3.919   1.959   6.742 -0.2005 -0.5057 -0.3378
 9479SOL     OW40072   0.425   4.631   9.691  0.1637 -0.0045  0.6110
 9479SOL    HW140073   0.427   4.578   9.611 -0.5260 -0.2525  0.7555
 9479SOL    HW240074   0.385   4.577   9.759  2.8842 -0.1176  2.0958
 9480SOL     OW40075   2.398   4.404   7.692 -0.4874  0.2046 -0.6612
 9480SOL    HW140076   2.469   4.459   7.723 -1.1320  0.2490  0.7155
 9480SOL    HW240077   2.401   4.416   7.597  0.4714 -1.7905 -0.8981
 9481SOL     OW40078   2.563   4.539  14.880  0.0951 -0.1522 -0.0462
 9481SOL    HW140079   2.565   4.630  14.908  1.3246 -0.1676 -0.0724
 9481SOL    HW240080   2.482   4.511  14.922 -1.2006  0.6726 -1.9944
 9482SOL     OW40081   4.115   1.955   4.505  0.2661 -0.5369  0.0682
 9482SOL    HW140082   4.150   1.976   4.591  1.3907  0.2163 -0.5733
 9482SOL    HW240083   4.154   1.872   4.479  0.0529 -0.3811 -0.7369
 9483SOL     OW40084   1.286   0.178   3.118 -0.2493  0.4731 -0.4500
 9483SOL    HW140085   1.380   0.160   3.114 -0.4941 -0.8606 -0.2717
 9483SOL    HW240086   1.238   0.097   3.099  0.9379  0.1029 -1.9261
 9484SOL     OW40087   0.042   2.103   1.189 -0.1571 -0.2139 -0.1817
 9484SOL    HW140088   4.731   2.181   1.165  1.2638  0.3304 -1.3246
 9484SOL    HW240089   0.133   2.132   1.190 -0.6485  1.2884  0.1914
 9485SOL     OW40090   4.654   0.008   2.406 -0.7639  0.5346 -0.3343
 9485SOL    HW140091   4.730   0.061   2.429  0.1190  0.4799 -3.0566
 9485SOL    HW240092   4.711   4.685   2.359 -0.3783 -1.4347  2.6856
 9486SOL     OW40093   4.365   3.122   4.821  0.2205 -0.6069  0.6430
 9486SOL    HW140094   4.300   3.104   4.890 -1.6182  0.9421 -0.6763
 9486SOL    HW240095   4.317   3.084   4.747  1.2095  0.3543 -0.4739
 9487SOL     OW40096   2.545   0.575  15.624  0.1454 -0.1994 -0.5499
 9487SOL    HW140097   2.537   0.625  15.705 -1.0792 -0.7862 -0.3076
 9487SOL    HW240098   2.640   0.574  15.616  0.2901 -0.7728  1.2933
 9488SOL     OW40099   2.770   3.155   4.283  0.0275 -0.4235  0.4707
 9488SOL    HW140100   2.735   3.206   4.356  0.3380 -0.9636  0.9979
 9488SOL    HW240101   2.751   3.065   4.310  1.6716 -1.0685 -0.5353
 9489SOL     OW40102   3.584   2.385   6.361  0.6468 -0.5186  0.0629
 9489SOL    HW140103   3.643   2.433   6.303  0.1263 -0.6424 -0.5639
 9489SOL    HW240104   3.495   2.411   6.336  0.8249  1.6803  1.7162
 9490SOL     OW40105   3.418   2.439  11.980  0.3442  0.3428  0.1177
 9490SOL    HW140106   3.347   2.496  11.950  2.5880  2.1572 -1.6849
 9490SOL    HW240107   3.386   2.355  11.946 -2.0090  0.4402  2.0904
 9491SOL     OW40108   4.419   4.098  14.521  0.2127 -0.3458 -0.6866
 9491SOL    HW140109   4.361   4.094  14.445 -1.1912  1.0643  0.3297
 9491SOL    HW240110   4.500   4.142  14.494  0.0925 -0.6219 -1.5219
 9492SOL     OW40111   1.043   3.548  16.611 -0.1081  0.0276 -0.2449
 9492SOL    HW140112   1.126   3.595  16.611  0.6131 -1.2406 -0.8597
 9492SOL    HW240113   1.011   3.542  16.521 -1.3420 -2.4080  0.3403
 9493SOL     OW40114   1.190   4.116   3.184 -0.5992  0.1942  0.3809
 9493SOL    HW140115   1.284   4.126   3.200 -0.5071 -1.3612  0.8158
 9493SOL    HW240116   1.182   4.170   3.105 -0.4971  1.4580  1.2455
 9494SOL     OW40117   2.331   4.034  13.614  0.3812 -0.0954 -0.0795
 9494SOL    HW140118   2.263   4.063  13.553 -0.5343  0.3351  1.1516
 9494SOL    HW240119   2.332   3.941  13.593  1.4358 -0.1508  0.2387
 9495SOL     OW40120   0.719   3.053  17.574 -0.2536  0.6337  0.1075
 9495SOL    HW140121   0.748   3.009  17.654 -1.1264  1.3623  0.8178
 9495SOL    HW240122   0.641   3.002  17.554 -0.9286  0.3273  3.4155
 9496SOL     OW40123   4.702   1.182   7.778 -0.4516  0.4099 -0.3427
 9496SOL    HW140124   0.042   1.150   7.824 -0.3848  1.1888  0.0833
 9496SOL    HW240125   4.689   1.265   7.823 -1.6476  1.3055 -2.3461
 9497SOL     OW40126   1.831   0.013   8.876  0.6511  0.2198  0.2631
 9497SOL    HW140127   1.769   0.008   8.803  2.0398  0.1726 -0.8968
 9497SOL    HW240128   1.901   0.058   8.829  1.7945 -1.3732  0.4198
 9498SOL     OW40129   2.058   4.355   2.754  0.5387 -0.1964 -0.4324
 9498SOL    HW140130   2.058   4.441   2.712  1.1060 -0.2891 -0.6238
 9498SOL    HW240131   2.148   4.337   2.784  0.1036 -0.4262  0.7459
 9499SOL     OW40132   0.662   1.486  11.393 -0.0067 -0.2837  0.0337
 9499SOL    HW140133   0.715   1.441  11.328  1.8753 -0.7026  1.8742
 9499SOL    HW240134   0.710   1.567  11.411  0.5921 -0.6789  0.2200
 9500SOL     OW40135   3.838   1.664   6.963 -0.0327 -0.3871  0.2706
 9500SOL    HW140136   3.899   1.737   6.953 -0.0507 -0.3202  0.6539
 9500SOL    HW240137   3.786   1.691   7.039  0.3750  1.5816 -0.1574
 9501SOL     OW40138   2.752   1.558   6.128  0.3602  0.3835 -0.2441
 9501SOL    HW140139   2.686   1.497   6.098 -0.3430  0.0609  1.9510
 9501SOL    HW240140   2.794   1.579   6.044  1.5175 -1.7021 -0.1790
 9502SOL     OW40141   4.336   1.743   0.106 -0.0651  0.1556  0.0754
 9502SOL    HW140142   4.282   1.664   0.106 -1.8267  1.3650 -0.2497
 9502SOL    HW240143   4.329   1.763   0.199  1.8489 -0.8677  0.4226
 9503SOL     OW40144   1.652   1.426   3.292  0.0126  0.5189  0.7293
 9503SOL    HW140145   1.712   1.403   3.221 -0.1058 -1.7826  1.3968
 9503SOL    HW240146   1.569   1.406   3.250 -0.5340  1.5158  1.3473
 9504SOL     OW40147   1.638   4.336   1.012  0.3878 -0.1400  0.3649
 9504SOL    HW140148   1.569   4.307   0.952  0.8155  0.0039 -0.1926
 9504SOL    HW240149   1.699   4.262   1.006 -1.8191 -2.0082  0.5742
 9505SOL     OW40150   4.357   2.699   1.401  0.1503 -0.3035  0.1574
 9505SOL    HW140151   4.417   2.685   1.474 -0.6162 -1.7157  0.5022
 9505SOL    HW240152   4.368   2.793   1.382  0.1199 -0.1847  0.7296
 9506SOL     OW40153   1.645   0.001   2.470 -0.1885  0.6171 -0.3521
 9506SOL    HW140154   1.693   4.657   2.459  0.2780  1.0393 -1.4467
 9506SOL    HW240155   1.585   4.715   2.540 -0.2195  0.4557 -0.4350
 9507SOL     OW40156   2.208   3.897   9.607  0.0404 -0.5094  0.1663
 9507SOL    HW140157   2.302   3.911   9.612  0.2328 -2.4472  2.0438
 9507SOL    HW240158   2.193   3.839   9.682  1.2440 -0.0752  0.7347
 9508SOL     OW40159   0.545   1.130   8.204 -0.9580 -0.3051 -0.8568
 9508SOL    HW140160   0.547   1.042   8.166 -3.9432  0.0469 -1.8725
 9508SOL    HW240161   0.458   1.164   8.182 -0.3085  0.2469 -2.5607
 9509SOL     OW40162   0.460   3.635   3.417 -0.2425  0.0461 -0.7918
 9509SOL    HW140163   0.517   3.653   3.343 -0.3907  2.6968 -0.2723
 9509SOL    HW240164   0.495   3.551   3.445  0.9722  0.6222 -0.6096
 9510SOL     OW40165   1.050   4.281   4.154 -0.0202 -0.0341 -0.0540
 9510SOL    HW140166   0.959   4.305   4.172 -0.9975 -0.6313 -4.2053
 9510SOL    HW240167   1.049   4.185   4.160  2.5491 -0.0936 -0.6102
 9511SOL     OW40168   2.005   0.873  10.377 -0.0876 -0.2011 -0.2640
 9511SOL    HW140169   2.047   0.894  10.461 -1.3370  1.7485 -0.1053
 9511SOL    HW240170   2.087   0.844  10.338  0.7795  1.0529  0.6230
 9512SOL     OW40171   2.622   4.234   8.080  0.2616  0.0914 -0.5386
 9512SOL    HW140172   2.615   4.327   8.057  1.7685  0.7872  1.8748
 9512SOL    HW240173   2.669   4.211   8.000 -0.7340 -3.1229 -0.1689
 9513SOL     OW40174   2.343   1.957   8.171  0.7793 -0.1490 -0.2860
 9513SOL    HW140175   2.419   2.014   8.188  1.6627 -0.7013 -2.3308
 9513SOL    HW240176   2.324   1.906   8.249 -0.8087  0.1271 -0.4967
 9514SOL     OW40177   1.023   4.355   7.919  1.0148  0.3373 -0.3732
 9514SOL    HW140178   1.084   4.408   7.971  2.6101 -1.5409 -0.3375
 9514SOL    HW240179   1.065   4.272   7.897  0.4245 -0.2569  0.7549
 9515SOL     OW40180   1.648   0.949   7.895  1.1846  0.7728 -0.0339
 9515SOL    HW140181   1.710   1.019   7.877 -0.3072  2.5221  1.7012
 9515SOL    HW240182   1.572   0.996   7.930  0.7048  0.5955 -0.8362
 9516SOL     OW40183   4.260   0.840   7.315  0.0281 -0.1107 -0.2841
 9516SOL    HW140184   4.293   0.754   7.342  0.6837 -0.3911 -1.9665
 9516SOL    HW240185   4.344   0.882   7.296  0.2281 -0.4248 -0.0990
 9517SOL     OW40186   0.415   2.706  14.720 -0.0963  0.1611  0.1043
 9517SOL    HW140187   0.433   2.616  14.694 -2.6857 -1.0921  2.7413
 9517SOL    HW240188   0.352   2.678  14.787  2.5636 -2.8663  1.3246
 9518SOL     OW40189   0.496   1.663  14.034 -0.4504 -0.1099  0.0634
 9518SOL    HW140190   0.507   1.733  14.099 -0.0810  1.1693 -1.3639
 9518SOL    HW240191   0.444   1.711  13.969 -3.4899 -1.4804  1.5137
 9519SOL     OW40192   2.103   2.632   3.351 -0.2407 -0.2058 -1.3523
 9519SOL    HW140193   2.112   2.660   3.260 -0.3993 -2.8436 -2.1694
 9519SOL    HW240194   2.107   2.711   3.405  0.1203  0.0651 -1.7792
 9520SOL     OW40195   1.069   0.684   6.733 -0.4176 -0.1693 -0.1100
 9520SOL    HW140196   1.106   0.772   6.737 -3.3413  0.9991  1.3441
 9520SOL    HW240197   1.144   0.643   6.691 -0.0382  1.3582 -0.9389
 9521SOL     OW40198   4.597   2.112   5.171 -0.0695 -0.1084 -0.2192
 9521SOL    HW140199   4.523   2.062   5.206  0.8917 -1.7599 -0.5154
 9521SOL    HW240200   4.547   2.169   5.112 -2.7605 -1.3674  0.8631
 9522SOL     OW40201   1.046   0.164   2.478 -0.2824  0.2093 -0.7169
 9522SOL    HW140202   1.055   0.161   2.383  0.3812 -1.4812 -0.5922
 9522SOL    HW240203   1.020   0.255   2.494 -0.8051  0.2804 -1.9641
 9523SOL     OW40204   3.740   2.248   3.310 -0.5151  0.1898 -0.1924
 9523SOL    HW140205   3.786   2.221   3.231  2.3427 -1.0760  1.9207
 9523SOL    HW240206   3.775   2.334   3.330 -1.6314  0.4870  0.4967
 9524SOL     OW40207   4.103   1.942   6.014 -0.3373 -0.3227 -0.0398
 9524SOL    HW140208   4.052   1.954   6.094  1.7264 -1.3177  1.4275
 9524SOL    HW240209   4.190   1.917   6.045  0.7039  0.4621 -2.3254
 9525SOL     OW40210   2.407   3.075   6.684 -0.4801 -0.3196 -0.2383
 9525SOL    HW140211   2.387   2.985   6.660 -0.1050 -0.4510 -0.0658
 9525SOL    HW240212   2.400   3.120   6.600  2.8503  1.4448  0.4328
 9526SOL     OW40213   2.882   1.853   3.995  0.3554  0.2928 -0.3782
 9526SOL    HW140214   2.895   1.899   3.912 -0.2043 -1.5640 -1.5029
 9526SOL    HW240215   2.927   1.909   4.058 -2.4488 -0.2062  2.0936
 9527SOL     OW40216   0.629   0.440   8.554 -0.2807 -1.1170 -0.2634
 9527SOL    HW140217   0.615   0.493   8.475  0.8073 -0.1623  0.1842
 9527SOL    HW240218   0.602   0.501   8.622  1.3693 -2.1005  1.2559
 9528SOL     OW40219   0.580   4.508   4.402  0.9294 -0.3294  0.0120
 9528SOL    HW140220   0.495   4.486   4.365  0.7920  1.7190 -0.9259
 9528SOL    HW240221   0.563   4.529   4.494  0.3783 -1.7435  0.2195
 9529SOL     OW40222   2.630   3.634   7.286 -0.1187 -0.1305 -0.1256
 9529SOL    HW140223   2.642   3.663   7.377 -1.0925  1.4735 -0.5141
 9529SOL    HW240224   2.654   3.716   7.243 -0.2966 -0.2946 -0.5366
 9530SOL     OW40225   2.807   0.758   5.672  0.6472  0.8434 -0.0558
 9530SOL    HW140226   2.842   0.790   5.755 -2.0319 -1.1855  1.8929
 9530SOL    HW240227   2.805   0.841   5.625  0.1888 -0.6325 -2.6520
 9531SOL     OW40228   3.423   2.229  11.465 -0.1033 -0.5461 -0.2883
 9531SOL    HW140229   3.375   2.234  11.548  2.6968  0.5174  1.2600
 9531SOL    HW240230   3.376   2.302  11.424 -0.1258 -1.2738 -1.5580
 9532SOL     OW40231   3.112   1.726   3.446 -0.4171 -0.1115 -0.4473
 9532SOL    HW140232   3.111   1.656   3.512  1.3709 -1.0273 -1.4028
 9532SOL    HW240233   3.196   1.720   3.402 -0.2101  0.4796 -0.1270
 9533SOL     OW40234   3.704   2.231   4.169  0.4775 -0.1329  0.2551
 9533SOL    HW140235   3.683   2.250   4.261  0.9878  0.5096  0.2409
 9533SOL    HW240236   3.629   2.267   4.123  0.3655 -0.4232  0.2077
 9534SOL     OW40237   1.823   0.839   6.915  0.6774  0.1739  0.4882
 9534SOL    HW140238   1.766   0.913   6.938 -1.6381 -1.3104 -0.5820
 9534SOL    HW240239   1.768   0.773   6.956  0.8957 -0.4026 -0.1649
 9535SOL     OW40240   0.130   4.017   1.782 -0.1888  0.0476 -0.0817
 9535SOL    HW140241   0.084   4.080   1.838  0.1207 -2.1077  2.6008
 9535SOL    HW240242   0.219   4.031   1.816 -0.5726 -0.2917  1.0686
 9536SOL     OW40243   0.563   3.014   1.969 -0.2584  0.5166  0.0369
 9536SOL    HW140244   0.537   3.095   2.013 -1.1625  0.5921 -0.6174
 9536SOL    HW240245   0.483   2.966   1.947  0.8364 -1.6751  0.8841
 9537SOL     OW40246   3.718   4.478   2.733 -0.5033 -0.6109 -0.4183
 9537SOL    HW140247   3.727   4.558   2.784  1.0546 -2.0245  1.5645
 9537SOL    HW240248   3.802   4.439   2.760 -0.4561 -1.1952 -1.4083
 9538SOL     OW40249   2.491   4.459   8.954 -0.1585  0.0964  0.1201
 9538SOL    HW140250   2.448   4.445   9.038  1.6504 -1.2732  0.8230
 9538SOL    HW240251   2.554   4.387   8.958 -1.7276 -1.3587 -1.4102
 9539SOL     OW40252   0.596   2.845   8.383 -0.4335 -0.5741 -0.3489
 9539SOL    HW140253   0.502   2.825   8.373  0.5108 -3.5192 -3.4258
 9539SOL    HW240254   0.630   2.834   8.295 -0.2111  0.7285 -0.4213
 9540SOL     OW40255   2.389   2.199  14.006 -0.6973  0.0134 -0.7454
 9540SOL    HW140256   2.476   2.220  14.038 -1.0773  1.9013 -0.9075
 9540SOL    HW240257   2.373   2.129  14.069 -0.3247 -0.3020 -1.0069
 9541SOL     OW40258   3.993   2.681   5.491  0.2257  0.1920  0.2012
 9541SOL    HW140259   3.908   2.686   5.447 -0.1771  0.1687  0.9650
 9541SOL    HW240260   3.972   2.618   5.561 -0.0178 -0.2659 -0.2828
 9542SOL     OW40261   2.530   1.056  11.333 -0.2035 -0.1400  0.2390
 9542SOL    HW140262   2.587   1.035  11.407 -0.0157 -0.3204  0.0466
 9542SOL    HW240263   2.533   1.151  11.327  1.0031 -0.1477  0.6333
 9543SOL     OW40264   1.065   0.890   5.502  0.4541  0.3161  0.1529
 9543SOL    HW140265   1.146   0.860   5.461  0.9352  0.9719  0.6171
 9543SOL    HW240266   1.089   0.971   5.546  0.8728  0.8340 -1.0175
 9544SOL     OW40267   4.583   0.046   2.137 -0.0148  0.4422  0.0610
 9544SOL    HW140268   4.642   4.710   2.122 -0.8953 -0.3149  0.3927
 9544SOL    HW240269   4.574   0.037   2.232 -0.7977  0.5219 -0.0110
 9545SOL     OW40270   4.615   1.429  11.965 -0.4170  0.1896  0.1645
 9545SOL    HW140271   4.661   1.354  12.001  0.4004  0.7231  0.2328
 9545SOL    HW240272   4.656   1.505  12.006 -0.8959  0.9021 -0.6745
 9546SOL     OW40273   1.747   3.230   4.990  0.1707 -0.2965 -0.4294
 9546SOL    HW140274   1.803   3.177   4.934 -2.6455 -2.4848 -1.1848
 9546SOL    HW240275   1.752   3.172   5.066  0.5725 -1.0336 -1.0112
 9547SOL     OW40276   0.073   3.065  10.965 -0.1231  0.6079 -0.1805
 9547SOL    HW140277   0.133   3.055  11.039  1.3534 -0.3368 -1.5113
 9547SOL    HW240278   0.126   3.123  10.910 -0.2522 -0.3821 -1.3589
 9548SOL     OW40279   1.379   3.047   5.161  0.1888  0.1473  0.3122
 9548SOL    HW140280   1.319   2.994   5.214  1.3055 -1.7611 -0.3026
 9548SOL    HW240281   1.333   3.059   5.078  0.1558  1.1448  0.4746
 9549SOL     OW40282   4.229   2.669   1.812  0.6606 -0.0014 -0.1530
 9549SOL    HW140283   4.303   2.675   1.873  0.6477  1.4659 -0.2892
 9549SOL    HW240284   4.221   2.756   1.775 -0.6334 -0.0566  0.0171
 9550SOL     OW40285   2.123   3.414   1.490 -0.0752  0.3953 -0.1653
 9550SOL    HW140286   2.136   3.487   1.550 -0.0050  0.4172 -0.2075
 9550SOL    HW240287   2.188   3.434   1.423 -0.1967  0.0417 -0.3927
 9551SOL     OW40288   0.525   3.191   8.657 -0.2066 -0.7425 -0.9218
 9551SOL    HW140289   0.487   3.115   8.702 -1.1919 -0.6171 -1.5388
 9551SOL    HW240290   0.565   3.150   8.580  0.2985  0.2365 -1.1749
 9552SOL     OW40291   4.220   3.887   8.433  0.6685 -0.3889 -0.4067
 9552SOL    HW140292   4.171   3.935   8.500  2.0815  2.4530 -1.4029
 9552SOL    HW240293   4.306   3.906   8.471  0.2169 -0.3416  0.5824
 9553SOL     OW40294   2.615   3.799   4.413  0.1654  0.1323  0.2998
 9553SOL    HW140295   2.531   3.773   4.451  0.2752 -0.2855  0.2501
 9553SOL    HW240296   2.596   3.880   4.366 -0.9711  1.2400  2.6339
 9554SOL     OW40297   3.180   3.244   2.580 -0.1751  0.0354  0.2847
 9554SOL    HW140298   3.089   3.267   2.565 -0.7368 -1.1764  1.8083
 9554SOL    HW240299   3.217   3.231   2.493  0.8573  1.4192  0.5117
 9555SOL     OW40300   3.680   1.204  10.280 -0.6189  0.0479  0.0142
 9555SOL    HW140301   3.690   1.288  10.236 -0.7348  0.4371  0.7246
 9555SOL    HW240302   3.654   1.237  10.366 -3.9614  0.4260 -1.1440
 9556SOL     OW40303   2.446   0.993   7.903 -0.1574  1.0964  0.2960
 9556SOL    HW140304   2.492   1.033   7.829  0.6303  1.6536  1.0805
 9556SOL    HW240305   2.376   0.946   7.859 -0.9809  1.9671  0.6989
 9557SOL     OW40306   4.311   1.053   1.352 -0.1359  0.9604  0.2245
 9557SOL    HW140307   4.264   1.134   1.368  0.6399  1.4980 -0.1874
 9557SOL    HW240308   4.360   1.067   1.271 -0.8943 -0.8585 -0.5537
 9558SOL     OW40309   1.561   0.565   9.072 -0.2998 -0.3496 -0.1221
 9558SOL    HW140310   1.547   0.470   9.073 -1.5774 -0.1379  2.6406
 9558SOL    HW240311   1.473   0.590   9.042 -0.6787  1.0019  2.0869
 9559SOL     OW40312   2.298   2.961   1.207  0.2559 -0.5679 -0.4069
 9559SOL    HW140313   2.275   2.905   1.133  0.6506  1.6052 -2.1957
 9559SOL    HW240314   2.212   2.984   1.240 -1.1869 -0.9748 -3.8990
 9560SOL     OW40315   1.295   2.302   2.365 -0.1056  0.0509  0.1133
 9560SOL    HW140316   1.385   2.332   2.380  0.5141 -1.0417 -1.3331
 9560SOL    HW240317   1.247   2.362   2.309  1.4431  0.7108 -0.5179
 9561SOL     OW40318   2.924   0.249   8.596 -0.0953  0.0718 -0.0402
 9561SOL    HW140319   2.903   0.254   8.689  1.3416 -0.6101  0.3264
 9561SOL    HW240320   2.974   0.330   8.588 -0.1067  0.1629  0.7654
 9562SOL     OW40321   0.625   1.184   3.456 -0.2138  0.7656 -0.3759
 9562SOL    HW140322   0.713   1.178   3.418 -0.3624 -2.6620 -0.2410
 9562SOL    HW240323   0.643   1.232   3.537 -0.9606 -1.6636  1.2236
 9563SOL     OW40324   1.660   2.532   8.046  0.8843  0.6741 -0.1593
 9563SOL    HW140325   1.658   2.606   7.985  1.9157 -0.4810 -1.5966
 9563SOL    HW240326   1.743   2.544   8.094  1.8937 -2.3535 -1.1777
 9564SOL     OW40327   4.320   0.528   4.911  0.1380 -0.8980 -0.1163
 9564SOL    HW140328   4.246   0.587   4.920 -0.4068 -1.6081  0.0675
 9564SOL    HW240329   4.397   0.575   4.880 -0.0680 -0.2300  0.4005
 9565SOL     OW40330   1.390   2.514   5.700 -0.4878 -0.9000 -0.1050
 9565SOL    HW140331   1.447   2.587   5.679  0.5005 -2.2266 -2.1203
 9565SOL    HW240332   1.304   2.556   5.708 -0.3015 -0.5614  0.0753
 9566SOL     OW40333   0.027   0.617   1.575 -0.0144  0.1194  0.1333
 9566SOL    HW140334   4.730   0.627   1.486  0.2052 -0.8355 -0.0618
 9566SOL    HW240335   0.020   0.522   1.568 -1.1388  0.2828 -1.0308
 9567SOL     OW40336   0.074   0.518   0.990 -0.5915 -0.8560  0.2254
 9567SOL    HW140337   0.061   0.469   1.071 -0.3184 -1.8237 -0.3180
 9567SOL    HW240338   0.159   0.481   0.969  0.4157  0.2547  2.4149
 9568SOL     OW40339   1.903   1.606   5.700  0.6394  0.2948 -0.2476
 9568SOL    HW140340   1.941   1.634   5.616  0.0357  1.9048  0.0102
 9568SOL    HW240341   1.828   1.666   5.700  0.7498  0.4341  0.6706
 9569SOL     OW40342   2.409   3.242   8.754 -0.3970 -0.2221 -0.2123
 9569SOL    HW140343   2.333   3.285   8.793  0.2061 -0.4571  1.2312
 9569SOL    HW240344   2.363   3.213   8.675 -2.7962 -2.3265  1.9543
   4.73839   4.73839  17.75155
