Membrane in water
40344
    1TMC1    C1    1   4.177   3.709  11.887 -0.8588  0.0249  0.6406
    1TMC1    C2    2   4.119   3.822  11.937 -0.1110  0.0507  0.2754
    1TMC1    C3    3   4.122   3.938  11.856  0.7340  0.8525  0.3684
    1TMC1    C4    4   4.242   3.704  11.768 -0.7249 -0.5591 -0.0780
    1TMC1    C5    5   4.239   3.820  11.697 -0.2538 -0.0248 -0.8839
    1TMC1    C6    6   4.172   3.933  11.730  0.5519  0.0049  0.0871
    1TMC1     C    7   4.126   3.592  11.941 -0.1071 -0.3921  0.2513
    1TMC1     O    8   4.018   3.596  11.993 -0.2363 -0.4435 -0.3057
    1TMC1     H    9   4.067   3.825  12.032 -0.1988 -0.2268  0.2363
    1TMC1    H1   10   4.304   3.621  11.735 -1.7964 -1.9732  1.4450
    1TMC1    H2   11   4.165   4.018  11.663 -0.8616  0.3822  0.7112
    1TMC1    C7   12   4.309   3.811  11.572  0.1315  0.2745  0.6201
    1TMC1    C8   13   4.036   4.044  11.897  0.6347  0.1976 -0.2480
    1TMC1    O1   14   4.327   3.709  11.509  0.1622  0.3884  0.0256
    1TMC1    O2   15   4.049   4.105  12.002 -0.3705  0.2182 -0.3531
    1TMC1    O3   16   4.383   3.922  11.575  0.6707  0.4323  0.1583
    1TMC1    H3   17   4.381   3.970  11.661 -1.3512  0.1531  0.2818
    1TMC1    O5   18   3.981   4.093  11.780  0.3359 -0.0463 -0.2551
    1TMC1    H5   19   3.961   4.011  11.730  0.5917  1.6110 -3.0563
    2MPD2     C   20   4.195   3.107  12.113  0.4639 -0.1058  0.8531
    2MPD2    C1   21   4.098   3.198  12.149  0.2437  0.6286 -0.4014
    2MPD2    C2   22   4.104   3.326  12.090  0.2697  0.2287  0.8960
    2MPD2    C3   23   4.213   3.369  12.013 -0.7260  0.0168  0.3849
    2MPD2    C4   24   4.324   3.278  12.007 -0.1243  0.6345 -0.2576
    2MPD2    C5   25   4.308   3.147  12.051  0.1895  0.0443  0.0281
    2MPD2     H   26   4.016   3.385  12.109  0.8291  1.4042 -0.2103
    2MPD2    H1   27   4.418   3.300  11.958  0.7264  0.0314  1.1054
    2MPD2    H2   28   4.180   3.002  12.134 -0.0444 -0.5494 -1.7333
    2MPD2    H3   29   4.387   3.073  12.046  1.0794  0.9756  0.3784
    2MPD2     N   30   4.221   3.492  11.942  0.1478 -0.3776 -0.2043
    2MPD2    H5   31   4.315   3.499  11.903 -0.5269 -2.0389 -2.0884
    2MPD2    N1   32   3.976   3.165  12.215  0.1156 -0.2172 -0.0803
    2MPD2    H7   33   3.913   3.242  12.234 -0.1013 -0.6947  1.1085
    3TMC1    C1   34   3.536   4.267   9.954 -0.0296  0.3132  0.3491
    3TMC1    C2   35   3.499   4.381   9.901 -0.1474  0.9389 -0.9252
    3TMC1    C3   36   3.596   4.460   9.840  0.6673 -0.1293 -0.6915
    3TMC1    C4   37   3.657   4.212   9.928  0.2834 -0.2266 -0.7441
    3TMC1    C5   38   3.753   4.291   9.868 -0.1254  0.4689  0.0433
    3TMC1    C6   39   3.723   4.418   9.825  0.2093  0.1022 -0.1268
    3TMC1     C   40   3.447   4.200  10.055 -0.4306  0.7932  0.6781
    3TMC1     O   41   3.492   4.100  10.100  0.0779 -0.0385  0.4291
    3TMC1     H   42   3.398   4.420   9.906 -0.4954 -0.2085  1.2438
    3TMC1    H1   43   3.681   4.108   9.945  0.2041  0.0105  0.7803
    3TMC1    H2   44   3.794   4.470   9.761  0.1052  0.0156 -0.3127
    3TMC1    C7   45   3.885   4.235   9.852  0.4289  0.0705 -0.0599
    3TMC1    C8   46   3.557   4.599   9.814  0.1925 -1.7655 -0.4224
    3TMC1    O1   47   3.959   4.280   9.768 -0.0074 -0.5049  0.0986
    3TMC1    O2   48   3.440   4.627   9.823 -0.6125  0.0949 -0.0299
    3TMC1    O3   49   3.914   4.201   9.973 -0.2498 -0.4317 -1.0087
    3TMC1    H3   50   3.836   4.175  10.027  1.3107 -1.7374  0.6366
    3TMC1    O5   51   3.660   4.677   9.842 -0.0134 -0.0739  0.2822
    3TMC1    H5   52   3.746   4.631   9.840  0.2016  0.3585 -0.6606
    4MPD2     C   53   3.071   4.161  10.416 -0.1638  0.3789 -0.2798
    4MPD2    C1   54   3.066   4.284  10.365 -0.2882  0.2707  0.5493
    4MPD2    C2   55   3.154   4.309  10.256 -0.0972  0.0270 -0.5223
    4MPD2    C3   56   3.249   4.222  10.206  0.1483 -0.0042 -0.4058
    4MPD2    C4   57   3.246   4.097  10.261 -0.7014 -0.0853 -0.4531
    4MPD2    C5   58   3.163   4.065  10.365  0.5208  0.3581 -0.1863
    4MPD2     H   59   3.144   4.406  10.208 -1.2619  0.5530  0.7745
    4MPD2    H1   60   3.325   4.024  10.245 -2.6205 -1.9941 -1.1577
    4MPD2    H2   61   2.996   4.128  10.487 -2.1522  0.7821 -2.1778
    4MPD2    H3   62   3.172   3.966  10.409 -0.3309 -0.2819 -1.4496
    4MPD2     N   63   3.328   4.260  10.093 -0.2769 -0.1701  0.1538
    4MPD2    H5   64   3.300   4.344  10.045  0.1582  0.1005  0.3767
    4MPD2    N1   65   2.995   4.394  10.419 -0.1835  0.6270  0.4902
    4MPD2    H7   66   3.012   4.484  10.376 -0.7468  1.1911  1.4547
    5TCq1    O1   67   3.623   0.775  11.841 -0.2241 -0.0472  0.0449
    5TCq1    C1   68   3.668   0.787  11.717 -1.0054  0.3497 -0.0209
    5TCq1    O2   69   3.785   0.814  11.679 -0.3714 -0.2166  0.4037
    5TCq1    C2   70   3.550   0.809  11.629 -0.2969 -0.0845 -0.1267
    5TCq1    C3   71   3.423   0.760  11.654 -0.2527 -0.1711 -0.3742
    5TCq1    C4   72   3.328   0.763  11.560 -0.0339 -1.2820 -0.0330
    5TCq1    C5   73   3.361   0.813  11.437 -0.0013 -0.5025  0.4023
    5TCq1    C6   74   3.484   0.863  11.413 -0.0492 -0.2465 -0.5817
    5TCq1    C7   75   3.586   0.857  11.504  0.2232  0.9299  0.8146
    5TCq1    C8   76   3.515   0.905  11.272 -0.5136  0.3811 -0.5692
    5TCq1    O4   77   3.627   0.904  11.230  0.6553 -0.4170  0.0178
    5TCq1    C9   78   3.208   0.685  11.570  0.0162 -0.5477  0.4757
    5TCq1    O5   79   3.212   0.587  11.653  0.2047  0.3061  0.7227
    5TCq1    O6   80   3.121   0.694  11.476 -0.0238 -0.3239 -0.8596
    5TCq1    H1   81   3.529   0.797  11.857  0.0639  0.1936  1.4451
    5TCq1    H2   82   3.394   0.703  11.741 -0.8401 -0.6642 -0.8883
    5TCq1    H3   83   3.288   0.796  11.358 -1.1841 -1.4558  1.7069
    5TCq1    H4   84   3.688   0.887  11.485  0.6741 -1.1615 -0.1444
    6MPD2     C   85   3.255   1.028  11.034  0.0277  0.3657  0.1753
    6MPD2    C1   86   3.383   0.992  11.077 -0.1969  0.2941 -0.5275
    6MPD2    C2   87   3.482   0.990  10.981 -0.1629  0.0430 -0.1662
    6MPD2    C3   88   3.468   1.019  10.851  0.5865  0.1979 -0.0636
    6MPD2    C4   89   3.343   1.065  10.815 -0.0504  0.1938 -0.0876
    6MPD2    C5   90   3.247   1.073  10.905  0.0261  0.1154  0.8939
    6MPD2     H   91   3.582   0.969  11.017 -1.0723 -1.7229  1.3269
    6MPD2    H1   92   3.318   1.088  10.712 -1.7159  0.2106  0.3177
    6MPD2    H2   93   3.163   1.034  11.090 -0.5138 -0.7343 -0.6119
    6MPD2    H3   94   3.147   1.093  10.867  0.2097 -0.5361  0.0795
    6MPD2     N   95   3.578   1.007  10.762  0.0925 -0.0930  0.2434
    6MPD2    H5   96   3.663   0.970  10.803 -0.1687 -0.1626  0.7127
    6MPD2    N1   97   3.396   0.947  11.209  0.5087  0.2605  0.0337
    6MPD2    H7   98   3.311   0.960  11.263  0.5497 -0.6848  0.3184
    7TCq1    O1   99   0.466   0.848  13.332 -0.0196  0.8899 -0.0200
    7TCq1    C1  100   0.428   0.758  13.422 -0.5202 -0.2279 -0.0717
    7TCq1    O2  101   0.470   0.739  13.539 -0.0736 -0.2861 -0.6379
    7TCq1    C2  102   0.390   0.653  13.333  0.1666  0.2331 -0.2378
    7TCq1    C3  103   0.356   0.671  13.204  0.4687 -0.2739  0.3923
    7TCq1    C4  104   0.327   0.560  13.134 -0.7996 -0.6548  0.8612
    7TCq1    C5  105   0.312   0.435  13.193  0.1764  0.9006  0.5192
    7TCq1    C6  106   0.334   0.422  13.329  0.2593  0.2344 -0.4856
    7TCq1    C7  107   0.389   0.528  13.392  0.0281 -0.0722  0.1825
    7TCq1    C8  108   0.372   0.288  13.374  0.1056  1.4400 -0.2332
    7TCq1    O4  109   0.388   0.204  13.293 -0.1061  0.0617 -0.2295
    7TCq1    C9  110   0.273   0.585  13.000  0.0808 -0.5879 -0.6783
    7TCq1    O5  111   0.166   0.520  12.965  0.2438 -0.7200  0.0248
    7TCq1    O6  112   0.326   0.677  12.932 -0.1638  0.7611  0.2650
    7TCq1    H1  113   0.473   0.801  13.246 -0.1615  2.7765 -1.0382
    7TCq1    H2  114   0.337   0.764  13.152 -0.5264 -0.5906  0.1797
    7TCq1    H3  115   0.263   0.360  13.133 -0.6104  1.2605  0.7196
    7TCq1    H4  116   0.441   0.522  13.487 -1.1975 -1.1989  0.7773
    8MPD2     C  117   0.657   0.038  13.727 -0.2398  0.2077  0.5713
    8MPD2    C1  118   0.639   0.006  13.598 -0.5505  0.4601  0.4324
    8MPD2    C2  119   0.554   0.091  13.523 -0.7592 -0.3562 -0.0738
    8MPD2    C3  120   0.480   0.195  13.581  0.3982  0.3091  0.2266
    8MPD2    C4  121   0.486   0.199  13.718 -0.8425 -0.1820  0.2873
    8MPD2    C5  122   0.572   0.123  13.789 -0.0035  0.2290 -0.0579
    8MPD2     H  123   0.544   0.069  13.417 -1.7000  0.2412 -0.1043
    8MPD2    H1  124   0.432   0.278  13.770 -1.6243 -1.3547  1.2716
    8MPD2    H2  125   0.722   4.720  13.792 -1.0358 -0.2040  1.0055
    8MPD2    H3  126   0.579   0.131  13.897  1.7591  1.0909 -0.2241
    8MPD2     N  127   0.396   0.288  13.510 -0.1296 -0.0671 -0.0439
    8MPD2    H5  128   0.362   0.369  13.561  0.3018  0.0788  0.0167
    8MPD2    N1  129   0.728   4.651  13.539  0.8913  0.2142 -0.4893
    8MPD2    H7  130   0.805   4.615  13.594 -0.7495 -1.7078  0.5659
    9TMC1    C1  131   3.494   4.240  10.914  0.4973  1.0045  0.1157
    9TMC1    C2  132   3.509   4.323  11.023 -0.7820 -0.0653  0.3441
    9TMC1    C3  133   3.602   4.422  11.013 -0.1371 -0.3021 -0.0592
    9TMC1    C4  134   3.553   4.260  10.794  0.1943 -0.4559  0.5318
    9TMC1    C5  135   3.629   4.376  10.785  0.8510  0.1487  0.2108
    9TMC1    C6  136   3.656   4.459  10.889 -0.8281  0.6057 -0.1701
    9TMC1     C  137   3.421   4.117  10.920 -0.0188  0.2595  0.1072
    9TMC1     O  138   3.372   4.073  10.815 -0.2226 -0.4047 -0.3429
    9TMC1     H  139   3.471   4.299  11.121 -3.9562 -0.6472 -1.0261
    9TMC1    H1  140   3.550   4.179  10.723  1.9223 -1.1460  1.2598
    9TMC1    H2  141   3.731   4.537  10.890  0.4725 -0.6465  0.6312
    9TMC1    C7  142   3.726   4.386  10.677  0.2752  0.9653 -0.0461
    9TMC1    C8  143   3.631   4.492  11.132 -0.1278  0.0401  0.5225
    9TMC1    O1  144   3.821   4.465  10.679 -0.0233 -0.2731  0.0394
    9TMC1    O2  145   3.543   4.492  11.220 -0.1475 -0.2674  0.0670
    9TMC1    O3  146   3.701   4.296  10.578  0.0948  0.0119 -0.4244
    9TMC1    H3  147   3.609   4.262  10.574  1.0072 -2.5499  0.7471
    9TMC1    O5  148   3.733   4.583  11.119 -0.5927  0.0859  0.2855
    9TMC1    H5  149   3.802   4.553  11.056  1.7552  0.0196  2.8955
   10MPD2     C  150   3.321   3.854  10.975 -0.8824  0.4390  0.6475
   10MPD2    C1  151   3.315   3.958  11.068  0.0579 -0.0703 -0.3081
   10MPD2    C2  152   3.247   3.943  11.189  0.1250  0.2378 -0.8720
   10MPD2    C3  153   3.210   3.815  11.228 -0.6087 -0.4398 -0.1136
   10MPD2    C4  154   3.215   3.710  11.137 -0.1656  0.4453  0.2952
   10MPD2    C5  155   3.274   3.731  11.018 -0.4481  0.0402 -0.3706
   10MPD2     H  156   3.266   4.022  11.261  0.2541 -1.5998  1.1203
   10MPD2    H1  157   3.167   3.614  11.152  0.0684  0.4970  1.3288
   10MPD2    H2  158   3.386   3.852  10.888  0.4180 -1.7883  1.6594
   10MPD2    H3  159   3.259   3.643  10.956 -0.4023 -0.5398  0.4309
   10MPD2     N  160   3.160   3.791  11.355  0.1065  0.4809  0.7198
   10MPD2    H5  161   3.170   3.696  11.391 -1.3900 -0.0836 -0.3201
   10MPD2    N1  162   3.386   4.079  11.045 -0.0705 -0.2796 -0.3597
   10MPD2    H7  163   3.395   4.148  11.119 -0.7239 -0.0479 -0.4960
   11TCq1    O1  164   3.705   3.841  13.986  0.1250  0.2039 -0.3529
   11TCq1    C1  165   3.637   3.746  13.913  0.0948 -0.8713 -0.2027
   11TCq1    O2  166   3.540   3.770  13.849 -0.5119 -0.4567 -0.1038
   11TCq1    C2  167   3.686   3.616  13.957  0.1637 -0.0329 -0.6638
   11TCq1    C3  168   3.816   3.595  14.004  0.0113 -0.1850  0.2418
   11TCq1    C4  169   3.855   3.468  14.039  0.3062  0.0674  0.4898
   11TCq1    C5  170   3.760   3.374  14.039 -0.1634 -0.1076  0.0174
   11TCq1    C6  171   3.637   3.396  13.978  0.4697 -0.3907  0.1395
   11TCq1    C7  172   3.596   3.517  13.939 -0.4756  0.6592  0.1799
   11TCq1    C8  173   3.533   3.294  13.992 -0.5598  0.5221 -0.2053
   11TCq1    O4  174   3.420   3.338  14.013 -0.0310 -0.8802 -0.0914
   11TCq1    C9  175   3.989   3.432  14.081  0.1533 -0.1035 -0.3528
   11TCq1    O5  176   4.077   3.524  14.090 -0.0115 -0.2300  0.0135
   11TCq1    O6  177   4.019   3.314  14.093 -0.3409  0.2192  0.3095
   11TCq1    H1  178   3.776   3.807  14.045 -1.1034  0.0717  1.0301
   11TCq1    H2  179   3.888   3.676  14.004 -0.3937  0.1717 -0.4632
   11TCq1    H3  180   3.796   3.275  14.063  1.7179  0.7437  0.6842
   11TCq1    H4  181   3.501   3.543  13.893 -0.2420 -0.6659 -1.0482
   12MPD2     C  182   3.370   3.055  13.936  0.4026  0.9285 -0.4442
   12MPD2    C1  183   3.500   3.049  13.963  0.2241 -0.1418 -0.4740
   12MPD2    C2  184   3.566   2.924  13.953  0.2061  0.3252 -0.4541
   12MPD2    C3  185   3.503   2.809  13.916 -0.4062 -0.0601 -0.1760
   12MPD2    C4  186   3.379   2.824  13.869 -0.1703  0.3859  0.2435
   12MPD2    C5  187   3.309   2.939  13.882  0.0260  0.1511 -0.6094
   12MPD2     H  188   3.672   2.923  13.977  0.0022 -0.1298  0.4275
   12MPD2    H1  189   3.322   2.743  13.824 -1.6279  0.6853  1.5351
   12MPD2    H2  190   3.317   3.149  13.930 -1.4766 -0.0033  1.5173
   12MPD2    H3  191   3.209   2.948  13.842 -0.3837 -0.5258  0.2888
   12MPD2     N  192   3.579   2.692  13.896  0.3290 -0.4701  0.0017
   12MPD2    H5  193   3.528   2.621  13.844  0.2811  0.3285 -1.0418
   12MPD2    N1  194   3.579   3.169  13.977 -0.2004 -0.7296 -0.1827
   12MPD2    H7  195   3.680   3.161  13.976 -0.3480 -2.4876  0.0824
   13TCq1    O1  196   4.268   4.212  10.377 -0.4155 -0.1903 -0.0294
   13TCq1    C1  197   4.173   4.117  10.379  0.2839  0.1637 -0.2826
   13TCq1    O2  198   4.157   4.030  10.294 -0.2759 -0.0246  0.0292
   13TCq1    C2  199   4.080   4.147  10.488  0.7715  0.0236 -0.3160
   13TCq1    C3  200   4.130   4.199  10.599 -0.7199  0.1449 -0.4290
   13TCq1    C4  201   4.059   4.186  10.716  0.4579 -0.6560  0.0137
   13TCq1    C5  202   3.954   4.102  10.720 -0.5886  0.1554  0.0089
   13TCq1    C6  203   3.906   4.052  10.604 -0.8015 -0.4570  0.7979
   13TCq1    C7  204   3.971   4.070  10.488 -0.5624  0.0357 -0.1403
   13TCq1    C8  205   3.779   3.990  10.610 -0.2359  0.2693  0.2813
   13TCq1    O4  206   3.734   3.965  10.722 -0.0515 -0.4876 -0.8754
   13TCq1    C9  207   4.125   4.222  10.837  0.2602 -0.0238 -0.1792
   13TCq1    O5  208   4.051   4.224  10.937  0.6464 -0.2401  0.1582
   13TCq1    O6  209   4.228   4.292  10.825  0.0225  0.2649  0.2224
   13TCq1    H1  210   4.265   4.287  10.440 -2.2913 -0.4542  0.2009
   13TCq1    H2  211   4.227   4.246  10.612  0.1525 -2.0717  1.1137
   13TCq1    H3  212   3.901   4.082  10.812  1.7391 -0.6742  1.1759
   13TCq1    H4  213   3.939   4.019  10.398  1.6820 -1.7091  0.0597
   14MPD2     C  214   3.579   3.832  10.353  0.9230 -0.0764 -0.4510
   14MPD2    C1  215   3.606   3.894  10.465  0.7673 -0.3778  0.0490
   14MPD2    C2  216   3.504   3.918  10.555  0.0769  0.4754  0.1412
   14MPD2    C3  217   3.378   3.867  10.545  0.3140 -0.0170  0.2958
   14MPD2    C4  218   3.354   3.796  10.430  0.6032 -0.1038 -0.8638
   14MPD2    C5  219   3.453   3.782  10.335 -0.0568 -0.4876  0.2179
   14MPD2     H  220   3.523   3.973  10.647 -0.3483  0.2794  0.3437
   14MPD2    H1  221   3.261   3.746  10.405  0.8774 -1.5013  0.9327
   14MPD2    H2  222   3.655   3.807  10.280  0.5031 -2.8762  0.0612
   14MPD2    H3  223   3.434   3.725  10.245 -1.5965 -0.2854  0.4164
   14MPD2     N  224   3.277   3.894  10.637  0.1811 -0.0908  0.0490
   14MPD2    H5  225   3.305   3.958  10.710  3.5594 -0.1854 -1.1907
   14MPD2    N1  226   3.728   3.954  10.486 -0.2891 -0.0730 -0.1386
   14MPD2    H7  227   3.796   3.953  10.410 -2.2572 -0.7324 -1.8662
   15TCq1    O1  228   0.948   3.023   1.548 -0.6014 -0.2840 -0.2271
   15TCq1    C1  229   0.871   3.119   1.492 -0.2669 -0.0499 -0.4737
   15TCq1    O2  230   0.883   3.237   1.496 -0.0191 -0.1333  0.0264
   15TCq1    C2  231   0.770   3.056   1.399  0.2957  0.5168  0.4827
   15TCq1    C3  232   0.673   3.144   1.360 -0.1593  0.8863 -0.3385
   15TCq1    C4  233   0.590   3.103   1.260 -0.4954 -0.7549  0.1857
   15TCq1    C5  234   0.600   2.978   1.202  0.0684  0.0408  0.0020
   15TCq1    C6  235   0.690   2.891   1.263  0.2410  0.0444 -0.7374
   15TCq1    C7  236   0.782   2.930   1.358  1.0558 -1.0814 -0.5177
   15TCq1    C8  237   0.682   2.747   1.234 -0.1305 -0.3942 -0.0994
   15TCq1    O4  238   0.757   2.673   1.296 -0.4573  0.0035 -0.0784
   15TCq1    C9  239   0.492   3.198   1.209  0.2778  0.6426  0.3265
   15TCq1    O5  240   0.473   3.300   1.285  0.4058 -0.1992 -0.0883
   15TCq1    O6  241   0.430   3.163   1.108  0.2511  0.6963  0.1352
   15TCq1    H1  242   0.895   2.941   1.549  1.9119 -1.8680  1.0397
   15TCq1    H2  243   0.671   3.247   1.395 -1.3167  1.5980 -2.5338
   15TCq1    H3  244   0.529   2.956   1.123 -2.3423  0.6579  1.9879
   15TCq1    H4  245   0.861   2.864   1.394 -0.2710 -2.2931  0.1596
   16MPD2     C  246   0.434   2.558   1.048 -0.0862  0.3216  0.3329
   16MPD2    C1  247   0.546   2.577   1.121 -0.0032 -0.5133  0.2630
   16MPD2    C2  248   0.643   2.478   1.134 -0.0315  0.2015  0.5601
   16MPD2    C3  249   0.611   2.348   1.101 -0.2393 -0.5780  0.0152
   16MPD2    C4  250   0.492   2.332   1.024  0.1907 -0.0031  0.0264
   16MPD2    C5  251   0.414   2.439   0.985  0.7401  0.6993 -0.2397
   16MPD2     H  252   0.744   2.508   1.160  0.8483 -2.7443  0.6353
   16MPD2    H1  253   0.448   2.238   0.995 -0.2533 -0.0398  0.8202
   16MPD2    H2  254   0.367   2.641   1.032  0.7362  0.7694 -0.7675
   16MPD2    H3  255   0.330   2.431   0.917  0.6942 -0.5840 -0.0293
   16MPD2     N  256   0.711   2.249   1.122 -0.0860 -0.3843  0.0359
   16MPD2    H5  257   0.781   2.272   1.192 -1.0907  0.2706  0.8421
   16MPD2    N1  258   0.568   2.711   1.168 -0.1522 -0.4912  1.0214
   16MPD2    H7  259   0.500   2.782   1.144  4.4290  3.1121 -1.3014
   17TMC1    C1  260   3.806   2.417  11.945  0.4563  0.1141 -0.4626
   17TMC1    C2  261   3.827   2.553  11.954 -0.0555  0.1485 -0.3391
   17TMC1    C3  262   3.762   2.628  12.045  0.8495 -0.1265  0.7722
   17TMC1    C4  263   3.693   2.368  12.005  0.2682 -0.0148  0.0040
   17TMC1    C5  264   3.621   2.447  12.090  0.1764 -0.2399  0.0751
   17TMC1    C6  265   3.657   2.577  12.114  0.2301  0.9534 -0.2332
   17TMC1     C  266   3.868   2.329  11.845 -0.6614 -0.1329  0.8045
   17TMC1     O  267   3.860   2.209  11.864 -0.9700  0.1418  0.9233
   17TMC1     H  268   3.919   2.596  11.915  1.2573 -1.1618  1.2856
   17TMC1    H1  269   3.684   2.261  11.985 -1.7018  0.5402 -2.0605
   17TMC1    H2  270   3.589   2.642  12.167 -0.2189  0.6565 -0.4395
   17TMC1    C7  271   3.490   2.404  12.139  0.0571 -0.2418  0.1004
   17TMC1    C8  272   3.760   2.768  12.012 -0.2283 -0.4641 -0.0525
   17TMC1    O1  273   3.397   2.481  12.148  0.2979  0.3153 -0.1162
   17TMC1    O2  274   3.652   2.828  11.998 -0.4825  0.5450  1.0645
   17TMC1    O3  275   3.480   2.271  12.145 -0.1755 -0.2755  0.0758
   17TMC1    H3  276   3.564   2.228  12.120  0.7299  1.1289  0.6753
   17TMC1    O5  277   3.883   2.822  12.006 -0.0044  0.4762 -0.2120
   17TMC1    H5  278   3.955   2.760  12.031 -1.5139 -1.2660 -0.1737
   18MPD2     C  279   3.953   2.225  11.582  0.1518  0.2143  0.6354
   18MPD2    C1  280   3.973   2.353  11.619 -0.4553 -0.3155  0.4818
   18MPD2    C2  281   4.039   2.439  11.531  0.4041  0.1296 -0.2788
   18MPD2    C3  282   4.078   2.400  11.402 -0.3783  0.3313  0.2215
   18MPD2    C4  283   4.069   2.262  11.377 -0.3454 -0.6614  0.1998
   18MPD2    C5  284   4.004   2.184  11.467 -0.5177 -0.3125  0.2656
   18MPD2     H  285   4.060   2.539  11.565  0.2098  0.5391 -1.3690
   18MPD2    H1  286   4.109   2.218  11.286 -0.2507  2.1135 -1.1020
   18MPD2    H2  287   3.923   2.150  11.654 -0.5160  1.3773  1.5754
   18MPD2    H3  288   3.996   2.081  11.432  0.1584 -0.5163  0.7135
   18MPD2     N  289   4.127   2.487  11.307  0.1723 -0.5166  0.0793
   18MPD2    H5  290   4.137   2.439  11.218 -0.6183  0.1316 -0.3663
   18MPD2    N1  291   3.939   2.398  11.747 -0.0807 -0.4448 -0.1741
   18MPD2    H7  292   3.945   2.498  11.761 -1.1108 -0.3907 -0.1296
   19TMC2    C1  293   4.634   3.485  14.018  0.2211  0.3657  0.3821
   19TMC2    C2  294   4.524   3.562  13.979  0.2849  0.2733 -0.0598
   19TMC2    C3  295   4.406   3.505  13.974  0.1288  0.4244 -0.5169
   19TMC2    C4  296   4.613   3.358  14.068 -0.1260  0.6892 -0.1788
   19TMC2    C5  297   4.491   3.301  14.057  0.5023 -0.8074  0.4064
   19TMC2    C6  298   4.384   3.378  14.019  0.3077  0.3314 -0.0774
   19TMC2     C  299   0.022   3.545  13.991  0.0400 -0.0504  0.1877
   19TMC2     O  300   0.017   3.647  13.927  0.0804  0.0456 -0.3312
   19TMC2     H  301   4.540   3.662  13.940  0.8422 -0.1096 -0.8055
   19TMC2    H1  302   4.699   3.295  14.090 -0.0322  0.7600 -0.3443
   19TMC2    H2  303   4.286   3.332  14.007  0.8775 -1.0960  0.7725
   19TMC2    C7  304   4.480   3.160  14.078  0.3545 -0.6838  0.2908
   19TMC2    C8  305   4.321   3.568  13.870  0.3988  0.2628 -0.2053
   19TMC2    O1  306   4.578   3.103  14.124 -0.2794 -0.2770 -0.4173
   19TMC2    O2  307   4.381   3.611  13.769 -0.1009  0.9363  0.9003
   19TMC2    O5  308   4.205   3.501  13.877 -0.1627 -0.4409  0.1320
   19TMC2    H5  309   4.170   3.508  13.968 -0.0437 -1.4641  0.2554
   20MPD2     C  310   0.304   3.621  13.946 -0.6702  0.2494  0.2439
   20MPD2    C1  311   0.264   3.506  14.008 -0.2116 -1.3791 -0.7917
   20MPD2    C2  312   0.361   3.405  14.042 -0.2154  0.0132  0.5755
   20MPD2    C3  313   0.496   3.426  14.005 -0.1405 -0.2495 -0.5969
   20MPD2    C4  314   0.532   3.543  13.945 -0.1486  0.2654  0.0253
   20MPD2    C5  315   0.435   3.635  13.906  0.3328 -0.3740  0.3833
   20MPD2     H  316   0.336   3.313  14.095 -0.6678  0.3527  0.9551
   20MPD2    H1  317   0.633   3.562  13.909  0.4000  0.1643  1.5003
   20MPD2    H2  318   0.239   3.702  13.913  2.5774  2.4180 -0.8383
   20MPD2    H3  319   0.467   3.722  13.850 -1.5289  0.7380  1.0342
   20MPD2     N  320   0.596   3.328  14.025 -0.7680 -0.2487 -0.6423
   20MPD2    H5  321   0.693   3.349  14.003 -0.2851 -1.9877 -0.1279
   20MPD2    N1  322   0.129   3.472  14.031 -0.5022  0.0268  0.5110
   20MPD2    H7  323   0.106   3.383  14.074 -2.2278 -0.6019 -1.7212
   21TMC2    C1  324   2.378   3.498  14.404 -0.1940  0.2662  0.6608
   21TMC2    C2  325   2.448   3.412  14.482 -0.0963 -0.1022 -0.1314
   21TMC2    C3  326   2.546   3.474  14.554 -0.4442  0.2405 -0.3762
   21TMC2    C4  327   2.390   3.634  14.415  0.0279 -0.0725 -0.3730
   21TMC2    C5  328   2.477   3.689  14.511 -0.4276  0.6978 -0.4599
   21TMC2    C6  329   2.565   3.606  14.575  0.2102  0.0246 -0.1382
   21TMC2     C  330   2.257   3.445  14.360 -0.2030  0.0686 -0.5997
   21TMC2     O  331   2.185   3.390  14.439 -0.0499  0.0019 -0.0200
   21TMC2     H  332   2.426   3.306  14.489 -0.1091 -0.0763  0.2427
   21TMC2    H1  333   2.311   3.697  14.375 -0.5700 -0.7674 -0.2835
   21TMC2    H2  334   2.636   3.648  14.646 -1.9081  1.2503  1.2801
   21TMC2    C7  335   2.475   3.824  14.564 -0.6643  0.4345  0.3085
   21TMC2    C8  336   2.644   3.381  14.609  0.2407  0.1879  0.3629
   21TMC2    O1  337   2.514   3.835  14.681  0.1124  0.2216 -0.2775
   21TMC2    O2  338   2.671   3.282  14.539  0.2358 -0.7062 -0.0032
   21TMC2    O5  339   2.723   3.443  14.698  0.1290 -0.6371  0.0887
   21TMC2    H5  340   2.675   3.510  14.752 -2.0265 -1.8466 -0.3362
   22MPD2     C  341   2.434   3.617  13.908 -0.7606 -0.4550  0.4360
   22MPD2    C1  342   2.498   3.555  14.009  0.3915 -0.5900 -0.4991
   22MPD2    C2  343   2.430   3.500  14.117 -0.7543 -0.1838  0.1388
   22MPD2    C3  344   2.294   3.522  14.130 -0.7582 -0.3734 -0.5418
   22MPD2    C4  345   2.225   3.585  14.026 -0.2455 -0.1184  0.2424
   22MPD2    C5  346   2.295   3.630  13.916 -0.4413  0.3938  0.0946
   22MPD2     H  347   2.482   3.443  14.193  0.8894 -0.3237 -1.0854
   22MPD2    H1  348   2.120   3.611  14.034  0.3248  2.2944 -0.0519
   22MPD2    H2  349   2.481   3.663  13.822  0.3171 -0.9181  0.7809
   22MPD2    H3  350   2.244   3.681  13.835 -3.4289  1.7558  2.8474
   22MPD2     N  351   2.210   3.481  14.237 -0.4260 -0.1155  0.0748
   22MPD2    H5  352   2.110   3.491  14.223 -0.3370  2.1117  1.0333
   22MPD2    N1  353   2.637   3.535  14.003  0.4910  0.0024  0.3726
   22MPD2    H7  354   2.665   3.490  14.089  1.1072 -2.4223 -1.0926
   23TMC2    C1  355   3.847   0.206  14.618 -0.1815 -0.3480  0.1538
   23TMC2    C2  356   3.956   0.160  14.536  0.0469  0.3705  0.4287
   23TMC2    C3  357   3.925   0.098  14.421  0.1189 -0.1170  0.7354
   23TMC2    C4  358   3.716   0.199  14.581  0.0525  0.2240 -0.0522
   23TMC2    C5  359   3.689   0.134  14.452  0.4235 -0.1511 -0.4899
   23TMC2    C6  360   3.791   0.086  14.372 -0.2674 -0.0428  0.3575
   23TMC2     C  361   3.885   0.285  14.738  0.0916  0.1091  0.5374
   23TMC2     O  362   4.003   0.281  14.771 -0.5125 -0.0017 -0.7545
   23TMC2     H  363   4.059   0.162  14.568  0.3694 -2.5569 -0.4534
   23TMC2    H1  364   3.630   0.241  14.629 -0.7702  0.5658 -1.8132
   23TMC2    H2  365   3.776   0.042  14.275 -0.6796 -0.1051  0.4510
   23TMC2    C7  366   3.554   0.110  14.413 -0.6611 -0.0074 -0.2609
   23TMC2    C8  367   4.039   0.043  14.347 -0.2390  0.1817 -0.0557
   23TMC2    O1  368   3.470   0.162  14.488  0.2019 -0.1097  0.0423
   23TMC2    O2  369   4.153   0.080  14.360 -0.0369  0.3984 -0.4191
   23TMC2    O5  370   3.999   4.660  14.307  0.1028  0.5093 -0.3661
   23TMC2    H5  371   3.918   4.625  14.352  0.6966 -0.8168 -0.3048
   24MPD2     C  372   3.886   0.666  15.064 -0.2708  0.4201  1.1218
   24MPD2    C1  373   3.932   0.542  15.081 -0.2814  0.8373 -0.0347
   24MPD2    C2  374   3.916   0.447  14.985 -0.7289 -1.1949  0.3461
   24MPD2    C3  375   3.828   0.473  14.883 -0.2856 -0.3851 -0.3666
   24MPD2    C4  376   3.757   0.598  14.879 -0.1214  0.3604 -0.2031
   24MPD2    C5  377   3.791   0.693  14.966  0.3036 -0.8023  0.5833
   24MPD2     H  378   3.947   0.345  15.005  0.3202 -1.0535 -0.6042
   24MPD2    H1  379   3.693   0.626  14.796  1.1611  0.3687 -1.1969
   24MPD2    H2  380   3.908   0.749  15.130 -0.6066  1.5017 -0.1046
   24MPD2    H3  381   3.743   0.790  14.971  0.1275 -0.9407  1.6680
   24MPD2     N  382   3.796   0.383  14.783  0.1657  0.4436 -0.1230
   24MPD2    H5  383   3.712   0.398  14.728 -2.1050 -1.0047  2.9907
   24MPD2    N1  384   4.024   0.511  15.186  0.0173 -0.3728 -0.1368
   24MPD2    H7  385   4.074   0.425  15.165  1.5671  0.1552  1.3962
   25TMC2    C1  386   3.641   1.654  11.756  0.2683  0.7226 -0.0916
   25TMC2    C2  387   3.752   1.653  11.844  0.4526 -0.0736 -0.5521
   25TMC2    C3  388   3.794   1.776  11.882 -0.5237  0.3525 -0.2559
   25TMC2    C4  389   3.585   1.767  11.703 -0.2451  0.1208 -0.9317
   25TMC2    C5  390   3.632   1.885  11.762  0.2000 -0.2731  0.1894
   25TMC2    C6  391   3.728   1.896  11.849  0.1511  0.7048 -0.4405
   25TMC2     C  392   3.547   1.544  11.784 -0.0971 -1.5188  0.6413
   25TMC2     O  393   3.550   1.497  11.900  0.0389  1.0974 -0.4717
   25TMC2     H  394   3.787   1.571  11.905 -0.2389 -0.0001 -0.0640
   25TMC2    H1  395   3.496   1.756  11.642  0.2807  0.5051 -1.7728
   25TMC2    H2  396   3.755   1.997  11.877  2.9479  0.2235 -1.3637
   25TMC2    C7  397   3.528   1.979  11.770 -0.6021 -0.3936 -0.7717
   25TMC2    C8  398   3.872   1.775  12.002 -0.4463  0.0746 -0.3509
   25TMC2    O1  399   3.516   2.042  11.876 -1.0452  0.1890  0.2120
   25TMC2    O2  400   3.849   1.704  12.098  0.2952 -0.0786 -0.1610
   25TMC2    O5  401   3.909   1.899  12.027  0.4072  0.1279  0.1665
   25TMC2    H5  402   3.929   1.932  11.937  1.3699 -0.8594  0.0244
   26MPD2     C  403   3.073   1.375  11.675 -0.5396 -0.9951 -0.1130
   26MPD2    C1  404   3.135   1.408  11.561 -0.9187  0.1363  0.3727
   26MPD2    C2  405   3.265   1.449  11.570  0.8220  0.0333  0.4242
   26MPD2    C3  406   3.332   1.459  11.690  0.1003  0.4302  0.1158
   26MPD2    C4  407   3.271   1.415  11.810  0.5765  0.1548 -0.0504
   26MPD2    C5  408   3.136   1.370  11.799 -0.9205  0.5154  0.3506
   26MPD2     H  409   3.328   1.464  11.482 -0.3680  0.7999 -0.2968
   26MPD2    H1  410   3.310   1.430  11.910 -1.9909  2.4174  0.6223
   26MPD2    H2  411   2.967   1.356  11.671 -0.1080 -3.4458  0.1868
   26MPD2    H3  412   3.097   1.343  11.897  1.4760  1.1281  1.4943
   26MPD2     N  413   3.458   1.520  11.683 -1.0622 -0.4566 -0.2347
   26MPD2    H5  414   3.487   1.547  11.590 -0.6946  0.0988  0.0386
   26MPD2    N1  415   3.067   1.379  11.436  0.6093  0.1562 -0.0522
   26MPD2    H7  416   2.976   1.336  11.449 -0.0153  1.7190  0.7540
   27TMC2    C1  417   1.750   0.082  12.084  0.1408 -0.3560 -0.7449
   27TMC2    C2  418   1.647   0.170  12.081 -0.1316 -0.4942 -0.0072
   27TMC2    C3  419   1.661   0.290  12.023 -0.4634  0.0190 -0.2087
   27TMC2    C4  420   1.879   0.123  12.042 -0.8264 -0.5181 -0.0193
   27TMC2    C5  421   1.889   0.251  12.006 -0.1896 -0.4436 -0.2537
   27TMC2    C6  422   1.780   0.329  11.967  0.0436 -0.3221  0.2529
   27TMC2     C  423   1.740   4.693  12.129  0.2206 -0.2166  0.2326
   27TMC2     O  424   1.825   4.618  12.090 -0.3332 -0.8584 -0.1999
   27TMC2     H  425   1.544   0.151  12.108 -0.0085 -0.6934  0.3198
   27TMC2    H1  426   1.962   0.052  12.043  0.3912  0.9062  0.2025
   27TMC2    H2  427   1.797   0.432  11.938  0.7864 -0.5472 -0.1312
   27TMC2    C7  428   2.024   0.299  11.982  0.3319 -0.3305  0.0563
   27TMC2    C8  429   1.551   0.372  11.966  0.3663 -0.8828  0.2979
   27TMC2    O1  430   2.036   0.395  11.911 -0.2138 -0.6294  0.3725
   27TMC2    O2  431   1.491   0.448  12.042  0.2794  0.0561  0.3379
   27TMC2    O5  432   1.599   0.402  11.846 -0.6330  0.6497  0.1061
   27TMC2    H5  433   1.641   0.328  11.798 -2.2265 -1.0386  1.3049
   28MPD2     C  434   1.526   4.309  12.364  0.6287  0.4510  0.2484
   28MPD2    C1  435   1.476   4.421  12.421 -0.1627 -0.2903  0.4451
   28MPD2    C2  436   1.515   4.546  12.375  0.0336 -0.7358 -0.3076
   28MPD2    C3  437   1.614   4.552  12.279 -0.0102 -0.0802  0.1185
   28MPD2    C4  438   1.669   4.433  12.228  0.4450 -0.0709 -0.1349
   28MPD2    C5  439   1.628   4.309  12.275 -0.2492 -0.1237  0.9068
   28MPD2     H  440   1.479   4.636  12.423 -2.6562 -0.4034 -2.9348
   28MPD2    H1  441   1.740   4.425  12.146 -1.5802 -0.5796 -1.8200
   28MPD2    H2  442   1.490   4.210  12.392  0.0553  0.8923  1.0576
   28MPD2    H3  443   1.664   4.212  12.242  3.5932  1.0303  1.8295
   28MPD2     N  444   1.649   4.679  12.227  0.1920  0.2488 -0.7254
   28MPD2    H5  445   1.601   0.019  12.265  1.7475 -0.2681  2.2698
   28MPD2    N1  446   1.386   4.398  12.534 -0.0571  0.2244  0.0529
   28MPD2    H7  447   1.355   4.303  12.549  0.5281 -0.0117 -0.2362
   29TMC2    C1  448   1.356   2.194  14.164 -0.2633  0.4775 -0.0928
   29TMC2    C2  449   1.362   2.179  14.305 -1.0139  0.5097 -0.3214
   29TMC2    C3  450   1.360   2.291  14.380 -0.3000  0.3592  0.5449
   29TMC2    C4  451   1.337   2.318  14.109  0.5234 -0.4109 -0.1965
   29TMC2    C5  452   1.330   2.425  14.197  0.4328 -0.1521  0.6346
   29TMC2    C6  453   1.340   2.414  14.328 -0.2604 -0.6542 -0.9495
   29TMC2     C  454   1.333   2.080  14.087  0.4644 -0.7212 -0.0908
   29TMC2     O  455   1.410   2.080  13.993  0.5027  0.7826  0.0732
   29TMC2     H  456   1.371   2.079  14.343 -2.8054 -0.4806 -2.4820
   29TMC2    H1  457   1.316   2.335  14.004 -0.2797 -0.2146 -0.0035
   29TMC2    H2  458   1.329   2.499  14.395  2.8277 -0.5582 -0.5356
   29TMC2    C7  459   1.296   2.549  14.135  0.0651 -0.0539  0.0978
   29TMC2    C8  460   1.354   2.269  14.517  0.2810  0.3506 -0.1403
   29TMC2    O1  461   1.228   2.548  14.035 -0.0336  0.7523 -0.4082
   29TMC2    O2  462   1.420   2.180  14.564  0.4776  0.0971  0.6739
   29TMC2    O5  463   1.281   2.363  14.582 -0.1570 -0.1942 -1.2593
   29TMC2    H5  464   1.206   2.381  14.521 -1.4729  0.5310  0.5913
   30MPD2     C  465   1.155   1.593  14.042 -0.4963 -0.4013 -0.0525
   30MPD2    C1  466   1.285   1.637  14.035 -0.4969 -0.0222  0.2284
   30MPD2    C2  467   1.308   1.772  14.052 -0.0709  0.2545  0.4087
   30MPD2    C3  468   1.204   1.858  14.095 -0.3745 -0.7751 -0.2422
   30MPD2    C4  469   1.078   1.803  14.117  0.5848  0.0331  0.5241
   30MPD2    C5  470   1.053   1.669  14.086 -0.2292 -0.2071  0.5853
   30MPD2     H  471   1.412   1.804  14.042 -0.2619  0.9683  0.7109
   30MPD2    H1  472   1.000   1.869  14.154  0.3701 -0.0944  0.2955
   30MPD2    H2  473   1.119   1.492  14.025 -0.1368 -0.1294 -2.4394
   30MPD2    H3  474   0.950   1.633  14.087 -0.4908  0.4924 -1.3223
   30MPD2     N  475   1.230   1.993  14.131  0.6302 -0.1449 -0.6716
   30MPD2    H5  476   1.162   2.040  14.189  3.2844  1.8482  0.8124
   30MPD2    N1  477   1.393   1.547  14.016  0.2050  0.2046  0.3111
   30MPD2    H7  478   1.488   1.582  14.027  0.8061 -1.7759  1.3800
   31TMC2    C1  479   3.581   1.157  15.460 -0.2442  0.3254  0.2926
   31TMC2    C2  480   3.478   1.238  15.504 -0.3368  0.0589 -0.4473
   31TMC2    C3  481   3.466   1.267  15.638  0.5149 -0.2268 -0.3346
   31TMC2    C4  482   3.676   1.108  15.548 -0.4848  0.4788  0.1088
   31TMC2    C5  483   3.667   1.148  15.679 -0.6740 -0.4099  0.8239
   31TMC2    C6  484   3.564   1.228  15.729  0.0131  0.3097  0.2765
   31TMC2     C  485   3.606   1.162  15.319  0.6776  0.0148 -0.0564
   31TMC2     O  486   3.532   1.237  15.254 -0.5061  0.5318 -0.0413
   31TMC2     H  487   3.395   1.258  15.437 -1.7191  2.0359  1.9104
   31TMC2    H1  488   3.750   1.036  15.515 -0.8557  1.1094 -2.0924
   31TMC2    H2  489   3.547   1.234  15.835 -0.6879  0.3236  0.1662
   31TMC2    C7  490   3.769   1.093  15.768  1.0310  0.0296  0.4840
   31TMC2    C8  491   3.345   1.325  15.690 -0.8271 -0.1421  0.2887
   31TMC2    O1  492   3.828   0.991  15.728 -0.5812 -0.3154 -0.3164
   31TMC2    O2  493   3.297   1.276  15.792 -0.6896 -0.5813 -0.5809
   31TMC2    O5  494   3.355   1.450  15.653 -0.7008  0.4159  0.2069
   31TMC2    H5  495   3.423   1.468  15.585 -0.2383 -1.3899  0.1868
   32MPD2     C  496   3.948   1.091  14.933 -0.4959  0.2201  0.1879
   32MPD2    C1  497   3.851   1.191  14.949  0.1344  0.1784 -0.2447
   32MPD2    C2  498   3.773   1.199  15.061 -0.0498 -0.7344 -0.1396
   32MPD2    C3  499   3.791   1.106  15.163 -0.1119 -0.9560 -0.1398
   32MPD2    C4  500   3.902   1.019  15.157  0.4561 -0.0242  0.3505
   32MPD2    C5  501   3.970   1.010  15.040 -0.6248  0.2302  0.4938
   32MPD2     H  502   3.696   1.273  15.082  0.8287 -0.5126  2.2640
   32MPD2    H1  503   3.930   0.950  15.236  0.5245  0.8211  1.0535
   32MPD2    H2  504   4.000   1.074  14.839  0.7841 -0.0203  0.9392
   32MPD2    H3  505   4.053   0.941  15.034 -2.7476 -2.2671 -0.0561
   32MPD2     N  506   3.727   1.103  15.288  0.2412  0.3965 -0.3874
   32MPD2    H5  507   3.761   1.026  15.344 -1.5283  0.0001  0.1189
   32MPD2    N1  508   3.835   1.282  14.839  0.5319 -0.1281 -0.2155
   32MPD2    H7  509   3.896   1.279  14.758 -1.1707 -1.4255 -1.4473
   33TMC2    C1  510   3.815   3.518  10.755 -0.4395  0.3160  0.6881
   33TMC2    C2  511   3.681   3.498  10.764 -0.4048 -0.6877  0.0187
   33TMC2    C3  512   3.609   3.511  10.643 -0.3581 -0.6817 -0.3754
   33TMC2    C4  513   3.882   3.528  10.638 -0.6065 -0.4292 -0.0905
   33TMC2    C5  514   3.807   3.543  10.525  0.1809  0.0359 -0.0397
   33TMC2    C6  515   3.673   3.531  10.521  0.4911  0.1782  0.2942
   33TMC2     C  516   3.891   3.452  10.857  0.8372 -0.0357  0.2417
   33TMC2     O  517   3.837   3.365  10.925  0.5221  0.1191 -0.6732
   33TMC2     H  518   3.635   3.470  10.858 -1.0202 -0.0323 -0.0906
   33TMC2    H1  519   3.990   3.533  10.623 -0.6446 -1.8136 -0.9153
   33TMC2    H2  520   3.595   3.549  10.449  1.4681  1.6277 -0.4041
   33TMC2    C7  521   3.878   3.612  10.419  0.2022 -0.2074 -0.0738
   33TMC2    C8  522   3.466   3.494  10.647  0.2223  0.1161  0.7328
   33TMC2    O1  523   3.968   3.687  10.453  0.6783  0.3052  0.1480
   33TMC2    O2  524   3.394   3.436  10.565  0.0453  0.2674 -0.1300
   33TMC2    O5  525   3.436   3.578  10.749  0.3572 -0.1914  0.1913
   33TMC2    H5  526   3.510   3.636  10.776 -0.0069  0.0834  0.6039
   34MPD2     C  527   4.361   3.321  11.011  0.7109  0.8928 -0.0068
   34MPD2    C1  528   4.246   3.248  11.008  0.2812 -0.0353 -0.5806
   34MPD2    C2  529   4.129   3.310  10.976  0.0158 -1.0812 -0.0225
   34MPD2    C3  530   4.126   3.445  10.936  0.2811 -0.3734 -0.0956
   34MPD2    C4  531   4.241   3.513  10.932  0.4240 -0.2220  0.1874
   34MPD2    C5  532   4.362   3.455  10.973 -0.1262  0.1871 -0.3706
   34MPD2     H  533   4.037   3.254  10.968  0.7264 -2.0514 -1.3814
   34MPD2    H1  534   4.246   3.615  10.896 -0.7334  0.4336  1.8586
   34MPD2    H2  535   4.457   3.279  11.041 -0.4395 -0.4395  1.8513
   34MPD2    H3  536   4.448   3.521  10.970  0.1397 -0.0348  1.9144
   34MPD2     N  537   4.016   3.503  10.868  0.1627 -0.8635  0.3548
   34MPD2    H5  538   4.031   3.585  10.810 -0.8612  1.4707  3.3745
   34MPD2    N1  539   4.255   3.113  11.050 -0.3968  0.7621  0.6852
   34MPD2    H7  540   4.343   3.084  11.090 -0.6588  1.2472  1.6040
   35TMC2    C1  541   0.282   0.090  11.415  0.6214  0.2505 -0.4539
   35TMC2    C2  542   0.181   0.159  11.351 -0.0462 -0.0277  0.3849
   35TMC2    C3  543   0.052   0.105  11.361 -0.0418  0.5492  0.3262
   35TMC2    C4  544   0.265   4.718  11.490 -0.1221 -0.0987 -0.2845
   35TMC2    C5  545   0.134   4.677  11.510 -0.3097 -0.8926 -0.0814
   35TMC2    C6  546   0.024   0.003  11.445 -0.2385 -0.0880 -0.0892
   35TMC2     C  547   0.409   0.115  11.364 -0.1419 -0.2147 -0.4500
   35TMC2     O  548   0.417   0.185  11.262 -0.3012  0.1829  0.0261
   35TMC2     H  549   0.198   0.253  11.301 -0.3652 -0.1287  0.0927
   35TMC2    H1  550   0.343   4.651  11.524 -1.1443  0.0257  2.3251
   35TMC2    H2  551   4.663   4.715  11.472 -0.6910  0.6192 -1.0221
   35TMC2    C7  552   0.107   4.558  11.591 -0.7819 -0.7962  0.2740
   35TMC2    C8  553   4.684   0.174  11.293 -0.8218  0.1821  0.9435
   35TMC2    O1  554   0.003   4.497  11.569 -0.1441  0.1805  0.3158
   35TMC2    O2  555   4.681   0.287  11.241  0.0269 -0.3508  0.3661
   35TMC2    O5  556   4.601   0.081  11.246  0.2070  0.2381 -0.1302
   35TMC2    H5  557   4.645   4.736  11.268 -1.7101 -1.6557 -3.5593
   36MPD2     C  558   0.918   0.158  11.426 -0.0791  0.3499  0.3958
   36MPD2    C1  559   0.856   0.088  11.535 -0.0979 -0.2518 -0.1424
   36MPD2    C2  560   0.720   0.064  11.532  0.7001  0.1182 -0.1225
   36MPD2    C3  561   0.642   0.101  11.423  0.3805 -0.3954 -0.0393
   36MPD2    C4  562   0.708   0.156  11.315 -0.5336  0.2394  0.1099
   36MPD2    C5  563   0.846   0.180  11.312  0.7622 -0.3839 -0.4615
   36MPD2     H  564   0.676   0.030  11.625 -2.0724  0.7081 -1.2235
   36MPD2    H1  565   0.655   0.183  11.224 -0.2764 -1.1373 -0.4356
   36MPD2    H2  566   1.024   0.178  11.424 -0.1867  0.7495 -2.3191
   36MPD2    H3  567   0.884   0.224  11.220  2.1268  2.1601  1.2872
   36MPD2     N  568   0.510   0.086  11.447 -0.1281  0.2986  0.0978
   36MPD2    H5  569   0.486   0.055  11.541 -2.5286  1.1788 -0.2307
   36MPD2    N1  570   0.932   0.053  11.642  0.0610 -0.1422  0.4544
   36MPD2    H7  571   1.004   0.119  11.668 -1.5886  0.8946  2.3503
   37TMC2    C1  572   2.426   0.165  11.518 -0.4367 -0.2583  0.0494
   37TMC2    C2  573   2.426   0.306  11.536  0.9408  0.2209 -0.5999
   37TMC2    C3  574   2.491   0.368  11.437 -0.9790 -0.0174 -0.2442
   37TMC2    C4  575   2.497   0.106  11.419  1.1003 -0.4614  0.0545
   37TMC2    C5  576   2.556   0.171  11.323  0.3064 -0.0536  0.0732
   37TMC2    C6  577   2.559   0.306  11.333 -0.3286  0.5724  0.3388
   37TMC2     C  578   2.402   0.092  11.641  0.5179 -0.2938  0.4507
   37TMC2     O  579   2.314   0.139  11.716 -0.0632 -0.5154  0.1534
   37TMC2     H  580   2.364   0.351  11.612 -0.9709 -1.0682 -1.3605
   37TMC2    H1  581   2.500   4.738  11.418  0.3213 -0.4842 -0.5375
   37TMC2    H2  582   2.620   0.369  11.268 -0.0175  0.6200  0.6799
   37TMC2    C7  583   2.665   0.095  11.270 -0.2156 -0.3439  0.0950
   37TMC2    C8  584   2.533   0.509  11.441 -0.4157 -0.4220 -0.5976
   37TMC2    O1  585   2.707   0.006  11.343  0.4244 -0.0819  0.1211
   37TMC2    O2  586   2.519   0.588  11.347 -0.1204 -0.3230 -0.3996
   37TMC2    O5  587   2.551   0.543  11.568 -0.6061  0.0378 -0.1678
   37TMC2    H5  588   2.572   0.460  11.616  0.4298 -0.2766 -1.1695
   38MPD2     C  589   2.580   4.619  12.069 -0.1217  0.0867  0.0486
   38MPD2    C1  590   2.655   4.571  11.964 -0.5103  0.1763  0.1505
   38MPD2    C2  591   2.628   4.605  11.832 -0.6401  0.0402 -0.4418
   38MPD2    C3  592   2.518   4.696  11.811  0.7222  0.1697 -0.1790
   38MPD2    C4  593   2.443   0.001  11.921 -0.6612  0.3814 -0.8089
   38MPD2    C5  594   2.476   4.699  12.042  0.5455 -1.0170  0.0205
   38MPD2     H  595   2.700   4.575  11.757  1.9012  1.6520  1.3698
   38MPD2    H1  596   2.358   0.068  11.921  0.0028  1.2266 -0.6321
   38MPD2    H2  597   2.587   4.570  12.166  1.2537 -1.8500 -1.0286
   38MPD2    H3  598   2.416   4.722  12.129  0.6016  0.9091 -0.4571
   38MPD2     N  599   2.499   0.004  11.679  0.1153  0.0058 -0.5745
   38MPD2    H5  600   2.564   4.705  11.611  0.0896 -1.4557  0.2398
   38MPD2    N1  601   2.754   4.475  11.990 -0.4369 -0.3972  0.0133
   38MPD2    H7  602   2.785   4.418  11.913 -0.3724 -1.0357  0.5103
   39TMC2    C1  603   1.204   2.224   1.664 -0.1609  0.0688  0.1150
   39TMC2    C2  604   1.226   2.165   1.786  0.0362 -0.7048  0.0204
   39TMC2    C3  605   1.362   2.185   1.830  0.4696 -0.4051 -0.4846
   39TMC2    C4  606   1.294   2.289   1.588 -0.0502  0.6284  0.2578
   39TMC2    C5  607   1.429   2.285   1.629  0.3547  0.2464 -0.2063
   39TMC2    C6  608   1.462   2.232   1.751 -0.4336 -0.0862 -0.1760
   39TMC2     C  609   1.085   2.182   1.591 -0.2133  0.0063 -0.6899
   39TMC2     O  610   1.035   2.254   1.505 -0.1724 -0.1589  0.6313
   39TMC2     H  611   1.151   2.122   1.850  0.3280 -1.5348 -0.1956
   39TMC2    H1  612   1.268   2.323   1.489 -2.8018 -0.4297  0.6067
   39TMC2    H2  613   1.564   2.237   1.785 -1.4165 -1.2038  2.9375
   39TMC2    C7  614   1.534   2.363   1.563 -0.3809  0.4378 -0.3170
   39TMC2    C8  615   1.391   2.133   1.967  0.0114  0.7898 -0.2187
   39TMC2    O1  616   1.645   2.371   1.620  0.2512  0.0795 -0.0777
   39TMC2    O2  617   1.366   2.018   1.994  0.6697  0.0385  0.5826
   39TMC2    O5  618   1.502   2.201   2.015  0.3844 -0.1477 -0.6291
   39TMC2    H5  619   1.527   2.287   1.974 -0.7885  1.0180  1.1047
   40MPD2     C  620   0.964   1.840   1.579  0.1837 -0.2382 -0.2738
   40MPD2    C1  621   0.954   1.976   1.576 -0.1146  0.2446  0.0244
   40MPD2    C2  622   0.840   2.025   1.525 -0.5912 -0.4900  0.0057
   40MPD2    C3  623   0.733   1.949   1.477 -0.2104  0.4879  0.1598
   40MPD2    C4  624   0.752   1.814   1.472  0.0458  0.1379  0.3928
   40MPD2    C5  625   0.860   1.753   1.535  0.2084  0.0348 -0.3980
   40MPD2     H  626   0.835   2.134   1.528  1.4104 -0.4243  1.0711
   40MPD2    H1  627   0.676   1.744   1.440 -1.0571  1.1812  0.7450
   40MPD2    H2  628   1.056   1.802   1.624 -0.0955 -1.4688 -0.7337
   40MPD2    H3  629   0.856   1.645   1.535  1.9028 -0.0418  1.1004
   40MPD2     N  630   0.614   2.003   1.426  0.2733 -0.1005 -0.1049
   40MPD2    H5  631   0.555   1.931   1.385 -0.5667 -0.4659  1.7263
   40MPD2    N1  632   1.067   2.051   1.624 -0.0428 -1.1397 -0.7469
   40MPD2    H7  633   1.129   1.992   1.679 -0.8095 -1.2712 -0.0204
   41TMC2    C1  634   4.581   4.491  13.831 -0.1768 -0.3870 -0.3808
   41TMC2    C2  635   4.565   4.411  13.723 -0.7013  1.1737  0.6762
   41TMC2    C3  636   4.516   4.466  13.607 -0.7099  0.0337  0.0790
   41TMC2    C4  637   4.565   4.624  13.814 -0.6556 -0.0430  0.5028
   41TMC2    C5  638   4.528   4.677  13.694  0.2334 -0.6724 -0.2647
   41TMC2    C6  639   4.500   4.598  13.584 -0.0594 -0.2096  0.4543
   41TMC2     C  640   4.642   4.442  13.954 -0.0806 -0.5247  0.4910
   41TMC2     O  641   4.619   4.322  13.973 -0.1841  0.2910 -0.1339
   41TMC2     H  642   4.583   4.304  13.733 -0.5813  1.3506  2.3475
   41TMC2    H1  643   4.584   4.691  13.897  1.1447 -0.2427  0.2578
   41TMC2    H2  644   4.450   4.629  13.494 -0.1916  0.0544  0.6190
   41TMC2    C7  645   4.575   0.069  13.667  0.3234 -0.0807 -0.9050
   41TMC2    C8  646   4.475   4.385  13.499  0.2564 -0.1028  0.3033
   41TMC2    O1  647   4.612   0.138  13.760 -0.4784 -0.2721  0.2687
   41TMC2    O2  648   4.468   4.427  13.385 -0.1713  0.5985  0.1383
   41TMC2    O5  649   4.411   4.274  13.554 -0.3235  0.1116  0.3303
   41TMC2    H5  650   4.421   4.272  13.651  0.0462  0.7933  0.3054
   42MPD2     C  651   4.738   4.398  14.226  0.0670 -0.3561  0.3811
   42MPD2    C1  652   0.029   4.509  14.149 -0.2558  0.8964  0.1184
   42MPD2    C2  653   0.114   4.594  14.206  0.0236  0.5226 -0.3086
   42MPD2    C3  654   0.169   4.581  14.335 -0.2716 -0.4118  0.0182
   42MPD2    C4  655   0.133   4.468  14.403  0.3425 -0.6000  0.2045
   42MPD2    C5  656   0.053   4.378  14.346 -0.5134 -0.3250  0.0093
   42MPD2     H  657   0.155   4.678  14.151 -1.7305  1.7843  0.2837
   42MPD2    H1  658   0.170   4.457  14.505 -0.0871  1.4433  0.5898
   42MPD2    H2  659   4.661   4.327  14.201  0.3353 -0.8541  0.9704
   42MPD2    H3  660   0.022   4.289  14.400 -0.2726 -0.9683 -0.8891
   42MPD2     N  661   0.251   4.675  14.404 -0.5299 -0.5132 -0.1454
   42MPD2    H5  662   0.265   4.656  14.503 -0.6235 -0.0981 -0.0505
   42MPD2    N1  663   4.713   4.535  14.020  0.5097  0.3999  0.2326
   42MPD2    H7  664   4.717   4.626  13.974  0.4325  0.9360  1.2950
   43TMC2    C1  665   1.247   3.279   0.603 -1.1379 -0.3488  0.5040
   43TMC2    C2  666   1.241   3.273   0.743 -0.3914 -0.5790 -0.2030
   43TMC2    C3  667   1.299   3.380   0.809 -0.4024 -0.3409  0.3374
   43TMC2    C4  668   1.296   3.390   0.542  0.0647 -0.4466 -0.2917
   43TMC2    C5  669   1.342   3.497   0.614 -0.4923 -0.9424  0.3530
   43TMC2    C6  670   1.340   3.494   0.748 -0.2845  0.3504  0.5827
   43TMC2     C  671   1.229   3.163   0.517 -0.1123 -0.6267 -0.6334
   43TMC2     O  672   1.278   3.157   0.406  0.0781 -0.4080 -0.0795
   43TMC2     H  673   1.214   3.183   0.796  1.8471 -1.1901 -0.0637
   43TMC2    H1  674   1.297   3.395   0.433 -0.2216  2.4523 -0.1653
   43TMC2    H2  675   1.365   3.578   0.811  1.3169  0.6200 -0.4360
   43TMC2    C7  676   1.381   3.622   0.537  0.1097  0.4288  0.7902
   43TMC2    C8  677   1.278   3.399   0.951 -0.2078 -0.2835 -0.6070
   43TMC2    O1  678   1.388   3.637   0.415  0.6837  0.2104  0.3372
   43TMC2    O2  679   1.373   3.383   1.026  0.6355 -0.3087 -0.0461
   43TMC2    O5  680   1.179   3.489   0.974  0.4663 -0.2764 -0.6081
   43TMC2    H5  681   1.126   3.508   0.893 -0.1600  1.9937  0.3187
   44MPD2     C  682   1.008   2.718   0.432 -0.7192  0.5203  0.0679
   44MPD2    C1  683   1.124   2.773   0.376 -0.3220  0.2096  0.3679
   44MPD2    C2  684   1.168   2.889   0.434 -0.1830  0.2157 -0.3536
   44MPD2    C3  685   1.094   2.954   0.530 -0.5246 -0.2919  0.0275
   44MPD2    C4  686   0.982   2.902   0.584  0.4566 -0.2716 -0.4530
   44MPD2    C5  687   0.939   2.780   0.536 -0.0978  0.0250  0.9524
   44MPD2     H  688   1.266   2.927   0.406 -0.2916  0.7700  0.0159
   44MPD2    H1  689   0.926   2.957   0.659  0.7112 -1.4988  0.6352
   44MPD2    H2  690   0.965   2.623   0.402  0.5802  0.2525 -0.9639
   44MPD2    H3  691   0.849   2.745   0.586  1.0856 -0.5121  2.7361
   44MPD2     N  692   1.134   3.083   0.573  0.5177 -0.6556  0.2182
   44MPD2    H5  693   1.078   3.136   0.641 -0.3292 -0.3457 -0.7215
   44MPD2    N1  694   1.211   2.701   0.282  0.4716  0.5084 -0.2888
   44MPD2    H7  695   1.307   2.733   0.273  0.8835 -1.4934 -2.7612
   45TMC2    C1  696   2.499   4.466   9.677  0.9585 -0.0842 -0.0451
   45TMC2    C2  697   2.543   4.373   9.766 -0.2272 -0.1391  0.3928
   45TMC2    C3  698   2.616   4.426   9.870 -0.5384 -0.4785  0.7614
   45TMC2    C4  699   2.540   4.599   9.669  0.3806  0.5303 -0.1209
   45TMC2    C5  700   2.618   4.640   9.775 -0.5581 -0.6921 -0.5106
   45TMC2    C6  701   2.652   4.554   9.873  0.3108 -0.2531  0.1481
   45TMC2     C  702   2.400   4.421   9.581  0.2780 -0.2179  0.2437
   45TMC2     O  703   2.386   4.298   9.585 -0.2811 -0.2262  0.2665
   45TMC2     H  704   2.534   4.266   9.749  0.7323 -0.1628  0.0352
   45TMC2    H1  705   2.495   4.675   9.607 -0.1957  0.5892  0.3706
   45TMC2    H2  706   2.735   4.569   9.941 -0.7018  0.3917  1.2342
   45TMC2    C7  707   2.670   0.035   9.789 -0.2433  0.5809 -0.5459
   45TMC2    C8  708   2.676   4.338   9.972  0.0356 -0.0499 -0.0121
   45TMC2    O1  709   2.730   0.064   9.892  0.3775  0.2103  0.6565
   45TMC2    O2  710   2.776   4.361  10.032  0.5995 -0.4815  0.2331
   45TMC2    O5  711   2.588   4.225   9.983  0.1341 -0.0920 -0.4115
   45TMC2    H5  712   2.493   4.248   9.977  0.5626  1.4415 -1.1694
   46MPD2     C  713   2.173   4.378   9.401 -0.4175 -0.5487  0.4951
   46MPD2    C1  714   2.210   4.505   9.434 -0.2257 -0.1434 -0.5238
   46MPD2    C2  715   2.126   4.610   9.404  0.6575  0.0523  0.3056
   46MPD2    C3  716   2.006   4.584   9.349  0.3354  0.1221 -0.0998
   46MPD2    C4  717   1.968   4.453   9.329  0.1415 -0.1275 -0.3939
   46MPD2    C5  718   2.051   4.352   9.352  0.2276 -0.3544  0.2956
   46MPD2     H  719   2.138   4.707   9.451 -1.0266  1.4048 -2.0477
   46MPD2    H1  720   1.873   4.423   9.286  0.0153  0.7138 -0.7085
   46MPD2    H2  721   2.236   4.291   9.416  0.1827 -0.7378 -3.2357
   46MPD2    H3  722   2.021   4.253   9.321  0.1701  0.0232 -0.8724
   46MPD2     N  723   1.921   4.703   9.317  0.1774 -0.3159 -0.8229
   46MPD2    H5  724   1.952   0.051   9.357 -2.1425  0.7739 -1.4188
   46MPD2    N1  725   2.324   4.527   9.517  0.0535 -0.4889 -0.4456
   46MPD2    H7  726   2.350   4.620   9.549  1.0971 -1.4107  1.4199
   47TMC2    C1  727   4.162   0.666   8.539 -0.1981  0.1836 -0.0448
   47TMC2    C2  728   4.092   0.762   8.459  0.1373  0.3000 -0.0723
   47TMC2    C3  729   3.964   0.742   8.426  0.0533 -0.2614  0.0963
   47TMC2    C4  730   4.097   0.551   8.582 -0.4734  0.1657  0.2590
   47TMC2    C5  731   3.972   0.531   8.542 -0.0975 -0.5993  0.3964
   47TMC2    C6  732   3.901   0.625   8.464 -0.7040 -0.5560  0.9348
   47TMC2     C  733   4.290   0.696   8.599 -1.0624 -0.5567  0.4611
   47TMC2     O  734   4.359   0.782   8.545 -0.0476 -0.0152 -0.5138
   47TMC2     H  735   4.136   0.860   8.440  1.8271 -0.7301 -1.4535
   47TMC2    H1  736   4.150   0.480   8.644 -0.7449 -1.1766 -1.0446
   47TMC2    H2  737   3.800   0.602   8.431 -1.5884  2.0540  1.8668
   47TMC2    C7  738   3.888   0.453   8.634 -0.2816  0.0379  0.6307
   47TMC2    C8  739   3.888   0.838   8.355  0.2149 -0.1993 -0.4276
   47TMC2    O1  740   3.937   0.426   8.744  0.0320 -0.8335  0.1285
   47TMC2    O2  741   3.769   0.817   8.346 -0.2652 -0.1227  0.0035
   47TMC2    O5  742   3.962   0.891   8.260  0.3490  0.4205 -0.0580
   47TMC2    H5  743   4.058   0.872   8.268  0.0778 -0.9945 -0.2878
   48MPD2     C  744   4.551   0.685   8.744 -0.1650  0.0897  0.2622
   48MPD2    C1  745   4.435   0.627   8.785 -0.8393  0.3952 -0.1777
   48MPD2    C2  746   4.441   0.558   8.901 -0.2169 -0.5599 -0.3684
   48MPD2    C3  747   4.557   0.553   8.976  0.5142  0.0122 -0.1345
   48MPD2    C4  748   4.668   0.625   8.937 -0.3346 -0.4222  0.1158
   48MPD2    C5  749   4.661   0.686   8.815  0.6049 -0.2206 -0.4591
   48MPD2     H  750   4.351   0.503   8.925 -0.2451 -0.3920 -0.0840
   48MPD2    H1  751   0.026   0.615   8.982 -0.4581  0.3107  0.5462
   48MPD2    H2  752   4.564   0.739   8.652 -0.6909 -0.9092 -0.3995
   48MPD2    H3  753   0.003   0.742   8.771  3.4592 -3.4079  0.7677
   48MPD2     N  754   4.560   0.463   9.085  0.1894 -0.7454 -0.0053
   48MPD2    H5  755   4.476   0.405   9.089 -0.2193 -0.0010  1.8656
   48MPD2    N1  756   4.312   0.628   8.717 -0.1385 -0.3062 -0.5956
   48MPD2    H7  757   4.236   0.578   8.761  0.8432 -0.3207  1.0745
   49TMC2    C1  758   2.754   2.278  10.194  0.2668  0.1256  0.2899
   49TMC2    C2  759   2.739   2.223  10.069  0.3794 -0.3567  0.7932
   49TMC2    C3  760   2.661   2.112  10.061  0.0865 -0.4029 -0.8432
   49TMC2    C4  761   2.701   2.224  10.305  0.3267  0.1505 -0.5668
   49TMC2    C5  762   2.617   2.117  10.286 -0.3397  0.3692  0.0288
   49TMC2    C6  763   2.590   2.061  10.168  0.0093  0.5160  0.4301
   49TMC2     C  764   2.839   2.392  10.201  0.0128  0.5918  0.5798
   49TMC2     O  765   2.846   2.456  10.100  0.5227 -0.2676  0.0581
   49TMC2     H  766   2.793   2.255   9.980  1.1361  3.5587  2.6321
   49TMC2    H1  767   2.718   2.269  10.402  3.5486 -0.7899 -0.6942
   49TMC2    H2  768   2.512   1.986  10.169 -2.1321  2.7560  0.9823
   49TMC2    C7  769   2.561   2.054  10.399  0.1693 -0.0807  0.6316
   49TMC2    C8  770   2.590   2.078   9.933  0.1641 -0.2374 -0.6057
   49TMC2    O1  771   2.474   1.972  10.384 -0.4879 -0.5177 -0.0229
   49TMC2    O2  772   2.471   2.042   9.923 -0.0573  0.0350 -0.0561
   49TMC2    O5  773   2.688   2.085   9.838 -0.2069 -0.0378 -0.5995
   49TMC2    H5  774   2.778   2.111   9.869 -0.9367  1.1587  0.5300
   50MPD2     C  775   3.019   2.616  10.311 -0.4662  0.6210  0.0664
   50MPD2    C1  776   2.971   2.512  10.384 -0.3995 -0.6498  0.3413
   50MPD2    C2  777   3.001   2.509  10.519 -0.1191 -0.1631 -0.1698
   50MPD2    C3  778   3.063   2.622  10.580  0.2194  0.3073 -0.0964
   50MPD2    C4  779   3.089   2.736  10.505  0.3132  0.5028  0.2899
   50MPD2    C5  780   3.073   2.726  10.374  0.9970 -0.5847 -0.3139
   50MPD2     H  781   2.965   2.422  10.572  0.3554  0.3675  1.0242
   50MPD2    H1  782   3.128   2.827  10.549  1.2631 -1.3048  3.1877
   50MPD2    H2  783   3.004   2.617  10.204 -3.6464  1.4762  0.5096
   50MPD2    H3  784   3.094   2.805  10.303 -1.6967 -0.9504 -1.5318
   50MPD2     N  785   3.096   2.633  10.718 -0.0578  0.6022 -0.1476
   50MPD2    H5  786   3.129   2.725  10.747  0.4617  0.1508  0.6841
   50MPD2    N1  787   2.902   2.398  10.326  0.1137  0.1528  0.2960
   50MPD2    H7  788   2.884   2.316  10.384  0.1302 -0.4565 -0.5508
   51TMC2    C1  789   2.704   2.787   1.304  0.0324 -0.5841  0.4048
   51TMC2    C2  790   2.583   2.830   1.335  0.9508  0.2022 -0.2476
   51TMC2    C3  791   2.527   2.922   1.258  0.4005  0.6105  0.0371
   51TMC2    C4  792   2.784   2.829   1.201  0.2501  0.2565 -0.2547
   51TMC2    C5  793   2.730   2.920   1.123 -0.3251  0.2381 -0.5586
   51TMC2    C6  794   2.599   2.967   1.148 -0.3012  0.2962 -0.2381
   51TMC2     C  795   2.758   2.676   1.377  0.2344  0.2175 -0.2131
   51TMC2     O  796   2.828   2.599   1.313  0.5948 -0.9446  0.3358
   51TMC2     H  797   2.518   2.771   1.399  1.2561  0.7354  0.5478
   51TMC2    H1  798   2.891   2.810   1.198  0.0600 -0.6455 -1.0865
   51TMC2    H2  799   2.561   3.045   1.082 -1.1128  0.4144  0.3618
   51TMC2    C7  800   2.822   2.994   1.036 -0.5949  0.5129  0.5605
   51TMC2    C8  801   2.392   2.968   1.279 -0.0988 -0.4031 -1.2122
   51TMC2    O1  802   2.941   2.995   1.062 -0.2921  0.1378  0.4896
   51TMC2    O2  803   2.333   3.055   1.207 -0.5421 -0.1007  0.4378
   51TMC2    O5  804   2.360   2.936   1.405  0.7410  0.4292 -0.2780
   51TMC2    H5  805   2.426   2.917   1.475 -1.4262  0.2179  1.6782
   52MPD2     C  806   2.810   2.393   1.805  0.5571  0.0965  0.2913
   52MPD2    C1  807   2.874   2.386   1.685 -0.3326 -0.1213 -0.2027
   52MPD2    C2  808   2.840   2.480   1.594  0.4714 -0.2374 -0.3910
   52MPD2    C3  809   2.751   2.584   1.614  0.3595  0.3711 -0.1315
   52MPD2    C4  810   2.712   2.603   1.740  0.3545  0.1656  0.4120
   52MPD2    C5  811   2.736   2.503   1.829  0.5364  0.4985 -0.2433
   52MPD2     H  812   2.887   2.466   1.497 -0.3190 -0.5590 -0.7286
   52MPD2    H1  813   2.645   2.685   1.762  1.7807  1.8279 -1.4250
   52MPD2    H2  814   2.834   2.327   1.888 -0.9127 -0.9664 -0.1309
   52MPD2    H3  815   2.693   2.516   1.928  1.9078 -0.3230  0.4588
   52MPD2     N  816   2.725   2.678   1.509 -0.1401 -0.2025  0.0946
   52MPD2    H5  817   2.657   2.744   1.544  0.1574 -0.1019  0.4851
   52MPD2    N1  818   2.970   2.288   1.656 -0.0484  0.4718  0.4477
   52MPD2    H7  819   3.003   2.288   1.560  0.6309  0.8120  0.6842
   53TMC2    C1  820   3.403   0.121  11.332  0.2030 -0.4101 -0.7139
   53TMC2    C2  821   3.520   0.062  11.311  0.6009  0.6285  0.2060
   53TMC2    C3  822   3.597   0.041  11.429  0.1500 -0.2567  0.4839
   53TMC2    C4  823   3.356   0.166  11.452  0.6504  0.1006 -0.7149
   53TMC2    C5  824   3.432   0.132  11.558 -0.2763  0.1112 -0.2659
   53TMC2    C6  825   3.551   0.066  11.553  0.2818 -0.0600 -0.1833
   53TMC2     C  826   3.322   0.149  11.213  0.8310  0.2481  0.6944
   53TMC2     O  827   3.383   0.173  11.112 -0.2008 -0.5246  0.6998
   53TMC2     H  828   3.554   0.032  11.212 -1.6208 -0.3919 -0.2372
   53TMC2    H1  829   3.256   0.208  11.454  0.3228 -0.6984 -0.1306
   53TMC2    H2  830   3.619   0.055  11.638  0.9153  1.7141 -0.4633
   53TMC2    C7  831   3.361   0.138  11.685  0.3570  0.1044  0.6757
   53TMC2    C8  832   3.734   4.726  11.425  0.6561 -0.4534 -0.6409
   53TMC2    O1  833   3.262   0.211  11.699 -0.2408 -0.8127  0.5823
   53TMC2    O2  834   3.778   4.654  11.514 -0.0542 -0.1323 -0.5571
   53TMC2    O5  835   3.814   0.060  11.342 -0.6437  0.8624  0.1504
   53TMC2    H5  836   3.762   0.113  11.278  0.7606  2.9725  0.7478
   54MPD2     C  837   3.108   0.149  11.009  0.1727 -0.6836  0.2788
   54MPD2    C1  838   3.086   0.132  11.141  0.9084 -0.5060 -0.2712
   54MPD2    C2  839   2.952   0.115  11.186  0.9653  0.2445  0.4572
   54MPD2    C3  840   2.844   0.140  11.104  0.1226 -0.1454 -0.6741
   54MPD2    C4  841   2.865   0.165  10.972 -0.4694 -0.3910  0.7192
   54MPD2    C5  842   2.997   0.159  10.928  0.8903 -0.5452 -0.6739
   54MPD2     H  843   2.938   0.093  11.291 -1.9025 -2.1438 -0.4456
   54MPD2    H1  844   2.784   0.174  10.901  0.4177 -0.5785 -0.3204
   54MPD2    H2  845   3.208   0.148  10.969  0.8739  0.0814  2.0073
   54MPD2    H3  846   3.006   0.154  10.820 -3.4547  0.7774 -1.1065
   54MPD2     N  847   2.713   0.159  11.154 -0.3823 -0.1884  0.2589
   54MPD2    H5  848   2.652   0.222  11.104  0.1864  0.3055  0.1913
   54MPD2    N1  849   3.190   0.125  11.230 -0.1985  0.1582  0.5751
   54MPD2    H7  850   3.167   0.095  11.325  1.6546 -0.5259  0.8192
   55TMC2    C1  851   4.404   3.393  17.491  0.3966 -0.2705  0.1312
   55TMC2    C2  852   4.362   3.361  17.366  0.1912 -0.7153 -0.0382
   55TMC2    C3  853   4.280   3.250  17.349 -0.0806 -0.0497  0.2374
   55TMC2    C4  854   4.372   3.320  17.600 -0.1018 -0.3942  0.2487
   55TMC2    C5  855   4.286   3.210  17.581 -0.5935  0.4088  0.0425
   55TMC2    C6  856   4.250   3.171  17.457  0.3083 -0.1671  0.3614
   55TMC2     C  857   4.450   3.531  17.516  0.5801  0.2498 -0.2036
   55TMC2     O  858   4.450   3.580  17.630  0.4496  0.0211 -0.4438
   55TMC2     H  859   4.391   3.420  17.280 -0.4855 -0.1601  0.1116
   55TMC2    H1  860   4.423   3.339  17.694  0.8423  0.0462 -0.3447
   55TMC2    H2  861   4.182   3.087  17.447  0.6447 -0.4170  0.1727
   55TMC2    C7  862   4.253   3.123  17.696  0.1170  0.1633 -0.3810
   55TMC2    C8  863   4.213   3.213  17.221  0.2883 -0.3939  0.6274
   55TMC2    O1  864   4.226   3.003  17.674  0.0068  0.6099 -0.1235
   55TMC2    O2  865   4.186   3.097  17.186  0.2366 -0.1029 -0.3498
   55TMC2    O5  866   4.196   3.321  17.142 -0.1048  0.1621 -0.4174
   55TMC2    H5  867   4.202   3.402  17.197  0.9137  0.0963 -0.4321
   56MPD2     C  868   4.547   3.796  17.289  0.2048  0.5627 -0.4899
   56MPD2    C1  869   4.480   3.737  17.390  0.1241  0.5180 -0.2942
   56MPD2    C2  870   4.398   3.808  17.469 -0.2078 -0.2247 -0.2899
   56MPD2    C3  871   4.381   3.943  17.447  0.3172 -1.1785 -0.1456
   56MPD2    C4  872   4.455   4.006  17.348  0.7154  0.8074  0.0981
   56MPD2    C5  873   4.544   3.933  17.274  0.4707  0.0956 -0.0649
   56MPD2     H  874   4.340   3.765  17.549  0.0577 -0.1268 -0.0472
   56MPD2    H1  875   4.457   4.115  17.342 -1.0033  0.7395 -1.9243
   56MPD2    H2  876   4.607   3.735  17.222 -0.6550 -0.7143 -0.0996
   56MPD2    H3  877   4.608   3.970  17.194 -0.8745 -0.5516 -1.4394
   56MPD2     N  878   4.303   4.007  17.545  0.0568 -0.3442  0.2439
   56MPD2    H5  879   4.253   3.952  17.614  2.4146  0.8923  2.9790
   56MPD2    N1  880   4.488   3.595  17.395  0.2830 -0.4217  0.0309
   56MPD2    H7  881   4.529   3.536  17.324  4.2656  1.4030  0.7790
   57TMC2    C1  882   3.405   3.492  13.637 -0.1775 -0.5898 -0.1106
   57TMC2    C2  883   3.383   3.356  13.649  0.8003  0.2736 -0.0543
   57TMC2    C3  884   3.501   3.278  13.640 -0.0464  0.3116  0.3970
   57TMC2    C4  885   3.534   3.539  13.597  0.3593 -0.6505 -0.1231
   57TMC2    C5  886   3.643   3.457  13.595 -0.1325 -0.4806 -0.5527
   57TMC2    C6  887   3.627   3.324  13.606 -0.0675  0.4606 -0.1479
   57TMC2     C  888   3.289   3.575  13.603  0.0263  0.0536 -0.1582
   57TMC2     O  889   3.196   3.514  13.555 -0.4203 -0.1187  0.6245
   57TMC2     H  890   3.283   3.319  13.672  0.9351  0.8780  1.5008
   57TMC2    H1  891   3.552   3.645  13.589  0.0508 -0.6841 -1.2490
   57TMC2    H2  892   3.714   3.261  13.620 -1.3110 -1.2897 -0.2761
   57TMC2    C7  893   3.778   3.510  13.578  0.3081 -0.5335 -0.8410
   57TMC2    C8  894   3.479   3.132  13.612 -0.3365  0.3883  0.2039
   57TMC2    O1  895   3.786   3.631  13.576  0.4895 -0.1786  0.2098
   57TMC2    O2  896   3.579   3.069  13.580 -0.0315  0.3628  0.2163
   57TMC2    O5  897   3.366   3.128  13.542  0.4235  0.1028 -0.2215
   57TMC2    H5  898   3.300   3.193  13.574 -0.5386 -0.2290 -1.5190
   58MPD2     C  899   3.055   4.034  13.545 -0.2453 -0.6363  0.6042
   58MPD2    C1  900   3.029   3.915  13.490  0.3796 -0.0026  0.5120
   58MPD2    C2  901   3.109   3.801  13.514 -0.1751  0.4577 -0.0303
   58MPD2    C3  902   3.217   3.811  13.604  0.2223  0.4878  0.7401
   58MPD2    C4  903   3.238   3.931  13.670 -0.3496 -0.0448 -0.2482
   58MPD2    C5  904   3.161   4.036  13.634  0.3590 -0.3107  0.3395
   58MPD2     H  905   3.086   3.703  13.474 -0.2258 -0.1834  1.5312
   58MPD2    H1  906   3.307   3.944  13.753 -0.9694 -1.1126  0.4379
   58MPD2    H2  907   2.987   4.119  13.539  0.9950  0.2140 -1.5024
   58MPD2    H3  908   3.168   4.125  13.696 -0.0768 -0.7853  1.0675
   58MPD2     N  909   3.309   3.707  13.635  1.0056 -0.1452  0.1983
   58MPD2    H5  910   3.385   3.723  13.700  1.3944  0.4750 -0.4205
   58MPD2    N1  911   2.919   3.904  13.402 -0.2172  0.2021 -0.1254
   58MPD2    H7  912   2.888   3.811  13.376 -1.1750 -0.1663  2.3075
   59TMC2    C1  913   1.154   3.793  12.727  0.7235 -0.3895 -0.4220
   59TMC2    C2  914   1.139   3.660  12.684  0.1537 -0.2215  0.1722
   59TMC2    C3  915   1.104   3.649  12.549  0.2647  0.3343 -1.3119
   59TMC2    C4  916   1.136   3.905  12.648  0.1547  0.2715  0.4894
   59TMC2    C5  917   1.088   3.884  12.528  0.6169 -0.1859  0.2339
   59TMC2    C6  918   1.071   3.759  12.479  0.0234 -0.1572 -0.7890
   59TMC2     C  919   1.198   3.807  12.867 -0.1734 -0.6234 -0.2836
   59TMC2     O  920   1.217   3.698  12.924 -0.2931 -0.0720 -0.0163
   59TMC2     H  921   1.139   3.578  12.755  1.8940 -0.8336 -0.5308
   59TMC2    H1  922   1.142   4.006  12.687 -1.3672 -0.4400  2.5774
   59TMC2    H2  923   1.032   3.750  12.378  1.1299  0.6056 -1.2795
   59TMC2    C7  924   1.177   3.945  12.434 -0.7692 -0.1683 -0.0188
   59TMC2    C8  925   1.150   3.536  12.472 -0.3476 -0.3033 -0.0291
   59TMC2    O1  926   1.262   3.870  12.388  0.1891  0.0951 -0.4865
   59TMC2    O2  927   1.086   3.494  12.382  0.1162  0.4981  0.4386
   59TMC2    O5  928   1.269   3.496  12.521 -0.0113 -0.4089  0.0627
   59TMC2    H5  929   1.323   3.566  12.564  1.4075 -0.4302 -1.6829
   60MPD2     C  930   1.247   3.894  13.144 -0.3555  0.3724 -0.1249
   60MPD2    C1  931   1.246   3.972  13.038  0.8031 -0.2113 -0.2196
   60MPD2    C2  932   1.264   4.112  13.057 -0.3201 -0.1659  0.6548
   60MPD2    C3  933   1.307   4.155  13.184  0.0085  0.3274 -0.2129
   60MPD2    C4  934   1.314   4.071  13.286  0.7543  0.2302 -0.5385
   60MPD2    C5  935   1.274   3.941  13.270 -0.0476 -1.0612 -0.1311
   60MPD2     H  936   1.254   4.184  12.976  0.5361 -0.5416  0.2140
   60MPD2    H1  937   1.347   4.106  13.383  0.8600  2.1085 -1.2566
   60MPD2    H2  938   1.205   3.794  13.139 -1.6886  1.0440 -2.1954
   60MPD2    H3  939   1.278   3.870  13.351  1.4089 -0.8010  0.0267
   60MPD2     N  940   1.354   4.289  13.214 -0.3672  1.0647 -0.5665
   60MPD2    H5  941   1.381   4.310  13.310 -2.7197  0.7860  0.1554
   60MPD2    N1  942   1.217   3.938  12.905 -0.1047  0.2265 -0.5102
   60MPD2    H7  943   1.209   4.012  12.836 -1.2667  1.2553  0.7004
   61TMC2    C1  944   0.534   1.062  16.172  0.0594 -0.1251 -0.2061
   61TMC2    C2  945   0.533   1.112  16.297  0.4632 -0.1578 -0.5087
   61TMC2    C3  946   0.477   1.239  16.318  1.0220 -0.1016 -0.5452
   61TMC2    C4  947   0.485   1.132  16.067 -0.1436  0.7727 -0.1980
   61TMC2    C5  948   0.433   1.259  16.089 -0.2650  0.2377  0.6260
   61TMC2    C6  949   0.427   1.313  16.216  0.0829 -0.1385  0.0620
   61TMC2     C  950   0.582   0.918  16.160 -0.3128 -0.0358 -0.3730
   61TMC2     O  951   0.575   0.849  16.261  0.0108  0.3822 -0.2283
   61TMC2     H  952   0.574   1.047  16.373 -0.8189  0.7824  0.9852
   61TMC2    H1  953   0.509   1.092  15.969 -0.8123  0.1887 -0.1258
   61TMC2    H2  954   0.394   1.414  16.238  0.0851  0.5995 -3.2394
   61TMC2    C7  955   0.414   1.339  15.971  0.9718 -0.7085  0.4279
   61TMC2    C8  956   0.537   1.320  16.422  0.0081  0.3309 -0.4629
   61TMC2    O1  957   0.446   1.296  15.861  0.2831 -0.8105  0.5667
   61TMC2    O2  958   0.548   1.442  16.423 -0.2766  0.8022 -0.3713
   61TMC2    O5  959   0.550   1.239  16.525 -0.4091 -0.0980 -0.1197
   61TMC2    H5  960   0.510   1.150  16.513  0.9163 -1.2344  3.6870
   62MPD2     C  961   0.633   0.636  16.070  0.1329  0.3735 -0.3476
   62MPD2    C1  962   0.668   0.746  15.999  0.3951 -0.0813  0.2963
   62MPD2    C2  963   0.750   0.732  15.887  0.9075 -0.1487  0.7990
   62MPD2    C3  964   0.797   0.604  15.844 -0.1298  0.6594  0.1079
   62MPD2    C4  965   0.756   0.497  15.924 -0.1544  0.0061  1.0244
   62MPD2    C5  966   0.663   0.506  16.023 -0.8046 -0.2808 -0.4180
   62MPD2     H  967   0.786   0.822  15.838 -0.1344 -0.9446 -1.3715
   62MPD2    H1  968   0.786   0.396  15.899  0.5636 -0.0419  2.0507
   62MPD2    H2  969   0.570   0.635  16.159 -1.3916  0.3463 -1.4155
   62MPD2    H3  970   0.622   0.418  16.071 -1.2383  0.7812  1.1607
   62MPD2     N  971   0.881   0.586  15.735 -0.1172 -0.1506 -0.0029
   62MPD2    H5  972   0.912   0.492  15.712  0.9752  0.5234 -1.3423
   62MPD2    N1  973   0.627   0.876  16.032  0.3403  0.5619  1.0853
   62MPD2    H7  974   0.645   0.944  15.959  0.5810  0.9498  1.5028
   63TMC2    C1  975   4.552   1.237  10.462  0.1689 -0.3721 -0.0818
   63TMC2    C2  976   4.473   1.335  10.509 -0.7953  0.0063 -0.4639
   63TMC2    C3  977   4.536   1.427  10.584 -0.3310 -0.2877  0.2109
   63TMC2    C4  978   4.687   1.230  10.490 -0.0460 -0.2822  0.0965
   63TMC2    C5  979   0.006   1.326  10.564  0.0938  0.2629 -0.0148
   63TMC2    C6  980   4.669   1.431  10.615  0.7578 -0.6167 -0.5493
   63TMC2     C  981   4.502   1.155  10.355 -0.5913  0.0431 -0.3280
   63TMC2     O  982   4.417   1.212  10.288 -0.4207  0.1809 -0.2843
   63TMC2     H  983   4.373   1.338  10.466 -1.9527  2.0727  2.3519
   63TMC2    H1  984   0.007   1.155  10.440 -1.1948  0.2983 -2.1270
   63TMC2    H2  985   4.721   1.515  10.661  0.1108 -0.2567 -0.4760
   63TMC2    C7  986   0.148   1.332  10.530  0.3182 -0.1849 -0.3516
   63TMC2    C8  987   4.476   1.556  10.590 -0.0818 -0.0219 -0.0094
   63TMC2    O1  988   0.180   1.269  10.430  0.3360  0.4588  0.2104
   63TMC2    O2  989   4.538   1.658  10.580 -0.4072 -0.0064 -0.1214
   63TMC2    O5  990   4.343   1.552  10.583 -0.0507 -0.4987  0.0426
   63TMC2    H5  991   4.295   1.470  10.609 -1.0689  0.4888  1.2442
   64MPD2     C  992   4.398   0.719  10.110 -0.0545 -0.1309  0.0019
   64MPD2    C1  993   4.492   0.687  10.211 -0.8645 -0.2740  0.0255
   64MPD2    C2  994   4.546   0.793  10.286 -0.0125 -0.1551 -0.2069
   64MPD2    C3  995   4.506   0.925  10.270  0.1558 -0.4563 -0.5886
   64MPD2    C4  996   4.406   0.946  10.173 -0.6886 -0.8014  0.6713
   64MPD2    C5  997   4.357   0.846  10.090  0.1524  0.2212  0.7667
   64MPD2     H  998   4.614   0.772  10.367 -0.5646  3.4637  1.1885
   64MPD2    H1  999   4.377   1.045  10.139  0.2578 -1.3531 -1.7300
   64MPD2    H2 1000   4.355   0.654  10.035 -0.2037 -0.8828  0.7366
   64MPD2    H3 1001   4.294   0.873  10.005  0.0584  1.0018  1.0830
   64MPD2     N 1002   4.549   1.029  10.357 -0.8488 -0.6316  0.5746
   64MPD2    H5 1003   4.618   1.009  10.429  1.2456  0.1858 -1.1929
   64MPD2    N1 1004   4.521   0.550  10.240 -0.7583  0.6959  0.1249
   64MPD2    H7 1005   4.589   0.527  10.311  0.8174 -0.4288 -1.7453
   65TMC2    C1 1006   1.324   0.168  15.269 -0.0462  0.3983 -0.5989
   65TMC2    C2 1007   1.401   0.138  15.161 -0.1631  0.0856  0.6572
   65TMC2    C3 1008   1.494   0.236  15.117  0.0648 -0.5288  0.4734
   65TMC2    C4 1009   1.340   0.278  15.348  1.0136  0.2374 -0.1904
   65TMC2    C5 1010   1.423   0.371  15.299  0.4994  0.1755 -0.2003
   65TMC2    C6 1011   1.496   0.358  15.184  0.7995 -0.8111  0.4322
   65TMC2     C 1012   1.259   0.060  15.316 -0.4595  0.0685  0.3196
   65TMC2     O 1013   1.228   4.709  15.240  0.1541 -0.2497 -0.0647
   65TMC2     H 1014   1.401   0.035  15.126 -1.2468 -0.2858  1.7600
   65TMC2    H1 1015   1.270   0.311  15.424 -1.2310 -3.5973 -0.5571
   65TMC2    H2 1016   1.567   0.433  15.151  0.9750 -0.2625  2.0645
   65TMC2    C7 1017   1.433   0.499  15.369  0.8903  0.4342 -0.0720
   65TMC2    C8 1018   1.624   0.183  15.084 -0.1687  0.4997 -1.1948
   65TMC2    O1 1019   1.441   0.592  15.291  0.0476  0.5917 -0.0608
   65TMC2    O2 1020   1.670   0.085  15.144  0.2245 -0.0216 -0.1082
   65TMC2    O5 1021   1.694   0.290  15.047 -0.0853  0.2173  0.3512
   65TMC2    H5 1022   1.637   0.354  15.000  1.9513  0.3831 -1.8634
   66MPD2     C 1023   1.196   4.732  15.678  0.4916 -0.6034 -0.2784
   66MPD2    C1 1024   1.180   4.726  15.542  0.1067  0.3053 -0.0925
   66MPD2    C2 1025   1.100   4.625  15.492  0.1530  0.7037 -0.0916
   66MPD2    C3 1026   1.040   4.527  15.571  0.0504  0.2943 -0.5672
   66MPD2    C4 1027   1.063   4.527  15.707  0.0251  0.8854  0.3559
   66MPD2    C5 1028   1.144   4.629  15.761 -0.3456  0.0921  0.4017
   66MPD2     H 1029   1.077   4.617  15.387 -1.0511  3.4465 -0.0495
   66MPD2    H1 1030   1.028   4.446  15.769  0.0879 -0.1176 -0.9355
   66MPD2    H2 1031   1.253   0.071  15.725 -1.5996  1.0727 -0.5985
   66MPD2    H3 1032   1.168   4.642  15.866  0.0394  1.0483  0.1937
   66MPD2     N 1033   0.953   4.430  15.511  0.8713  0.0210  0.5334
   66MPD2    H5 1034   0.912   4.368  15.581 -0.2376 -0.3726 -0.4524
   66MPD2    N1 1035   1.256   0.066  15.455 -0.1541 -0.1348 -0.1508
   66MPD2    H7 1036   1.303   0.146  15.496  0.1611  0.2556 -1.2757
   67TMC2    C1 1037   1.149   4.429  14.205  0.0414 -0.6069 -0.1949
   67TMC2    C2 1038   1.126   4.566  14.230 -0.0265 -0.0599  0.2950
   67TMC2    C3 1039   1.150   4.601  14.358  0.6893 -0.0789 -0.0616
   67TMC2    C4 1040   1.211   4.343  14.294  0.2144 -0.6689 -0.2013
   67TMC2    C5 1041   1.236   4.386  14.413 -0.0340  0.4803 -0.2058
   67TMC2    C6 1042   1.207   4.518  14.446 -0.1625  0.3758  0.0345
   67TMC2     C 1043   1.107   4.366  14.077 -0.5247  0.3674 -0.1723
   67TMC2     O 1044   1.157   4.260  14.038 -0.0411 -0.6688  0.2879
   67TMC2     H 1045   1.079   4.637  14.163 -0.1934 -1.1553 -0.7295
   67TMC2    H1 1046   1.234   4.240  14.267 -1.4522 -1.4522  1.3790
   67TMC2    H2 1047   1.244   4.575  14.530 -0.6834 -0.9702  1.1696
   67TMC2    C7 1048   1.341   4.311  14.481  0.2785  0.1092  0.3119
   67TMC2    C8 1049   1.146   0.003  14.396 -0.2701  0.0875  0.0420
   67TMC2    O1 1050   1.398   4.220  14.417  0.1091 -0.4223 -0.2973
   67TMC2    O2 1051   1.230   0.050  14.471 -0.6697 -0.1115 -0.2966
   67TMC2    O5 1052   1.070   0.067  14.310 -0.3377 -0.6952  0.0109
   67TMC2    H5 1053   1.012   0.017  14.248  0.5779  0.5071 -1.8202
   68MPD2     C 1054   0.953   4.309  13.820  0.7185 -0.2454 -0.1494
   68MPD2    C1 1055   0.914   4.398  13.918 -0.2030  0.1762  0.0546
   68MPD2    C2 1056   0.788   4.449  13.919  0.3981  0.5524  0.5536
   68MPD2    C3 1057   0.698   4.431  13.811 -0.5018 -0.0462 -0.2242
   68MPD2    C4 1058   0.747   4.352  13.706 -0.6287  1.2572  0.3284
   68MPD2    C5 1059   0.870   4.289  13.713  0.4753 -0.4651 -0.3276
   68MPD2     H 1060   0.757   4.503  14.008  1.7646 -0.1059  1.4283
   68MPD2    H1 1061   0.678   4.320  13.629  1.8135 -0.9115 -0.9484
   68MPD2    H2 1062   1.037   4.241  13.825  0.7722 -0.3179 -2.2369
   68MPD2    H3 1063   0.889   4.212  13.639 -1.1351 -1.9287  0.7656
   68MPD2     N 1064   0.563   4.483  13.817 -0.0597 -0.2144  0.1421
   68MPD2    H5 1065   0.519   4.478  13.726 -1.6256  1.0448  0.8253
   68MPD2    N1 1066   0.992   4.424  14.028  0.1231  0.8561 -0.0158
   68MPD2    H7 1067   0.951   4.496  14.087  0.5007 -0.3623  1.7397
   69TMC2    C1 1068   3.591   0.149  12.182 -0.1963  0.0613  0.3269
   69TMC2    C2 1069   3.488   0.230  12.234 -0.4444 -0.0591 -0.4377
   69TMC2    C3 1070   3.459   0.347  12.159  0.5915  0.4410 -0.1358
   69TMC2    C4 1071   3.658   0.177  12.065 -0.7320 -0.4096 -0.7500
   69TMC2    C5 1072   3.632   0.297  12.010  0.2732  0.5515  0.2591
   69TMC2    C6 1073   3.529   0.384  12.044 -0.0065  0.1505  0.0043
   69TMC2     C 1074   3.596   0.006  12.222 -0.7352 -0.8201  0.0969
   69TMC2     O 1075   3.650   4.668  12.144  0.6030  0.1050  0.3490
   69TMC2     H 1076   3.426   0.209  12.321  0.7751  0.6114  0.5996
   69TMC2    H1 1077   3.731   0.111  12.018  0.1110 -0.1218  0.1600
   69TMC2    H2 1078   3.521   0.481  11.998 -0.6191 -1.1093 -2.5135
   69TMC2    C7 1079   3.691   0.310  11.878  0.4470 -0.0919 -0.2248
   69TMC2    C8 1080   3.363   0.438  12.214  0.2383 -0.2059  0.4175
   69TMC2    O1 1081   3.780   0.230  11.838  0.0169 -0.3910  0.1573
   69TMC2    O2 1082   3.310   0.417  12.323  0.0794 -0.2934  0.1427
   69TMC2    O5 1083   3.298   0.504  12.113 -0.4720  0.9369 -0.0129
   69TMC2    H5 1084   3.322   0.477  12.022  3.2120 -1.4182  1.6532
   70MPD2     C 1085   3.540   4.458  12.311  0.1521  0.3949 -0.0636
   70MPD2    C1 1086   3.497   4.580  12.382  0.0903 -0.1232 -0.1043
   70MPD2    C2 1087   3.432   4.566  12.506  0.3273  0.1510 -0.3081
   70MPD2    C3 1088   3.412   4.436  12.553  0.3072  0.1651 -0.3775
   70MPD2    C4 1089   3.457   4.321  12.483  1.1533 -0.2679 -0.3096
   70MPD2    C5 1090   3.520   4.328  12.363 -0.5798  0.7727 -0.0202
   70MPD2     H 1091   3.395   4.653  12.560  0.4948  1.3870 -2.2050
   70MPD2    H1 1092   3.447   4.220  12.520 -0.0122 -0.2567 -0.5858
   70MPD2    H2 1093   3.586   4.458  12.212 -2.0996  3.3844 -1.1062
   70MPD2    H3 1094   3.542   4.237  12.308 -0.7498 -0.0178  1.2078
   70MPD2     N 1095   3.379   4.410  12.689  0.0771  0.0883 -0.2393
   70MPD2    H5 1096   3.410   4.327  12.739 -0.1223  0.7862  1.0523
   70MPD2    N1 1097   3.528   4.716  12.337 -0.2760  0.6127 -0.3199
   70MPD2    H7 1098   3.501   0.050  12.401 -2.4066 -0.6987  0.2918
   71TMC2    C1 1099   4.563   0.833   1.818  0.0127  0.3464 -0.1262
   71TMC2    C2 1100   4.659   0.795   1.911  0.0721 -0.2399 -0.0013
   71TMC2    C3 1101   4.637   0.815   2.048 -0.1267 -0.2757 -0.2584
   71TMC2    C4 1102   4.448   0.889   1.866  0.0679  0.6664  0.3111
   71TMC2    C5 1103   4.428   0.907   2.002 -0.2284  0.0732 -0.5473
   71TMC2    C6 1104   4.519   0.863   2.094 -0.2085  0.3913 -0.7769
   71TMC2     C 1105   4.559   0.769   1.686 -0.9159 -0.9776 -0.1873
   71TMC2     O 1106   4.457   0.718   1.647 -0.1300 -0.1259  0.1357
   71TMC2     H 1107   0.008   0.737   1.890 -0.4710 -0.8728 -0.5491
   71TMC2    H1 1108   4.372   0.901   1.791  0.8947 -0.9444 -0.7852
   71TMC2    H2 1109   4.504   0.881   2.199 -0.2824  1.0446 -0.9006
   71TMC2    C7 1110   4.309   0.978   2.052 -0.1164 -0.3508  0.6778
   71TMC2    C8 1111   0.011   0.827   2.139  0.0378 -0.1860  0.9350
   71TMC2    O1 1112   4.280   0.969   2.168 -0.1774 -0.3673 -0.1342
   71TMC2    O2 1113   0.002   0.909   2.229  0.6533  0.0034  0.2400
   71TMC2    O5 1114   0.072   0.707   2.144  0.0498  0.2570 -0.1004
   71TMC2    H5 1115   0.027   0.636   2.093 -1.4569  0.8433  0.4352
   72MPD2     C 1116   0.024   0.665   1.223 -0.6819 -0.9036  0.6739
   72MPD2    C1 1117   0.120   0.730   1.303  0.3850  0.4169 -0.4499
   72MPD2    C2 1118   0.094   0.759   1.438  0.5310 -0.6565  0.0924
   72MPD2    C3 1119   4.715   0.724   1.499 -0.6537  0.5428  0.6059
   72MPD2    C4 1120   4.621   0.658   1.416  1.1076  0.0997 -0.1334
   72MPD2    C5 1121   4.649   0.624   1.283  0.2400 -0.5947 -0.2817
   72MPD2     H 1122   0.173   0.815   1.487 -1.0434 -0.1446  2.0912
   72MPD2    H1 1123   4.524   0.626   1.453  0.4809  2.3478  0.1890
   72MPD2    H2 1124   0.022   0.656   1.115 -0.8023 -4.3111  0.9380
   72MPD2    H3 1125   4.578   0.573   1.218 -0.2207  1.1183 -1.1319
   72MPD2     N 1126   4.685   0.763   1.633  0.0445 -0.4868  0.3680
   72MPD2    H5 1127   0.021   0.809   1.683 -0.1492  0.4926 -0.2318
   72MPD2    N1 1128   0.244   0.781   1.243  0.3634  0.8089  0.2346
   72MPD2    H7 1129   0.265   0.766   1.144 -2.2836 -0.6895 -0.0910
   73TMC2    C1 1130   0.341   2.928  13.852 -0.5397 -0.4959  0.6435
   73TMC2    C2 1131   0.293   2.968  13.973 -0.1807 -0.0061 -0.1002
   73TMC2    C3 1132   0.294   2.877  14.075 -0.2601 -0.2004  0.1145
   73TMC2    C4 1133   0.382   2.795  13.832 -0.1596 -0.4193  0.1297
   73TMC2    C5 1134   0.413   2.726  13.945 -1.0901  0.5276 -0.0567
   73TMC2    C6 1135   0.364   2.760  14.068  0.8340  0.0657 -0.2750
   73TMC2     C 1136   0.390   3.021  13.754  0.2888 -0.2287 -0.4895
   73TMC2     O 1137   0.475   2.967  13.686 -0.0658  0.5211  0.0160
   73TMC2     H 1138   0.252   3.067  13.989  0.4777 -0.0352  1.7475
   73TMC2    H1 1139   0.418   2.751  13.740  2.0591  1.1629  0.2510
   73TMC2    H2 1140   0.380   2.710  14.162  0.2549 -0.0652 -0.2440
   73TMC2    C7 1141   0.553   2.696  13.939 -0.3567 -0.8220 -0.7553
   73TMC2    C8 1142   0.231   2.912  14.194  0.6905  0.1855 -0.8724
   73TMC2    O1 1143   0.597   2.627  14.029  0.2973  0.2963 -0.0750
   73TMC2    O2 1144   0.181   2.837  14.277  0.1305  0.1475  0.0123
   73TMC2    O5 1145   0.261   3.040  14.226 -0.0845  0.1076 -0.2102
   73TMC2    H5 1146   0.334   3.078  14.172  1.0466  0.6626  1.7129
   74MPD2     C 1147   0.513   3.461  13.534  0.1554  0.3834 -0.2604
   74MPD2    C1 1148   0.590   3.349  13.556 -0.8002  0.1866  0.2874
   74MPD2    C2 1149   0.533   3.250  13.635  0.0557 -0.6727  0.3037
   74MPD2    C3 1150   0.403   3.260  13.687  0.0439 -0.1724 -0.7246
   74MPD2    C4 1151   0.336   3.384  13.673 -0.2284  0.4066  0.4689
   74MPD2    C5 1152   0.392   3.482  13.593 -0.1776 -0.2150 -0.0825
   74MPD2     H 1153   0.594   3.165  13.662  0.1406 -0.2413  1.4986
   74MPD2    H1 1154   0.241   3.399  13.723  0.0863  1.8036  0.6385
   74MPD2    H2 1155   0.559   3.546  13.484  0.3165  0.9261  0.8041
   74MPD2    H3 1156   0.336   3.573  13.573 -0.8438 -0.3160  1.3476
   74MPD2     N 1157   0.341   3.153  13.762  0.1235  0.5477 -0.2012
   74MPD2    H5 1158   0.253   3.177  13.807 -0.1183 -0.8009  0.0427
   74MPD2    N1 1159   0.725   3.351  13.510 -0.2975 -0.3497 -0.0904
   74MPD2    H7 1160   0.740   3.433  13.452 -0.6818 -0.4220 -0.2918
   75TMC2    C1 1161   0.374   4.606  13.905 -0.5538 -0.3709 -0.2477
   75TMC2    C2 1162   0.349   4.728  13.959 -0.3616 -0.0116 -0.8672
   75TMC2    C3 1163   0.244   0.050  13.902 -0.1344 -0.1964 -0.2001
   75TMC2    C4 1164   0.306   4.550  13.799  0.2719 -0.2483 -0.5352
   75TMC2    C5 1165   0.209   4.625  13.751  0.5909 -0.4651  0.4009
   75TMC2    C6 1166   0.173   0.009  13.790  0.1480 -0.3013 -0.1667
   75TMC2     C 1167   0.510   4.552  13.924 -0.7091 -0.0405 -0.2778
   75TMC2     O 1168   0.560   4.583  14.030 -0.1453 -0.6414  0.2434
   75TMC2     H 1169   0.422   0.029  14.027 -0.7595 -1.4108  0.4006
   75TMC2    H1 1170   0.330   4.453  13.759 -1.0165 -0.7617 -0.0503
   75TMC2    H2 1171   0.091   0.067  13.749  1.3563  2.4541  1.2927
   75TMC2    C7 1172   0.152   4.577  13.628  0.1689 -0.3430 -0.2026
   75TMC2    C8 1173   0.221   0.200  13.915  0.5780 -0.0007  0.3039
   75TMC2    O1 1174   0.136   4.457  13.622 -0.2589 -0.3625  0.4758
   75TMC2    O2 1175   0.172   0.268  13.831  0.4222 -0.0620  0.6863
   75TMC2    O5 1176   0.297   0.249  14.016 -0.0870 -0.0323  0.1868
   75TMC2    H5 1177   0.281   0.191  14.093  0.4102 -1.7428 -0.9722
   76TMC2    C1 1178   4.519   4.549  11.815 -0.3035 -0.7693  0.4369
   76TMC2    C2 1179   4.458   4.449  11.750  0.0849  0.2712  0.9073
   76TMC2    C3 1180   4.460   4.324  11.810 -0.0060 -0.3955 -0.9745
   76TMC2    C4 1181   4.561   4.542  11.947 -0.4804  0.6567  0.3406
   76TMC2    C5 1182   4.568   4.409  11.995  0.0401  0.0354  0.0539
   76TMC2    C6 1183   4.521   4.303  11.925 -0.6197 -0.5401  0.1283
   76TMC2     C 1184   4.512   4.679  11.754  0.5804  0.1292 -0.4045
   76TMC2     O 1185   4.421   4.693  11.670 -0.4488 -0.8054 -0.2765
   76TMC2     H 1186   4.416   4.453  11.650 -1.9363  2.1266  1.8482
   76TMC2    H1 1187   4.603   4.625  12.002  2.2444 -0.3202 -0.3099
   76TMC2    H2 1188   4.513   4.204  11.968  1.2160 -0.6509  0.2191
   76TMC2    C7 1189   4.587   4.382  12.133  0.5921 -0.3618  0.7382
   76TMC2    C8 1190   4.382   4.216  11.764 -0.3295 -0.3060  0.1261
   76TMC2    O1 1191   4.593   4.265  12.172  0.1301 -0.0993 -0.1411
   76TMC2    O2 1192   4.427   4.100  11.753 -0.3362 -0.1987 -0.6491
   76TMC2    O5 1193   4.268   4.253  11.705 -1.0036 -0.0649  0.2057
   76TMC2    H5 1194   4.238   4.341  11.736 -1.4671 -0.7675  1.7077
   77MPD2     C 1195   4.706   0.387  11.595 -0.1722 -0.0737 -0.2825
   77MPD2    C1 1196   4.585   0.321  11.577 -0.1492 -0.2267 -0.2590
   77MPD2    C2 1197   4.554   0.205  11.645  0.0923  0.3498 -0.4018
   77MPD2    C3 1198   4.647   0.147  11.734  0.1659 -0.0849 -0.6806
   77MPD2    C4 1199   0.023   0.215  11.756 -0.2141 -0.3329 -0.2664
   77MPD2    C5 1200   0.056   0.324  11.684 -0.2528  0.6012  0.8575
   77MPD2     H 1201   4.458   0.163  11.619 -0.1153  0.6178 -0.0583
   77MPD2    H1 1202   0.091   0.179  11.833 -1.0035  0.0573  0.6162
   77MPD2    H2 1203   4.736   0.479  11.547  1.7915  1.0532  3.1114
   77MPD2    H3 1204   0.155   0.365  11.703  0.4908 -0.6490 -0.2051
   77MPD2     N 1205   4.621   0.018  11.789 -0.6401 -0.1922  0.3982
   77MPD2    H5 1206   4.679   0.003  11.871  2.7015 -0.8165 -2.0883
   77MPD2    N1 1207   4.484   0.373  11.494 -0.6343 -0.0783 -0.1230
   77MPD2    H7 1208   4.398   0.321  11.479 -2.0846  2.9090 -2.0919
   78TMC2    C1 1209   1.202   0.860   1.431  1.1126  0.2090 -0.4623
   78TMC2    C2 1210   1.187   0.773   1.326  1.0844 -0.3609 -0.0488
   78TMC2    C3 1211   1.287   0.771   1.241  0.5086 -0.0817 -0.0396
   78TMC2    C4 1212   1.298   0.952   1.440 -0.5219 -0.5325  0.0543
   78TMC2    C5 1213   1.383   0.951   1.341  0.0078  0.3106 -0.0989
   78TMC2    C6 1214   1.390   0.865   1.241 -0.1990  0.0603 -0.4623
   78TMC2     C 1215   1.136   0.820   1.552  0.5986 -0.3104  0.2530
   78TMC2     O 1216   1.104   0.909   1.630  0.0457 -0.1848  0.5876
   78TMC2     H 1217   1.096   0.716   1.308  0.8812  0.2549 -0.9895
   78TMC2    H1 1218   1.310   1.012   1.530 -0.7916 -0.8495  0.3000
   78TMC2    H2 1219   1.450   0.882   1.153  0.9020 -2.2858 -0.1627
   78TMC2    C7 1220   1.503   1.036   1.355  0.1149 -0.1124  0.2531
   78TMC2    C8 1221   1.265   0.707   1.110  0.2255  0.2049  0.2034
   78TMC2    O1 1222   1.605   0.992   1.298  0.5851 -0.2949 -0.3119
   78TMC2    O2 1223   1.157   0.714   1.049 -0.0549 -0.0894 -0.3348
   78TMC2    O5 1224   1.384   0.683   1.057  0.4390 -0.3434  0.0086
   78TMC2    H5 1225   1.461   0.685   1.117 -0.1058  0.8745  0.6558
   79MPD1     C 1226   0.859   0.504   1.840 -1.1745  0.5343 -0.1107
   79MPD1    C1 1227   0.921   0.616   1.879 -0.3759  0.0195 -0.5521
   79MPD1    C2 1228   0.990   0.691   1.786  0.0116 -0.1495  0.0814
   79MPD1    C3 1229   1.009   0.635   1.656 -0.7069 -0.0393 -0.1379
   79MPD1    C4 1230   0.943   0.519   1.630  0.6746  0.3275  0.4672
   79MPD1    C5 1231   0.874   0.445   1.720  0.0383 -0.7185 -0.1087
   79MPD1     H 1232   1.043   0.780   1.816  0.1243 -0.0603 -0.3765
   79MPD1    H1 1233   0.954   0.481   1.529  0.1722 -0.2082  0.6164
   79MPD1    H2 1234   0.799   0.463   1.921  2.0515 -2.5913  0.7439
   79MPD1    H3 1235   0.829   0.354   1.683 -1.9070  0.1427  0.0913
   79MPD1     N 1236   1.089   0.694   1.554  0.5476  0.4310  0.3181
   79MPD1    H5 1237   1.105   0.643   1.467  0.2566  1.3468 -0.2665
   79MPD1    N1 1238   0.877   0.688   1.994  0.1603  0.2290 -0.5834
   79MPD1    H6 1239   0.855   0.630   2.076 -0.1189 -1.1923 -1.6644
   79MPD1    H7 1240   0.937   0.765   2.023 -0.6919 -0.0444  1.9339
   80TMC2    C1 1241   2.650   3.413  11.896 -0.5478  0.3580  0.5227
   80TMC2    C2 1242   2.546   3.495  11.934 -0.2351  0.0473  0.7856
   80TMC2    C3 1243   2.425   3.435  11.936  0.3136 -0.1492 -0.2381
   80TMC2    C4 1244   2.643   3.279  11.879  0.2232  0.4699 -0.1783
   80TMC2    C5 1245   2.523   3.218  11.898 -0.2417  0.0016  0.4484
   80TMC2    C6 1246   2.416   3.297  11.922 -0.1858  0.1652 -0.9829
   80TMC2     C 1247   2.784   3.443  11.957  0.5613 -0.5555  0.1319
   80TMC2     O 1248   2.843   3.351  12.010 -0.4291  0.7695 -0.3610
   80TMC2     H 1249   2.556   3.602  11.953  0.3916 -0.0990  1.3129
   80TMC2    H1 1250   2.732   3.225  11.849 -0.6773 -0.5420 -1.0553
   80TMC2    H2 1251   2.327   3.243  11.950 -0.4965  0.9771 -0.3990
   80TMC2    C7 1252   2.538   3.115  12.006  0.6114 -0.9141  0.1038
   80TMC2    C8 1253   2.305   3.496  12.005  0.5504 -0.2345 -0.1968
   80TMC2    O1 1254   2.445   3.034  12.032 -0.0876  0.6424 -0.8574
   80TMC2    O2 1255   2.196   3.440  11.989  0.3842 -0.2120  0.3827
   80TMC2    O5 1256   2.348   3.560  12.119 -0.2909 -0.5248  0.5980
   80TMC2    H5 1257   2.415   3.630  12.104 -0.5833 -0.7719 -1.8750
   81MPD2     C 1258   2.989   3.583  12.116  0.1147 -0.8257 -0.3398
   81MPD2    C1 1259   2.915   3.646  12.020 -0.6325  0.1196 -0.5466
   81MPD2    C2 1260   2.934   3.775  11.999  0.1009 -0.6752  0.4484
   81MPD2    C3 1261   3.029   3.845  12.072 -0.8993  0.0455  0.1729
   81MPD2    C4 1262   3.107   3.782  12.166 -0.2635  0.1605 -0.5125
   81MPD2    C5 1263   3.079   3.655  12.196 -0.2120  0.5829  0.2987
   81MPD2     H 1264   2.880   3.818  11.916 -0.8057 -1.6206  0.5430
   81MPD2    H1 1265   3.170   3.845  12.228 -0.0899 -1.4824  0.9745
   81MPD2    H2 1266   2.984   3.477  12.141  0.4265 -1.1501 -1.6676
   81MPD2    H3 1267   3.120   3.607  12.284 -1.6269  0.4829  0.8956
   81MPD2     N 1268   3.053   3.982  12.055 -0.2407  0.1374  0.0367
   81MPD2    H5 1269   3.125   4.013  12.120 -2.2098  0.4742  2.0215
   81MPD2    N1 1270   2.817   3.576  11.950  0.0884 -0.6021 -0.1188
   81MPD2    H7 1271   2.754   3.633  11.895  0.2290 -0.8941 -0.5860
   82TMC2    C1 1272   1.860   3.763  10.926  0.2817 -0.6665 -0.2239
   82TMC2    C2 1273   1.989   3.783  10.977 -0.4500  0.1942 -0.2381
   82TMC2    C3 1274   2.020   3.713  11.089  0.0326  0.7513 -0.1045
   82TMC2    C4 1275   1.767   3.667  10.966  0.6946 -0.4044  0.0371
   82TMC2    C5 1276   1.819   3.585  11.065 -0.5924  0.5844  0.5122
   82TMC2    C6 1277   1.940   3.610  11.133  0.3439  0.1779  0.0534
   82TMC2     C 1278   1.811   3.845  10.817  0.8639 -0.0294 -0.4684
   82TMC2     O 1279   1.689   3.840  10.795 -0.1472 -0.0828 -0.3628
   82TMC2     H 1280   2.054   3.865  10.948 -0.4426  0.1792 -0.2637
   82TMC2    H1 1281   1.664   3.656  10.934  0.5175  0.8605  0.1682
   82TMC2    H2 1282   1.967   3.551  11.220  0.6644  0.3878  0.0941
   82TMC2    C7 1283   1.736   3.479  11.123  0.1243 -0.1908 -0.4948
   82TMC2    C8 1284   2.148   3.746  11.152  0.2885 -0.3259 -0.9005
   82TMC2    O1 1285   1.784   3.424  11.224  0.8339 -0.0464  0.3834
   82TMC2    O2 1286   2.223   3.833  11.118 -0.7951 -0.1623 -0.1814
   82TMC2    O5 1287   2.188   3.642  11.226  0.0853  0.0452 -0.0440
   82TMC2    H5 1288   2.132   3.564  11.208  2.4263 -1.9099  1.1220
   83MPD2     C 1289   1.844   4.188  10.452 -0.3562  0.1438 -0.6099
   83MPD2    C1 1290   1.738   4.149  10.529 -0.1685 -0.0448 -1.2207
   83MPD2    C2 1291   1.762   4.068  10.632 -1.0954  0.4338 -0.3903
   83MPD2    C3 1292   1.887   4.015  10.659 -0.5186 -0.2355 -0.0186
   83MPD2    C4 1293   1.992   4.063  10.587 -0.2004  0.4706 -0.1412
   83MPD2    C5 1294   1.970   4.151  10.484 -0.4201 -0.6331  0.4353
   83MPD2     H 1295   1.677   4.035  10.691  0.2922 -1.7413  0.3907
   83MPD2    H1 1296   2.092   4.021  10.592 -1.3642 -2.3890 -1.0290
   83MPD2    H2 1297   1.827   4.260  10.372  1.6519 -1.2242 -2.2763
   83MPD2    H3 1298   2.059   4.186  10.432 -0.4255 -1.4603 -0.1329
   83MPD2     N 1299   1.907   3.923  10.764  0.5049  0.4739  0.6767
   83MPD2    H5 1300   2.002   3.892  10.782  0.7163  1.2079  0.7987
   83MPD2    N1 1301   1.608   4.185  10.478  0.1110  0.1721 -0.8101
   83MPD2    H7 1302   1.601   4.232  10.388  3.7127 -2.8540 -2.7004
   84TMC2    C1 1303   3.107   2.715  11.123  0.8545  0.1667 -0.1382
   84TMC2    C2 1304   3.199   2.649  11.205 -0.1215  0.8631 -0.8059
   84TMC2    C3 1305   3.256   2.539  11.151 -0.3408 -0.2081 -0.0323
   84TMC2    C4 1306   3.083   2.672  10.989 -0.4516 -0.2710 -0.2044
   84TMC2    C5 1307   3.166   2.578  10.932  0.1086  0.1332  0.6129
   84TMC2    C6 1308   3.242   2.498  11.018  0.1922 -0.0746 -0.0320
   84TMC2     C 1309   3.022   2.812  11.182  0.4925 -1.0641 -0.3003
   84TMC2     O 1310   2.947   2.876  11.108  0.5255 -0.5617  0.0554
   84TMC2     H 1311   3.238   2.691  11.296 -0.8801 -2.9924  1.2802
   84TMC2    H1 1312   3.000   2.718  10.936  1.0476  1.7033 -0.8674
   84TMC2    H2 1313   3.301   2.419  10.973  1.4321  1.6265 -1.3989
   84TMC2    C7 1314   3.124   2.528  10.807  0.1534 -0.2573 -0.0611
   84TMC2    C8 1315   3.364   2.474  11.227 -0.3904 -0.6922 -0.7111
   84TMC2    O1 1316   3.125   2.407  10.786  0.7316  0.5128 -0.5296
   84TMC2    O2 1317   3.467   2.442  11.176 -0.0725  0.2627  1.4276
   84TMC2    O5 1318   3.303   2.405  11.326  0.3924 -0.4716  0.2924
   84TMC2    H5 1319   3.210   2.434  11.341  0.7091  0.9613 -0.5145
   85TMC2    C1 1320   3.642   1.653  15.820  0.4079  0.2571 -0.2134
   85TMC2    C2 1321   3.564   1.764  15.845 -0.4994  0.3696 -1.0568
   85TMC2    C3 1322   3.592   1.877  15.783 -0.4127  0.8210 -0.2112
   85TMC2    C4 1323   3.755   1.661  15.741  0.6435  0.2921  0.5532
   85TMC2    C5 1324   3.768   1.783  15.661  0.2793 -0.2608  0.2706
   85TMC2    C6 1325   3.679   1.884  15.681  0.0916 -0.5956  0.3383
   85TMC2     C 1326   3.635   1.539  15.912 -0.0343  0.8431 -0.0314
   85TMC2     O 1327   3.725   1.462  15.914 -0.1288 -0.2584  0.6761
   85TMC2     H 1328   3.492   1.761  15.926  0.1735 -0.5631 -0.4844
   85TMC2    H1 1329   3.828   1.582  15.728 -0.6404 -0.3689 -2.4878
   85TMC2    H2 1330   3.680   1.973  15.618  3.4037 -0.2892  0.8110
   85TMC2    C7 1331   3.845   1.775  15.539 -0.1282  1.3976 -0.6552
   85TMC2    C8 1332   3.490   1.980  15.786  0.4622  0.8948 -0.2681
   85TMC2    O1 1333   3.919   1.676  15.529  0.4869 -0.0918 -0.8883
   85TMC2    O2 1334   3.478   2.060  15.694 -0.0761  0.6308  0.1321
   85TMC2    O5 1335   3.475   2.006  15.919  0.1209 -0.0426  0.2877
   85TMC2    H5 1336   3.511   1.940  15.983 -0.9170  0.1612  1.0920
   86MPD2     C 1337   3.390   1.286  16.284  0.1910  0.4876  0.2705
   86MPD2    C1 1338   3.303   1.317  16.187  0.6446  0.3089  0.5767
   86MPD2    C2 1339   3.338   1.409  16.085 -0.4027 -0.0523  0.4172
   86MPD2    C3 1340   3.472   1.443  16.068  0.3274 -0.0004 -0.2771
   86MPD2    C4 1341   3.557   1.376  16.145 -0.0382 -0.0114 -0.8397
   86MPD2    C5 1342   3.523   1.307  16.258  0.7815 -0.4049 -0.0934
   86MPD2     H 1343   3.281   1.445  16.000 -0.8728  0.4383  0.9492
   86MPD2    H1 1344   3.664   1.391  16.142  0.3487 -2.4779  1.0825
   86MPD2    H2 1345   3.359   1.245  16.380 -0.7449 -0.5457 -0.4751
   86MPD2    H3 1346   3.590   1.275  16.337 -2.5470 -1.3826  2.3384
   86MPD2     N 1347   3.503   1.522  15.961 -0.3073  0.2595  0.1079
   86MPD2    H5 1348   3.435   1.580  15.913 -2.6392 -0.6087  2.4077
   86MPD2    N1 1349   3.162   1.279  16.200  0.1582 -0.4222  0.3691
   86MPD2    H7 1350   3.101   1.308  16.124  0.3804  0.1830  0.4204
   87TMC2    C1 1351   0.568   4.530   0.366 -0.0266  0.2287 -0.6127
   87TMC2    C2 1352   0.559   4.423   0.452 -0.0168 -1.1482 -0.8926
   87TMC2    C3 1353   0.523   4.443   0.581  0.5674  1.1836 -0.5829
   87TMC2    C4 1354   0.529   4.659   0.410 -0.7763 -0.9368 -0.7223
   87TMC2    C5 1355   0.493   4.675   0.542 -0.5704  0.1811 -0.1343
   87TMC2    C6 1356   0.499   4.574   0.631 -0.0677 -0.6311 -0.9230
   87TMC2     C 1357   0.608   4.492   0.238 -0.2929  0.1850  0.4388
   87TMC2     O 1358   0.598   4.371   0.216 -0.0441  0.6035 -0.1879
   87TMC2     H 1359   0.589   4.321   0.427  2.0618 -0.8989  0.5186
   87TMC2    H1 1360   0.513   4.739   0.339 -0.8570 -2.3231 -2.2450
   87TMC2    H2 1361   0.454   4.577   0.730  1.3070 -1.0050 -0.2883
   87TMC2    C7 1362   0.457   0.074   0.582 -0.3156  0.3867  0.1599
   87TMC2    C8 1363   0.534   4.326   0.674 -0.3592 -0.6020 -0.0425
   87TMC2    O1 1364   0.415   0.150   0.496  0.8952 -0.5162  0.1340
   87TMC2    O2 1365   0.515   4.208   0.647  0.5741 -0.4218  0.0566
   87TMC2    O5 1366   0.579   4.362   0.802  0.0230  0.0006 -0.3255
   87TMC2    H5 1367   0.578   4.457   0.826  2.6309 -0.4660  1.7091
   88MPD2     C 1368   0.476   0.193   0.915  0.0592 -0.2040  0.1001
   88MPD2    C1 1369   0.424   0.192   0.791 -0.5543  0.3214  0.0807
   88MPD2    C2 1370   0.352   0.304   0.745  0.4121  0.2805  0.2788
   88MPD2    C3 1371   0.328   0.409   0.834  0.9434  0.3072 -1.0175
   88MPD2    C4 1372   0.372   0.396   0.965 -0.0321  0.0664  0.5920
   88MPD2    C5 1373   0.448   0.292   1.002 -0.3090  0.1697  0.2096
   88MPD2     H 1374   0.320   0.305   0.642  1.2336  1.0702  0.0247
   88MPD2    H1 1375   0.343   0.471   1.038 -1.6885  1.3154 -1.3683
   88MPD2    H2 1376   0.536   0.111   0.951 -0.1742 -0.2124  0.4697
   88MPD2    H3 1377   0.485   0.288   1.104 -0.9000 -0.0568  0.4136
   88MPD2     N 1378   0.263   0.524   0.795  0.1248  0.0066 -0.0545
   88MPD2    H5 1379   0.265   0.608   0.851 -1.6590 -0.5038  0.7492
   88MPD2    N1 1380   0.475   0.088   0.715 -0.4007  0.3594 -0.2978
   88MPD2    H7 1381   0.543   0.026   0.756  1.5754  2.0084 -1.1206
   89TMC2    C1 1382   1.545   2.609   0.763  0.7856 -0.8415  0.2072
   89TMC2    C2 1383   1.445   2.520   0.759 -0.9195 -0.0393 -0.2332
   89TMC2    C3 1384   1.370   2.516   0.646 -0.2572 -0.2367  0.5829
   89TMC2    C4 1385   1.588   2.688   0.661  0.5634  0.3368  0.7233
   89TMC2    C5 1386   1.502   2.690   0.551  0.2196 -0.6313  0.1705
   89TMC2    C6 1387   1.395   2.603   0.544 -0.3239 -0.1874  0.1062
   89TMC2     C 1388   1.622   2.625   0.891  0.1128  0.5322 -0.4315
   89TMC2     O 1389   1.733   2.673   0.873  0.3937  0.0110  0.5048
   89TMC2     H 1390   1.418   2.442   0.830 -1.6292 -2.2160 -2.8799
   89TMC2    H1 1391   1.669   2.760   0.668  1.4349 -0.5679 -0.0612
   89TMC2    H2 1392   1.336   2.600   0.453  3.3598  0.6667 -2.3071
   89TMC2    C7 1393   1.527   2.784   0.447  0.2723 -0.9621  0.0691
   89TMC2    C8 1394   1.261   2.426   0.637 -0.5563  0.0454 -0.0191
   89TMC2    O1 1395   1.481   2.748   0.340  0.2816 -0.4472  0.2070
   89TMC2    O2 1396   1.223   2.379   0.529  0.4056  0.2452 -0.0362
   89TMC2    O5 1397   1.177   2.442   0.746  0.7233 -0.2506 -0.1896
   89TMC2    H5 1398   1.206   2.500   0.819  1.9924 -0.9921 -0.1049
   90MPD2     C 1399   1.718   2.508   1.377 -0.3857 -0.2281  0.4717
   90MPD2    C1 1400   1.577   2.480   1.356  0.0474 -0.2905 -0.7027
   90MPD2    C2 1401   1.533   2.502   1.227  0.5486 -0.1168 -0.1657
   90MPD2    C3 1402   1.619   2.552   1.130 -0.0403  0.3085  0.5499
   90MPD2    C4 1403   1.747   2.576   1.152 -0.1307 -0.1079  0.2709
   90MPD2    C5 1404   1.797   2.562   1.281 -0.4328  0.0444  0.1995
   90MPD2     H 1405   1.427   2.487   1.208  0.3293  2.6230 -1.2018
   90MPD2    H1 1406   1.809   2.614   1.071 -1.6333  1.9845  0.1051
   90MPD2    H2 1407   1.766   2.495   1.473  0.2988 -0.0162  0.1532
   90MPD2    H3 1408   1.896   2.603   1.297 -0.0411 -1.6697  2.1887
   90MPD2     N 1409   1.559   2.571   1.000  0.3614 -0.0625 -0.4255
   90MPD2    H5 1410   1.460   2.549   0.995  0.5573 -0.7965 -1.1724
   90MPD2    N1 1411   1.487   2.421   1.445  0.0083 -0.3077 -0.2467
   90MPD2    H7 1412   1.391   2.404   1.417 -0.1095  0.3079 -0.2225
   91TMC2    C1 1413   3.148   2.526  15.960 -0.5578  0.4813  0.1250
   91TMC2    C2 1414   3.233   2.439  16.019 -0.3758  0.3403 -0.2955
   91TMC2    C3 1415   3.180   2.316  16.059  0.2027 -0.0083  0.0960
   91TMC2    C4 1416   3.023   2.497  15.928  0.7676 -0.0191 -0.2685
   91TMC2    C5 1417   2.971   2.374  15.980 -0.2441  0.2670  0.2383
   91TMC2    C6 1418   3.051   2.281  16.040 -0.2765 -0.6204  0.7167
   91TMC2     C 1419   3.187   2.668  15.955  0.4048 -1.2875  0.2335
   91TMC2     O 1420   3.155   2.736  15.859  0.0984 -0.4031  0.2066
   91TMC2     H 1421   3.338   2.464  16.029 -0.0390 -0.7550 -1.0871
   91TMC2    H1 1422   2.949   2.570  15.899  3.0857  2.5586  0.3102
   91TMC2    H2 1423   3.018   2.182  16.069  2.3982 -0.5045  4.1914
   91TMC2    C7 1424   2.836   2.340  15.983 -0.4447  0.3752  0.1419
   91TMC2    C8 1425   3.264   2.216  16.122  0.2007 -0.1436  0.5815
   91TMC2    O1 1426   2.795   2.283  16.083 -0.4032  0.6494 -0.2053
   91TMC2    O2 1427   3.247   2.093  16.117  0.1586 -0.4564 -0.1772
   91TMC2    O5 1428   3.358   2.283  16.193 -0.0296  0.1888  0.4023
   91TMC2    H5 1429   3.336   2.375  16.219  1.9841  1.6620 -2.9664
   92MPD2     C 1430   3.360   2.918  15.971  0.9515  1.0657  0.3546
   92MPD2    C1 1431   3.352   2.819  16.067  0.0008  0.2959 -0.6262
   92MPD2    C2 1432   3.430   2.834  16.181  0.0283 -0.4317  0.3965
   92MPD2    C3 1433   3.517   2.932  16.201  0.7627 -0.1232 -0.7246
   92MPD2    C4 1434   3.518   3.038  16.107  0.5856  0.0463  0.1494
   92MPD2    C5 1435   3.444   3.026  15.986  0.4174 -0.5072 -0.0347
   92MPD2     H 1436   3.417   2.753  16.253 -0.9467 -0.8897 -0.2982
   92MPD2    H1 1437   3.579   3.125  16.126  2.1859 -1.2625  0.9807
   92MPD2    H2 1438   3.301   2.910  15.881  1.9561  1.7511 -0.3638
   92MPD2    H3 1439   3.442   3.111  15.918 -2.6611  0.7646  1.6064
   92MPD2     N 1440   3.587   2.928  16.322  0.3407 -0.2946  0.3457
   92MPD2    H5 1441   3.570   2.852  16.386  1.1839 -1.1477 -0.4388
   92MPD2    N1 1442   3.267   2.706  16.062 -0.0623  0.0520  0.3969
   92MPD2    H7 1443   3.268   2.636  16.136 -0.3507  0.2330  0.5690
   93TMC2    C1 1444   0.866   1.991  13.959 -0.7256 -0.5489  0.1533
   93TMC2    C2 1445   0.856   2.076  14.071 -0.3993  0.1387 -0.9933
   93TMC2    C3 1446   0.932   2.191  14.075 -0.3044 -0.4043 -0.7081
   93TMC2    C4 1447   0.946   2.024  13.850 -0.2534 -0.3054 -0.2482
   93TMC2    C5 1448   1.019   2.142  13.862 -0.0509 -0.8548 -0.3937
   93TMC2    C6 1449   1.014   2.230  13.971 -0.8369 -0.5093  0.5354
   93TMC2     C 1450   0.764   1.894  13.936  0.3823 -0.2576  0.3932
   93TMC2     O 1451   0.798   1.806  13.859 -0.0675  0.2425  0.4386
   93TMC2     H 1452   0.797   2.044  14.157  1.0955 -0.6803 -0.2596
   93TMC2    H1 1453   0.956   1.959  13.764  1.2085 -0.1890 -0.1699
   93TMC2    H2 1454   1.071   2.322  13.975  1.5212 -2.0790  2.9301
   93TMC2    C7 1455   1.098   2.171  13.745  0.2165 -0.6091 -0.9049
   93TMC2    C8 1456   0.973   2.226  14.203  1.0263 -0.0813  1.0662
   93TMC2    O1 1457   1.126   2.078  13.667  0.3491 -0.1906 -0.2512
   93TMC2    O2 1458   1.048   2.144  14.262  0.0282  0.4481 -0.7083
   93TMC2    O5 1459   0.858   2.262  14.260  0.0931  0.3080 -0.0552
   93TMC2    H5 1460   0.793   2.313  14.206 -2.2004  0.1843  2.6083
   94MPD2     C 1461   0.525   1.711  13.940 -0.7021 -0.0158 -0.6645
   94MPD2    C1 1462   0.528   1.843  13.980 -0.0927  0.1290  0.1167
   94MPD2    C2 1463   0.411   1.905  14.021  0.0017  0.0407  0.3535
   94MPD2    C3 1464   0.292   1.838  14.018  0.1388 -0.1749 -0.5709
   94MPD2    C4 1465   0.293   1.703  13.988  0.0348  0.0558 -0.5020
   94MPD2    C5 1466   0.408   1.650  13.938  0.4247 -0.1262 -0.3757
   94MPD2     H 1467   0.421   2.012  14.035 -1.1383 -0.0939  2.1221
   94MPD2    H1 1468   0.203   1.642  13.979 -0.0578  0.1719 -0.3678
   94MPD2    H2 1469   0.614   1.653  13.919 -0.7319 -0.4916  0.5517
   94MPD2    H3 1470   0.389   1.553  13.892 -1.7520 -1.3163  3.0370
   94MPD2     N 1471   0.165   1.894  14.013 -0.1437  0.4611  0.1408
   94MPD2    H5 1472   0.092   1.824  14.000  1.2095 -0.6627 -1.3218
   94MPD2    N1 1473   0.644   1.926  13.991  0.7181  0.2448 -0.4767
   94MPD2    H7 1474   0.642   2.001  14.060 -0.9580  0.9043 -1.2239
   95TMC2    C1 1475   0.263   4.247  16.181 -0.0339  0.0756  0.4842
   95TMC2    C2 1476   0.237   4.141  16.267 -0.5642  0.4492 -0.2057
   95TMC2    C3 1477   0.216   4.166  16.402  0.1309 -0.8581  0.2547
   95TMC2    C4 1478   0.260   4.378  16.234  0.2090  0.4256 -0.5557
   95TMC2    C5 1479   0.249   4.395  16.373  0.6234  0.2075 -0.1064
   95TMC2    C6 1480   0.220   4.288  16.454  0.1984  0.2488  0.2278
   95TMC2     C 1481   0.282   4.225  16.042  0.7406 -1.2947  0.3040
   95TMC2     O 1482   0.356   4.305  15.988  0.3452  0.0911  0.3840
   95TMC2     H 1483   0.233   4.036  16.240  2.2019  0.1397  0.5702
   95TMC2    H1 1484   0.262   4.458  16.160  1.2163  1.0430  0.1314
   95TMC2    H2 1485   0.194   4.301  16.559  1.3916  0.6221  0.4700
   95TMC2    C7 1486   0.251   4.525  16.430  0.0825 -0.5828  0.3494
   95TMC2    C8 1487   0.145   4.062  16.474 -0.5025  0.6871 -0.6419
   95TMC2    O1 1488   0.198   4.551  16.538  0.0977 -0.8578 -0.2172
   95TMC2    O2 1489   0.077   3.975  16.418 -0.2507  0.1356 -0.6058
   95TMC2    O5 1490   0.206   4.049  16.595  0.0700  0.1946 -0.2303
   95TMC2    H5 1491   0.268   4.123  16.611 -1.8866  1.1605  2.8327
   96MPD2     C 1492   0.283   3.937  15.611 -0.1521  0.0732 -0.4545
   96MPD2    C1 1493   0.352   4.053  15.640 -0.0669 -0.1262 -0.1368
   96MPD2    C2 1494   0.340   4.111  15.764 -0.2134 -0.2478  0.7116
   96MPD2    C3 1495   0.248   4.062  15.859 -0.0735 -0.7873  0.1647
   96MPD2    C4 1496   0.177   3.948  15.828 -0.5747  0.1374 -0.0963
   96MPD2    C5 1497   0.191   3.894  15.706  0.3368 -0.2828 -0.1445
   96MPD2     H 1498   0.407   4.189  15.800 -1.1531 -0.3852  2.7593
   96MPD2    H1 1499   0.105   3.906  15.897  0.5668 -0.9708  0.4286
   96MPD2    H2 1500   0.294   3.875  15.523  1.3142 -0.9125  0.4172
   96MPD2    H3 1501   0.152   3.796  15.682 -2.4541  0.3151  1.9625
   96MPD2     N 1502   0.233   4.107  15.988 -0.0664  0.5385 -0.0194
   96MPD2    H5 1503   0.161   4.054  16.037  1.9517 -0.5461  1.7458
   96MPD2    N1 1504   0.447   4.096  15.545  1.4516 -0.0285  0.2338
   96MPD2    H7 1505   0.457   4.041  15.460 -0.3006 -1.1335  0.7468
   97TMC2    C1 1506   2.694   2.919  17.659 -0.2602  1.6338  0.0582
   97TMC2    C2 1507   2.623   2.864  17.557  0.0402  0.4331  0.1009
   97TMC2    C3 1508   2.591   2.942  17.451 -0.7309  0.3159  0.5294
   97TMC2    C4 1509   2.732   3.047  17.661  0.4024  0.1299 -0.2326
   97TMC2    C5 1510   2.705   3.121  17.552  0.6376  0.1811  0.3700
   97TMC2    C6 1511   2.640   3.069  17.441  0.0564 -0.3483  0.5971
   97TMC2     C 1512   2.725   2.836   0.019  0.2489 -0.1910 -0.7214
   97TMC2     O 1513   2.686   2.725   0.015  0.8917  0.1299 -0.0013
   97TMC2     H 1514   2.582   2.764  17.561 -0.6795  0.6185 -2.6861
   97TMC2    H1 1515   2.780   3.092  17.747 -1.5157  1.3091  0.2288
   97TMC2    H2 1516   2.609   3.130  17.357  0.4970 -1.5545 -0.4433
   97TMC2    C7 1517   2.781   3.252  17.553  1.0861  0.1119  0.4385
   97TMC2    C8 1518   2.503   2.884  17.349 -0.0549 -0.1420  0.2131
   97TMC2    O1 1519   2.819   3.292  17.663  0.3900  0.1894 -0.2126
   97TMC2    O2 1520   2.487   2.764  17.334  0.8586  0.1306 -0.1450
   97TMC2    O5 1521   2.416   2.973  17.300  0.8015  0.0851  0.4857
   97TMC2    H5 1522   2.414   3.067  17.329  0.5500 -0.0729  0.9806
   98MPD2     C 1523   2.929   2.761   0.483  0.1406  0.0757 -0.4012
   98MPD2    C1 1524   2.855   2.677   0.403  0.1671 -0.1688 -0.2108
   98MPD2    C2 1525   2.826   2.714   0.274  0.4315 -0.2687 -0.6337
   98MPD2    C3 1526   2.854   2.841   0.233 -0.4501  0.0023  0.1067
   98MPD2    C4 1527   2.939   2.919   0.305 -0.0480 -0.8527 -0.1848
   98MPD2    C5 1528   2.969   2.882   0.435  0.0004  0.7172 -0.5153
   98MPD2     H 1529   2.749   2.657   0.222 -0.1918  0.2526 -0.2813
   98MPD2    H1 1530   2.977   3.017   0.279  1.2728 -0.7705  2.0072
   98MPD2    H2 1531   2.959   2.738   0.585  0.1271  2.4435  0.1401
   98MPD2    H3 1532   3.020   2.961   0.488  1.6476 -1.1265  0.6162
   98MPD2     N 1533   2.803   2.898   0.110 -0.2816  0.2730 -0.1978
   98MPD2    H5 1534   2.828   2.993   0.085 -3.5920  0.4209 -2.8919
   98MPD2    N1 1535   2.841   2.544   0.457  0.1116 -0.2718 -0.0269
   98MPD2    H7 1536   2.881   2.534   0.550  0.0576 -0.4264 -0.0206
   99TMC2    C1 1537   1.568   4.296   0.983  0.0893 -0.6843  0.3965
   99TMC2    C2 1538   1.670   4.375   1.026  0.2160  0.3390 -0.2640
   99TMC2    C3 1539   1.673   4.408   1.160  0.1611  0.2998  1.4828
   99TMC2    C4 1540   1.470   4.251   1.068  0.2446 -0.2079  0.0859
   99TMC2    C5 1541   1.473   4.299   1.196 -0.0137  0.1380  0.2760
   99TMC2    C6 1542   1.573   4.373   1.247 -0.0318 -0.4211  0.1660
   99TMC2     C 1543   1.573   4.250   0.848 -0.0121 -0.3385 -0.2829
   99TMC2     O 1544   1.625   4.314   0.759  0.3307 -0.5779  0.2997
   99TMC2     H 1545   1.737   4.418   0.952  0.1749 -0.9368 -1.0423
   99TMC2    H1 1546   1.387   4.197   1.025  0.2736 -1.5045  1.6644
   99TMC2    H2 1547   1.579   4.418   1.345 -0.9065 -1.3423  0.6383
   99TMC2    C7 1548   1.362   4.266   1.282 -0.0495  0.3654  0.3297
   99TMC2    C8 1549   1.777   4.502   1.196  0.0938  0.2956 -0.4752
   99TMC2    O1 1550   1.364   4.323   1.388 -0.6482  0.1674  0.3389
   99TMC2    O2 1551   1.772   4.584   1.287  0.2194 -0.5666 -0.2551
   99TMC2    O5 1552   1.885   4.449   1.132 -0.1679 -0.3000  0.5361
   99TMC2    H5 1553   1.882   4.355   1.103 -0.0251 -0.1600  0.0638
  100MPD2     C 1554   1.567   4.096   0.594 -0.1753 -0.1735  0.6282
  100MPD2    C1 1555   1.516   4.051   0.716  0.5432 -0.8531  1.0092
  100MPD2    C2 1556   1.458   3.928   0.723 -0.0618  0.7120 -0.3319
  100MPD2    C3 1557   1.447   3.845   0.610 -0.0375  0.0136 -0.2243
  100MPD2    C4 1558   1.501   3.893   0.491 -0.4213  0.3177 -0.2020
  100MPD2    C5 1559   1.558   4.018   0.486  0.5643 -0.0207 -0.3047
  100MPD2     H 1560   1.420   3.904   0.821 -0.9049  3.0966 -0.0744
  100MPD2    H1 1561   1.481   3.843   0.396 -1.4077  3.0183 -1.4044
  100MPD2    H2 1562   1.628   4.183   0.573 -0.4889 -0.0530  0.2107
  100MPD2    H3 1563   1.601   4.043   0.390  0.1356 -1.0814 -0.7699
  100MPD2     N 1564   1.384   3.720   0.626  0.0115  0.2907  0.2923
  100MPD2    H5 1565   1.347   3.697   0.718  2.4067 -0.2638  1.1297
  100MPD2    N1 1566   1.525   4.128   0.832  0.9870  0.8054  0.3320
  100MPD2    H7 1567   1.492   4.078   0.915 -1.8146  0.2974 -1.0911
  101TMC2    C1 1568   2.437   0.039  13.277 -0.0994  1.5629  0.3501
  101TMC2    C2 1569   2.473   4.697  13.380 -0.3059 -0.2064  0.1302
  101TMC2    C3 1570   2.607   4.677  13.402  0.0484  0.0654 -0.1212
  101TMC2    C4 1571   2.530   0.103  13.195  0.9227 -0.6223  0.5689
  101TMC2    C5 1572   2.661   0.093  13.223 -0.1325  0.5151  0.0314
  101TMC2    C6 1573   2.700   0.008  13.324 -0.0626  0.9402  0.6876
  101TMC2     C 1574   2.294   0.038  13.238 -0.3819 -0.0159  0.2831
  101TMC2     O 1575   2.222   4.708  13.308  0.0299  0.5273  0.1595
  101TMC2     H 1576   2.396   4.632  13.422 -0.5756  0.0299  0.0041
  101TMC2    H1 1577   2.512   0.170  13.112  0.8165 -0.8761  0.3882
  101TMC2    H2 1578   2.805   4.735  13.348  0.3547  1.9793 -0.5546
  101TMC2    C7 1579   2.758   0.156  13.141  0.6675 -0.5792  0.3596
  101TMC2    C8 1580   2.654   4.598  13.515  0.0043 -0.7185  0.1656
  101TMC2    O1 1581   2.721   0.237  13.057 -0.0769  0.5570  0.3956
  101TMC2    O2 1582   2.726   4.505  13.511  0.1301 -0.2193 -0.7005
  101TMC2    O5 1583   2.552   4.615  13.605  0.4962 -0.0476 -0.1910
  101TMC2    H5 1584   2.499   4.696  13.593  1.3895  0.2998 -1.7820
  102MPD2     C 1585   2.138   0.110  12.916 -0.6335  0.0798  0.3906
  102MPD2    C1 1586   2.135   0.084  13.054 -0.0237 -0.0765 -0.4978
  102MPD2    C2 1587   2.014   0.055  13.115 -0.1588  0.4469  0.3463
  102MPD2    C3 1588   1.896   0.046  13.033 -0.0220  0.0759 -0.1478
  102MPD2    C4 1589   1.896   0.067  12.900  0.1371  0.0480  0.3539
  102MPD2    C5 1590   2.022   0.106  12.840 -0.3081  0.3114  0.7098
  102MPD2     H 1591   1.999   0.033  13.220  1.2555  0.1235  0.4805
  102MPD2    H1 1592   1.811   0.057  12.833 -0.2407  1.4712  0.6206
  102MPD2    H2 1593   2.226   0.136  12.859  0.7441 -1.7653  1.6880
  102MPD2    H3 1594   2.039   0.126  12.735  1.1766 -2.2283  0.4718
  102MPD2     N 1595   1.773   0.025  13.100 -0.2441  0.0408 -0.1294
  102MPD2    H5 1596   1.788   4.728  13.193 -0.8609  0.1734  0.0185
  102MPD2    N1 1597   2.264   0.085  13.109 -0.1463 -0.1359 -0.4997
  102MPD2    H7 1598   2.338   0.106  13.044  0.8824 -0.7643  0.4757
  103TMC2    C1 1599   4.614   0.226  12.687 -0.8555  0.2696  0.1849
  103TMC2    C2 1600   4.676   0.333  12.648 -0.5684  0.1835 -0.5014
  103TMC2    C3 1601   4.683   0.436  12.740 -0.2993  0.5745  0.9716
  103TMC2    C4 1602   4.565   0.206  12.813  0.4334 -0.5797  0.9641
  103TMC2    C5 1603   4.603   0.296  12.907 -0.0219  0.4595  0.6294
  103TMC2    C6 1604   4.648   0.421  12.868 -0.5061  1.1246  0.5707
  103TMC2     C 1605   4.595   0.128  12.590  0.5029 -0.6849  0.3149
  103TMC2     O 1606   4.593   0.167  12.473  0.3086  0.2285  0.0340
  103TMC2     H 1607   4.729   0.344  12.554  3.9506 -2.5603  1.6973
  103TMC2    H1 1608   4.504   0.119  12.835 -0.3528 -0.4639 -0.6783
  103TMC2    H2 1609   4.649   0.508  12.932  3.1208  0.4407  1.4433
  103TMC2    C7 1610   4.579   0.270  13.047 -0.3191 -0.0509  0.0565
  103TMC2    C8 1611   4.722   0.564  12.686 -0.6715  0.1277  0.1566
  103TMC2    O1 1612   4.514   0.172  13.079 -0.2827  0.2015  0.3902
  103TMC2    O2 1613   4.691   0.593  12.570 -0.3178  0.0305  0.0068
  103TMC2    O5 1614   0.084   0.622  12.754  0.0210 -0.4412  0.0982
  103TMC2    H5 1615   0.112   0.582  12.839 -0.1111  3.0979  1.7970
  104MPD2     C 1616   4.645   4.504  12.634  0.4943 -0.4855 -0.0582
  104MPD2    C1 1617   4.624   4.624  12.564  0.3563  0.5024  0.1268
  104MPD2    C2 1618   4.621   4.614  12.425 -0.9113 -0.3877  0.1994
  104MPD2    C3 1619   4.602   4.487  12.359 -0.2047 -0.3418 -0.4068
  104MPD2    C4 1620   4.637   4.373  12.434 -0.1109 -0.7548 -0.3113
  104MPD2    C5 1621   4.653   4.383  12.571  0.1988 -0.9498  0.0381
  104MPD2     H 1622   4.607   4.705  12.367 -2.2905 -0.7426 -0.0135
  104MPD2    H1 1623   4.641   4.272  12.394 -3.8035 -0.2852 -1.8436
  104MPD2    H2 1624   4.641   4.511  12.742 -2.7329 -2.3090 -0.0671
  104MPD2    H3 1625   4.669   4.292  12.628  2.2771  0.6115  1.9076
  104MPD2     N 1626   4.577   4.491  12.218 -0.2127  0.1632  0.2616
  104MPD2    H5 1627   4.544   4.578  12.179  1.3844  1.3574  1.6083
  104MPD2    N1 1628   4.615   0.004  12.641  0.7522  0.3587  0.6258
  104MPD2    H7 1629   4.622   4.732  12.742  3.4863 -0.1865  0.3638
  105TMC2    C1 1630   0.992   3.884  17.411  0.8604  0.3978  0.0713
  105TMC2    C2 1631   0.884   3.808  17.455  0.4719  0.5842 -0.4173
  105TMC2    C3 1632   0.787   3.887  17.516  0.4721 -0.5929  0.1564
  105TMC2    C4 1633   0.997   4.020  17.420  0.2267  0.7017  1.3761
  105TMC2    C5 1634   0.894   4.091  17.477  0.6785  0.5246 -0.4484
  105TMC2    C6 1635   0.791   4.028  17.531 -0.2216 -0.2603  0.2235
  105TMC2     C 1636   1.098   3.809  17.346  0.0274  0.0547 -0.2359
  105TMC2     O 1637   1.068   3.699  17.308  0.0085 -0.0914  0.1922
  105TMC2     H 1638   0.888   3.700  17.470  1.5105  0.3710 -2.2569
  105TMC2    H1 1639   1.078   4.081  17.382 -0.5111 -0.0970 -1.4281
  105TMC2    H2 1640   0.704   4.076  17.574 -0.8897 -0.0484 -1.3969
  105TMC2    C7 1641   0.902   4.238  17.479  0.0826 -0.2659 -0.7259
  105TMC2    C8 1642   0.682   3.826  17.589  0.3934  0.8028 -0.6910
  105TMC2    O1 1643   1.001   4.288  17.426  0.1208  0.3209  0.0986
  105TMC2    O2 1644   0.649   3.869  17.696  0.0565 -0.5010  0.0015
  105TMC2    O5 1645   0.656   3.706  17.539 -0.1232  0.0571 -0.7312
  105TMC2    H5 1646   0.690   3.692  17.448 -0.9285 -0.4825 -0.9474
  106MPD2     C 1647   1.534   3.805  17.065 -0.1433 -0.1875 -0.0175
  106MPD2    C1 1648   1.514   3.932  17.120  0.1736 -0.1597 -0.3849
  106MPD2    C2 1649   1.402   3.964  17.193  0.0321 -0.7223 -0.1743
  106MPD2    C3 1650   1.309   3.863  17.222  0.2313  0.0575  0.6832
  106MPD2    C4 1651   1.331   3.737  17.165  0.3094 -0.2410  0.8233
  106MPD2    C5 1652   1.433   3.716  17.085 -0.2365 -0.1409 -0.4870
  106MPD2     H 1653   1.386   4.064  17.233  0.8068 -0.2323 -1.1027
  106MPD2    H1 1654   1.253   3.662  17.178  0.9105 -0.5632  2.6141
  106MPD2    H2 1655   1.609   3.783  16.989  0.5782 -2.7190  1.4252
  106MPD2    H3 1656   1.446   3.614  17.049 -1.2098 -0.2730 -0.4564
  106MPD2     N 1657   1.202   3.889  17.314 -0.3332  1.3568  0.6156
  106MPD2    H5 1658   1.215   3.978  17.362 -1.9442  1.8685  0.0786
  106MPD2    N1 1659   1.606   4.034  17.097 -0.2096  0.0038  0.2298
  106MPD2    H7 1660   1.570   4.123  17.130 -2.4296 -0.2076 -1.6764
  107TMC2    C1 1661   2.442   3.512  11.464 -0.1300 -0.8799 -0.2361
  107TMC2    C2 1662   2.467   3.546  11.333 -0.7420  0.7967  0.5459
  107TMC2    C3 1663   2.527   3.454  11.249 -0.4322 -0.4729 -0.4118
  107TMC2    C4 1664   2.472   3.385  11.509 -0.3961 -0.3297  0.3995
  107TMC2    C5 1665   2.533   3.299  11.426  0.5275 -0.6340 -0.4976
  107TMC2    C6 1666   2.575   3.338  11.300 -0.2860 -0.0614  0.5716
  107TMC2     C 1667   2.371   3.601  11.556  0.1907  0.1055  0.3916
  107TMC2     O 1668   2.323   3.548  11.656  0.0065 -0.4714 -0.1007
  107TMC2     H 1669   2.421   3.637  11.297  0.0248  0.8166 -0.4029
  107TMC2    H1 1670   2.449   3.367  11.613 -3.4388  0.0585 -0.1903
  107TMC2    H2 1671   2.624   3.268  11.234 -1.2645 -0.4190  0.2200
  107TMC2    C7 1672   2.578   3.174  11.483 -0.0072 -0.2364  0.3023
  107TMC2    C8 1673   2.550   3.485  11.116  0.1068  0.0117  0.0340
  107TMC2    O1 1674   2.519   3.137  11.584  0.7615  0.0849  0.2217
  107TMC2    O2 1675   2.487   3.569  11.051  0.0837  0.6069 -0.1156
  107TMC2    O5 1676   2.677   3.446  11.084 -0.1393  0.3591 -0.0394
  107TMC2    H5 1677   2.718   3.397  11.158 -0.9753  0.5377  0.5417
  108MPD2     C 1678   2.241   3.939  11.493  0.2085  0.1249  0.0041
  108MPD2    C1 1679   2.264   3.825  11.571  0.2207  0.0363  0.1354
  108MPD2    C2 1680   2.218   3.816  11.699 -0.5355  0.4517 -0.3452
  108MPD2    C3 1681   2.154   3.925  11.756  0.2422  0.3709  0.8451
  108MPD2    C4 1682   2.113   4.031  11.675  0.1868  0.5960 -0.1152
  108MPD2    C5 1683   2.162   4.043  11.544  0.6941  0.4043 -0.7491
  108MPD2     H 1684   2.237   3.740  11.774  2.1249  1.5397  0.0903
  108MPD2    H1 1685   2.059   4.120  11.707  2.0064  1.4135  0.6903
  108MPD2    H2 1686   2.286   3.944  11.395  0.7453  1.2983  0.3020
  108MPD2    H3 1687   2.133   4.125  11.478  1.4742 -0.0775 -1.6844
  108MPD2     N 1688   2.120   3.925  11.890  0.1115  0.0373  0.2617
  108MPD2    H5 1689   2.056   3.998  11.917 -0.6759 -1.3271  2.0149
  108MPD2    N1 1690   2.350   3.726  11.511  0.2316 -0.4535 -0.2709
  108MPD2    H7 1691   2.385   3.745  11.418 -0.6130 -2.3132 -0.9920
  109TMC2    C1 1692   2.369   1.345  17.754  0.4796 -0.0499  0.0162
  109TMC2    C2 1693   2.367   1.343  17.617  0.8969  0.0590  0.1852
  109TMC2    C3 1694   2.479   1.392  17.556 -0.1361 -0.3171  0.1592
  109TMC2    C4 1695   2.469   1.384   0.074  0.0699  0.6345 -0.4947
  109TMC2    C5 1696   2.580   1.431   0.014  0.6249  0.0582 -0.3588
  109TMC2    C6 1697   2.582   1.439  17.636 -0.2248  0.2113 -0.1055
  109TMC2     C 1698   2.264   1.265   0.064  0.3785  0.3049 -0.3157
  109TMC2     O 1699   2.207   1.176   0.003  0.5449 -0.2570 -0.1318
  109TMC2     H 1700   2.293   1.301  17.550 -0.1140 -1.2929  2.1682
  109TMC2    H1 1701   2.474   1.362   0.180 -1.7528  2.0645 -0.1023
  109TMC2    H2 1702   2.674   1.471  17.589  0.4139 -1.3104  0.1181
  109TMC2    C7 1703   2.676   1.503   0.095 -0.9216 -0.1731  0.3866
  109TMC2    C8 1704   2.487   1.400  17.407 -0.0896  0.7142  0.2999
  109TMC2    O1 1705   2.642   1.534   0.207  0.2919 -0.3017  0.9345
  109TMC2    O2 1706   2.415   1.319  17.354 -0.0181  0.2849  0.1947
  109TMC2    O5 1707   2.614   1.427  17.367 -0.3794  0.6121 -0.1997
  109TMC2    H5 1708   2.666   1.498  17.409  1.9656 -0.1199 -1.8021
  110MPD2     C 1709   1.989   1.140   0.486  0.1729  0.5526 -0.0141
  110MPD2    C1 1710   2.052   1.259   0.512 -0.2643 -0.6607  0.3537
  110MPD2    C2 1711   2.133   1.316   0.408  0.2253  0.2770  0.0958
  110MPD2    C3 1712   2.154   1.257   0.288 -1.5116  0.6699 -0.3588
  110MPD2    C4 1713   2.089   1.136   0.268 -0.1389  0.6211 -0.7355
  110MPD2    C5 1714   2.003   1.082   0.358  0.3815 -0.4336  0.4580
  110MPD2     H 1715   2.155   1.422   0.416 -0.9346  0.3919  1.7178
  110MPD2    H1 1716   2.099   1.080   0.175 -2.4266 -0.0779 -0.5630
  110MPD2    H2 1717   1.929   1.087   0.559 -0.3491 -0.4226 -1.1447
  110MPD2    H3 1718   1.956   0.985   0.353  3.3904 -1.9032  0.4603
  110MPD2     N 1719   2.240   1.314   0.191  0.6928 -0.4904 -0.2647
  110MPD2    H5 1720   2.282   1.400   0.224 -0.4806  1.0854 -2.9354
  110MPD2    N1 1721   2.032   1.316   0.642  0.0535  0.1488  0.0825
  110MPD2    H7 1722   1.976   1.260   0.705 -0.8662  0.8697 -0.0982
  111TMC2    C1 1723   2.183   0.658  11.754  0.8853 -0.1930 -0.4343
  111TMC2    C2 1724   2.075   0.698  11.826 -0.0918  0.5484  0.6090
  111TMC2    C3 1725   2.109   0.749  11.952  0.3561  0.4471  0.6361
  111TMC2    C4 1726   2.311   0.681  11.794  1.0658  0.0450  0.6054
  111TMC2    C5 1727   2.334   0.736  11.923 -0.1831  0.2563  0.2538
  111TMC2    C6 1728   2.233   0.759  12.004 -0.6928 -0.4395 -0.3386
  111TMC2     C 1729   2.172   0.573  11.633 -1.1738  0.1193 -0.6482
  111TMC2     O 1730   2.241   0.600  11.535 -0.3249  0.2978  0.2451
  111TMC2     H 1731   1.971   0.689  11.798  0.1514 -0.4800  0.0423
  111TMC2    H1 1732   2.389   0.640  11.732  1.2252 -0.9933  1.5068
  111TMC2    H2 1733   2.247   0.808  12.100  0.6215  1.6009 -1.5808
  111TMC2    C7 1734   2.469   0.736  11.975  0.4218  0.3766 -0.2797
  111TMC2    C8 1735   2.009   0.829  12.018  0.2078 -0.0657 -0.2764
  111TMC2    O1 1736   2.482   0.759  12.095  0.4478  0.2392  0.2129
  111TMC2    O2 1737   1.893   0.797  12.035  0.5920 -0.5046 -0.4838
  111TMC2    O5 1738   2.067   0.953  11.998  0.2295  0.5290  0.1710
  111TMC2    H5 1739   2.159   0.939  11.967 -1.0429 -1.2941 -2.7750
  112MPD2     C 1740   2.007   0.154  11.388 -0.1674  0.4646 -0.7454
  112MPD2    C1 1741   2.068   0.268  11.345  0.4712 -1.0123  0.4248
  112MPD2    C2 1742   2.097   0.373  11.436 -0.4368  0.1228 -0.5298
  112MPD2    C3 1743   2.057   0.362  11.566 -0.6216 -0.1377 -0.6762
  112MPD2    C4 1744   1.990   0.245  11.610 -0.5228  0.2116 -0.3140
  112MPD2    C5 1745   1.966   0.144  11.519  0.0770 -0.6203  0.2890
  112MPD2     H 1746   2.152   0.461  11.406  0.3746 -0.5416 -1.0139
  112MPD2    H1 1747   1.946   0.229  11.708 -3.6815 -0.3344 -1.8049
  112MPD2    H2 1748   1.969   0.072  11.328 -1.8224  0.5232  0.2204
  112MPD2    H3 1749   1.905   0.060  11.550 -1.0016  0.1916  0.3399
  112MPD2     N 1750   2.080   0.468  11.655  0.1549  0.8186  0.1513
  112MPD2    H5 1751   2.047   0.457  11.750 -0.0289 -0.0556 -0.0064
  112MPD2    N1 1752   2.106   0.285  11.212 -0.2200 -0.0883 -0.2522
  112MPD2    H7 1753   2.158   0.367  11.183  0.8922 -0.4498  0.7275
  113TMC2    C1 1754   0.142   3.889   0.494  0.2541 -0.5275  0.4630
  113TMC2    C2 1755   0.049   3.992   0.477 -0.0724  0.9362 -0.3139
  113TMC2    C3 1756   4.699   3.990   0.379 -0.6750 -0.1308  0.6699
  113TMC2    C4 1757   0.142   3.778   0.415  0.2171 -0.4899  0.1427
  113TMC2    C5 1758   0.043   3.780   0.318 -0.5372 -0.0290 -0.7886
  113TMC2    C6 1759   4.702   3.887   0.291  0.1303 -0.5298  0.0636
  113TMC2     C 1760   0.242   3.900   0.599 -0.1746 -0.4550 -0.0557
  113TMC2     O 1761   0.216   3.980   0.684  0.2130 -0.2615 -0.0529
  113TMC2     H 1762   0.052   4.090   0.523  0.4958  0.8309 -0.1384
  113TMC2    H1 1763   0.208   3.693   0.429  1.3891  0.5303  0.8190
  113TMC2    H2 1764   4.626   3.881   0.214  0.1234 -0.2314  0.0504
  113TMC2    C7 1765   4.735   3.654   0.275  0.0536  0.0024 -0.3945
  113TMC2    C8 1766   4.599   4.097   0.380 -0.5807  0.2219  0.2353
  113TMC2    O1 1767   4.671   3.663   0.174 -0.1753  0.1992  0.5267
  113TMC2    O2 1768   4.616   4.212   0.420 -0.3737 -0.1492  0.1614
  113TMC2    O5 1769   4.504   4.053   0.306 -0.0243  0.1798  0.0714
  113TMC2    H5 1770   4.491   3.959   0.329 -1.4965  0.3343 -0.1181
  114MPD2     C 1771   0.737   3.883   0.760 -0.3485  0.1638 -0.5000
  114MPD2    C1 1772   0.623   3.933   0.813 -0.6823 -0.5687  0.5127
  114MPD2    C2 1773   0.502   3.912   0.750 -0.2604  0.4782  0.5103
  114MPD2    C3 1774   0.488   3.850   0.625  0.1541 -0.4371 -0.5482
  114MPD2    C4 1775   0.606   3.784   0.582 -0.0139 -0.9023 -0.7534
  114MPD2    C5 1776   0.725   3.809   0.646 -0.2484  0.4765  0.4603
  114MPD2     H 1777   0.411   3.940   0.803 -0.1090 -0.1480  1.1011
  114MPD2    H1 1778   0.607   3.725   0.491  0.1001  0.1169 -1.4120
  114MPD2    H2 1779   0.833   3.898   0.806 -0.7790  0.6885  0.2251
  114MPD2    H3 1780   0.818   3.770   0.607 -0.4810 -0.1205  0.4957
  114MPD2     N 1781   0.361   3.838   0.559  0.3018  0.0923  0.3709
  114MPD2    H5 1782   0.359   3.794   0.468  1.8490 -2.5883  1.6141
  114MPD2    N1 1783   0.621   4.031   0.918 -0.2126 -0.1462  0.1653
  114MPD2    H7 1784   0.534   4.078   0.939  1.2928  2.5295  0.3218
  115TMC2    C1 1785   0.950   1.329   0.328 -0.4266  0.2257 -0.8728
  115TMC2    C2 1786   1.021   1.312   0.442 -0.1079  0.1724  0.2104
  115TMC2    C3 1787   0.988   1.386   0.554 -0.0896 -0.4423 -0.9349
  115TMC2    C4 1788   0.842   1.416   0.323  0.4698 -0.4418  0.2075
  115TMC2    C5 1789   0.818   1.497   0.430  0.0379 -0.3961 -0.0717
  115TMC2    C6 1790   0.889   1.483   0.553  0.3466  0.1301 -0.2598
  115TMC2     C 1791   0.972   1.245   0.210  0.7131 -0.7579  0.3573
  115TMC2     O 1792   0.885   1.250   0.125 -0.0662  0.2005 -0.3988
  115TMC2     H 1793   1.105   1.243   0.439  0.7521  1.2719 -0.7679
  115TMC2    H1 1794   0.785   1.423   0.231 -1.1540 -0.7459  1.1936
  115TMC2    H2 1795   0.894   1.566   0.622  0.8918 -0.5050  0.4756
  115TMC2    C7 1796   0.734   1.615   0.410 -0.1587 -0.1691 -0.5985
  115TMC2    C8 1797   1.077   1.355   0.668 -0.5489  0.0128  0.4120
  115TMC2    O1 1798   0.660   1.643   0.504 -0.1470 -0.1397  0.4555
  115TMC2    O2 1799   1.167   1.272   0.667 -0.0449 -0.2185 -0.4480
  115TMC2    O5 1800   1.029   1.411   0.787 -0.0345  0.1430  0.0240
  115TMC2    H5 1801   0.937   1.443   0.783 -0.0176  0.2168  0.2689
  116MPD2     C 1802   1.223   0.941  17.656  0.0728 -0.0172  0.5570
  116MPD2    C1 1803   1.091   0.973  17.662  0.7445  0.3037 -0.2120
  116MPD2    C2 1804   1.047   1.055   0.005 -0.1269 -0.5595 -1.2314
  116MPD2    C3 1805   1.135   1.108   0.100  0.5362  0.1940  1.1157
  116MPD2    C4 1806   1.268   1.078   0.092 -0.2471  0.3734  0.1151
  116MPD2    C5 1807   1.307   1.002  17.746 -0.0963 -0.1869  0.3914
  116MPD2     H 1808   0.941   1.073   0.011 -0.1556 -1.3787  0.8293
  116MPD2    H1 1809   1.334   1.112   0.172 -1.6213  1.6829  0.6951
  116MPD2    H2 1810   1.263   0.864  17.591  0.8214 -1.1280  2.3299
  116MPD2    H3 1811   1.415   0.988  17.746  0.1272  1.4693  0.4081
  116MPD2     N 1812   1.096   1.197   0.202 -0.1809  0.6529 -0.1223
  116MPD2    H5 1813   1.165   1.235   0.265  1.7810 -0.7967 -1.3752
  116MPD2    N1 1814   1.015   0.927  17.554 -0.3078 -0.0929 -0.9046
  116MPD2    H7 1815   1.062   0.874  17.481 -0.6954 -1.2260 -0.3326
  117TMC2    C1 1816   4.628   2.269  14.193  0.3929  0.6171  0.0297
  117TMC2    C2 1817   0.021   2.250  14.213 -0.5660 -0.3098  0.0037
  117TMC2    C3 1818   0.101   2.358  14.205  0.2000 -0.2572  0.1032
  117TMC2    C4 1819   4.579   2.395  14.158  0.1288  0.3362 -0.3086
  117TMC2    C5 1820   4.655   2.510  14.176 -0.4689  1.0527  0.2203
  117TMC2    C6 1821   0.053   2.489  14.181 -0.6104  0.3114 -0.1108
  117TMC2     C 1822   4.539   2.146  14.186 -0.6639 -0.2201 -0.1632
  117TMC2     O 1823   4.602   2.041  14.190 -0.0658 -0.3269  0.6616
  117TMC2     H 1824   0.057   2.150  14.234 -0.9462 -0.1910  1.2139
  117TMC2    H1 1825   4.477   2.409  14.123 -1.5134 -0.8532  3.9675
  117TMC2    H2 1826   0.117   2.574  14.164 -1.1969  0.4911 -1.4065
  117TMC2    C7 1827   4.590   2.637  14.143  0.5074  0.6188 -0.0498
  117TMC2    C8 1828   0.238   2.325  14.237  0.8124  0.2776 -0.0258
  117TMC2    O1 1829   4.666   2.728  14.106 -0.2946 -0.0379  0.1648
  117TMC2    O2 1830   0.267   2.276  14.345  0.4893  0.3409  0.0743
  117TMC2    O5 1831   0.290   2.430  14.167 -0.4852 -0.5808 -0.2476
  117TMC2    H5 1832   0.230   2.433  14.088 -0.2738  0.6208 -0.3628
  118MPD2     C 1833   4.236   2.716  14.101 -0.6735  0.4498 -0.1579
  118MPD2    C1 1834   4.368   2.744  14.113 -0.4703  0.1186  1.0073
  118MPD2    C2 1835   4.409   2.874  14.095  0.2615 -0.2657  0.8930
  118MPD2    C3 1836   4.318   2.972  14.061  0.1312 -0.1496 -0.2620
  118MPD2    C4 1837   4.192   2.941  14.036 -0.0703 -0.2651 -0.5024
  118MPD2    C5 1838   4.150   2.812  14.056 -0.2065  0.2121 -0.1805
  118MPD2     H 1839   4.514   2.895  14.081  0.5029 -3.1568 -1.6223
  118MPD2    H1 1840   4.124   3.017  13.999 -2.6860 -2.3007  0.1641
  118MPD2    H2 1841   4.204   2.613  14.110 -0.6788  0.4236 -0.4495
  118MPD2    H3 1842   4.049   2.781  14.035 -0.7185  0.8309  1.3858
  118MPD2     N 1843   4.358   3.110  14.042 -0.2797  0.2632  0.1286
  118MPD2    H5 1844   4.292   3.182  14.014  0.0736  0.3400 -0.4952
  118MPD2    N1 1845   4.456   2.632  14.146  0.1916  0.1139 -0.0589
  118MPD2    H7 1846   4.410   2.543  14.164 -2.8182  1.6238 -0.2107
  119TMC2    C1 1847   2.487   3.232  12.731 -0.5407 -0.5959  0.2850
  119TMC2    C2 1848   2.495   3.098  12.749  0.3246 -0.5775 -0.1617
  119TMC2    C3 1849   2.400   3.037  12.828 -0.9076  0.2375 -0.7129
  119TMC2    C4 1850   2.383   3.300  12.777  0.3048  0.0461  0.2333
  119TMC2    C5 1851   2.293   3.237  12.855 -0.4535  0.2587 -0.1578
  119TMC2    C6 1852   2.305   3.109  12.893 -0.0434  0.2054  1.2196
  119TMC2     C 1853   2.601   3.318  12.747  0.5680  0.0528 -0.4612
  119TMC2     O 1854   2.599   3.428  12.689 -0.9835 -0.1864 -0.1252
  119TMC2     H 1855   2.571   3.040  12.698  0.3330  1.6934 -2.6912
  119TMC2    H1 1856   2.365   3.406  12.761 -0.8705 -0.5518 -2.3986
  119TMC2    H2 1857   2.220   3.069  12.947  0.3184  0.1038  1.7094
  119TMC2    C7 1858   2.193   3.321  12.915  0.5247  0.2993 -0.0464
  119TMC2    C8 1859   2.382   2.898  12.803  0.0376  0.1050  0.6106
  119TMC2    O1 1860   2.141   3.395  12.833 -0.1852 -0.2164 -0.0723
  119TMC2    O2 1861   2.440   2.849  12.706 -0.6676  0.1435 -0.0430
  119TMC2    O5 1862   2.247   2.889  12.818 -0.3659 -0.2489 -0.2326
  119TMC2    H5 1863   2.214   2.881  12.911  0.1534  3.4300  0.3004
  120MPD2     C 1864   2.971   3.449  13.101 -0.6999 -0.3929 -0.0039
  120MPD2    C1 1865   2.895   3.524  13.011  0.0411 -1.0007 -0.0844
  120MPD2    C2 1866   2.817   3.456  12.918  0.1319  0.4278 -0.0710
  120MPD2    C3 1867   2.786   3.321  12.927 -0.8560  0.5790 -0.0532
  120MPD2    C4 1868   2.856   3.247  13.024  0.2080  0.2153 -0.3140
  120MPD2    C5 1869   2.949   3.311  13.103  0.3215  0.6686  0.0689
  120MPD2     H 1870   2.764   3.508  12.839  3.0835 -0.1349 -2.4152
  120MPD2    H1 1871   2.846   3.141  13.043  1.4863  0.6139  2.4734
  120MPD2    H2 1872   3.044   3.477  13.175 -0.3096  0.6406 -0.7888
  120MPD2    H3 1873   2.998   3.254  13.181 -1.5103  1.9713  2.1887
  120MPD2     N 1874   2.681   3.258  12.851  0.4436 -0.3815 -0.6997
  120MPD2    H5 1875   2.657   3.165  12.883 -1.2745  0.0742 -0.6434
  120MPD2    N1 1876   2.913   3.665  13.019  0.3775  0.5588  0.7511
  120MPD2    H7 1877   2.970   3.687  13.100  1.4434  2.5285 -0.5350
  121TMC2    C1 1878   4.425   0.922  14.483  0.4365 -0.0921  0.0304
  121TMC2    C2 1879   4.441   0.839  14.381  0.1417 -0.3016 -0.0142
  121TMC2    C3 1880   4.343   0.754  14.351  0.7945 -0.0870  0.2917
  121TMC2    C4 1881   4.305   0.923  14.557  0.0602 -0.6595  1.0845
  121TMC2    C5 1882   4.205   0.840  14.522  0.4408  0.3040 -0.1401
  121TMC2    C6 1883   4.225   0.757  14.417  0.5521  0.7585  0.1591
  121TMC2     C 1884   4.505   1.043  14.475 -0.2175  0.1018  0.8663
  121TMC2     O 1885   4.493   1.122  14.570  0.8445 -0.4492  0.3423
  121TMC2     H 1886   4.536   0.822  14.332 -0.7117 -0.2640 -1.6626
  121TMC2    H1 1887   4.302   1.003  14.630  0.6572  0.1257  0.2607
  121TMC2    H2 1888   4.155   0.677  14.396  1.7567 -0.4884  0.9112
  121TMC2    C7 1889   4.087   0.852  14.587  0.4665 -0.6170 -1.0374
  121TMC2    C8 1890   4.389   0.635  14.292  0.4119  0.2879  0.5445
  121TMC2    O1 1891   4.090   0.882  14.708  0.0423 -0.4151 -0.0867
  121TMC2    O2 1892   4.437   0.542  14.354  0.2292  0.1634  0.4179
  121TMC2    O5 1893   4.415   0.657  14.160 -0.3806 -0.0056 -0.3415
  121TMC2    H5 1894   4.358   0.734  14.138 -0.3868  0.1658  0.2607
  122MPD2     C 1895   4.704   1.250  14.390 -0.2322 -0.3650  0.2747
  122MPD2    C1 1896   4.634   1.172  14.301 -0.5243 -0.4227  0.6016
  122MPD2    C2 1897   4.625   1.208  14.167 -0.2835 -0.0727  0.4086
  122MPD2    C3 1898   4.682   1.329  14.130 -0.7489  0.1740 -0.3907
  122MPD2    C4 1899   0.021   1.401  14.217 -0.2924  0.7399 -0.0996
  122MPD2    C5 1900   0.035   1.358  14.351  0.6773 -0.4787 -0.0867
  122MPD2     H 1901   4.585   1.140  14.093 -0.5871  1.7937 -1.1220
  122MPD2    H1 1902   0.082   1.486  14.188  0.0903 -0.0818 -1.6745
  122MPD2    H2 1903   4.697   1.233  14.496 -0.5590  0.8553  0.4397
  122MPD2    H3 1904   0.077   1.416  14.432 -1.0870  1.4191 -0.5146
  122MPD2     N 1905   4.676   1.368  14.000 -0.0060  0.3900 -0.2677
  122MPD2    H5 1906   0.008   1.438  13.985  0.3983 -0.0212 -0.2503
  122MPD2    N1 1907   4.565   1.058  14.349  0.8415  0.1112  0.1259
  122MPD2    H7 1908   4.544   0.988  14.278  2.2178 -0.9096  0.7305
  123TMC2    C1 1909   2.852   3.175  10.859  0.1236  0.6034  0.6151
  123TMC2    C2 1910   2.953   3.103  10.917  0.0429 -0.2380 -0.2564
  123TMC2    C3 1911   3.070   3.085  10.854  0.2750  0.0175  0.0023
  123TMC2    C4 1912   2.865   3.215  10.726  0.4088 -0.3307 -0.8513
  123TMC2    C5 1913   2.979   3.176  10.656  0.4959 -0.0095  0.9783
  123TMC2    C6 1914   3.075   3.111  10.716 -0.1182  0.0797  0.2411
  123TMC2     C 1915   2.726   3.166  10.922  0.6505 -0.1340 -0.4414
  123TMC2     O 1916   2.716   3.125  11.033  0.2982  0.5156  0.5863
  123TMC2     H 1917   2.950   3.086  11.024 -0.1242  0.5234 -0.1410
  123TMC2    H1 1918   2.785   3.263  10.672  0.0667  1.3135  1.1165
  123TMC2    H2 1919   3.151   3.060  10.658 -1.0546 -2.0867  0.9193
  123TMC2    C7 1920   2.947   3.140  10.522  0.1561  0.7585  0.2570
  123TMC2    C8 1921   3.155   2.970  10.892 -0.2049 -0.5203  0.1019
  123TMC2    O1 1922   2.830   3.117  10.502  0.3110 -0.3083 -0.9764
  123TMC2    O2 1923   3.188   2.885  10.811 -0.1893  0.0405  0.1698
  123TMC2    O5 1924   3.214   3.001  11.007  0.1052  0.8123 -0.2371
  123TMC2    H5 1925   3.165   3.069  11.058  0.8098  1.4664 -0.4272
  124MPD2     C 1926   2.210   3.103  10.835  0.4254 -0.2446  0.1619
  124MPD2    C1 1927   2.276   3.137  10.717  0.5059 -0.0070  0.2280
  124MPD2    C2 1928   2.418   3.161  10.723  0.4502 -0.1776 -0.0202
  124MPD2    C3 1929   2.489   3.158  10.840 -0.4368  0.1595 -0.7078
  124MPD2    C4 1930   2.417   3.124  10.955  0.2552 -0.0950 -0.4019
  124MPD2    C5 1931   2.277   3.102  10.954 -0.2823 -0.2546 -0.4839
  124MPD2     H 1932   2.468   3.191  10.632 -0.1436  0.8269 -0.0230
  124MPD2    H1 1933   2.466   3.125  11.052 -0.7312 -1.3366  0.1051
  124MPD2    H2 1934   2.102   3.100  10.826  0.4366  0.7285 -0.3124
  124MPD2    H3 1935   2.218   3.087  11.044 -0.1272 -2.2270 -0.7213
  124MPD2     N 1936   2.627   3.184  10.831  0.4049 -0.0854  0.1489
  124MPD2    H5 1937   2.666   3.192  10.737  0.2933 -2.6510 -0.1114
  124MPD2    N1 1938   2.206   3.142  10.594  0.6766  0.0912  0.7008
  124MPD2    H7 1939   2.112   3.105  10.604  0.4842  0.7278  1.2088
  125TMC2    C1 1940   3.633   0.321   9.353  0.0699 -0.0735  0.7562
  125TMC2    C2 1941   3.560   0.274   9.455  0.2116  0.1210 -0.4116
  125TMC2    C3 1942   3.483   0.161   9.430 -1.1085  0.5463  0.7983
  125TMC2    C4 1943   3.633   0.268   9.228 -0.0331  0.8436 -1.1487
  125TMC2    C5 1944   3.568   0.150   9.208  0.4641  0.1710 -0.8937
  125TMC2    C6 1945   3.487   0.093   9.306  0.9840  0.2410 -0.0648
  125TMC2     C 1946   3.738   0.411   9.378  0.2420 -0.6420 -0.1669
  125TMC2     O 1947   3.794   0.458   9.282 -0.1636  0.1886  0.0128
  125TMC2     H 1948   3.543   0.326   9.549  2.3739  0.7311 -0.3782
  125TMC2    H1 1949   3.683   0.323   9.148 -1.0207 -0.2756 -2.5288
  125TMC2    H2 1950   3.444   4.737   9.283  0.7097  0.4301 -0.3558
  125TMC2    C7 1951   3.525   0.117   9.071  0.2353 -0.1381 -0.5899
  125TMC2    C8 1952   3.410   0.107   9.542  0.7348 -0.5724 -0.2231
  125TMC2    O1 1953   3.421   0.054   9.053  0.0937 -0.4460 -0.6386
  125TMC2    O2 1954   3.379   0.184   9.633 -1.2145 -0.3675  0.0077
  125TMC2    O5 1955   3.373   4.717   9.524 -0.4325 -0.1017  0.1637
  125TMC2    H5 1956   3.443   4.673   9.471 -1.5266  1.0438 -2.2169
  126MPD1     C 1957   4.051   0.650   9.703  0.4117  1.2243 -1.5612
  126MPD1    C1 1958   3.970   0.569   9.775  0.3611  0.0831 -0.0773
  126MPD1    C2 1959   3.876   0.496   9.705  0.2614 -0.6348  0.3160
  126MPD1    C3 1960   3.859   0.499   9.571  0.3822 -0.8570 -0.1000
  126MPD1    C4 1961   3.938   0.585   9.498  0.5097 -0.2574 -0.2251
  126MPD1    C5 1962   4.028   0.662   9.567  0.8014  0.5186  0.0032
  126MPD1     H 1963   3.814   0.430   9.765  0.0854  1.5355  2.5438
  126MPD1    H1 1964   3.930   0.588   9.390  1.5657  0.4491 -0.2865
  126MPD1    H2 1965   4.132   0.707   9.747 -0.9258  1.3949  0.7161
  126MPD1    H3 1966   4.094   0.721   9.505  2.2483 -1.5855 -0.4746
  126MPD1     N 1967   3.761   0.417   9.512  1.0107 -0.3327 -0.3402
  126MPD1    H5 1968   3.710   0.355   9.574 -0.6139  0.9051 -0.4268
  126MPD1    N1 1969   3.982   0.542   9.914  0.0063  0.1023  0.4142
  126MPD1    H6 1970   4.015   0.622   9.969 -1.9225  1.4037 -0.3168
  126MPD1    H7 1971   3.893   0.518   9.957 -0.9076 -0.8460 -2.0097
  127TMC2    C1 1972   4.303   4.290   9.943 -0.7523  0.1632  0.4621
  127TMC2    C2 1973   4.393   4.280  10.047 -0.3137  0.5009 -0.6369
  127TMC2    C3 1974   4.418   4.157  10.109 -0.1164  0.1113  0.4216
  127TMC2    C4 1975   4.241   4.176   9.906  1.0906  0.6023  0.3081
  127TMC2    C5 1976   4.263   4.059   9.969  0.1248 -0.1728  0.0194
  127TMC2    C6 1977   4.357   4.042  10.066  0.1789 -0.5893 -0.6229
  127TMC2     C 1978   4.305   4.400   9.853  0.0969 -0.3789 -0.8862
  127TMC2     O 1979   4.403   4.471   9.864  0.2485 -0.5450  0.0410
  127TMC2     H 1980   4.463   4.359  10.070 -0.9270  0.2874  1.9789
  127TMC2    H1 1981   4.159   4.175   9.836  0.7677 -0.5812  0.6936
  127TMC2    H2 1982   4.378   3.946  10.112  0.4949  0.0788  0.6222
  127TMC2    C7 1983   4.168   3.949   9.933  0.8971 -1.1584  0.2254
  127TMC2    C8 1984   4.538   4.148  10.190  0.1676 -1.0084  0.1331
  127TMC2    O1 1985   4.160   3.928   9.813  0.3365 -0.0537  0.2014
  127TMC2    O2 1986   4.564   4.233  10.268  0.1302 -0.0001  0.0514
  127TMC2    O5 1987   4.626   4.073  10.117  0.1579  0.0046 -0.0849
  127TMC2    H5 1988   4.594   4.039  10.031  1.2495 -0.8516 -0.1482
  128MPD2     C 1989   4.111   4.458   9.547 -0.3362 -0.6816 -0.4203
  128MPD2    C1 1990   4.206   4.489   9.639 -0.3025  0.4953  0.0307
  128MPD2    C2 1991   4.301   4.582   9.611 -0.2308 -0.0791 -0.0962
  128MPD2    C3 1992   4.299   4.657   9.493 -0.3896 -0.5269 -1.1485
  128MPD2    C4 1993   4.201   4.628   9.406  0.6569  0.3349 -0.0816
  128MPD2    C5 1994   4.107   4.531   9.434  0.3371 -0.8670 -0.4797
  128MPD2     H 1995   4.377   4.614   9.681 -0.8552 -1.8608  1.4132
  128MPD2    H1 1996   4.195   4.684   9.314 -2.6423  1.1229  0.6330
  128MPD2    H2 1997   4.047   4.373   9.566 -2.4915  0.9413 -0.5061
  128MPD2    H3 1998   4.039   4.508   9.353  1.2072 -1.5106 -1.0322
  128MPD2     N 1999   4.403   0.011   9.476  0.0238 -0.6264  0.0190
  128MPD2    H5 2000   4.461   0.028   9.558 -0.1443 -0.5608  0.1252
  128MPD2    N1 2001   4.199   4.410   9.760  0.1152 -0.0852 -0.3443
  128MPD2    H7 2002   4.121   4.346   9.774 -3.1699  3.6823 -1.6071
  129TMC2    C1 2003   3.033   1.112   1.253 -0.2037 -0.1126  0.1459
  129TMC2    C2 2004   2.948   1.200   1.186 -0.3459 -0.8168  1.7173
  129TMC2    C3 2005   2.887   1.146   1.079 -0.2576  0.2114 -0.4623
  129TMC2    C4 2006   3.051   0.977   1.221  1.3425 -0.9022 -0.2693
  129TMC2    C5 2007   2.981   0.934   1.111 -0.1034 -0.0626  0.5051
  129TMC2    C6 2008   2.901   1.016   1.036 -0.2944 -0.5759  0.4596
  129TMC2     C 2009   3.099   1.150   1.378 -0.3959 -0.6038  0.4300
  129TMC2     O 2010   3.103   1.059   1.457 -0.0789  0.3820 -0.7043
  129TMC2     H 2011   2.925   1.299   1.223 -0.3991 -0.7088  1.3940
  129TMC2    H1 2012   3.124   0.915   1.273 -0.0925 -0.7914  1.8921
  129TMC2    H2 2013   2.836   0.977   0.959  0.2064 -0.9413  0.2306
  129TMC2    C7 2014   2.966   0.790   1.091 -0.1175 -0.3837 -0.5099
  129TMC2    C8 2015   2.792   1.219   1.006  1.0537  0.3652  0.4772
  129TMC2    O1 2016   2.890   0.761   1.003  0.0810  0.0613 -0.0711
  129TMC2    O2 2017   2.754   1.202   0.893 -0.2635  0.1554 -0.4240
  129TMC2    O5 2018   2.725   1.268   1.112  0.3576 -0.3407 -0.7708
  129TMC2    H5 2019   2.762   1.252   1.201 -2.2582 -3.0203 -0.1645
  130MPD2     C 2020   3.181   1.270   1.637  0.1186  1.0676  0.6232
  130MPD2    C1 2021   3.160   1.342   1.520  0.1106  0.4782  1.0029
  130MPD2    C2 2022   3.183   1.478   1.521 -0.0300 -0.9375  0.2774
  130MPD2    C3 2023   3.222   1.546   1.634 -1.2377  0.8585  1.4913
  130MPD2    C4 2024   3.235   1.475   1.753  0.6550  0.2633 -0.1806
  130MPD2    C5 2025   3.220   1.337   1.751 -0.0262 -0.2345  0.1086
  130MPD2     H 2026   3.172   1.546   1.437 -0.1377 -0.7005  0.4802
  130MPD2    H1 2027   3.258   1.517   1.850 -1.6130 -1.1712  0.9697
  130MPD2    H2 2028   3.183   1.162   1.637  0.6303  1.0621 -1.5063
  130MPD2    H3 2029   3.230   1.271   1.836 -0.2811  2.3713  2.1416
  130MPD2     N 2030   3.237   1.686   1.623  0.1688  0.7776 -0.0379
  130MPD2    H5 2031   3.231   1.723   1.529  0.3006  1.0840  0.0756
  130MPD2    N1 2032   3.115   1.285   1.398 -0.3030  0.0651  0.2967
  130MPD2    H7 2033   3.097   1.348   1.321  1.0672 -0.7398 -0.6690
  131TMC2    C1 2034   2.644   3.903  10.136 -0.3839 -0.2358 -0.1208
  131TMC2    C2 2035   2.636   3.980  10.251 -0.5641  0.4049 -0.0239
  131TMC2    C3 2036   2.739   4.073  10.270  0.2942 -0.1941 -0.0783
  131TMC2    C4 2037   2.733   3.919  10.035  0.1914 -0.1105  0.2197
  131TMC2    C5 2038   2.824   4.021  10.047  0.7316 -0.4208  0.0728
  131TMC2    C6 2039   2.817   4.100  10.157  0.2277 -0.7204  0.1721
  131TMC2     C 2040   2.554   3.787  10.117 -0.2593  0.2535  0.4181
  131TMC2     O 2041   2.534   3.724  10.222  0.5237  0.9262 -0.4822
  131TMC2     H 2042   2.549   3.971  10.314  1.3081 -2.9008  2.0634
  131TMC2    H1 2043   2.725   3.854   9.948 -0.1576 -1.2192  1.0780
  131TMC2    H2 2044   2.889   4.179  10.178 -0.6206  0.2305 -0.5028
  131TMC2    C7 2045   2.914   4.050   9.935  0.5206 -0.6219  0.6989
  131TMC2    C8 2046   2.718   4.185  10.362  0.3343  0.3934  0.3874
  131TMC2    O1 2047   2.926   3.962   9.854  0.4816 -0.0006 -0.4659
  131TMC2    O2 2048   2.665   4.292  10.331  0.1048  0.0638  0.8661
  131TMC2    O5 2049   2.686   4.127  10.476 -0.0338  0.5849  0.0355
  131TMC2    H5 2050   2.739   4.044  10.481  2.3590  1.9101 -2.5684
  132MPD2     C 2051   2.300   3.746   9.858  0.1528  0.4490  0.1130
  132MPD2    C1 2052   2.373   3.716   9.963 -0.3784 -0.7046 -0.2646
  132MPD2    C2 2053   2.324   3.615  10.047  0.6358  0.3093 -0.5038
  132MPD2    C3 2054   2.214   3.546  10.009 -0.0902 -0.0933  0.3510
  132MPD2    C4 2055   2.140   3.577   9.903  0.1885 -0.5869 -0.0725
  132MPD2    C5 2056   2.175   3.684   9.827  0.1583 -0.1886 -0.6412
  132MPD2     H 2057   2.379   3.575  10.132 -0.1124  1.4202  0.5124
  132MPD2    H1 2058   2.041   3.538   9.886 -0.2602 -0.5568  2.5017
  132MPD2    H2 2059   2.336   3.829   9.799  1.6921 -1.1685 -1.2301
  132MPD2    H3 2060   2.128   3.704   9.731 -0.5494  1.8000  0.1196
  132MPD2     N 2061   2.182   3.435  10.090  0.1470  0.3652 -0.1628
  132MPD2    H5 2062   2.255   3.409  10.155  0.9044  0.0714 -1.1295
  132MPD2    N1 2063   2.488   3.792   9.997 -0.3003 -0.4840 -0.1095
  132MPD2    H7 2064   2.516   3.860   9.927 -0.1070  0.5998  1.0272
  133TMC2    C1 2065   2.120   0.883   9.731 -0.2435 -0.1497  0.2776
  133TMC2    C2 2066   2.240   0.824   9.739  1.1254 -0.8023  0.1654
  133TMC2    C3 2067   2.322   0.865   9.846  0.0735  0.3021 -0.1535
  133TMC2    C4 2068   2.072   0.964   9.831 -0.2239 -0.7178  0.1228
  133TMC2    C5 2069   2.156   0.999   9.935 -0.1385 -0.1002  0.1867
  133TMC2    C6 2070   2.274   0.944   9.950  0.0428  0.1026  0.6394
  133TMC2     C 2071   2.030   0.807   9.642  0.1511 -0.1838 -0.5540
  133TMC2     O 2072   2.076   0.703   9.590 -0.0856  0.1708  0.0359
  133TMC2     H 2073   2.284   0.762   9.661 -1.2781  1.7211 -3.1813
  133TMC2    H1 2074   1.972   1.006   9.825  0.3226  0.6124  0.3498
  133TMC2    H2 2075   2.342   0.972  10.029  3.0861 -2.0264 -1.2182
  133TMC2    C7 2076   2.103   1.102  10.015 -0.2484 -0.0073  0.9080
  133TMC2    C8 2077   2.419   0.758   9.865  0.2638  0.7067 -0.3951
  133TMC2    O1 2078   2.044   1.192   9.957  0.2194 -0.0703  0.1394
  133TMC2    O2 2079   2.413   0.641   9.828  0.0018  0.0833  0.3790
  133TMC2    O5 2080   2.505   0.801   9.956  0.4168  0.3391 -0.2921
  133TMC2    H5 2081   2.525   0.897   9.951  0.5615  0.3893  1.1877
  134MPD2     C 2082   1.721   0.917   9.489 -0.2114 -0.1431 -0.2186
  134MPD2    C1 2083   1.821   0.827   9.522  0.1310 -0.4326 -0.1758
  134MPD2    C2 2084   1.805   0.694   9.480  0.2674 -0.0116  0.1009
  134MPD2    C3 2085   1.692   0.652   9.403 -0.4714 -0.3044  0.2410
  134MPD2    C4 2086   1.592   0.749   9.378  0.1148  0.2399 -0.3559
  134MPD2    C5 2087   1.604   0.875   9.431 -0.2603  0.2749 -0.2517
  134MPD2     H 2088   1.877   0.620   9.511 -0.8443 -0.8371  0.7135
  134MPD2    H1 2089   1.498   0.723   9.330  0.8938 -1.6729 -0.8084
  134MPD2    H2 2090   1.734   1.023   9.507  1.6070 -0.6448  1.4018
  134MPD2    H3 2091   1.523   0.945   9.415 -1.7332 -1.0741  1.2676
  134MPD2     N 2092   1.670   0.522   9.362  0.2880  0.0495  0.2127
  134MPD2    H5 2093   1.584   0.515   9.309  0.4253 -0.0695  0.0035
  134MPD2    N1 2094   1.920   0.876   9.612 -0.0702 -0.5147 -0.7048
  134MPD2    H7 2095   1.912   0.974   9.640  0.3296 -0.2127 -1.6499
  135TMC2    C1 2096   3.676   2.109   9.762 -0.3139 -0.4561  0.2166
  135TMC2    C2 2097   3.678   2.244   9.753 -0.2512  0.6647 -0.1211
  135TMC2    C3 2098   3.567   2.308   9.791 -0.0056 -0.5473  0.3211
  135TMC2    C4 2099   3.562   2.038   9.801 -0.1953  0.3462 -0.3385
  135TMC2    C5 2100   3.446   2.109   9.804 -0.1925  0.1645  0.5938
  135TMC2    C6 2101   3.441   2.246   9.798 -0.2926  0.0841  0.1761
  135TMC2     C 2102   3.810   2.047   9.755 -0.4668 -0.3260 -0.1596
  135TMC2     O 2103   3.907   2.118   9.776 -0.9880  0.0425  0.4988
  135TMC2     H 2104   3.772   2.295   9.735 -0.6417  1.2448 -0.5228
  135TMC2    H1 2105   3.571   1.934   9.827  0.7307  0.3936 -0.4748
  135TMC2    H2 2106   3.348   2.300   9.804 -2.9960 -4.5419 -0.2145
  135TMC2    C7 2107   3.315   2.037   9.818 -0.0103 -0.2820  0.3601
  135TMC2    C8 2108   3.559   2.445   9.759  0.2739  0.5621  0.2108
  135TMC2    O1 2109   3.215   2.102   9.798  0.3310  0.3470 -0.2904
  135TMC2    O2 2110   3.457   2.479   9.705 -0.4999 -0.0814  0.2839
  135TMC2    O5 2111   3.671   2.519   9.782 -0.1849 -0.4223 -0.0065
  135TMC2    H5 2112   3.738   2.481   9.843 -1.1030 -2.5828 -0.3622
  136MPD2     C 2113   4.041   1.884   9.683  0.5678 -0.8858  0.6292
  136MPD2    C1 2114   3.914   1.846   9.649 -0.5111  0.6666 -0.3234
  136MPD2    C2 2115   3.887   1.725   9.581 -0.6958  0.0401 -0.2621
  136MPD2    C3 2116   3.993   1.647   9.531 -0.8381 -0.0278 -0.2487
  136MPD2    C4 2117   4.120   1.694   9.555  0.2736 -0.2879 -0.3406
  136MPD2    C5 2118   4.145   1.809   9.629  0.6692  0.2474 -0.1667
  136MPD2     H 2119   3.785   1.691   9.569 -0.8444  0.3401  0.1518
  136MPD2    H1 2120   4.204   1.636   9.520 -0.4984 -2.2302  1.0000
  136MPD2    H2 2121   4.065   1.971   9.743  4.1169 -0.4288 -1.4441
  136MPD2    H3 2122   4.247   1.847   9.637  0.4240  1.1370 -1.3009
  136MPD2     N 2123   3.981   1.524   9.471  0.6284  0.2420 -0.1115
  136MPD2    H5 2124   4.068   1.476   9.453  0.8328  0.4595  0.2896
  136MPD2    N1 2125   3.801   1.928   9.689  0.3048 -0.2835  0.3724
  136MPD2    H7 2126   3.707   1.901   9.661  0.4842 -0.7384  0.2153
  137TMC2    C1 2127   3.818   0.772   9.124 -0.0717  0.2615 -0.3250
  137TMC2    C2 2128   3.892   0.808   9.017  0.1393 -0.2271  0.0824
  137TMC2    C3 2129   3.841   0.782   8.890  0.7478  0.5826  0.2737
  137TMC2    C4 2130   3.698   0.710   9.113  0.2097 -0.0373 -0.5038
  137TMC2    C5 2131   3.657   0.676   8.988 -0.0717 -0.1562  0.1859
  137TMC2    C6 2132   3.722   0.713   8.872  0.8410  0.2018 -0.1987
  137TMC2     C 2133   3.858   0.835   9.248 -0.3703 -0.3754  0.6042
  137TMC2     O 2134   3.973   0.866   9.256  0.0836 -0.0324 -0.2993
  137TMC2     H 2135   3.984   0.864   9.029  0.2304  0.0337 -1.8421
  137TMC2    H1 2136   3.651   0.662   9.197 -2.1487  0.5811 -1.4581
  137TMC2    H2 2137   3.687   0.679   8.775 -2.4120  2.1750  0.3168
  137TMC2    C7 2138   3.541   0.587   8.966  0.2819  0.3324  0.1299
  137TMC2    C8 2139   3.913   0.830   8.772 -0.0735  0.1068  0.0632
  137TMC2    O1 2140   3.532   0.546   8.851  0.0275 -0.5662  0.2865
  137TMC2    O2 2141   4.032   0.837   8.773  0.3815  0.1641  0.1149
  137TMC2    O5 2142   3.818   0.884   8.689 -0.1589  0.7149 -0.3294
  137TMC2    H5 2143   3.723   0.874   8.712 -0.5998  2.0644 -1.6170
  138MPD2     C 2144   3.623   1.010   9.469  0.5981 -0.4227  0.2490
  138MPD2    C1 2145   3.748   0.966   9.433  0.0578 -0.2040 -0.3790
  138MPD2    C2 2146   3.862   0.993   9.509 -0.1086  0.0258 -0.9784
  138MPD2    C3 2147   3.848   1.075   9.615  0.5061 -0.0962 -0.0190
  138MPD2    C4 2148   3.725   1.134   9.643  0.1084  1.1368  0.3431
  138MPD2    C5 2149   3.613   1.097   9.574  0.5857 -0.0619  0.3836
  138MPD2     H 2150   3.954   0.939   9.488  0.1784  0.2157 -0.1740
  138MPD2    H1 2151   3.714   1.202   9.727  0.6221  1.4577  0.1525
  138MPD2    H2 2152   3.532   0.987   9.414 -0.8189  3.0675  1.1405
  138MPD2    H3 2153   3.514   1.129   9.601  0.7458  1.7108 -1.1123
  138MPD2     N 2154   3.958   1.088   9.698  0.6390 -0.0948 -0.0441
  138MPD2    H5 2155   4.047   1.049   9.670  0.4550 -2.2829  2.4042
  138MPD2    N1 2156   3.749   0.886   9.313  0.3345 -0.0922  0.2007
  138MPD2    H7 2157   3.656   0.855   9.287  0.2353 -0.2956  0.7983
  139TMC2    C1 2158   4.709   3.751  13.615 -0.2414  0.5681 -0.4079
  139TMC2    C2 2159   0.083   3.817  13.648  0.2170  0.0399  0.7448
  139TMC2    C3 2160   0.073   3.935  13.708  0.2740 -0.1457  0.3313
  139TMC2    C4 2161   4.586   3.795  13.661 -0.3339  0.1379 -0.4867
  139TMC2    C5 2162   4.581   3.910  13.734 -0.6325 -0.4800 -0.5336
  139TMC2    C6 2163   4.693   3.982  13.749 -0.0122 -0.0907  0.2701
  139TMC2     C 2164   4.716   3.617  13.564 -0.2058  0.5239 -0.3469
  139TMC2     O 2165   0.069   3.600  13.489 -0.5281  0.2370 -0.1556
  139TMC2     H 2166   0.184   3.789  13.623 -0.7268 -1.6496 -1.1400
  139TMC2    H1 2167   4.491   3.757  13.627 -0.1344  1.2212 -2.2437
  139TMC2    H2 2168   4.682   4.078  13.799  1.8959  0.2833 -0.0295
  139TMC2    C7 2169   4.453   3.988  13.730 -0.5197  0.5947  0.4371
  139TMC2    C8 2170   0.181   3.991  13.782  0.0761  0.3941 -0.1652
  139TMC2    O1 2171   4.456   4.106  13.752 -0.6530 -0.1593 -0.3976
  139TMC2    O2 2172   0.271   3.925  13.831 -0.1745  0.6635 -0.0903
  139TMC2    O5 2173   0.178   4.133  13.769 -0.1436 -0.0152  0.2275
  139TMC2    H5 2174   0.103   4.154  13.710 -0.0668  2.4170  0.9644
  140MPD2     C 2175   4.537   3.321  13.686  0.1800 -0.6421  0.0619
  140MPD2    C1 2176   4.629   3.393  13.616 -0.5040 -0.4541  0.2735
  140MPD2    C2 2177   4.717   3.320  13.537  0.1225  0.5038  0.0485
  140MPD2    C3 2178   4.720   3.180  13.557 -0.4806 -0.3426 -0.3696
  140MPD2    C4 2179   4.632   3.113  13.639  0.4473  0.1915 -0.4803
  140MPD2    C5 2180   4.534   3.187  13.705 -0.4004 -0.4889  0.6501
  140MPD2     H 2181   0.054   3.371  13.479  2.3535 -2.7686  0.1293
  140MPD2    H1 2182   4.646   3.008  13.662  2.2381  0.2133 -1.4967
  140MPD2    H2 2183   4.455   3.372  13.736  1.4166  0.9032  0.5256
  140MPD2    H3 2184   4.452   3.140  13.759 -2.2147 -0.9795 -2.5093
  140MPD2     N 2185   0.092   3.122  13.491  0.7977  0.3485  0.1677
  140MPD2    H5 2186   0.149   3.174  13.424 -1.9837  2.3946 -0.5965
  140MPD2    N1 2187   4.620   3.534  13.619  0.0561  0.2074 -0.2964
  140MPD2    H7 2188   4.561   3.571  13.693  0.8743 -0.5398  0.7363
  141TMC2    C1 2189   0.352   0.139  14.461  0.4471  0.5557  0.1704
  141TMC2    C2 2190   0.371   0.264  14.424  0.3592 -0.7215  0.2772
  141TMC2    C3 2191   0.450   0.347  14.501  1.0221 -0.2178 -0.5895
  141TMC2    C4 2192   0.421   0.080  14.565  1.1078  0.3505  0.9509
  141TMC2    C5 2193   0.499   0.161  14.642 -0.2228  0.1605 -0.7355
  141TMC2    C6 2194   0.506   0.299  14.612 -0.7040  0.6230  0.3077
  141TMC2     C 2195   0.287   0.060  14.363  0.1105  0.0353  0.2718
  141TMC2     O 2196   0.284   0.114  14.252 -0.4125 -0.0020  0.1263
  141TMC2     H 2197   0.327   0.299  14.331 -1.1199  0.3176  1.3695
  141TMC2    H1 2198   0.410   4.713  14.579  1.5684  0.0690 -0.8362
  141TMC2    H2 2199   0.577   0.362  14.663 -0.5802  0.6281  0.1289
  141TMC2    C7 2200   0.580   0.103  14.741  0.5259  0.6476 -0.0812
  141TMC2    C8 2201   0.450   0.487  14.464  0.1716 -0.6495  1.0315
  141TMC2    O1 2202   0.555   4.727  14.768  0.4591  0.2633  0.1961
  141TMC2    O2 2203   0.426   0.520  14.350 -0.0299  0.3325 -0.0540
  141TMC2    O5 2204   0.455   0.564  14.577  0.0667 -0.2999 -0.2148
  141TMC2    H5 2205   0.447   0.517  14.663 -0.1112  2.6277  1.3756
  142TMC2    C1 2206   2.491   2.599  10.126 -0.0134 -0.0302 -0.5571
  142TMC2    C2 2207   2.510   2.544  10.002  0.5480 -0.4862  0.1342
  142TMC2    C3 2208   2.599   2.612   9.922  0.9874  0.2522 -0.1091
  142TMC2    C4 2209   2.543   2.722  10.161 -0.2262 -0.8283  0.2410
  142TMC2    C5 2210   2.629   2.783  10.073  0.0685 -0.0297 -0.2266
  142TMC2    C6 2211   2.661   2.735   9.949  0.4139  0.5915  0.0141
  142TMC2     C 2212   2.425   2.527  10.231 -0.0402  0.2035 -0.6043
  142TMC2     O 2213   2.426   2.584  10.339 -0.4527 -0.3170  0.7933
  142TMC2     H 2214   2.476   2.451   9.958 -3.2524  0.9397  0.0998
  142TMC2    H1 2215   2.524   2.773  10.255  0.5244 -0.4264  0.1744
  142TMC2    H2 2216   2.735   2.789   9.891  0.9604 -1.2777 -1.0298
  142TMC2    C7 2217   2.705   2.882  10.132 -0.3882 -0.0478  0.4755
  142TMC2    C8 2218   2.659   2.533   9.820 -0.1096 -0.3890 -0.0341
  142TMC2    O1 2219   2.647   2.955  10.210 -0.3720 -0.6021 -0.0605
  142TMC2    O2 2220   2.654   2.411   9.815  0.5497  0.5259  0.7744
  142TMC2    O5 2221   2.718   2.610   9.725 -0.4180 -0.2071  0.1779
  142TMC2    H5 2222   2.688   2.703   9.733 -1.9659 -0.8101  1.4400
  143MPD2     C 2223   2.148   2.130  10.414 -0.5966  0.0050 -0.0261
  143MPD2    C1 2224   2.217   2.234  10.474 -0.0005  0.3111 -0.6178
  143MPD2    C2 2225   2.287   2.328  10.400 -0.0923 -0.1214 -0.2911
  143MPD2    C3 2226   2.300   2.313  10.264  0.1718 -0.4486  0.1815
  143MPD2    C4 2227   2.248   2.194  10.205 -0.2093 -0.2721 -0.5365
  143MPD2    C5 2228   2.169   2.106  10.282  0.0262 -0.0625 -0.5947
  143MPD2     H 2229   2.338   2.408  10.453  1.3254 -1.8707  1.0160
  143MPD2    H1 2230   2.269   2.170  10.102  2.5472 -1.5059  0.3207
  143MPD2    H2 2231   2.078   2.075  10.476 -1.5423  2.0881  0.7308
  143MPD2    H3 2232   2.122   2.022  10.234  0.2685 -0.0895 -0.7852
  143MPD2     N 2233   2.363   2.411  10.184  0.0610  0.1078 -0.8848
  143MPD2    H5 2234   2.359   2.406  10.083 -0.9951  1.1841 -0.9020
  143MPD2    N1 2235   2.211   2.251  10.617  0.5620 -0.7967  0.4022
  143MPD2    H7 2236   2.141   2.198  10.669 -1.2446  1.6914  0.4922
  144TMC2    C1 2237   0.568   2.576   0.697 -0.0515  0.3118 -0.1404
  144TMC2    C2 2238   0.610   2.450   0.668 -0.3441  0.4996  0.7318
  144TMC2    C3 2239   0.732   2.419   0.705 -0.9476  1.0070 -0.1797
  144TMC2    C4 2240   0.640   2.668   0.771 -0.8153 -0.0877  0.2211
  144TMC2    C5 2241   0.755   2.622   0.819 -0.0898 -0.7021 -0.1669
  144TMC2    C6 2242   0.810   2.504   0.778  0.1528 -0.1297  0.7130
  144TMC2     C 2243   0.442   2.606   0.644  0.7906 -0.3542 -0.1130
  144TMC2     O 2244   0.378   2.513   0.595  0.3563 -0.2105 -0.2253
  144TMC2     H 2245   0.544   2.383   0.614  0.0496 -0.6801  1.7149
  144TMC2    H1 2246   0.596   2.764   0.795  0.4827  0.3774  0.7284
  144TMC2    H2 2247   0.911   2.479   0.808  0.5518 -1.4959 -1.7177
  144TMC2    C7 2248   0.861   2.705   0.878  0.5231 -0.1571  0.3833
  144TMC2    C8 2249   0.781   2.283   0.713 -0.0631  0.0386  0.0941
  144TMC2    O1 2250   0.968   2.657   0.913  0.4007 -0.0564 -0.5112
  144TMC2    O2 2251   0.893   2.251   0.744  0.7218 -0.2980 -0.2302
  144TMC2    O5 2252   0.676   2.223   0.784  0.2057 -0.0126  0.1800
  144TMC2    H5 2253   0.585   2.251   0.758  0.7382  1.2839 -0.3095
  145MPD2     C 2254   0.086   2.917   0.439 -0.3050 -0.1874 -0.1227
  145MPD2    C1 2255   0.107   2.783   0.419  0.0059  0.3966 -0.5990
  145MPD2    C2 2256   0.215   2.725   0.488 -0.3220  0.2132 -0.2538
  145MPD2    C3 2257   0.300   2.802   0.573 -0.4770  0.2416  0.8525
  145MPD2    C4 2258   0.267   2.935   0.596  0.4942  0.4274  0.4882
  145MPD2    C5 2259   0.154   2.982   0.540 -0.1592 -0.2146 -1.0384
  145MPD2     H 2260   0.230   2.621   0.462 -1.5494 -0.1092  0.3674
  145MPD2    H1 2261   0.324   2.992   0.669  1.1886  2.2244 -1.4557
  145MPD2    H2 2262   0.007   2.965   0.382  0.6645  0.4661 -0.9270
  145MPD2    H3 2263   0.130   3.087   0.556  1.4139  0.0696 -0.4991
  145MPD2     N 2264   0.408   2.742   0.642  0.0166 -0.4896  0.3980
  145MPD2    H5 2265   0.473   2.807   0.684 -1.0482  1.0206 -0.2699
  145MPD2    N1 2266   0.040   2.700   0.328  0.5109 -0.1317  0.2215
  145MPD2    H7 2267   0.079   2.607   0.317  0.1262 -0.0983 -1.3889
  146TMC2    C1 2268   1.946   0.991  12.573  0.1542 -0.3615 -0.6601
  146TMC2    C2 2269   1.836   0.971  12.494 -0.1052  0.2339  0.4193
  146TMC2    C3 2270   1.845   0.874  12.406  0.3914  0.4756 -0.0896
  146TMC2    C4 2271   2.059   0.912  12.566 -0.5261 -0.0668 -0.1057
  146TMC2    C5 2272   2.067   0.809  12.473  0.2670 -0.3366  0.2010
  146TMC2    C6 2273   1.962   0.797  12.382  0.2068 -0.0897  0.6304
  146TMC2     C 2274   1.921   1.071  12.692 -0.0679  0.6948  0.1895
  146TMC2     O 2275   1.820   1.136  12.688  0.5599  0.0623  0.0819
  146TMC2     H 2276   1.738   1.010  12.517 -0.9831 -1.9884  0.3632
  146TMC2    H1 2277   2.144   0.955  12.619  0.5024 -1.0280 -0.9777
  146TMC2    H2 2278   1.951   0.708  12.321 -1.1787  2.0140 -2.1815
  146TMC2    C7 2279   2.181   0.724  12.453  0.5381  1.2426 -0.2624
  146TMC2    C8 2280   1.718   0.797  12.389  1.3560  0.3418  0.6569
  146TMC2    O1 2281   2.201   0.685  12.338 -0.2303 -0.1211 -0.2250
  146TMC2    O2 2282   1.629   0.788  12.476 -0.5546 -0.0832 -0.7112
  146TMC2    O5 2283   1.723   0.743  12.264  0.4341 -0.3589  0.5950
  146TMC2    H5 2284   1.796   0.768  12.203 -0.3471  0.4927  0.0226
  147MPD2     C 2285   2.622   0.509  12.603 -0.4506  0.2485 -0.0969
  147MPD2    C1 2286   2.565   0.567  12.712 -0.3968  0.2851 -0.5317
  147MPD2    C2 2287   2.430   0.611  12.696  0.3725 -0.1696 -0.4427
  147MPD2    C3 2288   2.372   0.624  12.575  0.4163 -0.4037  0.3420
  147MPD2    C4 2289   2.439   0.586  12.464  0.0171  0.7243 -0.6203
  147MPD2    C5 2290   2.559   0.521  12.481  0.4898  0.1458 -0.1935
  147MPD2     H 2291   2.367   0.631  12.782  1.3493  1.5430 -0.1299
  147MPD2    H1 2292   2.407   0.607  12.363 -0.0653  1.4156 -0.4451
  147MPD2    H2 2293   2.713   0.451  12.614  0.0549  1.6119  3.0319
  147MPD2    H3 2294   2.609   0.482  12.393 -0.3544 -2.8228  0.6287
  147MPD2     N 2295   2.251   0.697  12.569  0.1684 -0.1877  0.4659
  147MPD2    H5 2296   2.198   0.728  12.650 -0.1134  0.7024 -0.0585
  147MPD2    N1 2297   2.622   0.539  12.844 -0.0860 -0.6605 -0.9304
  147MPD2    H7 2298   2.717   0.504  12.836 -0.1168 -1.9481  3.9170
  148TMC2    C1 2299   2.060   0.172  10.245 -0.3459  0.8634 -0.4439
  148TMC2    C2 2300   2.122   0.259  10.332 -0.0593 -0.4341 -0.0511
  148TMC2    C3 2301   2.236   0.229  10.394 -0.2916  0.1652  0.0029
  148TMC2    C4 2302   2.103   0.045  10.236 -0.1309 -0.2613 -0.0755
  148TMC2    C5 2303   2.218   0.014  10.300 -0.3311 -0.0949  0.4675
  148TMC2    C6 2304   2.287   0.102  10.374  0.0440 -0.0306 -0.3574
  148TMC2     C 2305   1.950   0.215  10.161  0.3116  0.2922  0.4474
  148TMC2     O 2306   1.938   0.340  10.153 -0.5673 -0.6185  0.0971
  148TMC2     H 2307   2.078   0.357  10.351 -0.3407 -0.9535  2.0490
  148TMC2    H1 2308   2.074   4.717  10.157 -1.1506 -1.6537  1.4873
  148TMC2    H2 2309   2.391   0.080  10.392  0.1408  0.2693 -0.5506
  148TMC2    C7 2310   2.248   4.613  10.315  0.1340  0.1942  0.0878
  148TMC2    C8 2311   2.299   0.334  10.471 -0.0204  0.1372 -0.0647
  148TMC2    O1 2312   2.187   4.544  10.234  0.3089  0.2677 -0.1081
  148TMC2    O2 2313   2.265   0.452  10.472  0.3846  0.3029 -0.0588
  148TMC2    O5 2314   2.370   0.276  10.571  0.3019 -0.1679  0.2061
  148TMC2    H5 2315   2.390   0.181  10.558  3.4541  0.4621  0.6088
  149MPD2     C 2316   1.668   0.254  10.077  0.5073 -0.0309  0.6310
  149MPD2    C1 2317   1.732   0.131  10.081  0.1694 -0.5770  0.1199
  149MPD2    C2 2318   1.653   0.021  10.054 -1.3165 -0.2327 -0.5724
  149MPD2    C3 2319   1.522   0.029  10.017 -0.3914 -0.0032 -0.2145
  149MPD2    C4 2320   1.464   0.153  10.021  0.1735 -0.2544 -0.5613
  149MPD2    C5 2321   1.534   0.267  10.047  0.0978 -0.3878 -0.8341
  149MPD2     H 2322   1.705   4.666  10.057  0.5214  0.7198 -2.7491
  149MPD2    H1 2323   1.360   0.171   9.993 -0.1079 -1.3768 -0.2415
  149MPD2    H2 2324   1.713   0.345  10.114  0.6400  0.4117 -0.6009
  149MPD2    H3 2325   1.489   0.366  10.043  0.2147 -0.3387 -0.9145
  149MPD2     N 2326   1.444   4.653   9.980 -0.0807  0.0853 -0.4791
  149MPD2    H5 2327   1.349   4.672   9.949 -0.6809  0.3435  1.5299
  149MPD2    N1 2328   1.861   0.114  10.125 -0.1640  0.4628  0.1751
  149MPD2    H7 2329   1.884   0.018  10.148 -1.3776  0.1316  0.0352
  150TMC2    C1 2330   3.904   4.101  12.340  0.6041  0.7040 -0.3097
  150TMC2    C2 2331   3.835   4.019  12.422  0.3841  0.3303 -0.1905
  150TMC2    C3 2332   3.902   3.933  12.508  0.5388 -1.1627  0.0856
  150TMC2    C4 2333   4.040   4.095  12.347 -0.4235  0.0863 -0.3639
  150TMC2    C5 2334   4.105   4.015  12.439 -0.6071  0.1740 -0.2549
  150TMC2    C6 2335   4.039   3.921  12.511  0.0799 -0.2279  0.2000
  150TMC2     C 2336   3.845   4.193  12.245 -0.7134  0.4097  0.1038
  150TMC2     O 2337   3.902   4.301  12.224  0.2773  0.3086 -0.9321
  150TMC2     H 2338   3.728   4.029  12.436  0.0816 -2.1316 -0.7975
  150TMC2    H1 2339   4.088   4.169  12.284  1.1682 -0.9856 -0.4083
  150TMC2    H2 2340   4.086   3.841  12.567  0.5148 -0.3448 -0.3209
  150TMC2    C7 2341   4.251   4.021  12.428 -0.4049 -0.4081  0.3598
  150TMC2    C8 2342   3.827   3.819  12.551 -0.0687  0.3227  0.5404
  150TMC2    O1 2343   4.308   4.117  12.373 -0.3092 -0.1090  0.0980
  150TMC2    O2 2344   3.881   3.708  12.553 -0.0421 -0.0359  0.2490
  150TMC2    O5 2345   3.696   3.852  12.581 -0.2227 -0.0206  0.1234
  150TMC2    H5 2346   3.688   3.945  12.610  0.2106  0.7835 -2.3262
  151MPD2     C 2347   3.522   4.239  11.855  0.4160 -0.0045 -0.1016
  151MPD2    C1 2348   3.500   4.118  11.916 -1.1719 -0.5669 -0.0274
  151MPD2    C2 2349   3.578   4.080  12.023 -0.0924  0.6707  0.9033
  151MPD2    C3 2350   3.679   4.162  12.064  0.1590 -0.1945 -0.1102
  151MPD2    C4 2351   3.715   4.281  12.000 -0.3940 -0.9425  0.4878
  151MPD2    C5 2352   3.625   4.315  11.901  0.2853 -0.7232 -0.2426
  151MPD2     H 2353   3.569   3.986  12.076 -0.4490  0.2982  0.1801
  151MPD2    H1 2354   3.791   4.354  12.027 -2.0709  1.2317 -0.6855
  151MPD2    H2 2355   3.458   4.277  11.776  2.8623  3.2704 -0.5548
  151MPD2    H3 2356   3.637   4.411  11.852  1.5498 -1.5096 -1.4781
  151MPD2     N 2357   3.748   4.123  12.181 -0.0698  0.2229  0.2292
  151MPD2    H5 2358   3.721   4.036  12.225 -1.7233  0.6384  0.0310
  151MPD2    N1 2359   3.391   4.047  11.858  0.3406  1.2971 -0.4982
  151MPD2    H7 2360   3.343   4.102  11.787  0.8013  0.7185 -1.2479
  152TMC2    C1 2361   3.831   3.412  13.217  0.0496 -0.6132 -0.6232
  152TMC2    C2 2362   3.918   3.307  13.189  0.0154  0.4722  0.5467
  152TMC2    C3 2363   4.044   3.352  13.155 -0.0713  0.4617  0.4065
  152TMC2    C4 2364   3.867   3.543  13.207 -0.3722  0.5154 -0.8897
  152TMC2    C5 2365   3.993   3.575  13.167 -0.1948  0.1757 -0.3380
  152TMC2    C6 2366   4.087   3.481  13.144 -0.8738  0.8437 -0.9986
  152TMC2     C 2367   3.687   3.397  13.220  0.2319 -0.0891 -0.0801
  152TMC2     O 2368   3.616   3.490  13.189  0.4071 -0.7195 -0.2439
  152TMC2     H 2369   3.886   3.205  13.206 -0.6755  0.8521  1.5303
  152TMC2    H1 2370   3.794   3.618  13.236 -0.8922  0.3678 -1.8276
  152TMC2    H2 2371   4.178   3.498  13.087  0.9794 -0.5983  1.5520
  152TMC2    C7 2372   3.990   3.686  13.069 -0.4902 -0.1194  0.4728
  152TMC2    C8 2373   4.146   3.259  13.119  0.3758 -0.0706 -0.6141
  152TMC2    O1 2374   3.879   3.743  13.052  0.1271 -0.4034  0.4086
  152TMC2    O2 2375   4.266   3.294  13.108 -0.0933  0.1302  0.1610
  152TMC2    O5 2376   4.099   3.134  13.100  0.4915 -0.4486 -0.5888
  152TMC2    H5 2377   4.002   3.120  13.092  0.4458 -0.7522  0.4721
  153MPD2     C 2378   3.478   3.092  13.215  0.1080  0.4080  0.5001
  153MPD2    C1 2379   3.526   3.213  13.181  0.3286 -0.3561 -0.4613
  153MPD2    C2 2380   3.465   3.283  13.072 -0.8415 -0.2420  0.1680
  153MPD2    C3 2381   3.361   3.224  13.005  0.3725 -0.4420  0.3132
  153MPD2    C4 2382   3.320   3.102  13.047 -0.1398  0.1345 -0.7484
  153MPD2    C5 2383   3.378   3.030  13.141 -0.2363 -0.7554 -0.3567
  153MPD2     H 2384   3.501   3.375  13.026  1.8461 -0.2679  2.2205
  153MPD2    H1 2385   3.250   3.035  12.999  1.1093  0.4644 -2.9868
  153MPD2    H2 2386   3.514   3.034  13.300  0.7684 -1.7042 -1.2227
  153MPD2    H3 2387   3.349   2.931  13.174 -0.0112  0.4739  3.5707
  153MPD2     N 2388   3.296   3.294  12.901  0.1412 -0.2731 -0.3424
  153MPD2    H5 2389   3.340   3.378  12.865  3.8447 -0.4602  3.7483
  153MPD2    N1 2390   3.645   3.268  13.237  0.7068 -0.2644  0.5757
  153MPD2    H7 2391   3.706   3.204  13.289  2.2902  1.3447  0.6916
  154TMC2    C1 2392   0.609   3.569   0.207  0.4490  0.0386  0.6465
  154TMC2    C2 2393   0.624   3.496   0.322  0.6120 -0.5609  0.2283
  154TMC2    C3 2394   0.740   3.423   0.327  0.4402 -0.1789 -0.8584
  154TMC2    C4 2395   0.701   3.569   0.103 -0.0916  0.0434  0.1612
  154TMC2    C5 2396   0.817   3.503   0.122 -0.3453  0.6024  0.2759
  154TMC2    C6 2397   0.835   3.427   0.233  1.1801 -0.0833  0.2166
  154TMC2     C 2398   0.500   3.672   0.208 -0.1567  0.8901 -0.5215
  154TMC2     O 2399   0.457   3.710   0.317 -0.4134 -0.4211 -0.4745
  154TMC2     H 2400   0.554   3.499   0.404 -0.4190 -2.1714 -0.5981
  154TMC2    H1 2401   0.694   3.637   0.018 -0.9210  0.6370  0.7078
  154TMC2    H2 2402   0.916   3.355   0.227  1.4931  0.2824  0.0728
  154TMC2    C7 2403   0.899   3.479   0.011  0.1353 -0.0523 -0.5692
  154TMC2    C8 2404   0.748   3.332   0.437 -0.2805  0.3532  0.1868
  154TMC2    O1 2405   0.853   3.486  17.657  0.4223 -0.1141 -0.3008
  154TMC2    O2 2406   0.837   3.252   0.435 -0.3475  0.0079  0.1811
  154TMC2    O5 2407   0.700   3.389   0.552 -0.0680 -0.3309 -0.5207
  154TMC2    H5 2408   0.621   3.444   0.535 -0.7057 -0.8667  0.7465
  155MPD2     C 2409   0.322   3.814  17.690  0.5001  0.9203  0.4649
  155MPD2    C1 2410   0.365   3.812   0.056  0.0576  0.0252  0.0572
  155MPD2    C2 2411   0.329   3.919   0.149  0.3767 -0.0820 -0.1037
  155MPD2    C3 2412   0.254   4.024   0.099  0.1177 -0.0266  0.1644
  155MPD2    C4 2413   0.211   4.026  17.730  0.6315  0.1171 -0.0841
  155MPD2    C5 2414   0.250   3.921  17.651 -1.0313 -0.0508 -0.9878
  155MPD2     H 2415   0.360   3.924   0.253  0.3543 -0.5109 -0.0770
  155MPD2    H1 2416   0.181   4.111  17.669  0.4574  0.1555  0.0521
  155MPD2    H2 2417   0.353   3.740  17.617 -0.1101 -0.3689  1.5323
  155MPD2    H3 2418   0.230   3.932  17.545  1.1883 -0.0273 -1.4000
  155MPD2     N 2419   0.233   4.138   0.183 -0.0611 -0.1483 -0.3816
  155MPD2    H5 2420   0.290   4.135   0.267 -1.5253  0.3812  0.6490
  155MPD2    N1 2421   0.452   3.704   0.090 -0.3655 -0.2529 -0.0927
  155MPD2    H7 2422   0.497   3.653   0.015  0.8540  0.6647  0.0187
  156TMC2    C1 2423   4.248   1.073  11.816  0.1429 -0.4993  0.0690
  156TMC2    C2 2424   4.164   0.984  11.751  0.2323 -0.2053  0.0041
  156TMC2    C3 2425   4.127   1.023  11.625  0.6526 -0.5689 -0.0091
  156TMC2    C4 2426   4.288   1.191  11.765 -0.3435 -0.5772 -0.6969
  156TMC2    C5 2427   4.244   1.221  11.641 -0.0245 -0.0649  0.0172
  156TMC2    C6 2428   4.149   1.149  11.574 -0.3949 -0.5690 -0.4983
  156TMC2     C 2429   4.252   1.067  11.962  0.1914 -0.0714  0.5639
  156TMC2     O 2430   4.287   1.168  12.018 -0.2597  0.3299  0.5882
  156TMC2     H 2431   4.130   0.891  11.794  0.2558 -1.1582 -2.0468
  156TMC2    H1 2432   4.349   1.268  11.812 -0.1413 -0.1362 -1.6830
  156TMC2    H2 2433   4.135   1.177  11.470 -1.2458  1.1378  0.0797
  156TMC2    C7 2434   4.252   1.368  11.613 -1.0941  0.1360  0.4820
  156TMC2    C8 2435   4.035   0.937  11.553 -0.0577 -0.3482 -0.2664
  156TMC2    O1 2436   4.352   1.428  11.638 -0.3832 -0.0469 -0.2120
  156TMC2    O2 2437   3.987   0.968  11.447 -0.1332 -0.0321 -0.7041
  156TMC2    O5 2438   4.103   0.818  11.556  0.3964  0.3682 -0.4221
  156TMC2    H5 2439   4.180   0.817  11.616  0.1291 -1.5698 -0.1309
  157MPD2     C 2440   4.143   0.779  12.156 -0.3581  0.2484 -0.0724
  157MPD2    C1 2441   4.201   0.898  12.143 -0.0150  0.5618 -0.5060
  157MPD2    C2 2442   4.226   0.981  12.252  0.5229 -0.7227 -0.1248
  157MPD2    C3 2443   4.201   0.933  12.378  0.5407  0.1159 -1.3344
  157MPD2    C4 2444   4.146   0.808  12.394  0.3225 -0.3602 -0.9255
  157MPD2    C5 2445   4.113   0.735  12.282  0.2903 -0.5824  0.2208
  157MPD2     H 2446   4.263   1.083  12.239 -0.3006 -0.6704 -2.0149
  157MPD2    H1 2447   4.113   0.756  12.483  0.4780  1.2157  0.0517
  157MPD2    H2 2448   4.124   0.713  12.072 -1.0710 -1.4416  1.4080
  157MPD2    H3 2449   4.064   0.641  12.301  0.2292 -0.5925  0.0097
  157MPD2     N 2450   4.246   0.997  12.495 -0.2099 -0.7109 -0.0174
  157MPD2    H5 2451   4.298   1.082  12.475  1.1626 -1.2626  1.2552
  157MPD2    N1 2452   4.214   0.942  12.009  0.0713  0.2217  0.1373
  157MPD2    H7 2453   4.198   0.871  11.938  0.4657  2.4551 -2.1930
  158TMC2    C1 2454   4.739   0.467  14.071  0.2565 -0.2632 -0.1927
  158TMC2    C2 2455   0.025   0.593  14.115 -0.0409  0.1683  0.1888
  158TMC2    C3 2456   4.724   0.703  14.051 -0.2271 -0.3067 -0.6338
  158TMC2    C4 2457   4.675   0.458  13.951 -0.1086 -0.8611  0.6638
  158TMC2    C5 2458   4.634   0.567  13.879  0.7097  0.2460 -0.8249
  158TMC2    C6 2459   4.650   0.693  13.929  0.0839 -0.5289 -0.4831
  158TMC2     C 2460   0.003   0.357  14.161 -0.0965  0.1155  0.5200
  158TMC2     O 2461   0.084   0.372  14.251  0.2693 -0.1262 -0.2299
  158TMC2     H 2462   0.080   0.598  14.208  1.3644 -0.0884 -0.6218
  158TMC2    H1 2463   4.650   0.363  13.906  1.3352 -0.3990 -1.1044
  158TMC2    H2 2464   4.627   0.786  13.879 -1.4422 -0.3708  0.5362
  158TMC2    C7 2465   4.535   0.550  13.775 -0.1451  0.7312  0.5161
  158TMC2    C8 2466   4.697   0.831  14.122  0.3248  0.2647 -0.0023
  158TMC2    O1 2467   4.538   0.646  13.694  0.0700 -0.0393 -0.2114
  158TMC2    O2 2468   4.587   0.881  14.113  0.4042 -0.2200 -0.6324
  158TMC2    O5 2469   0.023   0.841  14.240 -0.7106 -0.6049  0.5997
  158TMC2    H5 2470   0.109   0.796  14.237  0.6151  1.9988 -0.1686
  159MPD2     C 2471   4.588   4.686  14.421 -0.1950 -0.1290  0.4239
  159MPD2    C1 2472   4.523   4.689  14.297  1.1462  0.0923  0.1730
  159MPD2    C2 2473   4.545   0.049  14.199 -0.2207 -0.9942 -0.0757
  159MPD2    C3 2474   4.632   0.148  14.237 -0.2427  0.5379  0.4426
  159MPD2    C4 2475   4.701   0.145  14.353  0.2011 -1.0190 -0.1960
  159MPD2    C5 2476   4.686   0.041  14.448  0.3841 -0.3760 -0.2921
  159MPD2     H 2477   4.477   0.051  14.114 -0.6638  0.9389  0.3430
  159MPD2    H1 2478   0.034   0.216  14.389 -0.3234 -0.9429  0.7115
  159MPD2    H2 2479   4.568   4.610  14.495  0.9742 -0.6584  0.1958
  159MPD2    H3 2480   0.006   0.029  14.537  0.3305 -0.7625 -0.3068
  159MPD2     N 2481   4.651   0.256  14.143 -0.5821  0.6995 -0.4430
  159MPD2    H5 2482   4.579   0.264  14.072 -2.7554  0.3836  1.7039
  159MPD2    N1 2483   4.436   4.581  14.277 -0.4790 -0.5714  0.4699
  159MPD2    H7 2484   4.426   4.525  14.361  0.2838  1.5657  1.9866
  160TMC2    C1 2485   4.095   3.311   1.409  0.8230 -0.1464 -0.1945
  160TMC2    C2 2486   4.136   3.193   1.465  0.3071 -0.3136  0.7555
  160TMC2    C3 2487   4.230   3.109   1.402  0.1587 -0.6761 -0.6290
  160TMC2    C4 2488   4.162   3.363   1.302  0.0477 -0.0635 -0.0486
  160TMC2    C5 2489   4.255   3.279   1.245  0.1465 -0.1165  0.1179
  160TMC2    C6 2490   4.288   3.153   1.282  0.1130 -0.2521  0.5421
  160TMC2     C 2491   3.966   3.355   1.447  0.1820  0.5577 -0.4815
  160TMC2     O 2492   3.902   3.287   1.528 -0.0999 -0.7908 -0.4430
  160TMC2     H 2493   4.083   3.162   1.555  0.6983  1.4696  1.5996
  160TMC2    H1 2494   4.141   3.463   1.267 -0.9140 -0.2123  0.1054
  160TMC2    H2 2495   4.364   3.096   1.229  1.8167  2.6294 -0.1005
  160TMC2    C7 2496   4.297   3.321   1.116  0.2970 -0.2558  0.3006
  160TMC2    C8 2497   4.200   2.973   1.413 -0.3109 -0.2306 -0.6541
  160TMC2    O1 2498   4.326   3.230   1.040 -0.3501 -0.0949 -0.5995
  160TMC2    O2 2499   4.091   2.929   1.461  0.8505 -0.1732 -0.5806
  160TMC2    O5 2500   4.317   2.915   1.393 -0.1043 -0.3587  0.0947
  160TMC2    H5 2501   4.391   2.980   1.393 -1.2088  0.9132  0.5167
  161MPD2     C 2502   3.709   3.502   1.502  0.0606  0.4953 -0.2809
  161MPD2    C1 2503   3.792   3.526   1.393  0.3486  0.6418 -0.2545
  161MPD2    C2 2504   3.752   3.611   1.295  0.6178  0.1056 -0.3527
  161MPD2    C3 2505   3.627   3.670   1.309  0.0937 -0.3535 -0.4208
  161MPD2    C4 2506   3.541   3.643   1.413 -0.2914  0.3582 -0.1971
  161MPD2    C5 2507   3.583   3.556   1.507  0.1845  0.2626 -0.1652
  161MPD2     H 2508   3.813   3.628   1.206  0.4900  1.6827 -0.1381
  161MPD2    H1 2509   3.459   3.712   1.428  0.0331  0.2584  2.1163
  161MPD2    H2 2510   3.729   3.437   1.587 -0.0645  0.6759 -0.1104
  161MPD2    H3 2511   3.524   3.551   1.598  2.5920  1.4227  1.4439
  161MPD2     N 2512   3.574   3.768   1.221 -0.1743  0.6515 -0.6564
  161MPD2    H5 2513   3.476   3.793   1.230 -0.6138 -1.2333 -0.2220
  161MPD2    N1 2514   3.919   3.459   1.371  0.1232 -0.0015 -0.5816
  161MPD2    H7 2515   3.975   3.497   1.295  1.4045 -2.1796 -0.7473
  162TMC2    C1 2516   1.637   0.824   0.805 -0.3145 -0.3430  0.4724
  162TMC2    C2 2517   1.543   0.919   0.827  0.2526 -0.0952  0.1921
  162TMC2    C3 2518   1.571   1.007   0.929 -0.6490 -0.6611  0.0266
  162TMC2    C4 2519   1.758   0.817   0.877 -0.3155 -0.1612 -0.4020
  162TMC2    C5 2520   1.780   0.916   0.970  0.0232  0.0157  0.3950
  162TMC2    C6 2521   1.685   1.012   1.007 -0.1924  0.0511  0.8905
  162TMC2     C 2522   1.633   0.750   0.686  0.2337 -0.0454 -0.0782
  162TMC2     O 2523   1.744   0.740   0.635 -0.3415  0.3261  0.3054
  162TMC2     H 2524   1.453   0.931   0.767  0.6903 -1.6163 -0.7547
  162TMC2    H1 2525   1.834   0.746   0.847 -3.5011 -3.4091 -0.7937
  162TMC2    H2 2526   1.706   1.074   1.093 -0.5977  2.4383 -0.7580
  162TMC2    C7 2527   1.887   0.902   1.072 -0.1020  0.1938 -1.2853
  162TMC2    C8 2528   1.470   1.106   0.957  0.5933  0.2067 -0.2854
  162TMC2    O1 2529   1.899   0.985   1.161 -0.2082  0.2467 -0.0453
  162TMC2    O2 2530   1.359   1.102   0.913 -0.4273  0.5048  0.2026
  162TMC2    O5 2531   1.521   1.224   0.988 -0.3276  0.0235 -0.0797
  162TMC2    H5 2532   1.618   1.213   1.000  0.0205  0.5447 -2.2706
  163MPD2     C 2533   1.449   0.449   0.311 -0.3229 -0.1870 -0.3779
  163MPD2    C1 2534   1.572   0.499   0.340  0.3299  0.4162 -0.2135
  163MPD2    C2 2535   1.594   0.585   0.448 -0.4826 -0.6559  0.0236
  163MPD2    C3 2536   1.499   0.613   0.542  0.0802 -0.3796 -0.4593
  163MPD2    C4 2537   1.375   0.561   0.511 -0.0841 -0.0527 -0.0752
  163MPD2    C5 2538   1.357   0.478   0.400  0.3703 -0.3473 -0.4373
  163MPD2     H 2539   1.697   0.616   0.463 -0.5386 -0.9148  0.9777
  163MPD2    H1 2540   1.286   0.591   0.565 -0.6244 -1.8713  0.0291
  163MPD2    H2 2541   1.424   0.384   0.228  1.5233 -2.4314  0.8345
  163MPD2    H3 2542   1.259   0.443   0.372 -0.8624  3.1994 -0.4527
  163MPD2     N 2543   1.510   0.699   0.652 -0.5649 -0.1901 -0.3389
  163MPD2    H5 2544   1.428   0.722   0.707 -1.1845 -0.0113 -1.3289
  163MPD2    N1 2545   1.676   0.458   0.250 -0.8849  0.0809  0.0784
  163MPD2    H7 2546   1.647   0.397   0.174 -1.4857 -1.0636  1.2259
  164TMC2    C1 2547   2.868   4.538  10.554  0.2256  0.0814 -0.8891
  164TMC2    C2 2548   2.946   4.643  10.501  0.0835 -0.5996  0.7598
  164TMC2    C3 2549   2.892   0.026  10.511  0.3219 -0.3507  0.2481
  164TMC2    C4 2550   2.749   4.554  10.616  0.5111 -0.3609  0.1235
  164TMC2    C5 2551   2.703   4.686  10.626 -0.1716  0.1997  0.5114
  164TMC2    C6 2552   2.771   0.055  10.570  0.1046 -0.7715 -0.1707
  164TMC2     C 2553   2.919   4.401  10.531 -0.3082 -0.1930  0.1801
  164TMC2     O 2554   2.887   4.305  10.602  0.3362 -0.5266  0.4937
  164TMC2     H 2555   3.052   4.635  10.485  0.3518  1.6467  1.4330
  164TMC2    H1 2556   2.695   4.466  10.647  0.0962 -0.0722  0.2214
  164TMC2    H2 2557   2.726   0.154  10.573 -1.7245 -1.6169 -0.0560
  164TMC2    C7 2558   2.574   4.718  10.671  0.0655  0.5754 -0.7232
  164TMC2    C8 2559   2.983   0.134  10.502  0.0430 -0.3435  0.5351
  164TMC2    O1 2560   2.502   0.045  10.600  0.2778 -0.3568  0.0242
  164TMC2    O2 2561   2.983   0.229  10.583 -0.0051  0.1962  0.1509
  164TMC2    O5 2562   3.057   0.118  10.396 -0.0931 -0.1939  1.0078
  164TMC2    H5 2563   3.048   0.045  10.331 -0.2274  0.1524  0.6377
  165TMC2    C1 2564   3.378   3.215   0.691 -0.8212 -0.1541 -0.7248
  165TMC2    C2 2565   3.378   3.335   0.626  0.4741  0.9254 -0.2871
  165TMC2    C3 2566   3.496   3.407   0.612  0.1222  0.3542 -0.1675
  165TMC2    C4 2567   3.496   3.162   0.744  0.2560  0.7379 -0.2174
  165TMC2    C5 2568   3.612   3.233   0.725 -0.6436 -0.1267 -0.2242
  165TMC2    C6 2569   3.619   3.357   0.661 -0.6307  0.5411  0.5506
  165TMC2     C 2570   3.249   3.138   0.723  0.5733  0.4000 -0.1941
  165TMC2     O 2571   3.250   3.067   0.823  0.2006  0.1488  0.2834
  165TMC2     H 2572   3.285   3.390   0.610  0.9672  1.7813 -0.2267
  165TMC2    H1 2573   3.498   3.071   0.803 -2.2946  0.5261 -0.4952
  165TMC2    H2 2574   3.711   3.410   0.639 -0.5048  0.0700 -0.0636
  165TMC2    C7 2575   3.740   3.174   0.758  0.0721 -0.7599 -0.1280
  165TMC2    C8 2576   3.496   3.523   0.524 -0.9412  0.3005  0.4610
  165TMC2    O1 2577   3.839   3.213   0.698 -0.2046 -0.7925 -0.4648
  165TMC2    O2 2578   3.408   3.538   0.434 -0.2505  0.5229 -0.1986
  165TMC2    O5 2579   3.568   3.618   0.593  0.1867  0.4632  0.2165
  165TMC2    H5 2580   3.605   3.587   0.677  1.9419 -0.0154 -0.7421
  166MPD2     C 2581   2.731   3.166   0.736 -0.2554 -0.5618 -0.3193
  166MPD2    C1 2582   2.827   3.105   0.816  0.1595 -0.4306 -0.0752
  166MPD2    C2 2583   2.965   3.121   0.804 -0.6225  0.0688 -0.0540
  166MPD2    C3 2584   3.017   3.171   0.680 -0.2482  0.4865 -0.2894
  166MPD2    C4 2585   2.918   3.222   0.598  0.2149 -0.0946  0.0767
  166MPD2    C5 2586   2.789   3.229   0.631  0.2385  0.4453  0.3460
  166MPD2     H 2587   3.032   3.072   0.874 -1.0878 -1.6399 -0.8069
  166MPD2    H1 2588   2.953   3.278   0.512  1.9656 -0.3773  0.6028
  166MPD2    H2 2589   2.626   3.175   0.759 -0.1274 -1.7525  0.7240
  166MPD2    H3 2590   2.719   3.288   0.573 -0.1236 -0.3621 -0.0380
  166MPD2     N 2591   3.150   3.178   0.642 -0.2525  0.3271 -0.2389
  166MPD2    H5 2592   3.172   3.218   0.551  1.8467  1.0308  0.5654
  166MPD2    N1 2593   2.761   3.045   0.921 -0.0475  0.8726  0.2951
  166MPD2    H7 2594   2.660   3.037   0.913  0.1339 -1.3981  0.3653
  167TMC2    C1 2595   2.656   0.130  12.501  0.2955  0.2483  0.2574
  167TMC2    C2 2596   2.598   0.192  12.604  0.3097 -0.1117 -0.5226
  167TMC2    C3 2597   2.626   0.140  12.726  0.4055  0.2387 -0.3359
  167TMC2    C4 2598   2.760   0.036  12.512 -0.2008  0.3599 -0.1819
  167TMC2    C5 2599   2.785   4.724  12.636  0.2440 -0.2327 -0.0962
  167TMC2    C6 2600   2.723   0.041  12.746  0.3514  0.4064 -0.2964
  167TMC2     C 2601   2.633   0.190  12.372 -0.0724  0.2612  0.0495
  167TMC2     O 2602   2.729   0.191  12.294  0.2366 -0.2288 -0.2978
  167TMC2     H 2603   2.515   0.258  12.580  0.1435 -0.3128 -0.4998
  167TMC2    H1 2604   2.810   0.006  12.420  2.7210 -0.2547  1.6075
  167TMC2    H2 2605   2.751   0.015  12.847  2.0701  3.7550  0.0845
  167TMC2    C7 2606   2.807   4.583  12.652 -0.2745 -0.5269 -0.2421
  167TMC2    C8 2607   2.536   0.162  12.837  0.5711  0.1155 -0.0343
  167TMC2    O1 2608   2.858   4.534  12.753 -0.4579  0.1136 -0.6166
  167TMC2    O2 2609   2.462   0.263  12.841  0.2157  0.1079  0.5133
  167TMC2    O5 2610   2.502   0.043  12.891 -0.1383 -0.0478  0.7414
  167TMC2    H5 2611   2.526   4.714  12.825  2.7000  0.4568  1.2557
  168MPD2     C 2612   2.516   0.318  12.129 -0.5012  0.6344 -0.3503
  168MPD2    C1 2613   2.448   0.244  12.219 -0.1206  0.2883 -0.1544
  168MPD2    C2 2614   2.314   0.222  12.200 -0.1782  0.2627 -0.5598
  168MPD2    C3 2615   2.257   0.271  12.088 -0.1106  0.6742  0.4732
  168MPD2    C4 2616   2.329   0.341  11.985 -0.1235 -0.3776 -0.0903
  168MPD2    C5 2617   2.461   0.360  12.015  0.1696  0.0022  0.0285
  168MPD2     H 2618   2.251   0.193  12.284  0.6397  2.5462  0.8251
  168MPD2    H1 2619   2.296   0.387  11.893 -1.0398  0.4440  0.6578
  168MPD2    H2 2620   2.618   0.346  12.156 -0.6269 -0.9349  1.7615
  168MPD2    H3 2621   2.527   0.412  11.946 -1.6159  0.0621 -1.6571
  168MPD2     N 2622   2.112   0.256  12.081  0.2762  0.1878  0.0051
  168MPD2    H5 2623   2.067   0.213  12.162 -0.2617  0.3332 -0.2141
  168MPD2    N1 2624   2.499   0.206  12.344  0.0130 -0.3605 -0.0304
  168MPD2    H7 2625   2.440   0.169  12.417  1.6000 -0.6708  1.0959
  169MPD1     C 2626   0.494   2.690   8.801  0.0307 -0.4818 -0.0465
  169MPD1    C1 2627   0.516   2.629   8.920 -0.8998  0.1999  0.3632
  169MPD1    C2 2628   0.437   2.676   9.025 -1.0615 -0.5034 -0.0083
  169MPD1    C3 2629   0.339   2.772   9.001  0.5306 -0.7906 -0.2208
  169MPD1    C4 2630   0.322   2.834   8.880  0.4722  0.3982 -0.2529
  169MPD1    C5 2631   0.407   2.795   8.778  0.0813 -0.3172  0.5793
  169MPD1     H 2632   0.451   2.640   9.126  1.9273 -1.0142 -0.5933
  169MPD1    H1 2633   0.252   2.914   8.860 -0.0941 -0.2014 -0.6624
  169MPD1    H2 2634   0.552   2.651   8.718 -1.4506  1.5604 -2.0720
  169MPD1    H3 2635   0.386   2.843   8.684  1.7951 -0.9197 -0.1213
  169MPD1     N 2636   0.264   2.801   9.114  0.5921 -0.1394 -0.3539
  169MPD1    H5 2637   0.299   2.768   9.204  0.1340  3.4108  1.1747
  169MPD1    N1 2638   0.609   2.532   8.945 -0.1925 -0.0636  0.4748
  169MPD1    H6 2639   0.574   2.464   9.012 -0.2408 -0.0354  0.4783
  169MPD1    H7 2640   0.627   2.479   8.860 -0.1020  1.9451 -0.7392
  170MPD1     C 2641   3.469   2.030  12.441  0.2822 -0.4215 -0.1782
  170MPD1    C1 2642   3.342   2.030  12.389 -0.2048  0.4266 -0.0639
  170MPD1    C2 2643   3.243   1.971  12.459  0.0354  0.3489 -0.0920
  170MPD1    C3 2644   3.261   1.941  12.594 -0.1307  0.2194  0.4856
  170MPD1    C4 2645   3.386   1.956  12.648 -0.5914 -0.3790 -0.5798
  170MPD1    C5 2646   3.493   2.002  12.575  1.0047  0.0192 -0.4759
  170MPD1     H 2647   3.143   1.964  12.417 -0.3610 -0.9166  1.0658
  170MPD1    H1 2648   3.409   1.930  12.751  1.1732 -0.9950 -1.1294
  170MPD1    H2 2649   3.554   2.066  12.384 -0.4663  1.8583  0.1462
  170MPD1    H3 2650   3.594   2.005  12.612  0.6910  0.4569  0.3340
  170MPD1     N 2651   3.155   1.893  12.679 -0.0302  0.1997  0.2004
  170MPD1    H5 2652   3.067   1.872  12.635 -0.3692  1.9282  0.0586
  170MPD1    N1 2653   3.329   2.051  12.254 -0.6906  0.2872  0.5519
  170MPD1    H6 2654   3.238   2.074  12.215 -0.4504 -0.1974 -0.2885
  170MPD1    H7 2655   3.389   2.129  12.227  1.5278 -2.2231 -1.7692
  171MPD1     C 2656   0.924   3.557  15.423  0.2418  0.3954  0.1161
  171MPD1    C1 2657   0.858   3.439  15.464 -0.2050 -0.3000 -0.6494
  171MPD1    C2 2658   0.931   3.328  15.508  0.0257  0.1666 -0.1915
  171MPD1    C3 2659   1.069   3.345  15.532  0.2216 -0.1410  0.0816
  171MPD1    C4 2660   1.130   3.466  15.507 -0.0510 -0.3744 -0.1267
  171MPD1    C5 2661   1.062   3.566  15.439  0.9292 -0.0933  0.5528
  171MPD1     H 2662   0.883   3.234  15.533  0.3171 -0.5364 -2.3222
  171MPD1    H1 2663   1.236   3.481  15.524  0.1992  2.0683 -3.7899
  171MPD1    H2 2664   0.871   3.635  15.371 -1.9588 -0.8993  0.4096
  171MPD1    H3 2665   1.114   3.658  15.412 -2.2749  2.4411  2.9857
  171MPD1     N 2666   1.155   3.251  15.595 -0.6290  0.2387  0.9293
  171MPD1    H5 2667   1.251   3.283  15.598 -0.2986 -0.7107  0.4396
  171MPD1    N1 2668   0.721   3.435  15.448  0.3946 -0.0563 -0.6836
  171MPD1    H6 2669   0.684   3.381  15.526  0.1978  0.8257 -0.1560
  171MPD1    H7 2670   0.678   3.526  15.467 -0.0044  0.3126 -3.4018
  172MPD1     C 2671   0.847   2.039   0.417 -0.1795  0.3662  0.1846
  172MPD1    C1 2672   0.719   2.099   0.425  0.1581  0.1774 -0.2593
  172MPD1    C2 2673   0.710   2.237   0.396 -0.4287 -0.1373 -0.0529
  172MPD1    C3 2674   0.817   2.314   0.369 -0.0576 -0.6210  0.2406
  172MPD1    C4 2675   0.937   2.251   0.369 -0.4778 -0.5829 -0.4547
  172MPD1    C5 2676   0.951   2.118   0.389 -0.6893  0.0931 -0.0433
  172MPD1     H 2677   0.610   2.280   0.393 -0.4786 -0.3363 -1.1358
  172MPD1    H1 2678   1.030   2.301   0.344 -0.1813 -0.8933  0.0349
  172MPD1    H2 2679   0.858   1.932   0.433  2.5284  0.5252 -0.6024
  172MPD1    H3 2680   1.048   2.070   0.387  0.2032  1.8806  0.2907
  172MPD1     N 2681   0.816   2.453   0.324  0.0572  0.3111 -0.1461
  172MPD1    H5 2682   0.907   2.489   0.298  0.1163 -0.0912 -0.5066
  172MPD1    N1 2683   0.610   2.025   0.474  0.0799 -0.2792  0.1187
  172MPD1    H6 2684   0.613   1.927   0.447 -0.6435 -0.0745 -0.7050
  172MPD1    H7 2685   0.522   2.065   0.442 -1.2090 -1.5684  2.0581
  173MPD1     C 2686   1.727   2.757  13.793  0.4740 -0.6017  0.0737
  173MPD1    C1 2687   1.775   2.630  13.789 -0.1861 -1.0611  0.3409
  173MPD1    C2 2688   1.774   2.558  13.904  0.2228  0.7496 -0.1527
  173MPD1    C3 2689   1.724   2.611  14.021  0.2294  0.3364  0.3572
  173MPD1    C4 2690   1.667   2.739  14.025 -0.6738  0.0453 -0.2376
  173MPD1    C5 2691   1.670   2.811  13.908 -0.3526 -0.1977  0.1363
  173MPD1     H 2692   1.814   2.457  13.905 -2.6664 -0.3882  0.6101
  173MPD1    H1 2693   1.620   2.775  14.115  1.9989  0.0608  1.1586
  173MPD1    H2 2694   1.747   2.815  13.703 -1.6253 -0.9899 -0.6565
  173MPD1    H3 2695   1.630   2.911  13.901 -1.1062 -0.5389 -0.4491
  173MPD1     N 2696   1.734   2.526  14.135  0.3019 -0.5641  0.3105
  173MPD1    H5 2697   1.788   2.442  14.117  1.2019 -0.2455  1.5080
  173MPD1    N1 2698   1.847   2.591  13.673 -0.1677 -0.0785 -0.0688
  173MPD1    H6 2699   1.802   2.626  13.588  1.2471 -1.2508 -1.2853
  173MPD1    H7 2700   1.857   2.491  13.660 -3.6114 -0.2873 -1.2585
  174MPD1     C 2701   2.511   2.331  14.130  0.2076 -0.8326  0.4497
  174MPD1    C1 2702   2.477   2.314  14.262  0.6682  0.1976  0.0366
  174MPD1    C2 2703   2.345   2.300  14.302  1.3194  0.2864  0.8534
  174MPD1    C3 2704   2.239   2.315  14.213  0.0711  0.1868  0.4935
  174MPD1    C4 2705   2.272   2.332  14.081  0.0954 -0.2538 -0.4646
  174MPD1    C5 2706   2.401   2.339  14.040 -0.2028  0.1561 -0.1676
  174MPD1     H 2707   2.323   2.296  14.408 -3.3469 -1.7701 -0.2013
  174MPD1    H1 2708   2.197   2.314  14.004 -0.5594  1.5519 -0.2534
  174MPD1    H2 2709   2.613   2.325  14.092 -0.6628 -3.0939 -1.5066
  174MPD1    H3 2710   2.409   2.335  13.932 -0.2501 -1.2398 -0.1271
  174MPD1     N 2711   2.101   2.311  14.249  0.1117  0.4982  0.3178
  174MPD1    H5 2712   2.039   2.341  14.174 -0.1795 -2.4801 -0.6065
  174MPD1    N1 2713   2.577   2.324  14.360 -0.6971 -0.1989  0.3081
  174MPD1    H6 2714   2.668   2.332  14.315  0.1281 -1.5088  1.7681
  174MPD1    H7 2715   2.572   2.260  14.438  0.0983  0.7448  1.1414
  175MPD1     C 2716   0.881   3.668  15.994 -0.1380 -1.3771 -0.4578
  175MPD1    C1 2717   0.879   3.618  15.865 -0.2023 -0.7320 -0.3787
  175MPD1    C2 2718   0.773   3.533  15.828  0.5547  0.5424  0.5159
  175MPD1    C3 2719   0.689   3.485  15.929 -0.1362  0.4156 -0.2839
  175MPD1    C4 2720   0.692   3.538  16.056 -0.1013 -0.3705 -0.3092
  175MPD1    C5 2721   0.791   3.628  16.090  0.3572 -0.1025 -0.6017
  175MPD1     H 2722   0.770   3.506  15.723  2.4581 -0.9115  0.8349
  175MPD1    H1 2723   0.626   3.503  16.135 -1.8420 -3.1224 -2.9597
  175MPD1    H2 2724   0.950   3.747  16.021  0.5873 -2.4956  0.9496
  175MPD1    H3 2725   0.800   3.673  16.188  0.3204 -1.9380  0.2452
  175MPD1     N 2726   0.577   3.400  15.905  0.5342 -0.0078  0.4874
  175MPD1    H5 2727   0.513   3.384  15.982  0.5722 -0.1325  0.4928
  175MPD1    N1 2728   0.954   3.677  15.760  0.5948 -0.0099  0.1277
  175MPD1    H6 2729   1.041   3.697  15.809  0.2762 -0.8814  1.0597
  175MPD1    H7 2730   0.958   3.613  15.682  0.5434  0.5857 -0.3657
  176MPD1     C 2731   3.276   2.612  17.020  0.2764 -0.1157 -0.2808
  176MPD1    C1 2732   3.153   2.669  17.020  0.5370 -0.0901 -0.2923
  176MPD1    C2 2733   3.046   2.584  17.049 -0.0587  0.7011 -0.5295
  176MPD1    C3 2734   3.065   2.460  17.101 -0.1568  0.9427 -0.3818
  176MPD1    C4 2735   3.193   2.418  17.125 -0.0834  0.5742 -0.6656
  176MPD1    C5 2736   3.296   2.493  17.084 -0.4558  0.5918 -0.5919
  176MPD1     H 2737   2.942   2.616  17.055 -0.0810  0.5307 -0.0049
  176MPD1    H1 2738   3.223   2.319  17.156 -1.1306 -0.0346 -1.6291
  176MPD1    H2 2739   3.363   2.670  16.993  0.3884 -0.0598  0.2003
  176MPD1    H3 2740   3.395   2.453  17.104 -2.0559 -2.1419  1.8070
  176MPD1     N 2741   2.953   2.377  17.138 -0.2097 -0.1938 -0.1524
  176MPD1    H5 2742   2.860   2.419  17.142  0.1236  0.5178  0.0899
  176MPD1    N1 2743   3.132   2.801  16.970  1.0345  0.0635 -0.1482
  176MPD1    H6 2744   3.216   2.857  16.986  1.5636 -1.2729  1.7979
  176MPD1    H7 2745   3.058   2.849  17.021 -2.0132 -1.8857 -2.7958
  177MPD1     C 2746   0.420   4.728   9.859 -0.0316 -0.7971 -0.5311
  177MPD1    C1 2747   0.320   4.639   9.827 -0.6362 -0.0885 -0.5344
  177MPD1    C2 2748   0.222   4.693   9.744 -0.2818 -0.2301 -0.0926
  177MPD1    C3 2749   0.223   0.088   9.699 -0.1467 -0.4312 -0.2766
  177MPD1    C4 2750   0.322   0.174   9.743 -0.5705  0.0828  0.5417
  177MPD1    C5 2751   0.421   0.117   9.824  0.0470 -0.1059  0.0252
  177MPD1     H 2752   0.133   4.640   9.711  0.5819 -0.4552 -2.0527
  177MPD1    H1 2753   0.328   0.280   9.720 -0.2720  0.2177  1.2636
  177MPD1    H2 2754   0.505   4.696   9.918  0.2414  1.6251  0.3899
  177MPD1    H3 2755   0.507   0.179   9.844 -0.4058  0.2422  0.9251
  177MPD1     N 2756   0.109   0.126   9.620 -0.5427 -0.3302 -0.1528
  177MPD1    H5 2757   0.037   0.059   9.593 -0.6734 -0.4693  0.5287
  177MPD1    N1 2758   0.318   4.503   9.858  0.3078  0.4489 -0.0199
  177MPD1    H6 2759   0.225   4.466   9.877  0.6044  0.6409  1.8260
  177MPD1    H7 2760   0.375   4.475   9.937 -1.1130  0.2592  0.9407
  178MPD1     C 2761   2.734   2.138  17.676  0.0880  0.2997 -0.2317
  178MPD1    C1 2762   2.671   2.015  17.673  0.3548  0.0766  0.4241
  178MPD1    C2 2763   2.728   1.914  17.594 -0.5108  0.2271  0.5628
  178MPD1    C3 2764   2.836   1.937  17.521 -0.8968 -0.3318 -0.3935
  178MPD1    C4 2765   2.899   2.056  17.538 -0.7998  0.0103  0.1235
  178MPD1    C5 2766   2.849   2.159  17.611 -0.9445 -0.3492 -0.0421
  178MPD1     H 2767   2.691   1.812  17.598  1.0208 -0.2387  2.5812
  178MPD1    H1 2768   2.989   2.081  17.483 -1.8629  1.8969 -0.7292
  178MPD1    H2 2769   2.700   2.217  17.741 -0.3711  0.7265 -0.9912
  178MPD1    H3 2770   2.908   2.248  17.625 -1.7936  0.2088 -0.0200
  178MPD1     N 2771   2.890   1.844  17.425 -0.5342  0.1401 -0.3497
  178MPD1    H5 2772   2.969   1.875  17.369 -0.8995  2.0129  0.1557
  178MPD1    N1 2773   2.544   2.002  17.734 -0.7472 -0.3040 -0.1301
  178MPD1    H6 2774   2.556   2.054   0.063  0.4972 -1.4682  0.3788
  178MPD1    H7 2775   2.525   1.908   0.010 -2.3313 -0.2995 -0.9939
  179MPD1     C 2776   2.477   4.718  14.953 -0.8081  0.1252  0.4290
  179MPD1    C1 2777   2.356   4.670  14.903 -0.1872 -0.1302 -0.0459
  179MPD1    C2 2778   2.311   4.566  14.976  0.7435  0.6400  0.5522
  179MPD1    C3 2779   2.368   4.513  15.087  0.7152  0.7660 -0.7451
  179MPD1    C4 2780   2.483   4.566  15.139  0.5444 -0.4842 -0.0330
  179MPD1    C5 2781   2.534   4.672  15.070  0.1447  0.4684  0.2242
  179MPD1     H 2782   2.221   4.520  14.938  1.5383 -1.0519  0.7565
  179MPD1    H1 2783   2.539   4.524  15.222  2.1706  0.0480 -0.8654
  179MPD1    H2 2784   2.527   0.052  14.892 -0.9061 -1.4992 -1.5914
  179MPD1    H3 2785   2.623   4.718  15.112 -0.1976  1.0340  0.3238
  179MPD1     N 2786   2.306   4.413  15.167 -0.2321  0.2410  0.9092
  179MPD1    H5 2787   2.351   4.383  15.253  2.3785 -0.7646 -0.8239
  179MPD1    N1 2788   2.299   4.716  14.785 -0.1948  0.3124  0.6312
  179MPD1    H6 2789   2.198   4.723  14.794 -0.2347 -0.0413  0.4651
  179MPD1    H7 2790   2.327   0.072  14.764 -1.4653  0.4073 -0.6329
  180MPD1     C 2791   3.069   1.194  15.000  0.0094  0.7791  0.2774
  180MPD1    C1 2792   3.022   1.308  14.946  0.2496 -0.1959  0.1788
  180MPD1    C2 2793   2.900   1.303  14.875  0.2006 -0.3558  0.1047
  180MPD1    C3 2794   2.826   1.188  14.864 -0.2883  0.0639  0.8052
  180MPD1    C4 2795   2.887   1.075  14.905  0.1763  1.0142 -0.6173
  180MPD1    C5 2796   2.996   1.083  14.976  0.5378 -0.5910 -0.4569
  180MPD1     H 2797   2.862   1.394  14.829  0.0656 -0.3589  0.2112
  180MPD1    H1 2798   2.838   0.978  14.898  0.4170  0.8101  0.4526
  180MPD1    H2 2799   3.159   1.179  15.058  0.1273  0.8964  0.1238
  180MPD1    H3 2800   3.028   0.988  15.017  0.3193 -1.2873 -1.8921
  180MPD1     N 2801   2.700   1.193  14.788  0.1091  0.6482 -0.1738
  180MPD1    H5 2802   2.683   1.286  14.752  1.8181  0.3106 -1.8938
  180MPD1    N1 2803   3.079   1.435  14.984  0.6767 -0.3309 -0.2617
  180MPD1    H6 2804   3.180   1.433  14.993  0.7106  1.0108 -0.3355
  180MPD1    H7 2805   3.058   1.505  14.914 -2.4754 -2.6028 -1.5872
  181MPD1     C 2806   3.942   2.735  10.847  0.3948 -0.4537  0.1161
  181MPD1    C1 2807   4.034   2.629  10.870 -0.2441 -0.2104  0.1536
  181MPD1    C2 2808   4.143   2.621  10.797 -0.2405  0.0058 -0.3328
  181MPD1    C3 2809   4.173   2.710  10.695 -0.5607  0.5447 -0.4370
  181MPD1    C4 2810   4.081   2.805  10.668 -0.0825  0.0135 -0.0557
  181MPD1    C5 2811   3.966   2.818  10.741  0.1328 -0.4138 -0.6969
  181MPD1     H 2812   4.216   2.543  10.817 -1.9674 -0.6120  3.5971
  181MPD1    H1 2813   4.109   2.876  10.592 -0.8212  1.6008  1.1400
  181MPD1    H2 2814   3.851   2.741  10.905 -0.8757 -0.9846 -1.8145
  181MPD1    H3 2815   3.886   2.886  10.715  1.1204  0.1356 -2.2807
  181MPD1     N 2816   4.297   2.716  10.619  0.1652 -0.2927  0.1482
  181MPD1    H5 2817   4.317   2.791  10.554  0.2533 -0.9182 -0.5579
  181MPD1    N1 2818   4.008   2.534  10.966 -0.3821 -0.2749 -0.5085
  181MPD1    H6 2819   3.956   2.560  11.049  0.1386 -0.8408 -0.0067
  181MPD1    H7 2820   4.090   2.480  10.993  0.5977  2.0341  1.1324
  182MPD1     C 2821   0.059   1.866   1.591 -0.2723  0.6266  0.0907
  182MPD1    C1 2822   4.669   1.876   1.641 -0.3956  0.4268 -0.3932
  182MPD1    C2 2823   4.563   1.903   1.552  0.5887  0.1182  0.2696
  182MPD1    C3 2824   4.587   1.928   1.415 -0.0047  0.6677  0.4686
  182MPD1    C4 2825   4.715   1.915   1.368  0.2057  0.7081  0.0013
  182MPD1    C5 2826   0.076   1.897   1.461  0.8357 -0.0826  0.7073
  182MPD1     H 2827   4.465   1.922   1.593  0.8672 -0.6049  1.2645
  182MPD1    H1 2828   4.740   1.931   1.263  0.0216 -1.4204 -0.3677
  182MPD1    H2 2829   0.144   1.840   1.652  0.5516 -3.2983 -2.7601
  182MPD1    H3 2830   0.178   1.879   1.428 -0.4113  0.1794 -3.2660
  182MPD1     N 2831   4.480   1.970   1.326  0.4674 -0.4345 -0.1370
  182MPD1    H5 2832   4.500   1.975   1.226  1.8697  0.8045  0.2101
  182MPD1    N1 2833   4.652   1.867   1.785 -0.1113  0.7186 -0.1226
  182MPD1    H6 2834   4.726   1.821   1.839 -0.1338  2.5733  1.4702
  182MPD1    H7 2835   4.558   1.835   1.807 -0.3131 -0.0296 -2.0676
  183MPD1     C 2836   0.000   2.910   8.386 -0.3034 -0.1802  0.6797
  183MPD1    C1 2837   4.678   2.896   8.505 -0.0619 -0.8343  0.7039
  183MPD1    C2 2838   4.715   2.784   8.579  0.5365 -0.7228  0.3450
  183MPD1    C3 2839   0.084   2.702   8.546  0.8711  0.3359 -0.3443
  183MPD1    C4 2840   0.134   2.716   8.424 -0.0257 -0.4204  0.9884
  183MPD1    C5 2841   0.098   2.819   8.351 -0.0040 -0.1948 -0.8560
  183MPD1     H 2842   4.664   2.767   8.673 -2.7124  0.1852 -1.2561
  183MPD1    H1 2843   0.211   2.651   8.384 -0.2150 -0.6548  1.0060
  183MPD1    H2 2844   4.720   2.990   8.316 -1.3665  0.2151  1.4412
  183MPD1    H3 2845   0.145   2.838   8.255  0.1437  0.4158 -0.6633
  183MPD1     N 2846   0.120   2.608   8.646 -0.4481 -0.1088 -0.3501
  183MPD1    H5 2847   0.059   2.606   8.727 -0.0383 -0.0055 -0.0414
  183MPD1    N1 2848   4.558   2.959   8.532  0.1076 -0.3794  0.3326
  183MPD1    H6 2849   4.529   2.959   8.629 -0.1749  0.4821  0.2525
  183MPD1    H7 2850   4.560   3.056   8.502  0.8830 -0.4588  0.1144
  184MPD1     C 2851   0.087   4.740  10.093  0.3151 -0.2538  0.0010
  184MPD1    C1 2852   4.692   4.707  10.072  0.0280 -0.2736  0.2393
  184MPD1    C2 2853   4.615   0.046   9.986  0.0706 -0.8544 -0.5197
  184MPD1    C3 2854   4.671   0.163   9.933 -0.1100  0.0218  0.4300
  184MPD1    C4 2855   0.053   0.202   9.966  0.0814  0.4588 -0.1757
  184MPD1    C5 2856   0.129   0.119  10.041  0.2358  0.4071 -0.2295
  184MPD1     H 2857   4.514   0.016   9.962  0.1939 -2.1204  0.4958
  184MPD1    H1 2858   0.096   0.296   9.934 -0.6172  1.6084  2.2251
  184MPD1    H2 2859   0.158   4.680  10.150  1.1423  0.2945 -0.4488
  184MPD1    H3 2860   0.227   0.161  10.059  0.8172 -1.1215  0.1128
  184MPD1     N 2861   4.589   0.259   9.866  0.4580 -0.4986  0.1232
  184MPD1    H5 2862   4.623   0.351   9.838 -2.7576  1.2761  2.2046
  184MPD1    N1 2863   4.641   4.583  10.122  0.0520  0.3286 -0.2667
  184MPD1    H6 2864   4.548   4.605  10.155 -0.0980 -0.4742 -0.1517
  184MPD1    H7 2865   4.693   4.553  10.204  0.8804 -0.5511 -1.1080
  185MPD1     C 2866   3.867   0.029   9.256  0.5387  1.4213 -0.8183
  185MPD1    C1 2867   3.946   0.118   9.196  0.4081 -0.0653  0.5668
  185MPD1    C2 2868   4.005   0.211   9.280  0.2333  0.0092 -0.2186
  185MPD1    C3 2869   4.002   0.206   9.416 -0.1228  0.2156 -0.5533
  185MPD1    C4 2870   3.928   0.110   9.476  0.2945 -0.4902 -0.0022
  185MPD1    C5 2871   3.863   0.024   9.391 -0.4815  0.0066 -0.3470
  185MPD1     H 2872   4.075   0.278   9.231 -1.3250  1.4393 -0.5065
  185MPD1    H1 2873   3.911   0.096   9.583  0.5579  0.9075  0.2164
  185MPD1    H2 2874   3.809   4.689   9.212  1.1579  1.0871 -1.0258
  185MPD1    H3 2875   3.807   4.687   9.442 -0.2903 -0.0597 -0.2362
  185MPD1     N 2876   4.104   0.268   9.493  0.1106 -0.6488  0.8402
  185MPD1    H5 2877   4.106   0.232   9.588 -1.4606 -1.3565  0.6105
  185MPD1    N1 2878   3.936   0.162   9.062  0.8158 -0.0788 -0.8112
  185MPD1    H6 2879   4.009   0.225   9.030 -0.8960  0.7913 -2.9962
  185MPD1    H7 2880   3.935   0.077   9.005 -2.6992 -0.1105 -0.6983
  186MPD1     C 2881   2.572   4.317  15.764 -0.2436  1.1397 -0.2992
  186MPD1    C1 2882   2.695   4.375  15.776 -0.9396 -1.1386  0.0966
  186MPD1    C2 2883   2.713   4.495  15.840 -0.9708  0.6342  0.0519
  186MPD1    C3 2884   2.601   4.564  15.894 -0.1905 -0.2586  0.6184
  186MPD1    C4 2885   2.474   4.509  15.860 -0.1605 -0.5778 -0.6711
  186MPD1    C5 2886   2.461   4.384  15.796  0.4221 -1.0057 -0.1692
  186MPD1     H 2887   2.811   4.531  15.868 -0.6571  0.2381 -0.5449
  186MPD1    H1 2888   2.380   4.556  15.886 -0.8677 -2.7914  0.7753
  186MPD1    H2 2889   2.568   4.216  15.727  0.0801  1.7102 -1.8818
  186MPD1    H3 2890   2.361   4.344  15.783  0.2909 -0.7421  0.0422
  186MPD1     N 2891   2.614   4.685  15.963 -0.2605  0.3763 -0.2369
  186MPD1    H5 2892   2.528   4.731  15.990  0.5525 -0.2393  3.3762
  186MPD1    N1 2893   2.810   4.301  15.726 -0.0890 -0.0501  0.5569
  186MPD1    H6 2894   2.790   4.231  15.656  1.0589  0.1425  0.0473
  186MPD1    H7 2895   2.890   4.359  15.703 -0.8941  1.7014  2.1344
  187MPD1     C 2896   1.639   1.604   0.985 -0.3762 -0.5492 -0.5156
  187MPD1    C1 2897   1.650   1.739   1.004 -0.3020 -0.0554  0.3181
  187MPD1    C2 2898   1.711   1.811   0.899  0.0779  0.3840  0.4020
  187MPD1    C3 2899   1.739   1.752   0.775 -0.1166 -0.0716  0.6386
  187MPD1    C4 2900   1.717   1.618   0.764 -0.3257  0.4602 -0.4742
  187MPD1    C5 2901   1.670   1.548   0.868 -0.2897  0.0748  0.8809
  187MPD1     H 2902   1.723   1.919   0.908 -0.3711  0.5823 -1.4152
  187MPD1    H1 2903   1.745   1.558   0.678  0.1346 -0.3066  0.2074
  187MPD1    H2 2904   1.602   1.537   1.063  3.0313 -1.9173 -0.0663
  187MPD1    H3 2905   1.650   1.442   0.862 -0.2409  0.1881 -1.4094
  187MPD1     N 2906   1.804   1.823   0.659 -0.1933  0.2704 -0.3317
  187MPD1    H5 2907   1.789   1.775   0.571  2.2084  2.2200 -1.7991
  187MPD1    N1 2908   1.636   1.786   1.139 -0.1033 -0.1237 -0.0497
  187MPD1    H6 2909   1.617   1.886   1.134 -3.4452 -0.7295  0.0181
  187MPD1    H7 2910   1.554   1.746   1.186  0.2108  0.4340  0.9686
  188MPD1     C 2911   2.611   0.923  10.667 -0.1935 -0.7082  0.8443
  188MPD1    C1 2912   2.571   0.985  10.554 -0.2452 -0.6225  1.0303
  188MPD1    C2 2913   2.489   0.917  10.465  0.2742  0.2885 -0.4597
  188MPD1    C3 2914   2.453   0.784  10.485 -0.1909 -0.6701  0.0785
  188MPD1    C4 2915   2.500   0.721  10.596 -0.1929  0.1334  0.8866
  188MPD1    C5 2916   2.583   0.785  10.679 -0.4237  0.3659  0.1987
  188MPD1     H 2917   2.449   0.981  10.386 -1.6253 -1.8098 -1.1764
  188MPD1    H1 2918   2.491   0.613  10.601  0.3675 -0.1132 -2.9916
  188MPD1    H2 2919   2.679   0.962  10.742  0.1026 -0.3567  0.3891
  188MPD1    H3 2920   2.631   0.719  10.750  2.9020  2.2864 -0.2798
  188MPD1     N 2921   2.375   0.705  10.396 -0.7956  0.3512 -0.4279
  188MPD1    H5 2922   2.359   0.607  10.416 -1.6752  0.4523 -0.6299
  188MPD1    N1 2923   2.582   1.125  10.542 -0.2105 -0.6173 -0.2332
  188MPD1    H6 2924   2.597   1.151  10.444 -1.7764  0.0698 -0.2959
  188MPD1    H7 2925   2.662   1.160  10.595 -1.8476  0.4575  1.4965
  189MPD1     C 2926   3.680   2.951   0.457 -0.2070  0.6774  0.6966
  189MPD1    C1 2927   3.543   2.972   0.445 -0.2158 -0.3926 -0.4470
  189MPD1    C2 2928   3.502   3.088   0.385 -0.4308  0.5882 -0.2482
  189MPD1    C3 2929   3.592   3.170   0.320 -0.2000  0.1232  0.6260
  189MPD1    C4 2930   3.727   3.149   0.323  0.9090 -0.3161  0.2412
  189MPD1    C5 2931   3.768   3.036   0.391 -0.6311 -0.4711  0.2673
  189MPD1     H 2932   3.398   3.117   0.390  0.0553  2.3670 -0.5426
  189MPD1    H1 2933   3.807   3.207   0.278  1.9059 -0.6144  1.6420
  189MPD1    H2 2934   3.717   2.857   0.497 -2.3068 -1.8494 -3.2870
  189MPD1    H3 2935   3.869   3.004   0.366 -1.0606 -0.7692 -1.0609
  189MPD1     N 2936   3.541   3.279   0.252 -0.6302  0.4613 -0.2122
  189MPD1    H5 2937   3.440   3.281   0.242 -0.5748 -0.2386 -0.9365
  189MPD1    N1 2938   3.452   2.892   0.516 -0.1986 -0.5255 -0.2317
  189MPD1    H6 2939   3.485   2.795   0.517 -0.3796 -0.5850  0.0681
  189MPD1    H7 2940   3.354   2.894   0.488 -0.9901  0.2726  2.6295
  190MPD1     C 2941   2.541   0.558  15.824  1.1776  0.1757  0.1615
  190MPD1    C1 2942   2.519   0.613  15.949 -0.5063  0.9678 -0.0437
  190MPD1    C2 2943   2.511   0.752  15.951 -0.1297 -0.2523 -0.1265
  190MPD1    C3 2944   2.540   0.827  15.836  0.0730 -0.4367 -0.1698
  190MPD1    C4 2945   2.572   0.763  15.719  0.2282  0.3620  0.6987
  190MPD1    C5 2946   2.579   0.629  15.713 -0.7699  0.4190  0.1574
  190MPD1     H 2947   2.482   0.803  16.042 -0.2515  1.2158 -0.9872
  190MPD1    H1 2948   2.607   0.821  15.634 -1.2913  1.2508  0.6777
  190MPD1    H2 2949   2.530   0.452  15.803  1.1798 -0.2304  2.2495
  190MPD1    H3 2950   2.596   0.576  15.620 -0.7968  0.9166 -0.1354
  190MPD1     N 2951   2.529   0.969  15.826  0.5021 -0.8548  0.5308
  190MPD1    H5 2952   2.547   1.002  15.732  0.0106 -0.5603  0.5409
  190MPD1    N1 2953   2.475   0.535  16.061 -0.3999  0.1916  0.2672
  190MPD1    H6 2954   2.519   0.443  16.062 -1.2253 -0.1970  0.7978
  190MPD1    H7 2955   2.482   0.587  16.148  0.2445 -0.1578  0.4265
  191MPD1     C 2956   2.209   3.048  11.417 -0.3363  0.4923  0.4593
  191MPD1    C1 2957   2.199   2.924  11.471  0.2804 -1.6055  0.0043
  191MPD1    C2 2958   2.300   2.836  11.450  0.2697 -0.0750 -0.4134
  191MPD1    C3 2959   2.394   2.862  11.349  0.2224  0.1944  0.5473
  191MPD1    C4 2960   2.378   2.975  11.274 -0.5545 -0.3844 -0.4945
  191MPD1    C5 2961   2.289   3.069  11.312  0.7372 -0.1449  0.2733
  191MPD1     H 2962   2.295   2.747  11.512  1.0010 -0.0784 -0.3498
  191MPD1    H1 2963   2.452   2.994  11.197 -0.1172  2.1481  0.5661
  191MPD1    H2 2964   2.131   3.119  11.439 -1.6624  0.0643 -2.8801
  191MPD1    H3 2965   2.287   3.170  11.271 -0.9800  1.1050  3.4361
  191MPD1     N 2966   2.497   2.776  11.309  0.3998  0.0530 -0.1429
  191MPD1    H5 2967   2.549   2.797  11.225  0.2630 -0.2969 -0.3172
  191MPD1    N1 2968   2.103   2.907  11.576 -0.3350  0.1799 -0.4062
  191MPD1    H6 2969   2.073   2.819  11.616  0.2324  0.3340  0.3608
  191MPD1    H7 2970   2.022   2.969  11.570  1.0397  2.1293  1.0655
  192MPD1     C 2971   2.682   2.708  10.519 -0.4524 -0.4004  0.1551
  192MPD1    C1 2972   2.656   2.586  10.575  0.0675  0.2699 -1.2938
  192MPD1    C2 2973   2.691   2.570  10.711 -1.0498 -0.2945 -0.2089
  192MPD1    C3 2974   2.729   2.665  10.795 -0.3408 -0.1741  0.0844
  192MPD1    C4 2975   2.745   2.790  10.741 -0.0069  0.2059 -0.3615
  192MPD1    C5 2976   2.720   2.802  10.607 -0.2668  0.1963 -0.6990
  192MPD1     H 2977   2.678   2.474  10.760 -0.9791 -0.5897 -0.7715
  192MPD1    H1 2978   2.780   2.880  10.790 -0.3525  0.3183 -0.3180
  192MPD1    H2 2979   2.674   2.737  10.415 -2.1780 -0.1169  0.3688
  192MPD1    H3 2980   2.733   2.900  10.563 -3.0377  1.8254  2.0396
  192MPD1     N 2981   2.761   2.643  10.929  0.4060 -0.1497 -0.5750
  192MPD1    H5 2982   2.766   2.726  10.988  1.0293 -0.6956  0.1398
  192MPD1    N1 2983   2.611   2.472  10.503  0.1249  0.7693 -0.0829
  192MPD1    H6 2984   2.533   2.497  10.443 -1.6403  0.1537  1.9654
  192MPD1    H7 2985   2.580   2.398  10.566  1.7570  1.2681  1.3247
  193MPD1     C 2986   1.276   2.823  16.009  0.2825  0.3135  0.0572
  193MPD1    C1 2987   1.235   2.950  16.034 -0.4805  0.4309 -0.3604
  193MPD1    C2 2988   1.332   3.043  16.071  0.6403  0.0872  0.0122
  193MPD1    C3 2989   1.466   3.016  16.093  0.1329 -0.0547  0.0585
  193MPD1    C4 2990   1.502   2.887  16.067 -0.3068  0.4327 -0.1449
  193MPD1    C5 2991   1.406   2.793  16.028 -1.0719  0.5642  0.5058
  193MPD1     H 2992   1.296   3.145  16.076  0.9322  0.2407 -0.9817
  193MPD1    H1 2993   1.605   2.855  16.054  0.1219  0.6205  2.7456
  193MPD1    H2 2994   1.210   2.744  15.975 -0.4808  0.2145  1.7607
  193MPD1    H3 2995   1.440   2.691  16.015 -0.9300  1.0512 -2.9721
  193MPD1     N 2996   1.554   3.113  16.142 -0.7039  0.0807  0.3045
  193MPD1    H5 2997   1.652   3.088  16.147 -0.7636  0.1961  2.1543
  193MPD1    N1 2998   1.098   2.983  16.018 -0.3143 -0.4054  0.4411
  193MPD1    H6 2999   1.060   3.073  16.048 -1.8172 -0.7958 -0.3154
  193MPD1    H7 3000   1.030   2.908  16.017 -0.7031 -0.0917  2.3866
  194MPD1     C 3001   3.956   0.750  16.800 -1.0404 -0.0936  0.6205
  194MPD1    C1 3002   3.948   0.705  16.673  0.1863 -0.1387 -0.0829
  194MPD1    C2 3003   4.002   0.580  16.646 -0.4577  0.1298 -0.0388
  194MPD1    C3 3004   4.077   0.508  16.739 -0.2419  0.1262 -0.8563
  194MPD1    C4 3005   4.089   0.560  16.866 -0.6055 -0.5690 -0.7333
  194MPD1    C5 3006   4.027   0.676  16.895  0.6533 -0.6693 -0.1657
  194MPD1     H 3007   4.000   0.543  16.544 -0.6363  2.5326 -0.9236
  194MPD1    H1 3008   4.149   0.513  16.943 -0.5013 -2.1891 -1.8049
  194MPD1    H2 3009   3.893   0.831  16.835 -0.5694  0.4798  0.1242
  194MPD1    H3 3010   4.027   0.718  16.995  0.8194 -1.0215 -0.0181
  194MPD1     N 3011   4.147   0.386  16.708  0.6213 -0.0154 -0.1714
  194MPD1    H5 3012   4.189   0.332  16.783  0.8014  1.0531  0.4928
  194MPD1    N1 3013   3.859   0.758  16.580 -0.7514  0.3350 -0.2162
  194MPD1    H6 3014   3.892   0.747  16.484  0.5048 -0.3212  0.2876
  194MPD1    H7 3015   3.846   0.858  16.596 -2.7752 -0.3785  2.5368
  195MPD1     C 3016   2.272   2.026   0.374  0.3740  0.0036  0.3395
  195MPD1    C1 3017   2.210   1.918   0.431  0.2565 -0.1310  0.4020
  195MPD1    C2 3018   2.155   1.821   0.348  0.3158  0.5135 -0.1270
  195MPD1    C3 3019   2.151   1.832   0.212 -0.5418  0.2066  0.0388
  195MPD1    C4 3020   2.206   1.949   0.161 -0.2980 -0.8329 -1.1164
  195MPD1    C5 3021   2.264   2.046   0.243  0.1170  0.0328  0.0339
  195MPD1     H 3022   2.115   1.732   0.397 -1.7040  0.4217 -1.9245
  195MPD1    H1 3023   2.213   1.956   0.053  0.4838  2.1499 -0.8679
  195MPD1    H2 3024   2.319   2.101   0.436 -0.0067  1.0185 -0.6008
  195MPD1    H3 3025   2.318   2.131   0.203 -0.8280  0.8230  0.4580
  195MPD1     N 3026   2.105   1.738   0.126 -0.0444  0.4767  0.3302
  195MPD1    H5 3027   2.116   1.761   0.027 -2.5819 -2.4683 -0.6327
  195MPD1    N1 3028   2.228   1.893   0.570 -0.0886  0.2082  0.1654
  195MPD1    H6 3029   2.205   1.978   0.620  1.4548  1.0515 -0.5601
  195MPD1    H7 3030   2.169   1.820   0.609  2.6636 -2.3464 -0.4258
  196MPD1     C 3031   0.870   0.489   0.551 -0.0760 -0.6415 -0.3322
  196MPD1    C1 3032   0.738   0.480   0.592  0.6469 -0.4346  0.3716
  196MPD1    C2 3033   0.688   0.575   0.677  0.9062  0.6544 -0.1534
  196MPD1    C3 3034   0.767   0.664   0.750 -0.2666 -0.3045  0.4944
  196MPD1    C4 3035   0.899   0.668   0.712  0.8005 -0.2239  0.8845
  196MPD1    C5 3036   0.949   0.590   0.609 -0.6093  0.6541 -0.1720
  196MPD1     H 3037   0.583   0.568   0.703  0.9811  2.2051  0.5577
  196MPD1    H1 3038   0.956   0.749   0.757 -1.8402  2.9189 -1.3789
  196MPD1    H2 3039   0.911   0.417   0.482  2.3014  0.6466 -0.2641
  196MPD1    H3 3040   1.050   0.603   0.573 -0.4425  1.5773  0.6358
  196MPD1     N 3041   0.714   0.751   0.851  0.9602 -0.1560  0.2515
  196MPD1    H5 3042   0.783   0.810   0.897  1.2672 -0.9722  0.8391
  196MPD1    N1 3043   0.651   0.379   0.541  0.1340  0.1679  0.8889
  196MPD1    H6 3044   0.692   0.294   0.503 -0.7406  0.5309 -0.8693
  196MPD1    H7 3045   0.563   0.356   0.586  0.3293 -0.2004  1.0784
  197MPD1     C 3046   0.292   3.066  17.322  0.5433 -0.5881  0.0415
  197MPD1    C1 3047   0.407   3.147  17.324 -0.1342 -0.0988 -0.1020
  197MPD1    C2 3048   0.418   3.247  17.233  0.0841 -0.1783 -0.4226
  197MPD1    C3 3049   0.305   3.285  17.149  0.0835  0.0861 -0.0467
  197MPD1    C4 3050   0.194   3.201  17.159 -0.2727  0.6277 -0.0601
  197MPD1    C5 3051   0.188   3.094  17.241  0.4505  0.0313 -0.2899
  197MPD1     H 3052   0.516   3.292  17.223  0.4750 -0.3859  2.4101
  197MPD1    H1 3053   0.115   3.222  17.087  1.2706 -0.0297 -1.9455
  197MPD1    H2 3054   0.300   2.974  17.380 -1.2500 -0.1470  0.9863
  197MPD1    H3 3055   0.104   3.026  17.238 -1.4135  2.2639  1.4880
  197MPD1     N 3056   0.305   3.392  17.061  0.8390  0.1343  0.4692
  197MPD1    H5 3057   0.215   3.403  17.015  0.8894 -0.9096  0.1062
  197MPD1    N1 3058   0.507   3.105  17.407 -0.6445 -0.3300 -0.2207
  197MPD1    H6 3059   0.575   3.180  17.419 -1.4704  0.9791 -3.6585
  197MPD1    H7 3060   0.473   3.080  17.499  1.3273  1.7378  1.0880
  198MPD1     C 3061   2.142   1.620  14.624  0.4450 -0.1220 -0.4406
  198MPD1    C1 3062   2.165   1.749  14.572  0.2088  0.4825  0.0914
  198MPD1    C2 3063   2.226   1.840  14.655 -0.1351 -0.5717  0.2599
  198MPD1    C3 3064   2.270   1.821  14.785 -0.2696 -0.3847 -0.1659
  198MPD1    C4 3065   2.273   1.686  14.822  0.2190  0.1354  1.0570
  198MPD1    C5 3066   2.204   1.592  14.745 -0.1459  0.2597  0.5521
  198MPD1     H 3067   2.220   1.944  14.624 -1.5626 -0.7273  0.0113
  198MPD1    H1 3068   2.316   1.660  14.918 -1.3394 -1.3919  1.3405
  198MPD1    H2 3069   2.082   1.548  14.570  0.9384  0.8411 -2.2442
  198MPD1    H3 3070   2.190   1.489  14.776 -1.0098  0.6977  1.6477
  198MPD1     N 3071   2.309   1.932  14.870 -0.1485 -0.2525  0.1992
  198MPD1    H5 3072   2.309   2.025  14.829 -0.3085 -0.9262 -1.3355
  198MPD1    N1 3073   2.107   1.783  14.453 -0.3005 -0.9532 -0.5782
  198MPD1    H6 3074   2.070   1.710  14.392 -1.4529  0.4594 -1.5570
  198MPD1    H7 3075   2.173   1.837  14.397 -1.1849  2.9087  2.0828
  199MPD1     C 3076   4.210   3.364  10.605  0.3344 -0.1344 -0.1207
  199MPD1    C1 3077   4.123   3.257  10.592  0.2022  0.0882 -0.0765
  199MPD1    C2 3078   4.063   3.238  10.468 -0.3299  1.0162 -0.2216
  199MPD1    C3 3079   4.078   3.328  10.365 -0.0264  0.1967 -0.6437
  199MPD1    C4 3080   4.154   3.441  10.383 -0.3780 -0.2675  0.7165
  199MPD1    C5 3081   4.220   3.457  10.502  0.2429 -0.1938 -0.3984
  199MPD1     H 3082   4.007   3.147  10.448 -1.7602  1.9975 -0.6846
  199MPD1    H1 3083   4.156   3.522  10.311 -0.4010  0.3474  1.4071
  199MPD1    H2 3084   4.269   3.382  10.694  0.1596 -0.0874 -0.0133
  199MPD1    H3 3085   4.277   3.548  10.515  0.0153  0.2609 -2.5533
  199MPD1     N 3086   4.018   3.315  10.235 -0.0077 -0.9461  0.0978
  199MPD1    H5 3087   4.043   3.379  10.161 -0.7911  0.1217  0.7403
  199MPD1    N1 3088   4.126   3.160  10.688 -0.0192 -0.4006  0.2223
  199MPD1    H6 3089   4.165   3.195  10.775  1.1653  1.6226 -1.1306
  199MPD1    H7 3090   4.031   3.129  10.708 -0.0995 -0.0737  0.3364
  200MPD1     C 3091   2.999   3.277  14.787  0.0668 -0.5317  0.0335
  200MPD1    C1 3092   3.037   3.226  14.665 -0.1744 -0.2313 -1.0102
  200MPD1    C2 3093   3.178   3.224  14.637  0.4776 -0.8083 -0.4298
  200MPD1    C3 3094   3.277   3.271  14.723 -0.4363 -0.2796 -0.0312
  200MPD1    C4 3095   3.230   3.331  14.837 -0.1717 -0.4579 -0.1063
  200MPD1    C5 3096   3.095   3.324  14.867 -0.9874 -0.7170  0.5421
  200MPD1     H 3097   3.214   3.177  14.547 -0.4669 -0.0777 -1.1910
  200MPD1    H1 3098   3.293   3.384  14.907 -1.2588  1.4309 -0.5571
  200MPD1    H2 3099   2.900   3.278  14.831 -0.5829  0.6924 -1.4744
  200MPD1    H3 3100   3.053   3.369  14.956  0.6654 -1.4701  1.6808
  200MPD1     N 3101   3.414   3.256  14.696  0.2995  0.3361  0.1884
  200MPD1    H5 3102   3.440   3.198  14.617 -3.2184  1.2485 -1.6247
  200MPD1    N1 3103   2.954   3.145  14.586 -0.1153 -0.0164 -0.2573
  200MPD1    H6 3104   2.857   3.177  14.588 -0.4311 -1.0838  1.8885
  200MPD1    H7 3105   2.984   3.144  14.489  0.8235  2.0366  0.0117
  201MPD1     C 3106   0.758   2.170  13.441 -0.1946 -0.1476  0.4807
  201MPD1    C1 3107   0.686   2.112  13.545 -0.1525  0.3211 -1.1145
  201MPD1    C2 3108   0.723   1.991  13.588  0.0137  0.3789  0.1970
  201MPD1    C3 3109   0.808   1.906  13.515 -0.1188 -0.9459 -1.0945
  201MPD1    C4 3110   0.857   1.959  13.401 -0.0388 -0.1999 -0.8839
  201MPD1    C5 3111   0.835   2.086  13.365  0.0603 -0.0349 -0.3218
  201MPD1     H 3112   0.695   1.961  13.689  1.3988  1.1621  0.8114
  201MPD1    H1 3113   0.921   1.897  13.340 -1.1131 -0.1119 -2.1021
  201MPD1    H2 3114   0.742   2.273  13.411 -1.0731 -0.9721 -1.8747
  201MPD1    H3 3115   0.887   2.122  13.277  1.0478 -1.6337 -0.3996
  201MPD1     N 3116   0.861   1.784  13.571 -0.4672  0.5073 -0.0997
  201MPD1    H5 3117   0.826   1.757  13.662  0.3562  0.7939  0.3099
  201MPD1    N1 3118   0.617   2.197  13.634 -0.0844 -0.3004 -0.3517
  201MPD1    H6 3119   0.544   2.145  13.683 -0.7970 -0.3113 -1.4327
  201MPD1    H7 3120   0.582   2.280  13.587  2.2167 -0.0728 -1.6765
  202MPD1     C 3121   0.099   0.849   9.162  0.1716 -0.6993  0.4164
  202MPD1    C1 3122   0.189   0.817   9.266  0.2145  0.5080 -0.4952
  202MPD1    C2 3123   0.275   0.911   9.311 -0.6913 -0.5842  0.2155
  202MPD1    C3 3124   0.293   1.032   9.243 -0.3775 -0.2113 -0.1122
  202MPD1    C4 3125   0.208   1.064   9.138 -0.4611  0.0726 -0.1706
  202MPD1    C5 3126   0.105   0.974   9.100  0.5183  0.1342  1.0517
  202MPD1     H 3127   0.336   0.896   9.399 -1.6796 -0.6406  0.8909
  202MPD1    H1 3128   0.203   1.162   9.092 -2.4485  0.2465  0.3836
  202MPD1    H2 3129   0.024   0.779   9.128 -2.0914  1.9630 -0.0511
  202MPD1    H3 3130   0.031   1.002   9.026  0.3030 -0.5002  1.0343
  202MPD1     N 3131   0.399   1.121   9.286  0.0010  0.3509 -0.0944
  202MPD1    H5 3132   0.459   1.087   9.360 -0.2055  0.2163  0.0092
  202MPD1    N1 3133   0.146   0.717   9.359  0.0215  0.3106  0.0349
  202MPD1    H6 3134   0.107   0.637   9.310 -0.4743  0.2359  0.5597
  202MPD1    H7 3135   0.218   0.673   9.416 -0.9976  0.8739  1.7676
  203MPD1     C 3136   0.146   2.651  12.351 -0.1956  0.6328 -0.0967
  203MPD1    C1 3137   0.252   2.580  12.305 -0.1857 -0.4052  0.3125
  203MPD1    C2 3138   0.289   2.469  12.377  0.0473 -0.4736 -0.1878
  203MPD1    C3 3139   0.239   2.436  12.502 -0.3638 -0.0243 -0.3767
  203MPD1    C4 3140   0.136   2.513  12.546 -0.6083  0.7797 -0.3447
  203MPD1    C5 3141   0.090   2.615  12.467 -0.5367 -0.2028 -0.5185
  203MPD1     H 3142   0.358   2.395  12.337 -0.7578 -1.8566  0.9786
  203MPD1    H1 3143   0.096   2.517  12.646  2.2470 -0.8044  0.8564
  203MPD1    H2 3144   0.081   2.715  12.292 -1.8325 -0.3414  0.6377
  203MPD1    H3 3145   0.003   2.672  12.498  1.5230  0.9859  2.9878
  203MPD1     N 3146   0.298   2.340  12.588  0.5963 -0.4177  0.3037
  203MPD1    H5 3147   0.387   2.302  12.558  0.5633 -0.0271 -0.2956
  203MPD1    N1 3148   0.275   2.589  12.178  0.6040  0.3354 -0.6938
  203MPD1    H6 3149   0.268   2.688  12.153 -0.1620  0.8462  1.5991
  203MPD1    H7 3150   0.360   2.541  12.148  0.3011 -1.1345  0.8236
  204MPD1     C 3151   3.848   4.590  17.228  0.1751 -0.7462 -0.6389
  204MPD1    C1 3152   3.965   4.568  17.152 -0.0975 -0.3460  0.1168
  204MPD1    C2 3153   4.013   4.439  17.137 -0.6945 -0.1520  0.1568
  204MPD1    C3 3154   3.960   4.342  17.221 -0.0384 -0.7297 -0.1559
  204MPD1    C4 3155   3.853   4.366  17.304 -0.1395  0.3450  0.4883
  204MPD1    C5 3156   3.804   4.490  17.316  0.6538 -0.2071  0.0966
  204MPD1     H 3157   4.079   4.418  17.054 -0.2580  1.5092  0.0750
  204MPD1    H1 3158   3.800   4.292  17.362 -1.5177  0.4629 -0.6186
  204MPD1    H2 3159   3.779   4.673  17.218  0.1342 -0.8115 -0.9020
  204MPD1    H3 3160   3.712   4.510  17.368 -0.0976 -0.2106 -1.2338
  204MPD1     N 3161   4.020   4.213  17.222  0.1021  0.3209 -0.2092
  204MPD1    H5 3162   4.106   4.206  17.169 -0.9929 -1.4327 -1.7507
  204MPD1    N1 3163   4.006   4.677  17.063  0.1100  0.0046  0.3193
  204MPD1    H6 3164   4.098   4.658  17.026  0.1855  0.4550  0.2775
  204MPD1    H7 3165   4.012   0.022  17.119  2.1788  1.1054 -1.5807
  205MPD1     C 3166   3.483   3.201  16.598  0.3150  0.7204 -0.7140
  205MPD1    C1 3167   3.435   3.080  16.642 -0.1426 -0.6685  0.0975
  205MPD1    C2 3168   3.492   3.026  16.756 -0.1829 -0.5857  0.4026
  205MPD1    C3 3169   3.568   3.105  16.847 -0.0566  0.3913 -0.0074
  205MPD1    C4 3170   3.612   3.224  16.794  0.1030  0.0709  0.4252
  205MPD1    C5 3171   3.572   3.269  16.671 -0.3325  0.1319  0.8298
  205MPD1     H 3172   3.459   2.927  16.788  0.5784 -0.7727  0.6117
  205MPD1    H1 3173   3.679   3.285  16.854 -0.4654 -0.1843  1.3100
  205MPD1    H2 3174   3.447   3.234  16.501  0.6149  1.3484 -0.6117
  205MPD1    H3 3175   3.610   3.360  16.627  0.9853  0.7553  3.2470
  205MPD1     N 3176   3.619   3.061  16.970  0.6047  0.0519 -0.3033
  205MPD1    H5 3177   3.692   3.121  17.007  0.2704  1.3590 -1.7397
  205MPD1    N1 3178   3.368   2.998  16.549 -0.1125  0.0222  0.4205
  205MPD1    H6 3179   3.328   2.912  16.586  2.8712 -0.8852  1.5833
  205MPD1    H7 3180   3.287   3.037  16.502 -0.8002 -2.3396 -0.3447
  206MPD1     C 3181   4.663   0.405  16.870 -0.6152  0.8178  0.4424
  206MPD1    C1 3182   4.674   0.336  16.755  0.8872  0.1644 -0.0181
  206MPD1    C2 3183   4.607   0.376  16.648 -0.3038 -0.2968  0.4909
  206MPD1    C3 3184   4.507   0.471  16.649 -0.2285 -0.1187 -0.1151
  206MPD1    C4 3185   4.487   0.526  16.774 -0.1466 -0.0119 -0.4093
  206MPD1    C5 3186   4.561   0.496  16.882  0.2458  0.4984  0.0631
  206MPD1     H 3187   4.618   0.314  16.559 -2.1095  1.6927 -1.1277
  206MPD1    H1 3188   4.404   0.595  16.786  0.9112  0.9359  1.3881
  206MPD1    H2 3189   4.718   0.368  16.956 -0.5328  0.7611  0.3656
  206MPD1    H3 3190   4.546   0.543  16.978 -0.9009  1.3662 -0.5391
  206MPD1     N 3191   4.422   0.511  16.537 -0.5265  0.1703 -0.1439
  206MPD1    H5 3192   4.347   0.576  16.554  0.0426 -0.0006  3.0138
  206MPD1    N1 3193   0.023   0.228  16.739  0.0431 -0.4635  0.1666
  206MPD1    H6 3194   4.715   0.143  16.709 -0.4566 -0.0607 -0.1798
  206MPD1    H7 3195   0.068   0.205  16.827  3.5120 -1.4945 -1.8425
  207MPD1     C 3196   1.382   2.347  10.837 -0.2355 -0.2790 -0.4060
  207MPD1    C1 3197   1.442   2.297  10.952  0.1866 -0.7086 -0.3194
  207MPD1    C2 3198   1.582   2.300  10.963  0.6604  0.1021  0.1169
  207MPD1    C3 3199   1.663   2.357  10.870 -0.4993  0.2528  0.7465
  207MPD1    C4 3200   1.603   2.403  10.756  0.3924 -0.2867  0.0296
  207MPD1    C5 3201   1.471   2.393  10.735 -0.0868  0.3997  0.4069
  207MPD1     H 3202   1.635   2.266  11.051  1.1319 -0.7695 -0.5032
  207MPD1    H1 3203   1.662   2.451  10.680 -0.6516 -0.6623 -1.0054
  207MPD1    H2 3204   1.275   2.353  10.824 -0.0398 -0.5570 -2.0681
  207MPD1    H3 3205   1.431   2.434  10.643 -1.2258 -1.6816 -0.0438
  207MPD1     N 3206   1.803   2.375  10.879 -0.5023 -0.7057 -0.2465
  207MPD1    H5 3207   1.840   2.419  10.795  0.4843  1.0313  1.1151
  207MPD1    N1 3208   1.363   2.269  11.067 -0.1716 -0.3025  0.1544
  207MPD1    H6 3209   1.275   2.226  11.040 -0.6095  0.6416  0.0989
  207MPD1    H7 3210   1.409   2.210  11.136  1.0206  0.8744  0.3646
  208MPD1     C 3211   4.581   2.275  17.156 -0.1469 -0.2868  0.1222
  208MPD1    C1 3212   4.447   2.283  17.169 -0.1793  0.4274 -0.0533
  208MPD1    C2 3213   4.396   2.248  17.294  0.9587  0.2919 -0.5846
  208MPD1    C3 3214   4.475   2.240  17.409 -0.8866 -0.6810  0.3586
  208MPD1    C4 3215   4.608   2.254  17.396 -0.2762 -1.1777 -0.3459
  208MPD1    C5 3216   4.653   2.279  17.269  0.4318  0.3610 -0.7616
  208MPD1     H 3217   4.289   2.236  17.306  1.3007  0.5223  2.5175
  208MPD1    H1 3218   4.675   2.257  17.482 -3.4536  0.0748  2.1109
  208MPD1    H2 3219   4.628   2.289  17.059 -1.7812  0.2996 -0.5733
  208MPD1    H3 3220   0.018   2.295  17.246  0.5342  1.6351  0.6253
  208MPD1     N 3221   4.406   2.216  17.529 -0.0584  0.2038 -0.1724
  208MPD1    H5 3222   4.308   2.203  17.509  0.4826 -0.1881 -2.6643
  208MPD1    N1 3223   4.353   2.289  17.063  0.3318  0.0605  0.0543
  208MPD1    H6 3224   4.408   2.334  16.990 -0.7020 -1.6331 -1.7601
  208MPD1    H7 3225   4.261   2.331  17.076  0.8481  1.1608  0.1667
  209MPD1     C 3226   2.627   1.481  10.772  0.5779 -0.7666  0.0659
  209MPD1    C1 3227   2.670   1.613  10.737 -0.3179  0.2908  0.2511
  209MPD1    C2 3228   2.709   1.695  10.843 -0.5812  0.2325  0.0667
  209MPD1    C3 3229   2.743   1.633  10.965 -0.0648  0.0561  0.0096
  209MPD1    C4 3230   2.706   1.502  10.985  0.4639  0.0710  0.5728
  209MPD1    C5 3231   2.642   1.430  10.891 -0.1056  0.2293  0.6991
  209MPD1     H 3232   2.722   1.801  10.829 -3.7986  0.7705  1.0246
  209MPD1    H1 3233   2.716   1.462  11.085  2.3361  0.5649  0.5986
  209MPD1    H2 3234   2.570   1.430  10.695 -1.1739 -0.8086  1.4148
  209MPD1    H3 3235   2.590   1.340  10.921 -1.4327  0.5609 -0.6232
  209MPD1     N 3236   2.808   1.711  11.066  0.5162  0.3553 -0.3392
  209MPD1    H5 3237   2.829   1.810  11.057 -1.4331  0.6797 -1.2355
  209MPD1    N1 3238   2.637   1.669  10.612  0.4339 -0.4398 -0.2991
  209MPD1    H6 3239   2.694   1.749  10.588 -1.0552  0.5625 -0.5267
  209MPD1    H7 3240   2.630   1.599  10.538 -0.3516 -0.2577 -0.3970
  210MPD1     C 3241   3.201   1.728  12.048  0.0969  0.3514  0.1677
  210MPD1    C1 3242   3.064   1.713  12.046  0.0407 -0.4871 -0.4842
  210MPD1    C2 3243   3.002   1.692  11.924  0.2767  0.1551  0.0461
  210MPD1    C3 3244   3.071   1.709  11.802  0.9991 -0.3111  0.2708
  210MPD1    C4 3245   3.205   1.726  11.809 -0.4022  0.4981 -0.2972
  210MPD1    C5 3246   3.269   1.735  11.929 -0.4409 -0.5543 -0.6077
  210MPD1     H 3247   2.901   1.653  11.933  0.9080 -1.5913 -0.2968
  210MPD1    H1 3248   3.258   1.743  11.716  1.9371  1.9433  1.2901
  210MPD1    H2 3249   3.266   1.734  12.134  0.5277 -0.6860 -0.0844
  210MPD1    H3 3250   3.376   1.747  11.933 -0.6490  0.6929  0.9711
  210MPD1     N 3251   3.011   1.717  11.672 -0.2593 -0.3103 -0.4911
  210MPD1    H5 3252   3.080   1.731  11.599  0.9349 -2.7046  0.1619
  210MPD1    N1 3253   2.989   1.690  12.171 -0.3850 -0.1325 -0.4255
  210MPD1    H6 3254   2.900   1.737  12.158 -0.7922 -0.8829 -0.3330
  210MPD1    H7 3255   3.041   1.735  12.246  1.0298 -0.0445 -1.4589
  211MPD1     C 3256   3.761   2.496  17.190 -0.3827  0.6632  0.0155
  211MPD1    C1 3257   3.871   2.581  17.185 -0.2679 -0.7546  0.0481
  211MPD1    C2 3258   3.897   2.663  17.080  0.3767  0.3985  0.7879
  211MPD1    C3 3259   3.803   2.666  16.979 -0.1233  0.1582 -0.6500
  211MPD1    C4 3260   3.685   2.586  16.985 -0.2229 -0.0279  0.1713
  211MPD1    C5 3261   3.672   2.496  17.087 -0.3773  0.5627  0.0832
  211MPD1     H 3262   3.970   2.742  17.088 -0.0006  0.8878 -0.7118
  211MPD1    H1 3263   3.607   2.580  16.910 -0.1230 -0.6745  0.1166
  211MPD1    H2 3264   3.735   2.428  17.270  2.8131  0.4680  0.8769
  211MPD1    H3 3265   3.584   2.434  17.095  0.4187 -0.7176 -1.2315
  211MPD1     N 3266   3.824   2.753  16.873 -0.1914 -0.1477  0.4667
  211MPD1    H5 3267   3.904   2.814  16.881  0.4125 -0.8311 -0.3614
  211MPD1    N1 3268   3.966   2.549  17.280 -0.1605 -0.2171  0.7013
  211MPD1    H6 3269   3.924   2.526  17.369 -0.7350  3.2190  1.3463
  211MPD1    H7 3270   4.019   2.635  17.288  0.8418 -0.6541 -1.2500
  212MPD1     C 3271   3.741   0.812  16.171 -0.0361  0.7347  0.6248
  212MPD1    C1 3272   3.690   0.897  16.267 -0.7056 -1.0783 -0.1091
  212MPD1    C2 3273   3.602   0.845  16.359  0.1695  0.2225 -0.7272
  212MPD1    C3 3274   3.563   0.711  16.362 -0.2406 -0.2222  0.0060
  212MPD1    C4 3275   3.614   0.630  16.260  0.3500 -0.3489 -0.0613
  212MPD1    C5 3276   3.712   0.679  16.179 -0.7935  0.0001 -0.1214
  212MPD1     H 3277   3.554   0.907  16.435 -0.6711 -1.1013 -0.1899
  212MPD1    H1 3278   3.593   0.524  16.246  0.4747 -0.2330 -1.1064
  212MPD1    H2 3279   3.810   0.843  16.092 -0.8265 -2.7098 -1.4047
  212MPD1    H3 3280   3.759   0.604  16.116  0.0903  0.7945 -0.4050
  212MPD1     N 3281   3.460   0.660  16.441  0.4367  0.3598  0.7807
  212MPD1    H5 3282   3.437   0.562  16.425 -0.3783  0.8944 -1.3552
  212MPD1    N1 3283   3.709   1.035  16.252 -0.3026 -0.2882 -0.2007
  212MPD1    H6 3284   3.781   1.066  16.187 -0.8696  1.2500 -0.0925
  212MPD1    H7 3285   3.724   1.084  16.340  0.8089  0.3614 -0.7512
  213MPD1     C 3286   1.536   1.983  15.929  0.2228  0.3142  0.0334
  213MPD1    C1 3287   1.519   1.929  15.804 -0.2812 -0.2328 -0.2143
  213MPD1    C2 3288   1.589   1.816  15.782  0.6306  0.3098 -0.0098
  213MPD1    C3 3289   1.705   1.779  15.845  0.7053  0.4846 -0.2241
  213MPD1    C4 3290   1.739   1.847  15.962  0.1660 -0.5680  0.5529
  213MPD1    C5 3291   1.646   1.948  16.001  0.2864 -0.3017  0.9619
  213MPD1     H 3292   1.561   1.760  15.694 -3.1247 -3.4361  3.6109
  213MPD1    H1 3293   1.819   1.819  16.029 -0.5520 -1.4586  1.0441
  213MPD1    H2 3294   1.472   2.067  15.955 -1.0994 -1.0067  1.0165
  213MPD1    H3 3295   1.674   2.018  16.079 -0.5093  1.1171 -0.0150
  213MPD1     N 3296   1.774   1.676  15.783 -0.0746 -0.1241  0.1128
  213MPD1    H5 3297   1.727   1.642  15.700  0.4149  2.3459 -1.1703
  213MPD1    N1 3298   1.392   1.921  15.744  0.2721  0.0235 -0.3258
  213MPD1    H6 3299   1.362   2.018  15.734 -1.8466 -0.4667  1.2582
  213MPD1    H7 3300   1.406   1.888  15.648  0.7417 -1.7202  0.3461
  214MPD1     C 3301   2.087   0.820  16.049 -0.2012 -0.3866 -0.5613
  214MPD1    C1 3302   2.132   0.827  15.914 -0.4660  0.3624  0.6113
  214MPD1    C2 3303   2.131   0.951  15.865 -0.3008 -0.4194  0.2091
  214MPD1    C3 3304   2.107   1.064  15.936 -0.1406  0.0860 -0.1317
  214MPD1    C4 3305   2.072   1.053  16.066 -0.1285  0.0245 -0.0573
  214MPD1    C5 3306   2.052   0.933  16.120  0.5532 -0.2395  0.3569
  214MPD1     H 3307   2.146   0.956  15.757 -0.8457 -1.0622  0.1054
  214MPD1    H1 3308   2.037   1.133  16.131 -0.4003  0.4476 -0.7205
  214MPD1    H2 3309   2.075   0.726  16.102 -0.9458 -0.7226 -1.3167
  214MPD1    H3 3310   2.015   0.921  16.221  0.6880  1.0225  0.5506
  214MPD1     N 3311   2.105   1.194  15.884  0.5231 -0.0419 -0.5892
  214MPD1    H5 3312   2.074   1.263  15.952  1.2443  0.0790 -0.3829
  214MPD1    N1 3313   2.136   0.710  15.840 -0.0120  0.3348 -0.3182
  214MPD1    H6 3314   2.200   0.726  15.762  1.6992  1.3143  1.3024
  214MPD1    H7 3315   2.174   0.627  15.886 -1.9311  0.0828  0.8179
  215MPD1     C 3316   1.179   1.843  11.263 -0.0728  0.0261  0.3681
  215MPD1    C1 3317   1.128   1.928  11.357  0.5534  0.1688 -0.1130
  215MPD1    C2 3318   1.219   2.019  11.414 -0.2003  0.8125 -0.2112
  215MPD1    C3 3319   1.349   2.032  11.374  0.8654 -0.5636 -0.5412
  215MPD1    C4 3320   1.378   1.977  11.255 -0.4525  0.7890 -0.1224
  215MPD1    C5 3321   1.300   1.870  11.209 -0.1679  0.3408  0.0303
  215MPD1     H 3322   1.196   2.077  11.503 -2.5634  0.1026 -0.3639
  215MPD1    H1 3323   1.476   1.978  11.207 -0.8695 -0.8920 -1.0196
  215MPD1    H2 3324   1.109   1.776  11.214 -1.4481  0.1846  2.1251
  215MPD1    H3 3325   1.323   1.822  11.115  0.4102 -1.0913  0.9125
  215MPD1     N 3326   1.428   2.128  11.447  0.2123 -0.0819  0.0522
  215MPD1    H5 3327   1.394   2.150  11.540 -0.7775 -1.4388  0.0013
  215MPD1    N1 3328   1.005   1.897  11.419  0.3395 -0.0981 -0.2485
  215MPD1    H6 3329   0.959   1.982  11.451  0.8903 -0.3320  1.1617
  215MPD1    H7 3330   0.952   1.855  11.342  2.1284 -3.0975  0.1648
  216MPD1     C 3331   3.787   0.303  16.256  0.2876  0.5144  0.1381
  216MPD1    C1 3332   3.672   0.238  16.250  0.4774 -0.1067  0.1200
  216MPD1    C2 3333   3.599   0.215  16.361 -0.5307  0.1339  0.1882
  216MPD1    C3 3334   3.654   0.275  16.477  0.5705  0.2042  0.1709
  216MPD1    C4 3335   3.774   0.346  16.479 -0.6498 -0.1069  0.3142
  216MPD1    C5 3336   3.835   0.369  16.365  0.2516  0.5754 -0.1815
  216MPD1     H 3337   3.510   0.153  16.365 -1.5257  1.5092 -0.4607
  216MPD1    H1 3338   3.807   0.394  16.571 -2.0215  1.8073 -0.1833
  216MPD1    H2 3339   3.850   0.331  16.172  1.3233  0.3756  0.8641
  216MPD1    H3 3340   3.920   0.434  16.352 -0.0680  0.8432 -0.9719
  216MPD1     N 3341   3.577   0.249  16.591 -0.9044 -0.0042  0.3605
  216MPD1    H5 3342   3.493   0.195  16.573  0.5836 -2.6154  1.2532
  216MPD1    N1 3343   3.644   0.170  16.128  0.1488  0.3789 -0.0533
  216MPD1    H6 3344   3.681   0.221  16.049 -0.9670 -0.2729 -1.0051
  216MPD1    H7 3345   3.543   0.170  16.114  0.0531  1.4131  0.6694
  217MPD1     C 3346   3.422   0.946   8.884 -0.2605 -0.4256  0.1702
  217MPD1    C1 3347   3.527   0.990   8.812  0.1235  0.3938 -0.0579
  217MPD1    C2 3348   3.616   1.073   8.883  0.4315 -0.3154  0.4938
  217MPD1    C3 3349   3.602   1.097   9.016 -0.7135  0.3260 -0.0705
  217MPD1    C4 3350   3.486   1.057   9.077  0.3493 -0.8754  0.1176
  217MPD1    C5 3351   3.399   0.982   9.010  0.6130  0.0474  0.1047
  217MPD1     H 3352   3.717   1.087   8.846  1.3039 -1.5232  2.3877
  217MPD1    H1 3353   3.471   1.073   9.183  1.9683 -0.0756  0.2233
  217MPD1    H2 3354   3.355   0.879   8.830 -1.1907  1.6512 -1.2366
  217MPD1    H3 3355   3.321   0.931   9.065 -1.7305  2.0456 -1.3669
  217MPD1     N 3356   3.689   1.176   9.097  0.1327 -0.5938 -0.0985
  217MPD1    H5 3357   3.654   1.207   9.187 -0.2659 -0.5965 -0.2507
  217MPD1    N1 3358   3.544   0.944   8.682  0.2477  0.2568  0.2767
  217MPD1    H6 3359   3.578   1.012   8.614 -3.1550  0.3412 -1.3599
  217MPD1    H7 3360   3.468   0.892   8.639  0.0220  0.8702 -0.0783
  218MPD1     C 3361   1.411   1.586  12.963 -0.4407  0.0713  0.1550
  218MPD1    C1 3362   1.472   1.480  12.905  0.3810 -0.2450  0.2432
  218MPD1    C2 3363   1.573   1.497  12.818 -0.2460 -0.8721  0.2747
  218MPD1    C3 3364   1.633   1.620  12.798  0.2422  0.3048  0.2823
  218MPD1    C4 3365   1.574   1.729  12.851 -0.0551  0.1033 -0.6525
  218MPD1    C5 3366   1.467   1.709  12.938  0.8225 -0.0909  0.2999
  218MPD1     H 3367   1.626   1.409  12.782  0.4613  0.0521 -0.9200
  218MPD1    H1 3368   1.616   1.828  12.835  1.9636 -0.4642  1.0914
  218MPD1    H2 3369   1.325   1.584  13.028 -1.7880 -2.8882 -1.7199
  218MPD1    H3 3370   1.426   1.795  12.988  0.1248  0.9676 -2.0851
  218MPD1     N 3371   1.748   1.625  12.723  0.5549  0.0738  0.5704
  218MPD1    H5 3372   1.784   1.536  12.691  1.5691  1.0609 -1.0230
  218MPD1    N1 3373   1.411   1.350  12.896  0.2363 -0.5923  0.1246
  218MPD1    H6 3374   1.366   1.333  12.986 -1.7033  1.1895 -0.5112
  218MPD1    H7 3375   1.461   1.264  12.872 -0.3686 -1.6377  2.5866
  219MPD1     C 3376   2.227   2.199  12.028  0.0859 -0.0746 -0.1769
  219MPD1    C1 3377   2.318   2.118  12.096 -0.0727  0.6414 -0.2858
  219MPD1    C2 3378   2.265   2.026  12.187 -0.6421 -0.4219 -0.5597
  219MPD1    C3 3379   2.126   2.003  12.198 -0.7016  0.6289 -0.1563
  219MPD1    C4 3380   2.042   2.081  12.129 -0.3882 -0.2331  0.6645
  219MPD1    C5 3381   2.092   2.179  12.041  0.3540  0.2876  0.4375
  219MPD1     H 3382   2.333   1.976  12.254 -0.3366  2.8748  1.6031
  219MPD1    H1 3383   1.934   2.080  12.137 -0.4157 -2.0698 -0.0584
  219MPD1    H2 3384   2.262   2.283  11.970 -1.9327 -0.9674 -2.6754
  219MPD1    H3 3385   2.023   2.243  11.988  0.0975 -1.3976 -1.2674
  219MPD1     N 3386   2.070   1.901  12.274 -0.8210  0.4722 -0.7799
  219MPD1    H5 3387   1.968   1.894  12.273 -0.7145 -1.1074 -1.2780
  219MPD1    N1 3388   2.446   2.168  12.111  0.1352  0.1958 -0.3080
  219MPD1    H6 3389   2.511   2.096  12.142 -0.3473 -0.8716 -1.7759
  219MPD1    H7 3390   2.470   2.214  12.023  1.5457 -1.2481 -0.6938
  220MPD1     C 3391   1.516   3.544  10.176 -0.1565  0.0978 -0.1959
  220MPD1    C1 3392   1.444   3.438  10.134 -0.6601 -0.0088 -0.1591
  220MPD1    C2 3393   1.472   3.316  10.185 -0.1152 -0.0276  0.1130
  220MPD1    C3 3394   1.566   3.300  10.283  0.6185 -0.2463 -0.0591
  220MPD1    C4 3395   1.638   3.403  10.328  0.2628  0.2536  0.4765
  220MPD1    C5 3396   1.611   3.529  10.278 -0.0011  0.7226  1.0716
  220MPD1     H 3397   1.405   3.234  10.160  1.3120 -0.5914 -1.9142
  220MPD1    H1 3398   1.712   3.404  10.407  0.2502  0.1362  0.4904
  220MPD1    H2 3399   1.487   3.642  10.140  0.2417  1.2872  2.7109
  220MPD1    H3 3400   1.669   3.615  10.309 -0.8867  1.1643  1.4975
  220MPD1     N 3401   1.573   3.169  10.339 -0.2758 -0.4940 -0.3140
  220MPD1    H5 3402   1.517   3.101  10.290 -2.4685  0.4165  0.9499
  220MPD1    N1 3403   1.342   3.465  10.041 -0.3995  0.6450 -0.4084
  220MPD1    H6 3404   1.337   3.398   9.966 -0.6404  0.0264  0.1615
  220MPD1    H7 3405   1.352   3.562  10.012 -0.9806  0.2755 -1.8456
  221MPD1     C 3406   4.251   1.974  16.363 -0.0146 -0.1074 -0.7629
  221MPD1    C1 3407   4.222   1.918  16.243  0.3089  0.7121 -0.5933
  221MPD1    C2 3408   4.216   1.779  16.244  0.4656  0.4694 -0.6979
  221MPD1    C3 3409   4.276   1.702  16.341  0.1435 -0.6035  0.1317
  221MPD1    C4 3410   4.328   1.764  16.459 -0.0097  0.0165 -0.1977
  221MPD1    C5 3411   4.306   1.899  16.467 -0.2909  0.4078 -0.5957
  221MPD1     H 3412   4.190   1.734  16.149  0.1334  0.6146 -0.6740
  221MPD1    H1 3413   4.375   1.698  16.531  0.0267 -0.9350 -1.1023
  221MPD1    H2 3414   4.244   2.080  16.386  1.7745  0.0862 -1.0950
  221MPD1    H3 3415   4.353   1.954  16.548 -1.3227 -1.9476  1.6204
  221MPD1     N 3416   4.304   1.564  16.333 -0.3071  0.0476 -0.1599
  221MPD1    H5 3417   4.360   1.522  16.407  0.3501  2.8238  0.9343
  221MPD1    N1 3418   4.164   1.994  16.139 -0.1338  0.6717 -0.6501
  221MPD1    H6 3419   4.190   1.952  16.050  2.9494 -0.0926  0.6267
  221MPD1    H7 3420   4.209   2.086  16.143 -0.3150  0.7817 -1.0901
  222MPD1     C 3421   1.987   1.853   1.059 -0.3138 -0.4343 -0.9443
  222MPD1    C1 3422   2.019   1.895   1.180 -0.0814  0.0620 -0.3891
  222MPD1    C2 3423   2.146   1.946   1.200  0.3514 -0.2146 -0.7473
  222MPD1    C3 3424   2.241   1.940   1.097  0.5768 -0.1019 -0.6995
  222MPD1    C4 3425   2.206   1.900   0.971  0.8322  0.7889 -0.5568
  222MPD1    C5 3426   2.080   1.865   0.953  0.2303 -0.0895  0.5235
  222MPD1     H 3427   2.169   1.979   1.301 -0.9432  0.4843 -0.6657
  222MPD1    H1 3428   2.274   1.911   0.887  1.4574 -0.1407 -0.1665
  222MPD1    H2 3429   1.890   1.809   1.040 -1.1568  1.2292 -0.5093
  222MPD1    H3 3430   2.054   1.841   0.851  0.9799 -1.4271  0.6510
  222MPD1     N 3431   2.377   1.974   1.120  0.3567 -0.6705  0.5665
  222MPD1    H5 3432   2.440   1.980   1.040  0.0749  0.9712  0.4487
  222MPD1    N1 3433   1.939   1.865   1.294  0.4194 -0.3373  0.3249
  222MPD1    H6 3434   1.950   1.938   1.364 -0.8883 -0.5733  0.7777
  222MPD1    H7 3435   1.843   1.863   1.260  0.6097 -2.0905 -0.0782
  223MPD1     C 3436   2.867   1.744   1.963  0.4583  0.6122  0.1086
  223MPD1    C1 3437   2.771   1.842   1.966  0.6315 -0.6004 -0.2378
  223MPD1    C2 3438   2.746   1.905   1.845 -0.2071  0.2167  0.1440
  223MPD1    C3 3439   2.814   1.865   1.727 -1.0671 -0.3760  0.7173
  223MPD1    C4 3440   2.899   1.755   1.731  0.0396  0.1180 -0.4694
  223MPD1    C5 3441   2.924   1.697   1.848 -0.6947 -0.2265 -0.1163
  223MPD1     H 3442   2.674   1.985   1.839 -0.1062  0.3893  1.3000
  223MPD1    H1 3443   2.936   1.709   1.639  3.5803  0.0569  0.9861
  223MPD1    H2 3444   2.905   1.704   2.057  1.8546 -0.3678 -0.8737
  223MPD1    H3 3445   2.994   1.614   1.852 -1.3587 -0.7467  0.7886
  223MPD1     N 3446   2.771   1.931   1.611 -0.1643 -0.3577  0.3203
  223MPD1    H5 3447   2.705   2.008   1.615  1.1552  0.7579  0.6831
  223MPD1    N1 3448   2.725   1.892   2.090  0.3191 -0.2709 -0.2137
  223MPD1    H6 3449   2.729   1.826   2.167  1.8242 -0.3924 -0.3857
  223MPD1    H7 3450   2.633   1.935   2.082  1.3040  1.2383 -3.4433
  224MPD1     C 3451   4.140   2.329   9.048  0.0520 -0.0476  0.2512
  224MPD1    C1 3452   4.243   2.262   8.989 -0.5244 -0.4416  0.1146
  224MPD1    C2 3453   4.351   2.218   9.064  0.4497  0.0397  0.1205
  224MPD1    C3 3454   4.356   2.248   9.196 -0.0733 -0.9961 -0.1114
  224MPD1    C4 3455   4.243   2.297   9.260  0.2895 -0.3953 -0.1017
  224MPD1    C5 3456   4.135   2.337   9.188 -0.7552 -0.0753 -0.0872
  224MPD1     H 3457   4.438   2.185   9.008 -0.6361 -0.1484 -1.4480
  224MPD1    H1 3458   4.255   2.311   9.366  0.0274  0.4021 -0.1779
  224MPD1    H2 3459   4.067   2.374   8.981 -0.0078 -2.4454 -1.3143
  224MPD1    H3 3460   4.057   2.392   9.238 -0.0361 -1.2242  2.2901
  224MPD1     N 3461   4.466   2.236   9.284  0.2001 -0.1435 -0.1011
  224MPD1    H5 3462   4.471   2.273   9.378  1.7584  0.6163 -0.4725
  224MPD1    N1 3463   4.237   2.257   8.845  0.3194 -0.4357  0.0095
  224MPD1    H6 3464   4.144   2.234   8.810  0.2097 -2.1431  1.4380
  224MPD1    H7 3465   4.303   2.194   8.799 -0.7538  0.1368 -2.2889
  225MPD1     C 3466   1.806   3.351  12.308 -0.5558  0.5736 -0.2012
  225MPD1    C1 3467   1.771   3.219  12.288  0.4713 -0.3730 -0.5457
  225MPD1    C2 3468   1.635   3.196  12.313  0.3024 -0.5463 -0.1177
  225MPD1    C3 3469   1.550   3.283  12.384  0.6018 -0.4380 -0.4400
  225MPD1    C4 3470   1.599   3.405  12.420  0.2219 -0.7216  0.3839
  225MPD1    C5 3471   1.725   3.438  12.379 -0.3667 -0.1306  0.1351
  225MPD1     H 3472   1.584   3.110  12.271 -1.1493  0.0628  0.4108
  225MPD1    H1 3473   1.543   3.482  12.471  0.2838 -0.3032 -0.1859
  225MPD1    H2 3474   1.898   3.402  12.281 -2.2840  2.8632 -1.7458
  225MPD1    H3 3475   1.763   3.539  12.395 -1.5710  0.4358 -0.5560
  225MPD1     N 3476   1.415   3.259  12.400 -0.1481  0.1978  0.0926
  225MPD1    H5 3477   1.355   3.340  12.416  1.6180  1.6317 -0.4898
  225MPD1    N1 3478   1.854   3.128  12.211 -0.3577 -0.2005  0.2758
  225MPD1    H6 3479   1.955   3.140  12.225 -0.0970 -2.6084  0.5452
  225MPD1    H7 3480   1.829   3.032  12.232 -0.8055  0.1616  1.3908
  226MPD1     C 3481   0.882   2.464  10.037 -0.0421 -0.0951  0.0612
  226MPD1    C1 3482   0.844   2.568  10.120  0.2905 -0.2852 -0.3788
  226MPD1    C2 3483   0.716   2.624  10.100  0.8491 -0.0193  0.2779
  226MPD1    C3 3484   0.632   2.577  10.000  0.8460 -0.7519  0.8536
  226MPD1    C4 3485   0.686   2.485   9.912 -0.1523 -0.7360 -0.1105
  226MPD1    C5 3486   0.807   2.432   9.936 -0.2340 -0.8077  0.5463
  226MPD1     H 3487   0.674   2.711  10.149 -0.8202  1.5206 -3.8736
  226MPD1    H1 3488   0.629   2.451   9.827 -1.1529 -2.1325  1.1075
  226MPD1    H2 3489   0.977   2.417  10.062  0.4817  1.0891  0.3119
  226MPD1    H3 3490   0.831   2.348   9.871  0.2020 -1.3510  1.4046
  226MPD1     N 3491   0.506   2.643   9.982  0.0841 -0.0469 -0.5146
  226MPD1    H5 3492   0.479   2.696  10.064  3.0937 -0.5959  0.8046
  226MPD1    N1 3493   0.931   2.617  10.219  0.2953 -0.1707  0.9316
  226MPD1    H6 3494   1.015   2.561  10.236  0.0062 -0.7635  0.3723
  226MPD1    H7 3495   0.888   2.637  10.309 -0.5104 -0.7540  0.6721
  227MPD1     C 3496   4.518   3.291  10.244 -0.3636 -0.0339 -0.1363
  227MPD1    C1 3497   4.453   3.177  10.228  0.0219  0.8988  0.2458
  227MPD1    C2 3498   4.521   3.066  10.193  0.0179 -0.6926  0.1800
  227MPD1    C3 3499   4.644   3.075  10.137  0.1049  0.3480  0.6974
  227MPD1    C4 3500   4.707   3.197  10.140  0.5934 -0.0120 -0.1002
  227MPD1    C5 3501   4.643   3.304  10.191 -0.2993 -1.1683 -0.0368
  227MPD1     H 3502   4.475   2.969  10.208 -2.3197  0.3285 -0.5368
  227MPD1    H1 3503   0.065   3.214  10.096 -0.1373  1.0081 -1.3318
  227MPD1    H2 3504   4.471   3.377  10.291 -1.1632 -0.4832 -0.1247
  227MPD1    H3 3505   4.686   3.403  10.209 -0.8829 -0.6407 -1.5595
  227MPD1     N 3506   4.704   2.955  10.088 -0.7705 -0.0396  0.4552
  227MPD1    H5 3507   4.652   2.868  10.083  0.7597 -1.1784  4.3229
  227MPD1    N1 3508   4.332   3.165  10.294 -0.1373  0.0000 -0.5197
  227MPD1    H6 3509   4.269   3.088  10.270 -0.9467  0.0343  1.4724
  227MPD1    H7 3510   4.286   3.255  10.295 -0.2398 -0.0519 -1.0695
  228MPD1     C 3511   3.437   0.394  12.953 -0.2809  1.0485  0.6845
  228MPD1    C1 3512   3.372   0.497  12.889 -0.6191 -0.0248 -0.4902
  228MPD1    C2 3513   3.248   0.541  12.924 -0.1351  0.0720  0.0480
  228MPD1    C3 3514   3.196   0.493  13.037 -0.0860 -0.6117 -1.3174
  228MPD1    C4 3515   3.261   0.400  13.117  0.4172  0.2657  0.3967
  228MPD1    C5 3516   3.384   0.355  13.073 -0.5406 -0.0580 -0.1583
  228MPD1     H 3517   3.198   0.611  12.858 -1.9514 -1.4420 -0.1821
  228MPD1    H1 3518   3.220   0.359  13.209  0.6130  0.3156  0.5072
  228MPD1    H2 3519   3.534   0.355  12.924 -0.6071 -0.7227  1.9503
  228MPD1    H3 3520   3.427   0.275  13.133 -1.1899 -0.9553 -0.8886
  228MPD1     N 3521   3.059   0.532  13.073 -0.5059  0.2563  0.4237
  228MPD1    H5 3522   3.012   0.594  13.009 -2.9733  0.8743  2.8532
  228MPD1    N1 3523   3.431   0.541  12.770 -0.1612  0.2440  0.2854
  228MPD1    H6 3524   3.405   0.637  12.750 -0.1472  0.2848  0.4573
  228MPD1    H7 3525   3.532   0.535  12.762 -0.2996 -1.3027 -0.4638
  229MPD1     C 3526   2.420   3.865  13.518 -0.9586  0.4969 -0.2082
  229MPD1    C1 3527   2.343   3.910  13.622  0.4193 -0.9997 -0.7527
  229MPD1    C2 3528   2.405   3.948  13.740 -0.6336 -0.1754 -0.2184
  229MPD1    C3 3529   2.536   3.938  13.760  0.3525 -0.0011  1.1598
  229MPD1    C4 3530   2.610   3.894  13.655 -0.6482 -0.0299 -0.9836
  229MPD1    C5 3531   2.559   3.848  13.540  0.2221 -0.5119  0.3850
  229MPD1     H 3532   2.344   3.981  13.823  1.5618 -0.4867  1.5154
  229MPD1    H1 3533   2.718   3.889  13.659 -0.7384 -2.4855 -1.0796
  229MPD1    H2 3534   2.372   3.822  13.431 -3.4946  0.1850  1.3332
  229MPD1    H3 3535   2.624   3.803  13.466  0.5498  1.5834 -0.6063
  229MPD1     N 3536   2.603   3.955  13.881 -0.3264 -0.6616  0.1104
  229MPD1    H5 3537   2.704   3.949  13.880 -0.2495  0.2466  3.1579
  229MPD1    N1 3538   2.205   3.909  13.612 -0.6807  0.4477 -0.4234
  229MPD1    H6 3539   2.180   3.935  13.517  0.2666  1.6383 -0.3360
  229MPD1    H7 3540   2.163   3.984  13.666 -1.1410 -1.0618  1.3416
  230MPD1     C 3541   2.691   4.341  14.915 -0.6972 -0.2934  0.4580
  230MPD1    C1 3542   2.784   4.245  14.907 -0.0317 -0.2190 -0.1833
  230MPD1    C2 3543   2.805   4.181  14.782  0.1371 -0.0783  0.3758
  230MPD1    C3 3544   2.720   4.208  14.674 -0.2953 -0.0504 -0.7801
  230MPD1    C4 3545   2.620   4.302  14.689  0.5622  0.2987  0.0067
  230MPD1    C5 3546   2.611   4.369  14.806  0.9012 -0.5791 -0.2197
  230MPD1     H 3547   2.888   4.112  14.774  1.1057  1.4518 -2.8787
  230MPD1    H1 3548   2.555   4.335  14.608  0.6120  1.7600  0.5603
  230MPD1    H2 3549   2.655   4.390  15.004 -1.6513 -0.2817  0.0730
  230MPD1    H3 3550   2.534   4.445  14.812  1.0365 -0.4905  0.3402
  230MPD1     N 3551   2.729   4.124  14.564 -0.4843  0.1298  0.3011
  230MPD1    H5 3552   2.791   4.044  14.574 -1.3734 -0.6849 -0.7124
  230MPD1    N1 3553   2.862   4.210  15.018  0.2337  0.0014 -0.7648
  230MPD1    H6 3554   2.957   4.238  14.995 -0.2521  0.6310 -1.9931
  230MPD1    H7 3555   2.844   4.275  15.095  0.1709  0.6330 -1.3094
  231MPD1     C 3556   1.728   1.179  15.867  0.1355 -0.2828  0.4203
  231MPD1    C1 3557   1.783   1.109  15.761  0.1570  0.0037 -0.8692
  231MPD1    C2 3558   1.754   1.164  15.637 -0.5805 -0.1129  0.0221
  231MPD1    C3 3559   1.685   1.286  15.619 -0.0683 -0.1470  0.0972
  231MPD1    C4 3560   1.640   1.356  15.725 -0.1344  0.8100  0.5537
  231MPD1    C5 3561   1.668   1.301  15.851 -0.3305 -0.1625 -0.1592
  231MPD1     H 3562   1.781   1.105  15.550 -0.9204 -0.2590  0.0166
  231MPD1    H1 3563   1.582   1.448  15.721 -2.5622 -0.7586 -0.8319
  231MPD1    H2 3564   1.737   1.145  15.969 -0.2862  0.2003  0.6190
  231MPD1    H3 3565   1.632   1.353  15.938  0.1948 -1.8185  1.0630
  231MPD1     N 3566   1.653   1.329  15.488 -0.4626  0.0381 -0.3364
  231MPD1    H5 3567   1.659   1.267  15.408 -1.7142  2.0209 -1.9529
  231MPD1    N1 3568   1.824   0.973  15.770 -0.0757  0.1732  0.0038
  231MPD1    H6 3569   1.877   0.947  15.687  0.0640  0.2396  0.0710
  231MPD1    H7 3570   1.871   0.943  15.855 -0.2884 -1.9840 -0.6340
  232MPD1     C 3571   2.466   0.576   0.276  0.6679 -0.0540  0.4584
  232MPD1    C1 3572   2.343   0.523   0.312 -0.8706  1.2961 -0.6008
  232MPD1    C2 3573   2.319   0.383   0.302 -0.0886  0.6289 -0.1818
  232MPD1    C3 3574   2.421   0.293   0.261  0.1082  0.1649  0.5760
  232MPD1    C4 3575   2.549   0.345   0.224 -1.1250 -0.4910  0.8571
  232MPD1    C5 3576   2.563   0.484   0.236  0.1962  0.5740 -0.2933
  232MPD1     H 3577   2.217   0.352   0.319  0.1092  0.9693  1.5962
  232MPD1    H1 3578   2.636   0.285   0.202 -0.4424 -0.4167  3.4113
  232MPD1    H2 3579   2.492   0.681   0.273  1.5584 -0.3432 -2.0583
  232MPD1    H3 3580   2.656   0.527   0.201 -1.3165  1.3876 -3.3329
  232MPD1     N 3581   2.385   0.161   0.235 -0.2008 -0.1709  0.1607
  232MPD1    H5 3582   2.287   0.143   0.220  0.3048 -0.1202 -3.0592
  232MPD1    N1 3583   2.231   0.605   0.327 -0.2073 -0.8010 -0.2163
  232MPD1    H6 3584   2.154   0.566   0.380  1.1393 -0.3147  2.1142
  232MPD1    H7 3585   2.258   0.699   0.357 -0.1799 -1.0017  0.3894
  233MPD1     C 3586   2.878   3.056   1.503  0.0489  0.1900  0.0440
  233MPD1    C1 3587   2.856   2.989   1.619 -0.2535  0.5104  0.6520
  233MPD1    C2 3588   2.935   2.874   1.646  0.4699  0.4868 -0.3839
  233MPD1    C3 3589   3.039   2.849   1.553 -0.3870 -0.0498 -0.1459
  233MPD1    C4 3590   3.039   2.909   1.434  0.4568 -0.5484 -0.1781
  233MPD1    C5 3591   2.963   3.017   1.405  0.0052  0.2315  0.5022
  233MPD1     H 3592   2.922   2.809   1.732 -1.4670  0.9926 -0.2983
  233MPD1    H1 3593   3.110   2.880   1.356  0.7230 -0.6366  0.0967
  233MPD1    H2 3594   2.811   3.136   1.475 -0.8184 -0.3387  0.6057
  233MPD1    H3 3595   2.956   3.065   1.309  0.5040 -0.5496  0.0733
  233MPD1     N 3596   3.135   2.744   1.572  0.3882  0.1027 -0.2374
  233MPD1    H5 3597   3.190   2.721   1.490  1.0937  1.6453 -0.1859
  233MPD1    N1 3598   2.782   3.040   1.725  0.8476 -0.1238  0.1236
  233MPD1    H6 3599   2.705   3.104   1.705 -0.6688 -1.6679  0.9365
  233MPD1    H7 3600   2.761   2.969   1.794 -2.2423 -0.7289 -1.4305
  234MPD1     C 3601   0.562   0.530  10.083  0.5586  0.0628  0.2501
  234MPD1    C1 3602   0.625   0.654  10.075  0.0886 -0.0316 -0.2583
  234MPD1    C2 3603   0.566   0.745   9.994  0.1566  0.3769  0.1596
  234MPD1    C3 3604   0.453   0.718   9.919 -0.3501  0.2019 -0.3731
  234MPD1    C4 3605   0.395   0.599   9.935  0.1210 -0.6487  0.0791
  234MPD1    C5 3606   0.439   0.510  10.028 -0.6649  0.0540 -0.2849
  234MPD1     H 3607   0.613   0.842   9.985  0.9988 -0.1180 -0.8215
  234MPD1    H1 3608   0.299   0.577   9.889  1.4130 -2.4759 -1.7487
  234MPD1    H2 3609   0.600   0.455  10.151  1.9328  1.3233  0.8627
  234MPD1    H3 3610   0.388   0.416  10.046 -1.0227  0.2059 -0.5061
  234MPD1     N 3611   0.407   0.818   9.826 -0.0341  0.2549  0.2617
  234MPD1    H5 3612   0.472   0.896   9.818  0.7717 -0.4794 -0.2789
  234MPD1    N1 3613   0.740   0.688  10.136  0.1927  0.1153 -0.4126
  234MPD1    H6 3614   0.740   0.785  10.168 -0.7761  0.0313 -0.1467
  234MPD1    H7 3615   0.751   0.636  10.223 -0.7693  0.1649 -0.2565
  235MPD1     C 3616   1.697   2.494  10.370 -1.0757 -0.5377 -0.9380
  235MPD1    C1 3617   1.833   2.489  10.392 -0.3034 -0.3845 -0.0583
  235MPD1    C2 3618   1.912   2.597  10.369 -0.3375 -0.1013 -0.1070
  235MPD1    C3 3619   1.851   2.716  10.326  0.0772  0.1477 -0.4248
  235MPD1    C4 3620   1.720   2.720  10.297 -0.2797 -0.1449 -0.1048
  235MPD1    C5 3621   1.642   2.609  10.307  0.0363  0.2435 -0.6430
  235MPD1     H 3622   2.020   2.600  10.379 -0.2903  2.1867 -1.3454
  235MPD1    H1 3623   1.667   2.810  10.268 -0.2925  0.8002  2.8546
  235MPD1    H2 3624   1.632   2.409  10.384 -0.3767 -0.4062  3.2680
  235MPD1    H3 3625   1.534   2.615  10.305  0.1380  2.0870 -0.5898
  235MPD1     N 3626   1.934   2.826  10.309  0.4500 -0.3665  0.1237
  235MPD1    H5 3627   2.029   2.815  10.343  0.4252  0.5697  0.5067
  235MPD1    N1 3628   1.884   2.370  10.450  0.9318 -0.1709  0.1607
  235MPD1    H6 3629   1.843   2.287  10.406 -0.1670 -0.2791  1.3687
  235MPD1    H7 3630   1.985   2.359  10.443  0.9458  1.1081 -1.6051
  236MPD1     C 3631   0.679   0.067   9.640 -0.9103 -0.2971  0.3711
  236MPD1    C1 3632   0.707   4.686   9.583 -0.0205 -0.1707  1.1147
  236MPD1    C2 3633   0.819   4.618   9.624  0.1470 -0.5500  0.7348
  236MPD1    C3 3634   0.912   4.676   9.706 -0.0899  0.0023 -0.9686
  236MPD1    C4 3635   0.890   0.066   9.752 -0.8781 -0.2072  0.5463
  236MPD1    C5 3636   0.770   0.125   9.718 -0.0387  0.2331  0.7621
  236MPD1     H 3637   0.844   4.530   9.567  0.5137  0.4775 -0.7126
  236MPD1    H1 3638   0.952   0.119   9.823  0.7262  1.1166 -1.8522
  236MPD1    H2 3639   0.590   0.123   9.613 -0.7789  1.7456  4.2194
  236MPD1    H3 3640   0.752   0.224   9.758  1.1896  0.3842  0.9372
  236MPD1     N 3641   1.026   4.608   9.759  0.0959  0.1029  0.0989
  236MPD1    H5 3642   1.083   4.667   9.819  1.1607 -0.1315 -0.6967
  236MPD1    N1 3643   0.612   4.618   9.503 -0.6185 -0.2794  0.2533
  236MPD1    H6 3644   0.664   4.549   9.449  0.8850  0.1611  1.1233
  236MPD1    H7 3645   0.567   4.681   9.437  0.0835 -0.3731 -0.3082
  237MPD1     C 3646   1.519   2.900  14.648  0.4013 -0.2477  0.1558
  237MPD1    C1 3647   1.473   2.903  14.781  0.6649  0.8371 -0.8090
  237MPD1    C2 3648   1.407   2.793  14.843  0.3058 -0.2770  0.2930
  237MPD1    C3 3649   1.389   2.674  14.767 -0.2658  0.0589  0.3893
  237MPD1    C4 3650   1.434   2.679  14.635 -0.2222 -0.0022 -0.0972
  237MPD1    C5 3651   1.494   2.789  14.581  0.2736 -0.1039  0.1054
  237MPD1     H 3652   1.374   2.808  14.945 -2.5732 -0.8616 -0.5554
  237MPD1    H1 3653   1.408   2.589  14.581  1.0207  0.3742 -1.2886
  237MPD1    H2 3654   1.574   2.982  14.603 -2.1849  1.6275  0.4315
  237MPD1    H3 3655   1.534   2.778  14.481 -1.1456  2.5460 -0.7530
  237MPD1     N 3656   1.302   2.572  14.799 -0.0965  0.2376 -0.6029
  237MPD1    H5 3657   1.286   2.497  14.733 -0.4099  0.6839 -1.0343
  237MPD1    N1 3658   1.478   3.027  14.844  0.2647 -0.1061 -0.6842
  237MPD1    H6 3659   1.542   3.094  14.801  0.2357  0.5878  0.3483
  237MPD1    H7 3660   1.506   3.020  14.942  1.1448 -1.5573 -1.0513
  238MPD1     C 3661   2.938   2.108  15.494  0.4519  0.1681  0.8708
  238MPD1    C1 3662   2.934   2.117  15.350 -0.4068 -0.0676  0.1847
  238MPD1    C2 3663   2.855   2.025  15.283 -0.2780 -0.0345  0.0612
  238MPD1    C3 3664   2.781   1.924  15.343 -0.1464  0.0029  0.0516
  238MPD1    C4 3665   2.786   1.919  15.485  0.7166  0.0339  0.0490
  238MPD1    C5 3666   2.857   2.014  15.553 -0.5356  0.6078 -0.1520
  238MPD1     H 3667   2.869   2.014  15.176  0.1421 -0.1209  0.1225
  238MPD1    H1 3668   2.726   1.843  15.535  0.6046  0.3186  0.3496
  238MPD1    H2 3669   2.987   2.183  15.556  0.7953  0.1772  0.5873
  238MPD1    H3 3670   2.859   2.006  15.662 -1.8570  0.8541 -0.1213
  238MPD1     N 3671   2.713   1.817  15.272  0.1207 -0.4208 -0.0451
  238MPD1    H5 3672   2.664   1.743  15.322 -0.9798 -0.7249 -1.5696
  238MPD1    N1 3673   2.993   2.222  15.276 -0.3345 -0.4909  0.1237
  238MPD1    H6 3674   3.079   2.256  15.319  0.1100 -0.4152 -0.8267
  238MPD1    H7 3675   3.021   2.188  15.185  0.4098  1.9220 -0.5580
  239MPD1     C 3676   2.894   2.664  14.731  0.0507 -0.4528  0.7933
  239MPD1    C1 3677   2.899   2.780  14.660 -0.2188  0.1085  0.4663
  239MPD1    C2 3678   2.838   2.792  14.533  0.1935  0.4094 -0.0381
  239MPD1    C3 3679   2.760   2.687  14.487  0.8904 -0.3844 -0.2574
  239MPD1    C4 3680   2.739   2.575  14.569  0.3946 -0.8097 -0.1265
  239MPD1    C5 3681   2.805   2.567  14.685  0.5518 -0.4581  0.2980
  239MPD1     H 3682   2.844   2.889  14.486  3.6391  0.2010 -0.0513
  239MPD1    H1 3683   2.679   2.488  14.546 -1.3171  0.3490 -0.0245
  239MPD1    H2 3684   2.946   2.654  14.826 -0.1244  2.1155  1.1754
  239MPD1    H3 3685   2.799   2.477  14.746 -0.7269 -0.3098  0.3931
  239MPD1     N 3686   2.692   2.691  14.373  0.1285  0.1574  0.0604
  239MPD1    H5 3687   2.610   2.631  14.376 -1.0261  1.6950 -0.5340
  239MPD1    N1 3688   2.979   2.886  14.704  0.4976 -0.5532 -0.0195
  239MPD1    H6 3689   3.077   2.859  14.708  0.5767 -0.3784 -0.9716
  239MPD1    H7 3690   2.956   2.975  14.660 -0.2233 -0.2677  0.9245
  240MPD1     C 3691   2.939   2.082  13.387  0.5373 -0.0779 -0.1725
  240MPD1    C1 3692   3.004   2.105  13.505 -0.2655 -0.8340  0.0745
  240MPD1    C2 3693   2.942   2.074  13.625 -0.4282 -0.3004  0.5788
  240MPD1    C3 3694   2.812   2.021  13.620 -0.0339  0.5280 -0.3117
  240MPD1    C4 3695   2.746   2.009  13.496 -0.5289 -0.5930 -0.1543
  240MPD1    C5 3696   2.814   2.034  13.378  0.1328 -0.1563 -0.8563
  240MPD1     H 3697   2.993   2.082  13.721 -3.0097 -0.2685  1.9453
  240MPD1    H1 3698   2.649   1.968  13.471  0.2942 -0.3363 -3.8032
  240MPD1    H2 3699   2.985   2.109  13.293 -2.1550  0.7324 -1.2512
  240MPD1    H3 3700   2.761   2.015  13.286  0.0819 -1.4355 -0.5565
  240MPD1     N 3701   2.748   1.980  13.744 -0.2544 -0.0310 -0.1655
  240MPD1    H5 3702   2.803   1.994  13.828  0.4652  1.2427 -0.8610
  240MPD1    N1 3703   3.121   2.181  13.513 -0.2962 -0.4257 -0.1489
  240MPD1    H6 3704   3.181   2.186  13.430 -0.4638 -2.2920 -0.3670
  240MPD1    H7 3705   3.193   2.163  13.583 -1.2982  0.6730  1.1767
  241MPD1     C 3706   2.761   2.119  14.717 -0.1397  0.2561  0.3429
  241MPD1    C1 3707   2.829   2.153  14.599 -0.1183  0.5180  0.1924
  241MPD1    C2 3708   2.789   2.108  14.477  0.4181 -0.4694 -0.7106
  241MPD1    C3 3709   2.671   2.028  14.472  0.4661 -0.2635  0.5182
  241MPD1    C4 3710   2.598   1.989  14.578  1.1919  0.5769 -0.5574
  241MPD1    C5 3711   2.640   2.041  14.703 -0.6131 -0.6114 -0.5546
  241MPD1     H 3712   2.837   2.145  14.387 -1.7632  4.4219  0.1465
  241MPD1    H1 3713   2.513   1.922  14.582  1.9676 -0.4038 -0.7719
  241MPD1    H2 3714   2.805   2.145  14.813 -2.5590 -0.0335  1.5362
  241MPD1    H3 3715   2.586   2.020  14.795  0.3238  0.8666  0.3476
  241MPD1     N 3716   2.616   1.986  14.351  0.3728 -0.3048 -0.1674
  241MPD1    H5 3717   2.540   1.920  14.364  0.7919 -1.0283 -1.3770
  241MPD1    N1 3718   2.952   2.220  14.618  0.1879 -0.0730 -0.1866
  241MPD1    H6 3719   2.971   2.292  14.549 -0.2924  1.0200  0.8135
  241MPD1    H7 3720   2.961   2.269  14.707 -0.9779 -2.1753  1.0989
  242MPD1     C 3721   1.822   4.241  15.632 -0.3428  0.0992 -0.0745
  242MPD1    C1 3722   1.858   4.364  15.676  0.1833  0.2206  0.7255
  242MPD1    C2 3723   1.910   4.452  15.588  0.6304 -0.2479  0.0168
  242MPD1    C3 3724   1.914   4.431  15.452 -0.0245 -0.2034  0.1341
  242MPD1    C4 3725   1.871   4.311  15.408  0.5834 -0.1519  1.1159
  242MPD1    C5 3726   1.816   4.218  15.495 -0.2303 -0.0949  0.0355
  242MPD1     H 3727   1.937   4.553  15.618 -0.6186  0.3108 -0.7591
  242MPD1    H1 3728   1.866   4.271  15.307  2.8983 -1.5197  1.5548
  242MPD1    H2 3729   1.788   4.153  15.686 -0.3718 -0.3034 -0.7492
  242MPD1    H3 3730   1.765   4.129  15.460 -0.9684  0.3327  0.0220
  242MPD1     N 3731   1.949   4.524  15.352  0.4671 -0.0642  0.4797
  242MPD1    H5 3732   1.949   4.493  15.255  0.5608 -0.3049  0.5550
  242MPD1    N1 3733   1.864   4.396  15.808  0.2201  0.7111  0.9446
  242MPD1    H6 3734   1.793   4.338  15.853  0.7227 -1.7864 -1.4795
  242MPD1    H7 3735   1.840   4.492  15.830 -2.3247  0.4384 -0.6263
  243MPD1     C 3736   3.155   4.330  17.358  0.3019 -0.4248 -0.0688
  243MPD1    C1 3737   3.165   4.214  17.298 -0.1598  0.4382 -0.0647
  243MPD1    C2 3738   3.270   4.205  17.199  0.0039  0.2365  0.0402
  243MPD1    C3 3739   3.362   4.311  17.188 -0.3455  0.1839  0.1049
  243MPD1    C4 3740   3.350   4.429  17.254  0.4468  0.0799 -0.1546
  243MPD1    C5 3741   3.245   4.438  17.340  0.3130 -0.2618  0.9210
  243MPD1     H 3742   3.276   4.120  17.132 -1.9097 -0.4359  0.7097
  243MPD1    H1 3743   3.398   4.520  17.218 -1.9658  1.7265  0.8132
  243MPD1    H2 3744   3.065   4.355  17.414  0.4410  1.2980 -0.6266
  243MPD1    H3 3745   3.223   4.535  17.384  0.3007  0.1679 -0.0440
  243MPD1     N 3746   3.466   4.279  17.098 -0.1960  0.6574  0.1389
  243MPD1    H5 3747   3.476   4.183  17.068  2.9998  1.0361  0.0347
  243MPD1    N1 3748   3.057   4.121  17.295  0.6569 -0.0165  0.9765
  243MPD1    H6 3749   3.086   4.032  17.255  0.4069 -0.2485  1.3155
  243MPD1    H7 3750   3.013   4.116  17.386  0.7725 -2.9985  0.8712
  244MPD1     C 3751   3.775   3.567  17.303  0.5242  0.4612  0.3014
  244MPD1    C1 3752   3.771   3.680  17.379  0.6062 -0.0208  0.1522
  244MPD1    C2 3753   3.758   3.793  17.310 -0.3257  0.5604 -0.3545
  244MPD1    C3 3754   3.757   3.799  17.171 -0.0166  0.0552 -0.4363
  244MPD1    C4 3755   3.771   3.677  17.098  0.9782 -0.2544 -0.7749
  244MPD1    C5 3756   3.797   3.563  17.167 -0.0627 -0.1686 -0.5884
  244MPD1     H 3757   3.742   3.887  17.361 -0.9533 -0.4670  1.3296
  244MPD1    H1 3758   3.779   3.676  16.990  0.7944  0.2542 -0.7961
  244MPD1    H2 3759   3.781   3.474  17.359  0.5281 -0.9944 -2.0644
  244MPD1    H3 3760   3.823   3.466  17.126 -2.7810 -1.0006 -0.3570
  244MPD1     N 3761   3.743   3.926  17.104  0.5643 -0.4633 -0.3552
  244MPD1    H5 3762   3.713   4.011  17.151 -0.6691 -1.4226  0.6016
  244MPD1    N1 3763   3.743   3.680  17.515 -0.3583  0.4906  0.3353
  244MPD1    H6 3764   3.796   3.607  17.563 -0.9777 -0.1459  0.0469
  244MPD1    H7 3765   3.763   3.769  17.559 -1.2750 -0.7047  3.1798
  245MPD1     C 3766   0.833   3.728  12.990  0.6437 -0.1274 -0.3677
  245MPD1    C1 3767   0.912   3.724  13.099  0.5434 -0.2994  0.1181
  245MPD1    C2 3768   0.925   3.850  13.175 -0.1334  0.3880  0.4080
  245MPD1    C3 3769   0.878   3.976  13.126  0.5260 -0.1808 -0.3282
  245MPD1    C4 3770   0.796   3.972  13.016 -0.1686 -0.3677  1.1372
  245MPD1    C5 3771   0.786   3.849  12.946  0.1315  0.2300  0.3272
  245MPD1     H 3772   0.992   3.855  13.260  0.9838 -0.7360 -0.3943
  245MPD1    H1 3773   0.745   4.055  12.967  0.2109  0.5969  2.3716
  245MPD1    H2 3774   0.823   3.654  12.912 -0.8612  0.4306 -0.7007
  245MPD1    H3 3775   0.737   3.848  12.849 -1.0044  3.6494  0.8411
  245MPD1     N 3776   0.894   4.089  13.203 -0.2076  0.0205 -0.3764
  245MPD1    H5 3777   0.944   4.075  13.290 -0.0955  1.4062 -0.2210
  245MPD1    N1 3778   0.952   3.608  13.159  0.1038  0.0464 -0.3329
  245MPD1    H6 3779   0.959   3.538  13.085 -1.9990 -1.7039  1.1216
  245MPD1    H7 3780   1.039   3.606  13.211  0.0709  2.8712 -0.1463
  246MPD1     C 3781   2.138   1.411  10.412  0.6683  0.1445  0.2557
  246MPD1    C1 3782   2.221   1.304  10.441  0.3728  0.0852 -0.3235
  246MPD1    C2 3783   2.237   1.211  10.341  0.1772 -0.0696  0.2441
  246MPD1    C3 3784   2.152   1.208  10.231  0.3351  0.2923  0.3385
  246MPD1    C4 3785   2.056   1.307  10.215 -0.1175 -0.2016  0.4256
  246MPD1    C5 3786   2.042   1.398  10.314  0.3150 -1.1498 -0.6711
  246MPD1     H 3787   2.307   1.128  10.345 -2.9051 -2.7572 -1.9154
  246MPD1    H1 3788   1.987   1.315  10.131 -0.0884 -0.1550  0.4060
  246MPD1    H2 3789   2.132   1.502  10.470  0.5167 -0.2475  0.8610
  246MPD1    H3 3790   1.972   1.479  10.299  0.5428 -0.7994  0.1675
  246MPD1     N 3791   2.170   1.103  10.140  0.2805 -0.6343 -0.1368
  246MPD1    H5 3792   2.232   1.030  10.173  1.7022  0.2270 -0.8888
  246MPD1    N1 3793   2.321   1.319  10.537  0.4847  0.7069 -0.2920
  246MPD1    H6 3794   2.373   1.234  10.560  1.1800  0.6849 -1.9485
  246MPD1    H7 3795   2.281   1.369  10.616 -0.5031 -0.0408 -0.3135
  247MPD1     C 3796   0.433   0.275  16.396  0.1426 -0.2533  0.3864
  247MPD1    C1 3797   0.311   0.229  16.460  0.1907  0.3647  0.5119
  247MPD1    C2 3798   0.274   0.097  16.447 -1.0043 -0.5166  0.6595
  247MPD1    C3 3799   0.355   0.006  16.376 -0.3724 -0.6443 -0.2367
  247MPD1    C4 3800   0.469   0.059  16.311 -0.1242 -0.6975  0.7996
  247MPD1    C5 3801   0.503   0.190  16.319  0.7401 -0.7604 -0.3443
  247MPD1     H 3802   0.172   0.072  16.474 -1.0738 -0.8514  0.0907
  247MPD1    H1 3803   0.536   4.729  16.263  1.1845  2.9172 -2.7082
  247MPD1    H2 3804   0.462   0.379  16.395 -2.8745  0.5665  0.5526
  247MPD1    H3 3805   0.589   0.223  16.262  1.0843 -1.2133 -0.0905
  247MPD1     N 3806   0.326   4.613  16.353  0.0157  0.0908 -0.3405
  247MPD1    H5 3807   0.382   4.562  16.285 -0.8637  0.4040 -1.3041
  247MPD1    N1 3808   0.223   0.319  16.525 -0.0419  0.4976  0.5423
  247MPD1    H6 3809   0.277   0.394  16.568  0.4834  0.1735  0.4502
  247MPD1    H7 3810   0.165   0.281  16.600  0.8378 -1.0050  0.4684
  248MPD1     C 3811   1.376   3.506  17.577 -0.3670 -0.2457 -0.1991
  248MPD1    C1 3812   1.389   3.453  17.707 -0.4312 -0.0943 -0.0868
  248MPD1    C2 3813   1.272   3.445   0.027  0.5133  0.1725 -0.5367
  248MPD1    C3 3814   1.146   3.458  17.724  0.1523 -0.2803  0.0583
  248MPD1    C4 3815   1.134   3.485  17.588 -0.8189  0.0296  0.3032
  248MPD1    C5 3816   1.255   3.521  17.523 -0.2951  0.2544 -0.6715
  248MPD1     H 3817   1.259   3.411   0.129 -0.0700  0.6490 -0.4536
  248MPD1    H1 3818   1.041   3.501  17.536 -1.5252  0.9617  1.8868
  248MPD1    H2 3819   1.464   3.533  17.521 -1.3512  0.0171 -1.6095
  248MPD1    H3 3820   1.248   3.564  17.424  0.1095 -1.0880 -1.2897
  248MPD1     N 3821   1.033   3.463   0.051 -0.4832  0.1419 -0.3661
  248MPD1    H5 3822   1.037   3.448   0.152  1.3782 -3.1232 -0.9163
  248MPD1    N1 3823   1.514   3.447   0.004 -0.1950  0.2494  0.1235
  248MPD1    H6 3824   1.582   3.417  17.691 -1.6806 -0.2876 -1.0783
  248MPD1    H7 3825   1.508   3.381   0.080 -2.8569 -0.4163 -0.6788
  249MPD1     C 3826   2.501   2.006  10.906 -0.1784 -0.0834 -0.1092
  249MPD1    C1 3827   2.595   2.101  10.881 -0.3215 -0.1234 -0.6035
  249MPD1    C2 3828   2.634   2.124  10.753 -0.1652 -0.1927  0.3519
  249MPD1    C3 3829   2.570   2.059  10.646 -0.1156  0.1532 -1.0029
  249MPD1    C4 3830   2.465   1.979  10.670 -0.4337 -0.0560  0.7842
  249MPD1    C5 3831   2.429   1.953  10.796 -0.0723  0.7711  0.1167
  249MPD1     H 3832   2.726   2.179  10.738 -0.8198  1.0598  0.8865
  249MPD1    H1 3833   2.419   1.922  10.591  0.4208 -0.7403  0.7832
  249MPD1    H2 3834   2.473   1.975  11.006  2.5521  1.0324  0.9947
  249MPD1    H3 3835   2.352   1.882  10.823  2.5377 -1.3356  1.9266
  249MPD1     N 3836   2.618   2.090  10.516 -0.3373  0.2646 -0.5444
  249MPD1    H5 3837   2.698   2.152  10.509 -0.0121 -0.2972 -1.8225
  249MPD1    N1 3838   2.670   2.164  10.984  0.6575 -0.2119 -0.8516
  249MPD1    H6 3839   2.609   2.154  11.064 -0.6588  0.8245 -1.7312
  249MPD1    H7 3840   2.675   2.263  10.961  1.1882  0.2558  1.3362
  250MPD2     C 3841   4.631   2.417  13.168 -0.0916 -0.2606 -0.0290
  250MPD2    C1 3842   4.509   2.484  13.178 -0.4169  0.1027  0.3132
  250MPD2    C2 3843   4.385   2.426  13.154  0.2442 -1.1348  0.4185
  250MPD2    C3 3844   4.383   2.296  13.102  0.0267 -0.0096  0.7159
  250MPD2    C4 3845   4.502   2.232  13.079 -0.5348 -0.1762  0.3070
  250MPD2    C5 3846   4.626   2.290  13.114 -0.1656  0.3540  0.0763
  250MPD2     H 3847   4.302   2.496  13.157  1.3021  0.2434 -2.3893
  250MPD2    H1 3848   4.493   2.134  13.033 -2.1283 -0.1469  0.5385
  250MPD2    H2 3849   4.729   2.454  13.197 -1.6496  1.6691  2.7965
  250MPD2    H3 3850   4.716   2.234  13.091  0.6799  1.0745  1.6264
  250MPD2     N 3851   4.267   2.224  13.082 -0.1968 -0.7646  0.0712
  250MPD2    H5 3852   4.274   2.126  13.055 -1.9863 -1.0342  0.5077
  250MPD2    N1 3853   4.524   2.627  13.211 -0.3016  0.0687 -0.6924
  250MPD2    H7 3854   4.616   2.670  13.216 -0.7388  0.8651  0.4240
  251TMC3    C1 3855   4.452   2.841  13.278  0.7625  0.4839  0.1363
  251TMC3    C2 3856   4.369   2.918  13.364 -0.6750  0.3165 -0.1241
  251TMC3    C3 3857   4.401   3.052  13.378  0.1799  0.4326 -0.4990
  251TMC3    C4 3858   4.544   2.899  13.193  0.3561  0.6318  0.3909
  251TMC3    C5 3859   4.570   3.034  13.215  0.0537  0.2388  0.1216
  251TMC3    C6 3860   4.504   3.112  13.308 -0.3429 -0.2872  0.1109
  251TMC3     C 3861   4.423   2.698  13.268  0.0536  0.0564 -0.4004
  251TMC3     O 3862   4.316   2.657  13.316 -0.1263 -0.0614  0.5238
  251TMC3     H 3863   4.310   2.867  13.439 -2.1701  1.3708 -0.5754
  251TMC3    H1 3864   4.596   2.843  13.116  2.4605  1.3981  1.2313
  251TMC3    H2 3865   4.536   3.207  13.348  0.1851 -0.6395  0.5317
  251TMC3    C7 3866   4.702   3.078  13.165  0.4624 -0.4429  0.4658
  251TMC3    C8 3867   4.303   3.131  13.448 -0.0222  0.0854 -0.9541
  251TMC3    O1 3868   0.037   2.985  13.139  0.0893 -0.4598 -0.0140
  251TMC3    O2 3869   4.207   3.070  13.500  0.1886  0.1197 -0.4270
  252TMC3    C1 3870   0.094   2.910   9.242 -0.1394  0.3333 -0.4973
  252TMC3    C2 3871   0.163   2.895   9.358 -0.3626  0.4686  0.7027
  252TMC3    C3 3872   0.108   2.954   9.468 -0.2982  0.6622 -0.0160
  252TMC3    C4 3873   4.712   2.969   9.237  0.6595 -0.6426  0.1813
  252TMC3    C5 3874   4.659   3.019   9.346  0.1273  0.3016  0.2211
  252TMC3    C6 3875   4.724   3.020   9.465 -0.1202 -0.0487  0.6221
  252TMC3     C 3876   0.141   2.860   9.116  0.1010 -0.3217  0.1025
  252TMC3     O 3877   0.086   2.901   9.014  0.0713  0.8591 -0.5143
  252TMC3     H 3878   0.261   2.848   9.365 -1.0599 -1.0915 -0.1434
  252TMC3    H1 3879   4.652   2.978   9.147  0.5091 -1.3326  0.2130
  252TMC3    H2 3880   4.677   3.061   9.554 -2.4344  0.6586 -0.9058
  252TMC3    C7 3881   4.568   3.128   9.315 -0.2048  0.2078 -0.1594
  252TMC3    C8 3882   0.192   2.947   9.589  0.1258 -0.0228  0.5325
  252TMC3    O1 3883   4.572   3.186   9.209  0.7458  0.4961  0.2048
  252TMC3    O2 3884   0.268   2.848   9.591 -0.8430 -0.0867 -0.0888
  253MPD2     C 3885   0.615   2.697  14.920 -0.0722 -0.8438 -0.1920
  253MPD2    C1 3886   0.478   2.699  14.942 -0.0091  0.7606 -0.1233
  253MPD2    C2 3887   0.438   2.722  15.068  0.4887 -0.5698  0.1587
  253MPD2    C3 3888   0.523   2.759  15.172 -1.0491  0.0251 -0.8239
  253MPD2    C4 3889   0.657   2.760  15.145 -1.5102 -0.4106  0.3359
  253MPD2    C5 3890   0.704   2.723  15.021  0.1433 -0.0256  0.0016
  253MPD2     H 3891   0.331   2.715  15.085  0.1453  0.4511 -1.6351
  253MPD2    H1 3892   0.738   2.774  15.216 -0.1116 -2.5768 -0.7967
  253MPD2    H2 3893   0.644   2.669  14.819  0.5746  0.8707 -0.4682
  253MPD2    H3 3894   0.809   2.733  14.997 -0.8151  2.2208 -3.3427
  253MPD2     N 3895   0.474   2.794  15.300 -0.0193  0.4608 -0.1820
  253MPD2    H5 3896   0.543   2.802  15.374 -2.0077 -0.9123  1.7862
  253MPD2    N1 3897   0.380   2.673  14.843  0.5344 -0.2073 -0.6631
  253MPD2    H7 3898   0.286   2.652  14.875  0.1311  0.1480 -1.6449
  254TMC3    C1 3899   0.336   2.900  15.458  0.1618  0.0831 -0.5728
  254TMC3    C2 3900   0.268   3.011  15.472  1.2703  0.0848  0.2986
  254TMC3    C3 3901   0.208   3.042  15.593  0.0737  0.4096  0.4122
  254TMC3    C4 3902   0.344   2.812  15.558  0.4217 -0.5162 -0.7313
  254TMC3    C5 3903   0.290   2.844  15.682  0.2824  0.3661 -0.1443
  254TMC3    C6 3904   0.214   2.953  15.698 -0.7750  0.0535  0.3865
  254TMC3     C 3905   0.349   2.851  15.321 -0.6544 -0.4633  0.3202
  254TMC3     O 3906   0.262   2.891  15.249 -0.0323 -0.0314 -0.3521
  254TMC3     H 3907   0.266   3.073  15.383 -0.3539 -1.5775 -0.8348
  254TMC3    H1 3908   0.386   2.714  15.539  0.8311 -0.6832  1.0231
  254TMC3    H2 3909   0.171   2.969  15.796  0.0519 -0.4439  0.8332
  254TMC3    C7 3910   0.311   2.761  15.799  0.3734 -0.2244  0.2590
  254TMC3    C8 3911   0.102   3.145  15.588  0.1360  0.2480  0.4136
  254TMC3    O1 3912   0.235   2.773  15.896 -0.0433  0.5080  0.5641
  254TMC3    O2 3913   0.103   3.206  15.485  0.1229 -0.5678 -0.2308
  255MPD2     C 3914   3.699   1.412  10.478 -0.2424 -0.2794 -0.4574
  255MPD2    C1 3915   3.653   1.353  10.355 -0.3638  0.4103 -0.2061
  255MPD2    C2 3916   3.750   1.325  10.258 -0.3399 -0.2701 -0.2317
  255MPD2    C3 3917   3.882   1.357  10.277  0.0528  0.1927 -0.2180
  255MPD2    C4 3918   3.926   1.413  10.396  0.0211  0.2617 -0.0113
  255MPD2    C5 3919   3.830   1.433  10.484  0.3544  0.0164  0.5624
  255MPD2     H 3920   3.733   1.300  10.154  2.1738 -2.1451 -0.1879
  255MPD2    H1 3921   4.031   1.432  10.418 -0.1654  0.2962  0.8705
  255MPD2    H2 3922   3.624   1.447  10.547  0.8648  1.1527  0.0174
  255MPD2    H3 3923   3.860   1.477  10.578 -0.6725  2.6108 -0.3187
  255MPD2     N 3924   3.968   1.322  10.175  0.3712 -0.1842  0.2966
  255MPD2    H5 3925   3.925   1.275  10.096 -2.1314  1.5840  0.6196
  255MPD2    N1 3926   3.517   1.324  10.338  0.1090 -0.2427 -0.3452
  255MPD2    H7 3927   3.448   1.358  10.403 -0.6771 -2.0739 -0.2099
  256TMC3    C1 3928   3.336   1.185  10.265 -0.0361  0.1521 -0.2824
  256TMC3    C2 3929   3.265   1.291  10.205  0.5271 -0.1625  0.1103
  256TMC3    C3 3930   3.182   1.265  10.101 -0.5798  0.2767 -0.1114
  256TMC3    C4 3931   3.318   1.057  10.223 -0.2563 -0.7373 -0.3260
  256TMC3    C5 3932   3.221   1.035  10.136  0.8838  0.0846 -0.5375
  256TMC3    C6 3933   3.148   1.133  10.072  0.1869  0.5649 -0.3958
  256TMC3     C 3934   3.471   1.214  10.258  0.1362  0.3105 -0.6365
  256TMC3     O 3935   3.547   1.142  10.195  0.3338 -0.1261 -0.6564
  256TMC3     H 3936   3.286   1.395  10.230  0.6656 -0.4648  1.2472
  256TMC3    H1 3937   3.381   0.978  10.262  0.9481 -0.4677 -1.6943
  256TMC3    H2 3938   3.088   1.110   9.984 -0.1432 -1.3419  0.3224
  256TMC3    C7 3939   3.203   0.897  10.098 -0.1846  0.8094  0.8182
  256TMC3    C8 3940   3.124   1.367  10.015  0.6765 -0.4334 -0.3331
  256TMC3    O1 3941   3.201   0.881   9.979 -0.4073  0.6119 -0.2439
  256TMC3    O2 3942   3.031   1.333   9.941  0.0875  0.4202 -0.1007
  257MPD2     C 3943   2.449   2.196  12.489  0.0338  0.4527  0.5527
  257MPD2    C1 3944   2.561   2.259  12.534 -0.5424  0.0752 -0.0443
  257MPD2    C2 3945   2.638   2.192  12.626  0.1038 -0.3687  0.2107
  257MPD2    C3 3946   2.602   2.072  12.683  0.2096  0.6845  0.6556
  257MPD2    C4 3947   2.483   2.014  12.647 -0.4777 -0.2951 -0.4032
  257MPD2    C5 3948   2.411   2.076  12.547 -0.1738 -0.1410  0.7791
  257MPD2     H 3949   2.728   2.249  12.649  0.1616 -0.5148  0.3435
  257MPD2    H1 3950   2.461   1.912  12.675  0.5909 -1.0542 -2.3042
  257MPD2    H2 3951   2.384   2.230  12.409  0.7261 -0.9855 -0.6194
  257MPD2    H3 3952   2.321   2.031  12.509  1.3947  0.0677 -3.1688
  257MPD2     N 3953   2.697   2.013  12.772  0.4573 -0.4530 -0.3095
  257MPD2    H5 3954   2.780   2.068  12.788 -0.0930  0.3954 -0.3511
  257MPD2    N1 3955   2.606   2.374  12.461 -0.0601  0.1528 -0.1954
  257MPD2    H7 3956   2.554   2.395  12.376  2.4073  0.7193 -1.5589
  258TMC3    C1 3957   2.810   1.853  12.897 -0.4335 -0.2377 -0.3704
  258TMC3    C2 3958   2.923   1.860  12.816  0.5423  0.2364  0.2486
  258TMC3    C3 3959   3.040   1.838  12.882 -0.5996 -0.4537  0.2812
  258TMC3    C4 3960   2.817   1.822  13.030 -0.0918 -0.3521  0.4083
  258TMC3    C5 3961   2.937   1.798  13.088  0.0761  0.4040  0.3126
  258TMC3    C6 3962   3.054   1.799  13.017 -0.4328  0.8516 -0.6674
  258TMC3     C 3963   2.683   1.889  12.830  0.9978 -0.3352 -0.3053
  258TMC3     O 3964   2.585   1.827  12.856 -0.6285 -0.0284  0.1593
  258TMC3     H 3965   2.912   1.899  12.715  0.9416 -5.2900 -1.9062
  258TMC3    H1 3966   2.727   1.812  13.090 -0.8383  0.0278 -0.6469
  258TMC3    H2 3967   3.152   1.776  13.057 -0.1325 -1.0543 -2.5225
  258TMC3    C7 3968   2.944   1.777  13.229  0.8036  0.5989 -0.1822
  258TMC3    C8 3969   3.161   1.893  12.813 -0.2216 -0.2088 -0.1631
  258TMC3    O1 3970   2.837   1.729  13.273  0.0774 -0.1084  0.1022
  258TMC3    O2 3971   3.233   1.951  12.890  0.0948  0.1114 -0.2841
  259MPD2     C 3972   1.131   0.201   0.195  0.4389  0.4410 -0.3105
  259MPD2    C1 3973   1.237   0.115   0.205  0.4724  0.6503  0.2792
  259MPD2    C2 3974   1.276   0.055   0.087  0.2362  0.2602 -0.1307
  259MPD2    C3 3975   1.202   0.069  17.725 -0.6864 -0.9974 -0.0538
  259MPD2    C4 3976   1.112   0.167  17.716  0.3197 -0.6393 -0.4777
  259MPD2    C5 3977   1.063   0.229   0.073 -0.8175 -0.2785 -0.0473
  259MPD2     H 3978   1.345   4.711   0.098 -0.2355 -0.3488 -1.7890
  259MPD2    H1 3979   1.063   0.198  17.624 -0.2607  1.0070  0.3996
  259MPD2    H2 3980   1.093   0.247   0.285 -0.4944 -1.6566  0.3556
  259MPD2    H3 3981   0.982   0.300   0.069  1.9158  2.7994 -0.5876
  259MPD2     N 3982   1.244   4.727  17.621  0.5708  0.5053  0.0531
  259MPD2    H5 3983   1.315   4.656  17.639  1.7258  0.7660 -3.5827
  259MPD2    N1 3984   1.309   0.094   0.325 -0.0154  0.0535 -0.0589
  259MPD2    H7 3985   1.273   0.143   0.406 -0.3287 -0.4128  0.0840
  260TMC3    C1 3986   1.302   4.664  17.402  0.0418  0.4233  0.9245
  260TMC3    C2 3987   1.413   4.737  17.371 -0.5457  0.0139 -0.3333
  260TMC3    C3 3988   1.529   4.669  17.364 -0.1054 -0.5557  0.0137
  260TMC3    C4 3989   1.297   4.525  17.418  0.3815  0.1281 -0.3490
  260TMC3    C5 3990   1.427   4.468  17.407 -0.2160 -0.5978  0.0270
  260TMC3    C6 3991   1.534   4.538  17.375  0.1164 -0.1097 -0.2556
  260TMC3     C 3992   1.207   4.739  17.491 -0.0084  0.7473  0.5739
  260TMC3     O 3993   1.137   0.084  17.439 -0.1406  0.5825  0.0319
  260TMC3     H 3994   1.408   0.104  17.360 -0.4776  0.0585  0.0666
  260TMC3    H1 3995   1.209   4.467  17.447 -0.0971  1.1540  0.2299
  260TMC3    H2 3996   1.627   4.483  17.363 -0.5598 -1.6659  1.5116
  260TMC3    C7 3997   1.451   4.325  17.439 -0.5191 -0.1644 -0.4181
  260TMC3    C8 3998   1.651   0.009  17.370  0.4150  0.8302  0.0866
  260TMC3    O1 3999   1.536   4.266  17.373 -0.3055  0.1728  0.0414
  260TMC3    O2 4000   1.647   0.131  17.357 -0.0502  0.0819  0.0984
  261MPD2     C 4001   3.540   2.331  12.644  0.2482 -0.1501  0.5868
  261MPD2    C1 4002   3.655   2.394  12.692 -0.2018 -0.7542  0.7114
  261MPD2    C2 4003   3.687   2.519  12.638 -0.4924  0.7157  0.9631
  261MPD2    C3 4004   3.607   2.578  12.543  0.8752 -0.1354  0.5590
  261MPD2    C4 4005   3.496   2.515  12.502 -0.0438  0.1308 -0.1843
  261MPD2    C5 4006   3.463   2.395  12.552 -0.3723  0.3346  0.4651
  261MPD2     H 4007   3.769   2.579  12.676 -0.1338 -0.1434  1.5542
  261MPD2    H1 4008   3.419   2.561  12.441  0.2077  1.6215  0.6417
  261MPD2    H2 4009   3.495   2.237  12.674 -2.0228  0.3904 -1.1722
  261MPD2    H3 4010   3.369   2.345  12.535  1.0191 -0.9116 -3.6382
  261MPD2     N 4011   3.635   2.705  12.484  0.1358  0.3295  0.4143
  261MPD2    H5 4012   3.714   2.753  12.526  1.4890 -2.1087  0.6009
  261MPD2    N1 4013   3.743   2.335  12.782  0.1458 -0.6644  0.3758
  261MPD2    H7 4014   3.838   2.369  12.793  0.6197 -2.0263  0.5906
  262TMC3    C1 4015   3.621   2.898  12.342 -0.0892  0.4162  0.6895
  262TMC3    C2 4016   3.531   2.985  12.287 -0.0865 -0.2858  0.0012
  262TMC3    C3 4017   3.585   3.093  12.223 -0.0212 -0.1418  0.2090
  262TMC3    C4 4018   3.753   2.927  12.345 -0.7719 -0.8327 -0.1074
  262TMC3    C5 4019   3.800   3.041  12.286 -0.3016 -0.0173  0.2031
  262TMC3    C6 4020   3.716   3.133  12.225  0.2356  0.7088  0.0203
  262TMC3     C 4021   3.561   2.771  12.388 -0.1594 -0.3783  0.4942
  262TMC3     O 4022   3.442   2.757  12.347  0.9133  0.0217  0.7344
  262TMC3     H 4023   3.424   2.971  12.278  0.4388 -4.0008 -0.2776
  262TMC3    H1 4024   3.824   2.856  12.387  2.4512  0.9887 -2.4723
  262TMC3    H2 4025   3.749   3.213  12.160  0.0527  1.1444  0.4605
  262TMC3    C7 4026   3.944   3.048  12.276  0.1766 -0.7593 -0.1792
  262TMC3    C8 4027   3.500   3.160  12.133  0.0904 -0.8549 -0.0583
  262TMC3    O1 4028   4.019   2.947  12.303 -0.3939  0.2837 -0.6024
  262TMC3    O2 4029   3.526   3.282  12.124 -0.5248 -0.1842  0.2797
  263MPD2     C 4030   0.088   1.974  11.954 -0.0703  0.2453  0.2887
  263MPD2    C1 4031   0.193   1.926  11.873 -0.2254 -0.0313  0.3792
  263MPD2    C2 4032   0.224   1.997  11.756 -0.0504 -1.1507  0.3221
  263MPD2    C3 4033   0.167   2.118  11.729  0.3935  0.3413  0.3573
  263MPD2    C4 4034   0.065   2.166  11.810  0.0715 -0.4719  0.3301
  263MPD2    C5 4035   0.025   2.097  11.923 -0.0713  0.0687  0.5540
  263MPD2     H 4036   0.297   1.954  11.688  0.3188  0.4131 -0.2650
  263MPD2    H1 4037   0.006   2.255  11.788  0.2850 -0.5301 -0.4862
  263MPD2    H2 4038   0.054   1.913  12.037 -1.4674 -0.0047 -0.4532
  263MPD2    H3 4039   4.677   2.127  11.979 -1.1082 -2.5979  0.3461
  263MPD2     N 4040   0.207   2.182  11.615 -0.3695 -0.0524 -0.0185
  263MPD2    H5 4041   0.279   2.138  11.559  0.0200  0.4926  0.0450
  263MPD2    N1 4042   0.264   1.809  11.907 -0.2207 -0.2311 -0.0968
  263MPD2    H7 4043   0.230   1.759  11.988 -0.6791  0.3771  0.0862
  264TMC3    C1 4044   0.245   2.365  11.469  0.3209  0.1014 -0.7281
  264TMC3    C2 4045   0.268   2.498  11.488  0.9755 -0.6429 -0.1491
  264TMC3    C3 4046   0.361   2.557  11.411 -0.4350  0.8185  0.0277
  264TMC3    C4 4047   0.298   2.291  11.365 -0.0266 -0.5140 -0.0982
  264TMC3    C5 4048   0.406   2.350  11.303 -0.6182 -0.0514  0.3638
  264TMC3    C6 4049   0.429   2.485  11.318 -0.0899 -0.5035  0.0944
  264TMC3     C 4050   0.161   2.308  11.571 -0.0843 -0.1524  0.5332
  264TMC3     O 4051   0.082   2.377  11.630  0.1188 -1.0579 -0.2249
  264TMC3     H 4052   0.194   2.554  11.545  2.9515  1.7566  0.0188
  264TMC3    H1 4053   0.261   2.190  11.350 -3.0485  0.7054 -0.9584
  264TMC3    H2 4054   0.515   2.536  11.275 -0.1383 -2.3993 -2.2589
  264TMC3    C7 4055   0.477   2.291  11.191  0.0567  0.1084 -0.0775
  264TMC3    C8 4056   0.425   2.680  11.460 -0.2341 -0.0282 -0.0765
  264TMC3    O1 4057   0.512   2.372  11.106 -0.6004 -0.1767  0.3468
  264TMC3    O2 4058   0.494   2.742  11.380  0.1643  0.2318 -0.1512
  265MPD2     C 4059   1.443   2.449  15.510  0.2148 -0.3241  0.7788
  265MPD2    C1 4060   1.506   2.558  15.454  1.0091 -0.5569 -0.0438
  265MPD2    C2 4061   1.606   2.542  15.355  0.0113 -0.0908  0.5585
  265MPD2    C3 4062   1.625   2.413  15.301  0.5192  0.6069  0.2100
  265MPD2    C4 4063   1.550   2.310  15.347  0.7454  0.0975 -0.6505
  265MPD2    C5 4064   1.464   2.329  15.450 -0.0605 -0.2934 -0.6574
  265MPD2     H 4065   1.663   2.629  15.325 -0.4988  0.3507  0.8668
  265MPD2    H1 4066   1.557   2.212  15.301 -0.9541 -0.7355  0.8751
  265MPD2    H2 4067   1.373   2.459  15.593 -1.6726 -0.9959 -0.7224
  265MPD2    H3 4068   1.427   2.238  15.496  0.1721  0.0208  0.1428
  265MPD2     N 4069   1.724   2.379  15.202 -0.5643 -0.4947 -0.2361
  265MPD2    H5 4070   1.731   2.281  15.176 -0.9508 -0.2017 -1.4364
  265MPD2    N1 4071   1.477   2.687  15.506  0.6146  0.6474  0.0824
  265MPD2    H7 4072   1.542   2.756  15.469  0.6278  1.5856  1.8575
  266TMC3    C1 4073   1.366   2.851  15.638 -0.6947 -1.1746  0.3514
  266TMC3    C2 4074   1.480   2.912  15.671 -0.3463 -0.6655  0.2737
  266TMC3    C3 4075   1.468   3.032  15.735 -0.3631 -0.1099 -0.2792
  266TMC3    C4 4076   1.249   2.917  15.630  0.7335  0.1439 -0.1885
  266TMC3    C5 4077   1.247   3.048  15.672 -0.3777  0.3079  0.3262
  266TMC3    C6 4078   1.354   3.109  15.733  0.1922  0.4762  0.3927
  266TMC3     C 4079   1.365   2.728  15.567  0.1635 -0.3379 -0.2393
  266TMC3     O 4080   1.265   2.661  15.583  0.4206 -0.0915  0.0923
  266TMC3     H 4081   1.575   2.860  15.672  1.5218  2.7481  0.9287
  266TMC3    H1 4082   1.165   2.863  15.590 -0.4099  2.4698 -0.9385
  266TMC3    H2 4083   1.331   3.198  15.790 -1.4615 -0.2758  0.9144
  266TMC3    C7 4084   1.129   3.126  15.635  0.0375  0.2175  0.3976
  266TMC3    C8 4085   1.593   3.087  15.784 -0.6701 -0.0348 -0.1225
  266TMC3    O1 4086   1.021   3.065  15.630  0.4222 -0.0856  0.0994
  266TMC3    O2 4087   1.685   3.008  15.776 -0.1420  0.0397  0.3302
  267MPD2     C 4088   3.600   4.708  17.648 -0.1303  0.1109  0.5463
  267MPD2    C1 4089   3.699   0.007  17.557  0.7248 -0.7124 -0.6908
  267MPD2    C2 4090   3.662   0.045  17.429  0.2750 -0.0972  0.1780
  267MPD2    C3 4091   3.531   0.025  17.387 -0.4776  0.5336 -0.1202
  267MPD2    C4 4092   3.432   4.721  17.479  0.0199  0.3381  0.7548
  267MPD2    C5 4093   3.468   4.683  17.605 -0.0113 -0.6368 -0.2088
  267MPD2     H 4094   3.732   0.088  17.358 -0.7400 -2.3188 -2.1571
  267MPD2    H1 4095   3.327   4.707  17.457  0.2401 -0.9932  0.5603
  267MPD2    H2 4096   3.621   4.693  17.753 -0.3703  0.4911  0.6467
  267MPD2    H3 4097   3.393   4.662  17.680 -0.2051 -2.5228 -0.9473
  267MPD2     N 4098   3.484   0.064  17.259  0.4546 -0.0789  0.1512
  267MPD2    H5 4099   3.382   0.061  17.258  0.4840 -1.4588  1.7261
  267MPD2    N1 4100   3.833   4.730  17.602 -0.4056  0.3307 -0.4612
  267MPD2    H7 4101   3.839   4.684  17.692 -0.4775  0.0759 -0.5841
  268TMC3    C1 4102   4.065   4.696  17.580 -0.8301 -0.2006 -0.6768
  268TMC3    C2 4103   4.160   4.649  17.492 -0.2338 -0.6793  0.3845
  268TMC3    C3 4104   4.287   4.616  17.547 -0.1483  0.5758  0.4997
  268TMC3    C4 4105   4.081   4.718  17.718  0.4526 -0.9365  1.2117
  268TMC3    C5 4106   4.211   4.678   0.006  0.3294 -1.0406 -0.4111
  268TMC3    C6 4107   4.306   4.627  17.680  0.0482 -0.0833  1.0281
  268TMC3     C 4108   3.945   0.010  17.522 -0.0641  0.0677  0.2665
  268TMC3     O 4109   3.954   0.051  17.407 -0.6180 -0.1009 -0.0960
  268TMC3     H 4110   4.141   4.641  17.386 -0.5200 -1.2641  0.4822
  268TMC3    H1 4111   4.011   0.024   0.028  1.1620  1.9367 -0.0039
  268TMC3    H2 4112   4.405   4.611  17.722  1.1726  1.9401 -0.7925
  268TMC3    C7 4113   4.242   4.709   0.143  0.0883  0.0183 -0.0704
  268TMC3    C8 4114   4.402   4.621  17.459 -0.0063 -0.2959 -0.6122
  268TMC3    O1 4115   4.183   0.068   0.185  0.0302 -0.2819  0.2681
  268TMC3    O2 4116   4.509   4.593  17.509 -0.2696 -0.0065  0.3620
  269MPD2     C 4117   4.238   3.502  15.264 -0.1808  0.0195  1.1066
  269MPD2    C1 4118   4.161   3.506  15.378  0.8024  0.5764  0.1867
  269MPD2    C2 4119   4.103   3.627  15.414 -0.3318 -0.1322 -0.1008
  269MPD2    C3 4120   4.109   3.732  15.325 -0.4178  0.3621 -0.3320
  269MPD2    C4 4121   4.176   3.719  15.201  0.4476 -0.5476 -0.3441
  269MPD2    C5 4122   4.243   3.605  15.175 -0.3413 -0.0478 -0.0357
  269MPD2     H 4123   4.041   3.631  15.503  1.5419  1.1718  1.1226
  269MPD2    H1 4124   4.171   3.799  15.128  2.2838 -0.1019  0.0173
  269MPD2    H2 4125   4.299   3.414  15.249  0.5734  0.9496 -1.2837
  269MPD2    H3 4126   4.328   3.603  15.108 -0.1558  1.1212  0.1560
  269MPD2     N 4127   4.025   3.841  15.351 -0.0057  0.7734  0.0645
  269MPD2    H5 4128   3.960   3.842  15.429  0.1335  1.7791  0.1702
  269MPD2    N1 4129   4.166   3.396  15.466  0.1900 -0.5579  0.4114
  269MPD2    H7 4130   4.233   3.322  15.448  2.0862  1.2232  0.0035
  270TMC3    C1 4131   4.086   3.233  15.613 -0.2866 -0.3550 -0.1992
  270TMC3    C2 4132   3.970   3.174  15.646 -0.7338 -0.2343 -0.1606
  270TMC3    C3 4133   3.956   3.044  15.676  0.4435  0.2534 -0.1034
  270TMC3    C4 4134   4.203   3.167  15.627 -0.3202  0.3383  0.4255
  270TMC3    C5 4135   4.191   3.030  15.656  0.0279  0.0782 -0.5321
  270TMC3    C6 4136   4.072   2.968  15.682  0.4014 -0.0727 -0.0254
  270TMC3     C 4137   4.085   3.372  15.573  0.0145 -0.1931 -0.6195
  270TMC3     O 4138   3.994   3.440  15.618  0.0633  0.3136  0.3953
  270TMC3     H 4139   3.873   3.223  15.641 -1.3270 -1.1991  2.1062
  270TMC3    H1 4140   4.296   3.222  15.616 -0.7422  0.9657  0.0141
  270TMC3    H2 4141   4.057   2.862  15.699  1.6039  0.3739  3.6732
  270TMC3    C7 4142   4.308   2.951  15.662 -0.1087  0.4552 -0.8892
  270TMC3    C8 4143   3.842   2.977  15.619  0.4355 -0.1315  0.1544
  270TMC3    O1 4144   4.302   2.852  15.734 -0.3013 -0.4493 -0.1600
  270TMC3    O2 4145   3.733   3.022  15.644  0.5312 -0.0262  0.0474
  271MPD2     C 4146   3.291   2.229  13.942  0.0167 -0.0483 -0.4805
  271MPD2    C1 4147   3.287   2.345  14.018  0.1099  0.7437  0.1194
  271MPD2    C2 4148   3.191   2.443  13.986  0.4856 -0.0062 -0.2590
  271MPD2    C3 4149   3.104   2.433  13.879  0.7447  0.5516 -0.8267
  271MPD2    C4 4150   3.118   2.316  13.797 -0.1243  0.2615 -0.2588
  271MPD2    C5 4151   3.210   2.217  13.835 -0.4897 -0.2117 -0.1385
  271MPD2     H 4152   3.203   2.539  14.035 -0.0391  0.0235 -0.1882
  271MPD2    H1 4153   3.058   2.307  13.707  0.3167 -2.4942 -0.2899
  271MPD2    H2 4154   3.368   2.158  13.969  0.7079  0.4066 -1.2640
  271MPD2    H3 4155   3.227   2.130  13.772  0.2606 -0.6826  0.7071
  271MPD2     N 4156   3.029   2.544  13.823  0.3785 -0.2007  0.2339
  271MPD2    H5 4157   3.009   2.534  13.724 -0.5433  0.7467  0.3231
  271MPD2    N1 4158   3.376   2.377  14.127  0.6108 -0.3775  0.7566
  271MPD2    H7 4159   3.357   2.467  14.169 -0.0972 -1.1779  2.1556
  272TMC3    C1 4160   3.531   2.347  14.308  0.3243  0.0228  0.2738
  272TMC3    C2 4161   3.648   2.299  14.352 -0.6922  0.8888 -0.7289
  272TMC3    C3 4162   3.697   2.352  14.469 -0.7117  0.2753 -0.5017
  272TMC3    C4 4163   3.468   2.443  14.380 -0.6370 -0.5719 -0.0436
  272TMC3    C5 4164   3.513   2.490  14.493 -0.1395  0.5229 -0.2453
  272TMC3    C6 4165   3.633   2.445  14.543  0.4875  0.0245  0.0432
  272TMC3     C 4166   3.474   2.299  14.187  0.6760  0.0793  0.5585
  272TMC3     O 4167   3.528   2.196  14.147  0.4238 -0.1838  0.3199
  272TMC3     H 4168   3.703   2.232  14.287 -1.8520 -1.7068  0.9782
  272TMC3    H1 4169   3.372   2.483  14.350 -0.7525 -1.6218 -1.0779
  272TMC3    H2 4170   3.671   2.468  14.642 -1.5855  0.7958  0.6571
  272TMC3    C7 4171   3.422   2.565  14.573  0.1915 -0.2065 -0.2978
  272TMC3    C8 4172   3.815   2.292  14.537 -0.0226  0.1544 -0.6043
  272TMC3    O1 4173   3.300   2.569  14.552 -0.3405  0.1011 -1.2164
  272TMC3    O2 4174   3.834   2.325  14.653  0.1032 -0.1786 -0.0636
  273MPD2     C 4175   0.476   0.751  11.952  0.4709  0.5421 -0.2679
  273MPD2    C1 4176   0.614   0.727  11.945 -0.5030 -0.3184 -0.0247
  273MPD2    C2 4177   0.692   0.768  11.842  0.1661 -0.1910  0.0996
  273MPD2    C3 4178   0.631   0.827  11.727  0.4646  0.2439 -0.2841
  273MPD2    C4 4179   0.495   0.848  11.734  0.0483 -0.2563 -0.4565
  273MPD2    C5 4180   0.427   0.807  11.842  0.3520 -0.2156 -0.6339
  273MPD2     H 4181   0.800   0.766  11.852  0.0976 -2.5937  0.3463
  273MPD2    H1 4182   0.440   0.905  11.660  2.4022  1.3174 -0.9860
  273MPD2    H2 4183   0.403   0.705  12.018  2.1868 -0.1869  1.1044
  273MPD2    H3 4184   0.319   0.816  11.837  0.2872  0.3557  1.9801
  273MPD2     N 4185   0.700   0.861  11.611 -0.3917 -0.2312  0.0472
  273MPD2    H5 4186   0.646   0.916  11.546  0.1266  1.5529  1.1433
  273MPD2    N1 4187   0.670   0.656  12.052 -0.5700  0.3306  0.0095
  273MPD2    H7 4188   0.603   0.636  12.127  0.2913 -1.0856  0.4011
  274TMC3    C1 4189   0.837   0.877  11.434 -0.3726 -0.1109  1.1954
  274TMC3    C2 4190   0.716   0.897  11.376 -0.3880  0.0258  0.1453
  274TMC3    C3 4191   0.696   1.002  11.292  0.5798 -0.4649  0.3882
  274TMC3    C4 4192   0.930   0.977  11.434 -0.2792 -0.6158  0.1478
  274TMC3    C5 4193   0.899   1.087  11.359 -0.3248 -0.2893  0.2420
  274TMC3    C6 4194   0.788   1.097  11.270  0.2386 -0.2041 -0.2523
  274TMC3     C 4195   0.820   0.817  11.563  0.0474 -0.0015  0.7128
  274TMC3     O 4196   0.915   0.767  11.623 -0.4812  0.2498 -0.0432
  274TMC3     H 4197   0.639   0.822  11.386 -0.0416 -0.5767 -1.6861
  274TMC3    H1 4198   1.020   0.961  11.491 -0.7921 -1.2698  0.7793
  274TMC3    H2 4199   0.755   1.190  11.225 -2.0525 -1.1759 -0.5872
  274TMC3    C7 4200   0.942   1.212  11.410 -0.0795 -0.6948  0.1839
  274TMC3    C8 4201   0.565   1.017  11.231 -0.2655 -0.0875 -0.3710
  274TMC3    O1 4202   0.875   1.307  11.381 -0.3888 -0.3546  0.0547
  274TMC3    O2 4203   0.471   0.981  11.298  0.3107 -0.2802  0.0873
  275MPD2     C 4204   0.050   3.962  14.136 -1.1642  0.6334  0.7579
  275MPD2    C1 4205   0.093   3.850  14.212 -0.0863 -0.1680  0.4153
  275MPD2    C2 4206   4.733   3.770  14.269  0.2766 -0.0847 -0.2572
  275MPD2    C3 4207   4.599   3.787  14.230  0.4083  0.2157  0.3131
  275MPD2    C4 4208   4.570   3.897  14.146 -0.5531  0.5241  0.6565
  275MPD2    C5 4209   4.666   3.986  14.101 -0.4926 -0.4883 -0.0838
  275MPD2     H 4210   0.017   3.678  14.320  1.0879  0.3447  0.1420
  275MPD2    H1 4211   4.468   3.923  14.120 -1.3727 -2.6496  0.6591
  275MPD2    H2 4212   0.124   4.028  14.092  1.0558 -2.0847  0.3865
  275MPD2    H3 4213   4.648   4.072  14.037  0.0222  0.4661  1.0552
  275MPD2     N 4214   4.496   3.695  14.255  0.0864  0.5901  0.3045
  275MPD2    H5 4215   4.409   3.734  14.219 -1.1494 -1.0338  1.5738
  275MPD2    N1 4216   0.228   3.809  14.225  0.4676  0.1859 -0.0845
  275MPD2    H7 4217   0.251   3.723  14.273  0.6706 -0.4973 -1.3960
  276TMC3    C1 4218   0.455   3.843  14.237  0.3685  0.2835 -0.3412
  276TMC3    C2 4219   0.473   3.710  14.267  0.0257  0.0470  0.4228
  276TMC3    C3 4220   0.561   3.672  14.366  0.6757  0.1246  0.4497
  276TMC3    C4 4221   0.520   3.933  14.319  0.8824  0.1144  0.9444
  276TMC3    C5 4222   0.602   3.893  14.420  0.4226  0.9551  0.3201
  276TMC3    C6 4223   0.629   3.765  14.445  0.1545  0.1332  0.1810
  276TMC3     C 4224   0.330   3.901  14.191  1.1130 -0.2668  0.3636
  276TMC3     O 4225   0.330   4.020  14.162  0.6584  0.4633  0.3080
  276TMC3     H 4226   0.420   3.635  14.210 -1.8494  3.5044 -2.3852
  276TMC3    H1 4227   0.506   4.040  14.305 -1.4415 -0.4539 -1.0758
  276TMC3    H2 4228   0.696   3.739  14.527  0.0821  2.6183  1.0245
  276TMC3    C7 4229   0.633   3.984  14.528 -0.6201  0.5221 -0.1091
  276TMC3    C8 4230   0.621   3.535  14.373 -0.2182 -0.1934 -0.2303
  276TMC3    O1 4231   0.729   3.964  14.606 -0.5761 -0.0532  0.0089
  276TMC3    O2 4232   0.736   3.529  14.424 -0.3987  0.5213 -0.3913
  277MPD2     C 4233   2.228   2.554  12.864  1.3970  0.0137 -0.2035
  277MPD2    C1 4234   2.091   2.558  12.869 -0.9017  0.1105  0.1664
  277MPD2    C2 4235   2.025   2.474  12.957 -0.1667 -0.7853 -0.2924
  277MPD2    C3 4236   2.088   2.383  13.038 -0.9457  0.7301  0.0925
  277MPD2    C4 4237   2.223   2.366  13.015  0.4647 -0.6600  0.1121
  277MPD2    C5 4238   2.294   2.455  12.935 -0.3429  0.7029 -0.1301
  277MPD2     H 4239   1.917   2.473  12.965 -0.0155  0.1080  1.8424
  277MPD2    H1 4240   2.284   2.286  13.056  0.7945 -0.6470 -0.3440
  277MPD2    H2 4241   2.285   2.620  12.799  0.1236 -0.8375 -2.1752
  277MPD2    H3 4242   2.402   2.448  12.934 -0.4988 -1.5949 -1.1676
  277MPD2     N 4243   2.013   2.307  13.125 -0.2847 -0.0570  0.8615
  277MPD2    H5 4244   1.916   2.338  13.133 -0.6603 -0.8895 -0.4319
  277MPD2    N1 4245   2.024   2.666  12.800  0.4438 -0.1679 -0.9411
  277MPD2    H7 4246   2.086   2.726  12.747  0.4319  0.5877 -0.0887
  278TMC3    C1 4247   1.939   2.156  13.295 -0.0195 -0.2007 -0.1913
  278TMC3    C2 4248   1.953   2.037  13.357  0.2626 -0.6625 -0.9415
  278TMC3    C3 4249   1.854   2.004  13.445  0.2128  0.2921 -0.7821
  278TMC3    C4 4250   1.850   2.251  13.333  0.8660  0.6101 -0.2564
  278TMC3    C5 4251   1.762   2.212  13.426 -1.1476  0.2025  0.1246
  278TMC3    C6 4252   1.767   2.096  13.496  0.2001  0.4546 -0.4895
  278TMC3     C 4253   2.045   2.200  13.204 -0.2379  0.0215 -0.1004
  278TMC3     O 4254   2.144   2.132  13.201 -0.5392  0.7686 -0.5716
  278TMC3     H 4255   2.036   1.969  13.343  1.1876  0.1835  0.4505
  278TMC3    H1 4256   1.843   2.347  13.284  0.3109 -0.4718 -2.3454
  278TMC3    H2 4257   1.697   2.072  13.575 -1.3178 -1.4651 -2.4125
  278TMC3    C7 4258   1.672   2.317  13.465  0.2089  0.8727 -0.1118
  278TMC3    C8 4259   1.866   1.882  13.513  0.2908  0.3833  0.1889
  278TMC3    O1 4260   1.697   2.432  13.432  0.3412  0.2903  0.9862
  278TMC3    O2 4261   1.974   1.825  13.511  0.0649  0.0109  0.0761
  279MPD2     C 4262   1.258   3.019   0.017  0.0647 -0.9629 -0.2778
  279MPD2    C1 4263   1.149   2.960  17.715 -0.7561 -0.2507  0.0007
  279MPD2    C2 4264   1.143   2.944  17.574  0.5673 -0.5697 -0.1807
  279MPD2    C3 4265   1.251   2.979  17.492 -0.0357 -0.5885  0.7334
  279MPD2    C4 4266   1.350   3.044  17.553  0.2991 -0.0234 -0.3920
  279MPD2    C5 4267   1.359   3.055  17.689  0.2989 -0.7177  0.0819
  279MPD2     H 4268   1.053   2.903  17.530 -0.8282 -0.3243  2.4436
  279MPD2    H1 4269   1.433   3.081  17.494  0.4052 -0.8025 -0.7447
  279MPD2    H2 4270   1.274   3.047   0.120 -4.0471 -0.8903  0.3575
  279MPD2    H3 4271   1.444   3.108  17.731 -1.5430  0.7364  1.9853
  279MPD2     N 4272   1.248   2.958  17.350 -0.7446  0.5753  0.6627
  279MPD2    H5 4273   1.340   2.976  17.312 -0.9741  0.4013  0.0288
  279MPD2    N1 4274   1.035   2.929   0.037  0.3642  0.6041  0.3225
  279MPD2    H7 4275   1.025   2.969   0.129 -1.5451 -0.4753  0.5832
  280TMC3    C1 4276   0.853   2.800   0.119 -0.9512 -0.3721 -0.2948
  280TMC3    C2 4277   0.827   2.674   0.160  0.0644 -0.0169  0.1346
  280TMC3    C3 4278   0.726   2.655   0.254 -0.2284  0.3851  0.5572
  280TMC3    C4 4279   0.798   2.909   0.178  0.5801 -0.6733  0.0748
  280TMC3    C5 4280   0.687   2.883   0.261  0.4105  0.1419 -0.0211
  280TMC3    C6 4281   0.659   2.757   0.310  0.2739 -0.1181 -0.8847
  280TMC3     C 4282   0.954   2.818   0.020  0.3461 -0.2657  0.4069
  280TMC3     O 4283   0.956   2.723  17.701 -0.1741  0.2917  0.5183
  280TMC3     H 4284   0.875   2.591   0.110 -0.0723  0.6458 -1.0795
  280TMC3    H1 4285   0.830   3.009   0.149  1.7825 -1.6636 -1.9813
  280TMC3    H2 4286   0.578   2.740   0.379  0.1957  0.6788 -0.7826
  280TMC3    C7 4287   0.619   3.005   0.312 -0.2076 -0.4449  0.7316
  280TMC3    C8 4288   0.707   2.526   0.317  0.7852  0.0707 -0.8746
  280TMC3    O1 4289   0.573   2.999   0.422  0.3026  0.7216 -0.2614
  280TMC3    O2 4290   0.593   2.493   0.351  0.2623  0.5632  0.5883
  281TMC3    C1 4291   0.258   2.952  13.447  0.1854 -0.0606  0.0095
  281TMC3    C2 4292   0.323   3.047  13.373 -0.0282  0.0051  0.2431
  281TMC3    C3 4293   0.404   3.000  13.268  0.1893  0.6117 -0.1692
  281TMC3    C4 4294   0.276   2.817  13.442 -0.5163  0.1623  0.1202
  281TMC3    C5 4295   0.357   2.780  13.339  0.8097  0.3380 -0.5785
  281TMC3    C6 4296   0.421   2.870  13.250  0.3404 -0.5753 -0.1245
  281TMC3     C 4297   0.145   2.998  13.525  0.6016  0.6513 -0.6539
  281TMC3     O 4298   0.110   2.918  13.613 -0.0795 -0.0127 -0.1848
  281TMC3     H 4299   0.318   3.154  13.390  2.5438  0.6955 -3.5246
  281TMC3    H1 4300   0.227   2.743  13.505 -1.4515  0.1863 -0.5796
  281TMC3    H2 4301   0.481   2.833  13.167 -1.0240 -1.7573 -0.5820
  281TMC3    C7 4302   0.399   2.639  13.322 -0.0314  0.0393  0.4779
  281TMC3    C8 4303   0.502   3.086  13.204 -0.1013  0.3398 -0.4364
  281TMC3    O1 4304   0.500   2.614  13.259 -0.0375 -0.3337  0.1455
  281TMC3    O2 4305   0.613   3.030  13.179  0.3008  0.3477  0.2085
  282MPD2     C 4306   1.680   4.270  14.862  0.2608 -0.3549  0.0341
  282MPD2    C1 4307   1.558   4.326  14.910  0.0811 -0.7758 -0.2119
  282MPD2    C2 4308   1.452   4.336  14.825  0.3835  0.2477 -0.1190
  282MPD2    C3 4309   1.466   4.306  14.696  0.2759 -0.0380 -0.0799
  282MPD2    C4 4310   1.588   4.254  14.649  0.6596 -0.0875  0.0243
  282MPD2    C5 4311   1.695   4.233  14.730 -0.1535 -0.3217 -0.0120
  282MPD2     H 4312   1.360   4.378  14.864 -0.2510 -0.6662 -0.6424
  282MPD2    H1 4313   1.598   4.232  14.543 -1.1105 -2.1349  0.2822
  282MPD2    H2 4314   1.763   4.249  14.929  0.4638 -0.1319 -0.1464
  282MPD2    H3 4315   1.786   4.194  14.685  1.0837  1.7135  0.7493
  282MPD2     N 4316   1.353   4.338  14.618 -0.1582  0.1575 -0.1651
  282MPD2    H5 4317   1.278   4.392  14.660  0.0194  0.1823  0.1204
  282MPD2    N1 4318   1.536   4.363  15.044  0.2778 -0.2422  0.4746
  282MPD2    H7 4319   1.440   4.384  15.067  0.4167  1.1115 -0.1542
  283TMC3    C1 4320   1.592   4.420  15.270  0.2246  0.4072  0.4126
  283TMC3    C2 4321   1.626   4.541  15.327 -0.1626  0.2080 -0.0910
  283TMC3    C3 4322   1.569   4.578  15.447 -0.0293  0.3349 -0.3233
  283TMC3    C4 4323   1.502   4.337  15.332 -0.8599 -0.3083 -0.0472
  283TMC3    C5 4324   1.442   4.380  15.448 -0.2067 -0.0438 -0.3023
  283TMC3    C6 4325   1.490   4.491  15.514  0.4161 -0.0783 -0.3714
  283TMC3     C 4326   1.636   4.404  15.133  0.0878 -0.0968 -0.5296
  283TMC3     O 4327   1.752   4.435  15.117 -0.0455  0.0521  0.3533
  283TMC3     H 4328   1.670   4.620  15.267 -1.1940  1.0958  0.3252
  283TMC3    H1 4329   1.468   4.248  15.280  2.9117 -1.7502  0.0008
  283TMC3    H2 4330   1.444   4.513  15.610 -2.7684 -0.8690 -1.7491
  283TMC3    C7 4331   1.325   4.316  15.507 -0.2569  0.1464 -0.5640
  283TMC3    C8 4332   1.599   4.708  15.510  0.1684 -0.1480  0.9243
  283TMC3    O1 4333   1.322   4.302  15.626 -0.4469  0.9216 -0.4516
  283TMC3    O2 4334   1.586   4.717  15.632  0.0083 -0.3112 -0.4529
  284MPD2     C 4335   4.560   3.485  12.157 -0.2036  0.2897  0.0830
  284MPD2    C1 4336   4.654   3.582  12.126 -0.2157  0.1663  0.2689
  284MPD2    C2 4337   0.032   3.599  12.198 -0.4935  0.0794  0.4205
  284MPD2    C3 4338   0.065   3.500  12.290 -0.4159 -0.0626 -0.0046
  284MPD2    C4 4339   4.716   3.399  12.316 -0.1391 -0.5413 -0.4656
  284MPD2    C5 4340   4.593   3.393  12.249 -0.6384 -0.1462 -0.0881
  284MPD2     H 4341   0.108   3.671  12.169 -1.2797  0.3891 -0.8995
  284MPD2    H1 4342   4.731   3.339  12.405 -0.4559  0.4798  0.2651
  284MPD2    H2 4343   4.460   3.479  12.116  0.8566 -0.3237 -2.4190
  284MPD2    H3 4344   4.525   3.313  12.276  0.0171  0.4233  3.2578
  284MPD2     N 4345   0.192   3.503  12.356 -0.1393 -0.0836 -0.1031
  284MPD2    H5 4346   0.217   3.415  12.400 -0.8740  0.1550  0.7995
  284MPD2    N1 4347   4.642   3.664  12.013 -0.3753  0.2161  0.1149
  284MPD2    H7 4348   4.719   3.728  11.999  1.1656 -1.2351  1.9340
  285TMC3    C1 4349   4.587   3.740  11.801  0.4565  0.3337  0.3228
  285TMC3    C2 4350   4.632   3.678  11.691  0.8232 -0.6249 -0.0228
  285TMC3    C3 4351   4.698   3.747  11.598  0.3127 -0.0724  0.2831
  285TMC3    C4 4352   4.622   3.866  11.824 -0.1863 -0.2379  0.1618
  285TMC3    C5 4353   4.686   3.933  11.722  0.7045 -0.8811 -0.1067
  285TMC3    C6 4354   4.719   3.877  11.603 -0.7163 -0.0539  0.0754
  285TMC3     C 4355   4.551   3.650  11.912 -0.4168 -0.8224 -0.4199
  285TMC3     O 4356   4.492   3.546  11.876  0.1675  0.6510 -0.2699
  285TMC3     H 4357   4.626   3.570  11.682 -1.4426 -0.4523 -0.4884
  285TMC3    H1 4358   4.597   3.918  11.916 -1.2945  0.3453 -0.4723
  285TMC3    H2 4359   0.038   3.938  11.536 -1.4117 -1.0209 -1.4031
  285TMC3    C7 4360   4.725   4.068  11.734  0.7011  0.0845  0.5530
  285TMC3    C8 4361   0.047   3.675  11.508  0.0998  0.4164 -1.2022
  285TMC3    O1 4362   4.690   4.138  11.641 -0.0854  0.3599  0.0413
  285TMC3    O2 4363   0.082   3.564  11.532  0.3585  0.1653 -0.2503
  286MPD2     C 4364   0.218   2.938   1.324  0.2223  0.0774 -0.3984
  286MPD2    C1 4365   0.128   2.853   1.265  0.7713  0.9997  0.8205
  286MPD2    C2 4366   0.147   2.718   1.281 -0.9097  0.4112 -1.1434
  286MPD2    C3 4367   0.259   2.653   1.339 -0.3411  0.4022 -0.6228
  286MPD2    C4 4368   0.353   2.738   1.393  0.1471 -0.3513  0.1943
  286MPD2    C5 4369   0.328   2.875   1.390 -0.0158  0.0974 -0.3159
  286MPD2     H 4370   0.071   2.659   1.231  2.3617 -2.4296 -2.8129
  286MPD2    H1 4371   0.433   2.695   1.453 -1.3290 -1.0699  1.6345
  286MPD2    H2 4372   0.204   3.045   1.331 -1.8381 -0.1775 -0.5873
  286MPD2    H3 4373   0.402   2.934   1.443  0.0836  2.1867 -2.7647
  286MPD2     N 4374   0.282   2.516   1.352 -0.2200  0.2682  0.7138
  286MPD2    H5 4375   0.374   2.482   1.380 -0.9389 -0.3187  2.3417
  286MPD2    N1 4376   0.008   2.888   1.196  0.4720 -0.0247 -0.2646
  286MPD2    H7 4377   4.697   2.811   1.154  2.6218 -0.6477 -1.7447
  287TMC3    C1 4378   0.255   2.275   1.311 -0.2040 -0.1426  0.5937
  287TMC3    C2 4379   0.205   2.186   1.217 -0.2391  0.4204 -0.2790
  287TMC3    C3 4380   0.289   2.081   1.182 -0.4047  0.0770  0.3158
  287TMC3    C4 4381   0.371   2.249   1.383  0.2286  0.4052  0.2460
  287TMC3    C5 4382   0.441   2.138   1.350  0.5938 -0.3239 -0.3239
  287TMC3    C6 4383   0.395   2.047   1.258 -0.6430  0.6326 -0.1307
  287TMC3     C 4384   0.200   2.416   1.309  0.9144 -0.4338 -0.1542
  287TMC3     O 4385   0.085   2.428   1.267  1.0079  0.0781  0.0551
  287TMC3     H 4386   0.127   2.226   1.153  0.7823  1.0646 -1.1287
  287TMC3    H1 4387   0.407   2.305   1.470 -3.6830 -0.1951  2.2586
  287TMC3    H2 4388   0.456   1.965   1.223 -0.9041 -0.2702  1.5062
  287TMC3    C7 4389   0.564   2.127   1.430  0.0092  0.5322  0.7202
  287TMC3    C8 4390   0.226   1.999   1.080  0.6231 -0.2945  0.3092
  287TMC3    O1 4391   0.611   2.226   1.488 -0.4862 -0.3818 -0.4424
  287TMC3    O2 4392   0.108   2.015   1.050  0.7672 -0.6825 -0.0165
  288TMC3    C1 4393   1.905   2.283  14.378 -0.5902  0.0627  0.2864
  288TMC3    C2 4394   1.861   2.273  14.512 -0.4979  0.6699 -0.1290
  288TMC3    C3 4395   1.763   2.364  14.552 -0.2713 -0.1804  0.2163
  288TMC3    C4 4396   1.853   2.380  14.295 -0.1859  0.3538 -0.0688
  288TMC3    C5 4397   1.758   2.461  14.346 -0.3161  0.8673 -0.6544
  288TMC3    C6 4398   1.706   2.456  14.473  0.3022 -0.1310 -0.2229
  288TMC3     C 4399   2.051   2.263  14.365  0.5364 -0.4051  0.3472
  288TMC3     O 4400   2.104   2.194  14.452 -0.1174  0.4984  0.1243
  288TMC3     H 4401   1.921   2.227  14.589  1.2878  0.4209 -1.6476
  288TMC3    H1 4402   1.883   2.367  14.192 -2.9617  0.9973 -0.9384
  288TMC3    H2 4403   1.635   2.522  14.520 -0.0385 -1.0918  0.6243
  288TMC3    C7 4404   1.699   2.562  14.261 -0.2090 -0.6168 -0.9295
  288TMC3    C8 4405   1.705   2.346  14.676 -0.1576  0.1787  0.1928
  288TMC3    O1 4406   1.624   2.648  14.308  0.2064 -1.0836 -0.0285
  288TMC3    O2 4407   1.656   2.444  14.729 -0.4695  0.1603  0.4259
  289MPD2     C 4408   2.269   1.487  14.341  0.3535 -0.3247 -0.6041
  289MPD2    C1 4409   2.242   1.546  14.221  0.8232 -0.4985 -0.7357
  289MPD2    C2 4410   2.122   1.510  14.157 -0.1219  0.0836  0.2391
  289MPD2    C3 4411   2.044   1.406  14.204  0.6500 -0.1329  0.5695
  289MPD2    C4 4412   2.083   1.344  14.322  0.0169 -0.1639 -0.6158
  289MPD2    C5 4413   2.188   1.389  14.393  0.3850  0.4322 -0.3650
  289MPD2     H 4414   2.083   1.565  14.072 -1.1370 -1.8661 -0.5634
  289MPD2    H1 4415   2.035   1.263  14.374  1.5941 -0.7124 -0.0182
  289MPD2    H2 4416   2.355   1.525  14.394 -1.2652  1.1465  0.9833
  289MPD2    H3 4417   2.204   1.353  14.494 -0.2738  0.4203 -0.2687
  289MPD2     N 4418   1.921   1.362  14.158  0.6092  0.1286 -0.4005
  289MPD2    H5 4419   1.870   1.289  14.207 -1.9824  3.4692  1.8821
  289MPD2    N1 4420   2.321   1.649  14.176 -0.1978 -0.2260 -0.2544
  289MPD2    H7 4421   2.389   1.691  14.239 -0.0091 -0.4974 -0.2762
  290TMC3    C1 4422   1.748   1.337  14.001  0.2551  0.2808 -0.2866
  290TMC3    C2 4423   1.624   1.399  13.979 -0.5609 -0.4433 -0.6294
  290TMC3    C3 4424   1.509   1.331  14.014 -0.3229 -0.7144 -0.4529
  290TMC3    C4 4425   1.750   1.211  14.023 -0.9605 -0.2062 -0.5915
  290TMC3    C5 4426   1.639   1.144  14.055  0.1462  0.1820 -0.7901
  290TMC3    C6 4427   1.512   1.198  14.046  0.2476  0.3977  0.3917
  290TMC3     C 4428   1.863   1.415  14.045 -0.0045 -0.0299 -0.0473
  290TMC3     O 4429   1.894   1.505  13.964 -0.2634 -0.5193  0.2464
  290TMC3     H 4430   1.636   1.500  13.942 -0.6767 -0.7979 -1.6323
  290TMC3    H1 4431   1.842   1.159  14.044 -0.3132  0.5032 -1.6931
  290TMC3    H2 4432   1.427   1.157  14.098 -0.5590 -0.6403 -1.7644
  290TMC3    C7 4433   1.654   1.068  14.171 -0.1857  0.1588 -0.5083
  290TMC3    C8 4434   1.382   1.401  14.014 -0.1290  0.4259  0.4141
  290TMC3    O1 4435   1.728   1.117  14.255 -0.1609 -0.1942 -0.1619
  290TMC3    O2 4436   1.283   1.327  14.015  0.0310  0.0945 -0.1819
  291MPD2     C 4437   1.733   0.734  17.747  0.3373 -0.2784  0.0228
  291MPD2    C1 4438   1.674   0.827   0.075  0.1357  0.8554  0.5399
  291MPD2    C2 4439   1.714   0.957   0.072  0.4697  0.7218 -0.1756
  291MPD2    C3 4440   1.826   0.988  17.747  0.3664  0.1272 -0.5091
  291MPD2    C4 4441   1.901   0.890  17.692 -0.0886 -0.4566 -0.0348
  291MPD2    C5 4442   1.850   0.763  17.686  0.0576  0.2988  0.1580
  291MPD2     H 4443   1.651   1.035   0.112 -0.5767 -0.5353  0.6177
  291MPD2    H1 4444   1.991   0.910  17.635  0.8774  0.1637  1.7106
  291MPD2    H2 4445   1.708   0.629  17.737 -2.5482  0.3868  0.1333
  291MPD2    H3 4446   1.889   0.690  17.616 -0.6206  0.7675 -0.7196
  291MPD2     N 4447   1.877   1.110  17.724  0.2435 -0.2968  0.3160
  291MPD2    H5 4448   1.963   1.104  17.669 -0.2103 -1.7356 -0.2304
  291MPD2    N1 4449   1.558   0.788   0.140 -0.2543  0.4057  0.1865
  291MPD2    H7 4450   1.528   0.695   0.113 -0.1742 -0.1253  1.9014
  292TMC3    C1 4451   1.356   0.801   0.258  0.1496  0.2092  0.0373
  292TMC3    C2 4452   1.289   0.864   0.360 -0.4514 -0.7224  0.0039
  292TMC3    C3 4453   1.154   0.852   0.364 -0.8992 -0.2051 -0.9819
  292TMC3    C4 4454   1.287   0.738   0.161  0.2063 -0.5271  0.1592
  292TMC3    C5 4455   1.148   0.719   0.166  0.2141 -0.6582  0.6909
  292TMC3    C6 4456   1.087   0.776   0.275 -0.0009  0.5806 -0.0799
  292TMC3     C 4457   1.489   0.855   0.238  0.3797  0.3837  0.5606
  292TMC3     O 4458   1.535   0.953   0.299  0.0316  0.3422 -0.4700
  292TMC3     H 4459   1.343   0.921   0.435 -0.1122 -1.5233  0.3635
  292TMC3    H1 4460   1.336   0.719   0.066  2.1221  1.7869  0.7097
  292TMC3    H2 4461   0.980   0.764   0.286 -0.1430  2.0169  0.2010
  292TMC3    C7 4462   1.091   0.632   0.066  0.3091 -0.7901  0.0534
  292TMC3    C8 4463   1.082   0.928   0.469  0.6606  0.0293 -0.4960
  292TMC3    O1 4464   1.170   0.571  17.755  0.0076  0.2285 -0.1184
  292TMC3    O2 4465   1.152   0.971   0.563  0.3022 -0.2306  0.0373
  293MPD2     C 4466   3.116   2.411  12.341 -0.1989 -0.5935  0.3667
  293MPD2    C1 4467   3.051   2.307  12.392  0.1769 -0.3353  0.6768
  293MPD2    C2 4468   3.026   2.295  12.529  0.5208 -0.1780 -0.2973
  293MPD2    C3 4469   3.081   2.385  12.614  0.0496  0.2722  0.4307
  293MPD2    C4 4470   3.148   2.492  12.562  0.3238  0.1205 -0.6768
  293MPD2    C5 4471   3.156   2.508  12.425  0.5672  0.3221  0.4980
  293MPD2     H 4472   2.980   2.204  12.566  0.2391  0.8630  1.8932
  293MPD2    H1 4473   3.172   2.575  12.627 -3.0790  1.0835 -0.6393
  293MPD2    H2 4474   3.120   2.419  12.233 -1.6681 -1.8667  0.2136
  293MPD2    H3 4475   3.196   2.602  12.388  1.1511 -0.0346  0.2212
  293MPD2     N 4476   3.066   2.385  12.753 -0.1174  0.5101  0.0515
  293MPD2    H5 4477   3.095   2.472  12.798  0.3496  0.4669 -0.1712
  293MPD2    N1 4478   3.009   2.220  12.291 -0.0788  0.2045 -0.5614
  293MPD2    H7 4479   3.038   2.231  12.194 -0.3862 -0.9452 -0.7819
  294TMC3    C1 4480   2.865   2.071  12.182  0.5488  0.1787  0.1082
  294TMC3    C2 4481   2.795   1.955  12.184  0.2685 -0.3403 -0.1233
  294TMC3    C3 4482   2.750   1.902  12.064  0.0495  0.3703 -0.0201
  294TMC3    C4 4483   2.871   2.143  12.069  0.0419 -0.7250  0.4300
  294TMC3    C5 4484   2.812   2.090  11.958 -0.4880  0.4871 -0.4859
  294TMC3    C6 4485   2.764   1.963  11.947 -0.0136 -0.0406  0.3932
  294TMC3     C 4486   2.901   2.136  12.310  0.7937  0.3463 -0.2751
  294TMC3     O 4487   2.859   2.086  12.414 -0.6872  0.0420  0.0815
  294TMC3     H 4488   2.780   1.898  12.275  1.4604  1.6065  1.2908
  294TMC3    H1 4489   2.916   2.241  12.053  0.5313 -0.7911  1.4093
  294TMC3    H2 4490   2.727   1.928  11.851 -0.6325  0.7361  0.3504
  294TMC3    C7 4491   2.880   2.122  11.832 -0.3775 -0.7053  0.0731
  294TMC3    C8 4492   2.645   1.799  12.084  0.0917 -0.1395 -0.4195
  294TMC3    O1 4493   2.810   2.132  11.733 -0.3199 -0.5096 -0.4298
  294TMC3    O2 4494   2.586   1.807  12.188 -0.2612  0.4109 -0.0643
  295MPD2     C 4495   3.732   2.075   1.033  0.0140  0.5106  0.4108
  295MPD2    C1 4496   3.610   2.138   1.030  0.3761  1.1097 -1.1028
  295MPD2    C2 4497   3.539   2.135   1.150  0.0581  1.1315  0.0561
  295MPD2    C3 4498   3.584   2.081   1.270 -0.9822 -0.0909  0.3675
  295MPD2    C4 4499   3.713   2.032   1.268 -0.1564  0.0863 -0.0582
  295MPD2    C5 4500   3.789   2.024   1.151 -0.2894  0.3581 -0.9100
  295MPD2     H 4501   3.438   2.175   1.148 -0.6479 -0.8024 -3.0447
  295MPD2    H1 4502   3.756   1.990   1.358  0.6528  2.7212  0.7795
  295MPD2    H2 4503   3.793   2.049   0.946 -0.4992 -0.7261  0.4134
  295MPD2    H3 4504   3.889   1.982   1.147 -0.1905  0.3478  1.7731
  295MPD2     N 4505   3.502   2.066   1.391  0.2667  0.3746  0.2402
  295MPD2    H5 4506   3.541   2.007   1.464 -1.2743 -0.8013  0.1238
  295MPD2    N1 4507   3.537   2.166   0.909 -0.8309  0.0023  0.7290
  295MPD2    H7 4508   3.438   2.188   0.908 -0.7416  0.3908  0.6440
  296TMC3    C1 4509   3.321   2.077   1.538 -0.1778  1.2987 -0.2737
  296TMC3    C2 4510   3.220   2.165   1.591  1.1283  0.1643  0.2120
  296TMC3    C3 4511   3.141   2.126   1.694 -0.1593 -0.3431  0.2910
  296TMC3    C4 4512   3.321   1.945   1.586 -0.0055 -0.2614 -0.0700
  296TMC3    C5 4513   3.237   1.913   1.687  0.3352 -0.5816 -0.2929
  296TMC3    C6 4514   3.149   1.998   1.744 -0.1478 -0.6000  0.6547
  296TMC3     C 4515   3.376   2.102   1.405 -0.1478 -0.0112 -0.5808
  296TMC3     O 4516   3.306   2.171   1.332  0.0348 -0.1427 -0.0117
  296TMC3     H 4517   3.212   2.270   1.565 -0.3593  0.2305  0.9303
  296TMC3    H1 4518   3.399   1.879   1.551 -1.1195 -2.1450  0.9850
  296TMC3    H2 4519   3.080   1.973   1.824 -1.3504 -2.0479 -0.8303
  296TMC3    C7 4520   3.234   1.774   1.729  0.5072 -0.5932  0.2483
  296TMC3    C8 4521   3.040   2.213   1.748  0.1270 -0.3791  0.4727
  296TMC3    O1 4522   3.219   1.744   1.849 -0.1973 -0.0184  0.3308
  296TMC3    O2 4523   3.030   2.203   1.872 -0.1134  0.7810  0.2617
  297MPD2     C 4524   0.745   3.024  16.267  0.7546  0.3648  0.5699
  297MPD2    C1 4525   0.737   3.089  16.147  0.1614  0.5287  0.0179
  297MPD2    C2 4526   0.829   3.185  16.122  0.9156  0.5571 -0.1435
  297MPD2    C3 4527   0.927   3.224  16.214 -0.3525 -0.0495  0.2348
  297MPD2    C4 4528   0.932   3.167  16.342 -0.7372  0.2602  0.1529
  297MPD2    C5 4529   0.845   3.059  16.357 -0.5450  0.2195 -0.5643
  297MPD2     H 4530   0.818   3.243  16.031  0.6651  0.7936  0.0388
  297MPD2    H1 4531   1.004   3.195  16.417 -0.9984  0.5731  0.2855
  297MPD2    H2 4532   0.679   2.943  16.296 -0.1046  0.8278 -0.0897
  297MPD2    H3 4533   0.848   3.011  16.454  0.2701 -1.4013 -1.3823
  297MPD2     N 4534   1.014   3.330  16.180 -0.7360 -0.1186  0.3707
  297MPD2    H5 4535   1.020   3.342  16.079  1.7734 -0.7291  0.4344
  297MPD2    N1 4536   0.640   3.061  16.049  0.1955 -0.9777  0.3754
  297MPD2    H7 4537   0.646   3.094  15.954  0.1544  2.2918  1.5227
  298TMC3    C1 4538   0.427   3.084  15.982  0.2223  0.2414 -0.1349
  298TMC3    C2 4539   0.485   3.130  15.865  0.0413  0.1664 -0.0452
  298TMC3    C3 4540   0.441   3.244  15.805  0.3700 -0.0740  0.0488
  298TMC3    C4 4541   0.315   3.149  16.027 -0.2870 -0.7002  0.2242
  298TMC3    C5 4542   0.269   3.262  15.954 -0.6520 -0.0887 -0.5750
  298TMC3    C6 4543   0.329   3.309  15.842 -0.0284  0.0399  0.7014
  298TMC3     C 4544   0.511   3.013  16.081  0.0546  0.0035 -0.1715
  298TMC3     O 4545   0.463   2.979  16.186  0.1387 -0.0372 -0.0453
  298TMC3     H 4546   0.573   3.082  15.824  1.0778  3.0256 -1.1621
  298TMC3    H1 4547   0.267   3.123  16.121  0.8844 -0.3774  0.9001
  298TMC3    H2 4548   0.307   3.400  15.786 -0.0081 -0.2111  0.2825
  298TMC3    C7 4549   0.153   3.330  16.010 -0.3341  1.0815  0.5034
  298TMC3    C8 4550   0.547   3.329  15.786  0.9428 -0.1189 -0.3783
  298TMC3    O1 4551   0.119   3.312  16.125  0.2890  0.3559  0.1223
  298TMC3    O2 4552   0.626   3.314  15.693  0.1465  0.2148 -0.6712
  299MPD2     C 4553   1.340   3.400  10.518  0.5372  0.5804 -0.2925
  299MPD2    C1 4554   1.328   3.271  10.576 -0.5650 -0.0188 -0.3803
  299MPD2    C2 4555   1.242   3.184  10.529  0.0748  0.4677  0.1619
  299MPD2    C3 4556   1.155   3.218  10.434  0.0621  0.1635 -0.6468
  299MPD2    C4 4557   1.161   3.340  10.369 -0.1897 -0.0575 -0.0538
  299MPD2    C5 4558   1.259   3.429  10.414  0.3422 -0.0042 -0.5446
  299MPD2     H 4559   1.243   3.086  10.576 -1.9566  0.9868  1.2969
  299MPD2    H1 4560   1.099   3.368  10.285  0.0618 -0.2954 -0.3148
  299MPD2    H2 4561   1.404   3.479  10.557  1.0596 -0.4918  1.0277
  299MPD2    H3 4562   1.263   3.525  10.364  3.3065 -0.4832 -1.2657
  299MPD2     N 4563   1.063   3.127  10.376  0.4356  0.2722  0.0400
  299MPD2    H5 4564   0.998   3.159  10.305 -0.3335 -2.1799 -0.3670
  299MPD2    N1 4565   1.418   3.233  10.681 -0.2645  0.5605  0.0901
  299MPD2    H7 4566   1.485   3.308  10.696 -0.4723  0.6111  0.8056
  300TMC3    C1 4567   0.938   2.930  10.344 -0.0334  0.2565  0.6343
  300TMC3    C2 4568   0.854   3.000  10.264 -0.0477 -0.3569  0.1691
  300TMC3    C3 4569   0.717   2.998  10.292  0.3134 -0.0605  0.3118
  300TMC3    C4 4570   0.881   2.843  10.442 -0.2042  0.4696 -1.0523
  300TMC3    C5 4571   0.747   2.835  10.457 -0.7430  0.1019  0.4645
  300TMC3    C6 4572   0.669   2.922  10.400  1.1833  0.3106 -0.7056
  300TMC3     C 4573   1.055   2.991  10.404  0.6656  0.8175  0.1894
  300TMC3     O 4574   1.113   2.930  10.490 -0.0782  0.0944  0.2343
  300TMC3     H 4575   0.894   3.046  10.175 -1.2690  1.9184  0.8179
  300TMC3    H1 4576   0.935   2.780  10.511 -0.6933  2.7225  1.3849
  300TMC3    H2 4577   0.570   2.946  10.435  0.5968  0.9220 -2.7848
  300TMC3    C7 4578   0.702   2.783  10.587  0.4961 -0.6437 -0.7736
  300TMC3    C8 4579   0.657   3.131  10.278  0.1501  0.0489 -0.5286
  300TMC3    O1 4580   0.682   2.661  10.595 -0.1099  0.2715 -0.8455
  300TMC3    O2 4581   0.739   3.212  10.241 -0.1576 -0.9021  0.4528
  301MPD2     C 4582   3.733   4.703   1.149  0.1923 -0.2119  0.1286
  301MPD2    C1 4583   3.600   4.672   1.105  0.0689 -0.5783 -0.1196
  301MPD2    C2 4584   3.555   4.545   1.077 -0.0411 -0.7115 -0.7854
  301MPD2    C3 4585   3.641   4.439   1.088  0.0091  0.0726  0.6346
  301MPD2    C4 4586   3.773   4.468   1.113 -0.1137 -0.2612  0.2363
  301MPD2    C5 4587   3.819   4.599   1.136  0.6974  0.0279  0.6753
  301MPD2     H 4588   3.453   4.538   1.038 -0.4061 -1.1684  0.2621
  301MPD2    H1 4589   3.856   4.399   1.120 -0.2668 -0.4629  0.0596
  301MPD2    H2 4590   3.774   0.063   1.161  1.2364 -0.9058  2.3779
  301MPD2    H3 4591   3.921   4.603   1.171  1.0744  0.2654 -0.4538
  301MPD2     N 4592   3.616   4.303   1.070 -0.2646  0.4762  0.7018
  301MPD2    H5 4593   3.692   4.241   1.095  0.1874  0.1503 -1.5205
  301MPD2    N1 4594   3.504   0.038   1.085 -0.2178 -0.4360  0.9341
  301MPD2    H7 4595   3.408   0.015   1.062 -1.2820  3.2335  1.6573
  302TMC3    C1 4596   3.468   4.110   1.003 -0.7486  0.0315  0.1078
  302TMC3    C2 4597   3.565   4.019   1.021 -0.4197 -0.0096 -0.9397
  302TMC3    C3 4598   3.528   3.889   1.049 -0.6149  0.4393  0.4915
  302TMC3    C4 4599   3.334   4.074   1.015 -0.3902 -0.8169 -0.4440
  302TMC3    C5 4600   3.300   3.942   1.041 -0.4698 -0.4871 -1.0355
  302TMC3    C6 4601   3.396   3.848   1.062 -0.1045 -0.5213 -0.5645
  302TMC3     C 4602   3.494   4.256   1.025 -0.4060 -0.3495  0.3100
  302TMC3     O 4603   3.394   4.321   0.995 -0.0791 -0.4105 -0.5443
  302TMC3     H 4604   3.670   4.036   1.041 -0.9674 -0.5057  2.2882
  302TMC3    H1 4605   3.254   4.147   1.018  2.4492  2.3402 -0.7318
  302TMC3    H2 4606   3.370   3.743   1.077 -0.2781 -0.4845 -0.6041
  302TMC3    C7 4607   3.161   3.907   1.056  0.1914  0.8796 -0.2276
  302TMC3    C8 4608   3.630   3.804   1.104 -0.4981 -0.2276 -0.6060
  302TMC3    O1 4609   3.140   3.793   1.100 -0.0714  0.7693  0.4933
  302TMC3    O2 4610   3.743   3.803   1.061 -0.6634 -0.5651  0.4184
  303MPD2     C 4611   3.569   2.688  10.893 -0.0978  0.0835 -0.4889
  303MPD2    C1 4612   3.593   2.563  10.842 -0.1191 -0.1293  0.2767
  303MPD2    C2 4613   3.532   2.525  10.728 -0.2606 -0.2246 -0.3426
  303MPD2    C3 4614   3.449   2.608  10.656  0.5855 -0.2021 -0.2648
  303MPD2    C4 4615   3.433   2.738  10.699 -0.3945  0.0143  1.0733
  303MPD2    C5 4616   3.490   2.769  10.818 -0.5151  0.5803 -0.2510
  303MPD2     H 4617   3.552   2.425  10.690  0.5848 -0.4098  0.6029
  303MPD2    H1 4618   3.367   2.811  10.653  0.3463  0.1072  0.1657
  303MPD2    H2 4619   3.615   2.722  10.985  0.0169 -0.4595 -0.3418
  303MPD2    H3 4620   3.472   2.866  10.862 -0.8179  0.3834  0.0696
  303MPD2     N 4621   3.376   2.549  10.545  0.1425 -0.0711  0.3092
  303MPD2    H5 4622   3.334   2.621  10.487  1.1114 -0.2474 -0.6173
  303MPD2    N1 4623   3.686   2.481  10.910  0.3729  0.4055 -0.1960
  303MPD2    H7 4624   3.718   2.511  11.002 -1.7358  1.0675  0.3362
  304TMC3    C1 4625   3.812   2.290  10.957  0.5906  0.2470  0.6893
  304TMC3    C2 4626   3.753   2.284  11.076  0.3531  0.3064 -0.3351
  304TMC3    C3 4627   3.782   2.174  11.149  0.4120 -0.7872 -0.3253
  304TMC3    C4 4628   3.900   2.202  10.900  0.2748 -0.0058 -0.4935
  304TMC3    C5 4629   3.943   2.108  10.992  0.3673  0.3087  0.1725
  304TMC3    C6 4630   3.891   2.098  11.118 -0.3906  0.2967 -0.4262
  304TMC3     C 4631   3.743   2.370  10.853  0.1912  0.1430  0.1463
  304TMC3     O 4632   3.764   2.344  10.737  0.2706  0.7198 -0.2958
  304TMC3     H 4633   3.672   2.353  11.098 -1.8900 -2.7061  0.8621
  304TMC3    H1 4634   3.919   2.190  10.794  0.1130 -0.7833 -0.4340
  304TMC3    H2 4635   3.916   2.019  11.188  2.3756 -1.6804 -3.6607
  304TMC3    C7 4636   3.999   1.985  10.940 -0.2166 -0.4024  0.0329
  304TMC3    C8 4637   3.671   2.090  11.183 -0.1399  0.4862  0.0732
  304TMC3    O1 4638   4.063   1.996  10.837 -0.1912 -0.6531  0.5862
  304TMC3    O2 4639   3.691   1.968  11.189 -0.1925  0.5333 -0.0335
  305MPD2     C 4640   1.718   0.147  13.916 -0.2110 -0.8522  0.1211
  305MPD2    C1 4641   1.740   0.022  13.872  0.6528 -0.5966 -0.1838
  305MPD2    C2 4642   1.694   4.727  13.743 -0.1400  0.1371  0.2523
  305MPD2    C3 4643   1.601   0.067  13.673 -0.5299  0.2936  0.3791
  305MPD2    C4 4644   1.581   0.196  13.726 -0.3208 -0.4330 -0.8905
  305MPD2    C5 4645   1.639   0.234  13.846  0.6603  0.4755  0.2723
  305MPD2     H 4646   1.716   4.629  13.701  1.3532  0.9295 -0.8067
  305MPD2    H1 4647   1.533   0.272  13.664  1.0093  1.3712  0.3192
  305MPD2    H2 4648   1.766   0.184  14.005  0.2153  0.5124 -0.6827
  305MPD2    H3 4649   1.612   0.334  13.876 -0.8025  0.0239  0.5043
  305MPD2     N 4650   1.559   0.034  13.542  0.3363  0.1913 -0.4058
  305MPD2    H5 4651   1.529   0.106  13.476  0.1035 -0.1598 -0.6798
  305MPD2    N1 4652   1.788   4.670  13.966 -0.3076  0.2204  0.2645
  305MPD2    H7 4653   1.796   4.707  14.060  0.8803  0.9932 -0.1430
  306TMC3    C1 4654   1.852   4.479  14.065 -0.2485 -0.3068 -0.5903
  306TMC3    C2 4655   1.970   4.419  14.096  0.2667  0.0556 -0.8383
  306TMC3    C3 4656   1.986   4.370  14.227  0.1533  0.2712  0.2204
  306TMC3    C4 4657   1.748   4.494  14.152  0.3717 -0.0767 -0.1830
  306TMC3    C5 4658   1.774   4.452  14.279 -0.3321 -0.3753  0.6181
  306TMC3    C6 4659   1.883   4.390  14.322 -0.0024  0.2030  0.0977
  306TMC3     C 4660   1.837   4.546  13.941 -0.7617  0.1865  0.4255
  306TMC3     O 4661   1.866   4.496  13.833 -0.6316 -0.1957 -1.0711
  306TMC3     H 4662   2.043   4.416  14.016  1.9930 -0.9470  0.7468
  306TMC3    H1 4663   1.651   4.537  14.130  0.3464 -0.1053 -0.1285
  306TMC3    H2 4664   1.875   4.343  14.420  0.7300 -1.1064 -0.4674
  306TMC3    C7 4665   1.670   4.491  14.374 -0.3736  0.1370  0.9198
  306TMC3    C8 4666   2.107   4.302  14.273 -0.3088  0.0619 -0.5416
  306TMC3    O1 4667   1.551   4.497  14.335 -0.5120 -0.0310  0.0703
  306TMC3    O2 4668   2.175   4.249  14.186 -0.0159  0.3560 -0.8427
  307MPD2     C 4669   4.199   3.006   0.202 -0.6185  0.0379  0.5101
  307MPD2    C1 4670   4.204   3.143   0.174 -0.0371  0.0440 -0.1184
  307MPD2    C2 4671   4.191   3.232   0.283  0.0476  0.4721 -0.0401
  307MPD2    C3 4672   4.184   3.186   0.412 -0.1274  0.5329  0.6878
  307MPD2    C4 4673   4.181   3.044   0.439  0.0768  0.3544  0.3044
  307MPD2    C5 4674   4.186   2.963   0.331 -0.3984  0.3888 -0.5555
  307MPD2     H 4675   4.188   3.336   0.255  2.3617 -0.4925 -3.8899
  307MPD2    H1 4676   4.179   2.992   0.533 -1.2546  2.7560  1.6138
  307MPD2    H2 4677   4.210   2.927   0.129 -2.4476 -2.3366  2.7629
  307MPD2    H3 4678   4.197   2.855   0.343  0.7315  0.3641 -1.8972
  307MPD2     N 4679   4.183   3.282   0.516  0.0335  0.0188 -0.1844
  307MPD2    H5 4680   4.158   3.373   0.478  2.1272  0.1937 -1.1096
  307MPD2    N1 4681   4.236   3.198   0.050  0.1816 -0.1053 -0.0053
  307MPD2    H7 4682   4.255   3.297   0.040 -0.6549  0.0365 -0.1493
  308TMC3    C1 4683   4.017   3.431   0.932 -0.2050 -0.1841  0.4130
  308TMC3    C2 4684   3.984   3.556   0.883  0.3478 -0.1975  0.5690
  308TMC3    C3 4685   4.039   3.593   0.759 -1.1303 -0.2813 -0.2626
  308TMC3    C4 4686   4.087   3.343   0.858 -0.4201 -0.5630  0.9811
  308TMC3    C5 4687   4.128   3.371   0.735  0.0871 -0.6504 -0.2163
  308TMC3    C6 4688   4.107   3.502   0.682  0.3856 -0.1583 -0.1487
  308TMC3     C 4689   3.919   3.374   1.016  0.8439  0.6943 -0.7956
  308TMC3     O 4690   3.955   3.284   1.088 -0.2743 -0.5241  0.1386
  308TMC3     H 4691   3.937   3.622   0.955  1.6162  0.6499  0.6154
  308TMC3    H1 4692   4.095   3.240   0.890 -0.0123 -0.8553 -0.0550
  308TMC3    H2 4693   4.159   3.530   0.592 -1.8477  1.4451 -0.9411
  308TMC3    C7 4694   4.179   3.260   0.653  0.9794  0.4051 -0.8945
  308TMC3    C8 4695   4.052   3.731   0.737  0.0997 -0.3328  0.0804
  308TMC3    O1 4696   4.211   3.157   0.715 -0.4199 -0.0374  0.0081
  308TMC3    O2 4697   4.010   3.801   0.828  0.2415  0.1064  0.1954
  309MPD2     C 4698   3.374   3.875  17.189  0.0353  0.1269  0.1070
  309MPD2    C1 4699   3.268   3.840  17.104  0.5565 -0.0347 -0.3339
  309MPD2    C2 4700   3.149   3.798  17.165  0.4771  0.3543 -0.5545
  309MPD2    C3 4701   3.127   3.810  17.297 -0.8671  0.1490 -0.3059
  309MPD2    C4 4702   3.228   3.857  17.374 -0.1720  0.2685  0.4326
  309MPD2    C5 4703   3.352   3.880  17.325  0.9295  0.6591  0.2367
  309MPD2     H 4704   3.072   3.746  17.110  0.0138  2.2918 -1.7445
  309MPD2    H1 4705   3.208   3.877  17.479 -1.1731 -0.5730  0.4022
  309MPD2    H2 4706   3.462   3.918  17.143  1.6736 -0.2351  2.9405
  309MPD2    H3 4707   3.434   3.904  17.393  0.3396  1.1398  0.7754
  309MPD2     N 4708   3.000   3.787  17.361 -0.0191 -0.2039 -0.1551
  309MPD2    H5 4709   3.007   3.818  17.457 -1.0510  0.7586 -0.3896
  309MPD2    N1 4710   3.281   3.844  16.964  0.5901 -0.5226  0.3194
  309MPD2    H7 4711   3.217   3.789  16.906  2.6815 -1.1642 -1.3713
  310TMC3    C1 4712   3.394   3.817  16.771  0.1567 -0.2175 -0.1329
  310TMC3    C2 4713   3.325   3.857  16.663  0.1546  0.1579  0.2859
  310TMC3    C3 4714   3.384   3.856  16.534  0.7310 -0.3474 -0.0956
  310TMC3    C4 4715   3.522   3.769  16.748 -0.1025 -0.0739  0.0749
  310TMC3    C5 4716   3.584   3.768  16.625  0.4252 -0.1213 -0.4610
  310TMC3    C6 4717   3.510   3.800  16.514 -0.1164  0.7800 -0.5329
  310TMC3     C 4718   3.389   3.888  16.896 -1.0377  0.4595 -0.1119
  310TMC3     O 4719   3.475   3.969  16.926 -0.1275 -0.4456 -0.6450
  310TMC3     H 4720   3.232   3.904  16.691  1.1393  0.7039  2.6641
  310TMC3    H1 4721   3.585   3.737  16.830 -0.9316  0.2230  0.8267
  310TMC3    H2 4722   3.549   3.785  16.414  1.0205 -2.2808  0.3947
  310TMC3    C7 4723   3.684   3.669  16.616  0.0088 -0.0663 -0.2244
  310TMC3    C8 4724   3.312   3.905  16.414  0.3913 -0.1636 -0.3741
  310TMC3    O1 4725   3.668   3.589  16.529  0.2614 -0.2672 -0.7000
  310TMC3    O2 4726   3.192   3.916  16.416  0.1407 -0.8486  0.1473
  311MPD2     C 4727   0.745   4.049  12.645 -0.5631 -0.1815  0.0410
  311MPD2    C1 4728   0.715   4.160  12.718  0.0160 -0.0351 -0.1706
  311MPD2    C2 4729   0.584   4.166  12.777 -0.3229  0.1778  0.4348
  311MPD2    C3 4730   0.493   4.065  12.756  0.0610 -0.1986  0.4218
  311MPD2    C4 4731   0.519   3.960  12.668  0.2932 -0.1774  0.1668
  311MPD2    C5 4732   0.644   3.959  12.611 -0.9525  1.0693 -0.3903
  311MPD2     H 4733   0.565   4.254  12.838 -2.9188  0.3256 -0.5764
  311MPD2    H1 4734   0.461   3.871  12.648 -0.8681  0.9847 -1.6646
  311MPD2    H2 4735   0.842   4.018  12.610  0.2535  2.3496  0.0070
  311MPD2    H3 4736   0.674   3.880  12.542 -1.8793 -0.0811  0.5180
  311MPD2     N 4737   0.379   4.075  12.831  0.0750 -0.4738  0.1952
  311MPD2    H5 4738   0.380   4.145  12.905 -0.8166  1.0181 -1.1872
  311MPD2    N1 4739   0.820   4.244  12.758  0.1284 -0.1015 -0.4816
  311MPD2    H7 4740   0.796   4.313  12.828  1.5959 -0.8867  0.8246
  312TMC3    C1 4741   0.162   4.043  12.904  0.5670  0.7057 -0.1302
  312TMC3    C2 4742   0.050   3.971  12.886 -0.1504  0.0203 -0.1795
  312TMC3    C3 4743   4.678   4.036  12.917 -0.2724  0.3580  0.3102
  312TMC3    C4 4744   0.167   4.171  12.948  0.2291 -0.5348  0.0187
  312TMC3    C5 4745   0.053   4.224  12.990 -0.2564  0.1993 -0.5624
  312TMC3    C6 4746   4.676   4.160  12.966  0.0731 -0.2290 -0.1784
  312TMC3     C 4747   0.269   3.994  12.822  0.0952  0.5798 -0.3670
  312TMC3     O 4748   0.245   3.910  12.739  0.4610  0.4873 -0.1611
  312TMC3     H 4749   0.044   3.874  12.838 -0.8973 -0.4933  0.9599
  312TMC3    H1 4750   0.258   4.230  12.952  1.2832 -2.2346  1.1808
  312TMC3    H2 4751   4.580   4.204  12.993 -0.3722 -1.3814  0.1060
  312TMC3    C7 4752   0.048   4.369  13.019  0.0506  0.8614  0.1631
  312TMC3    C8 4753   4.556   3.956  12.910 -0.2909  0.5782 -0.5168
  312TMC3    O1 4754   0.043   4.443  12.921  0.2029 -0.3271 -0.1344
  312TMC3    O2 4755   4.570   3.836  12.937  0.0863 -0.3786 -0.2494
  313MPD2     C 4756   4.555   3.521  11.238 -0.1804 -0.6467  0.7838
  313MPD2    C1 4757   4.630   3.585  11.145  0.7664 -0.7631  0.2700
  313MPD2    C2 4758   0.009   3.535  11.102 -0.0205  0.1161 -0.5499
  313MPD2    C3 4759   0.068   3.432  11.167 -0.1672 -1.4297 -0.3266
  313MPD2    C4 4760   4.735   3.371  11.268 -0.3641  0.1659 -0.7533
  313MPD2    C5 4761   4.612   3.415  11.303 -0.7328  0.0796  0.3668
  313MPD2     H 4762   0.052   3.586  11.016 -0.2329  0.3490 -0.5179
  313MPD2    H1 4763   0.022   3.285  11.328 -1.3102  1.0261  0.9165
  313MPD2    H2 4764   4.464   3.556  11.286  1.1158  0.3800  2.4900
  313MPD2    H3 4765   4.568   3.373  11.393 -0.9205 -1.2889 -0.3650
  313MPD2     N 4766   0.199   3.405  11.131 -0.2887 -0.0160  0.0185
  313MPD2    H5 4767   0.248   3.468  11.068 -1.6872  3.3154  2.2555
  313MPD2    N1 4768   4.578   3.703  11.091  0.5994 -0.0810  0.1915
  313MPD2    H7 4769   4.641   3.748  11.025  1.2525  1.3499  1.7880
  314TMC3    C1 4770   4.459   3.894  11.050 -0.3233  0.3565  0.2983
  314TMC3    C2 4771   4.566   3.978  11.073  0.0842 -0.0646 -0.0811
  314TMC3    C3 4772   4.574   4.090  10.996 -0.4566  0.3261  1.3206
  314TMC3    C4 4773   4.364   3.921  10.954 -0.2194  0.1548  0.0455
  314TMC3    C5 4774   4.386   4.021  10.868 -0.3409 -1.1250  0.5274
  314TMC3    C6 4775   4.495   4.103  10.884  0.0269  0.9607  0.2387
  314TMC3     C 4776   4.459   3.764  11.108 -0.7165 -0.6108 -0.6516
  314TMC3     O 4777   4.354   3.717  11.150 -0.2232  0.2559 -0.1106
  314TMC3     H 4778   4.639   3.951  11.148  0.0177 -2.1120 -0.7449
  314TMC3    H1 4779   4.288   3.845  10.938  0.6231 -0.7569  0.3840
  314TMC3    H2 4780   4.516   4.194  10.829  0.3682  1.0128  0.4574
  314TMC3    C7 4781   4.352   3.975  10.737 -1.0249  0.1843 -0.3277
  314TMC3    C8 4782   4.685   4.183  11.021 -0.5031  0.0939 -0.0429
  314TMC3    O1 4783   4.249   3.919  10.716 -0.6290  0.0992  0.0068
  314TMC3    O2 4784   4.719   4.254  10.922  0.1623 -0.1608  0.2783
  315MPD2     C 4785   4.451   2.871  17.380  0.1317  0.7148  0.5500
  315MPD2    C1 4786   4.515   2.885  17.502 -0.1637  0.4711  0.0005
  315MPD2    C2 4787   4.577   3.006  17.518  0.3273  0.6392  0.6504
  315MPD2    C3 4788   4.598   3.098  17.421  0.2202 -0.3742  0.4446
  315MPD2    C4 4789   4.547   3.065  17.295 -0.1693 -0.2877 -0.2022
  315MPD2    C5 4790   4.465   2.959  17.285 -0.3081  0.0332  0.1548
  315MPD2     H 4791   4.613   3.039  17.615  0.0083  1.4590  0.4913
  315MPD2    H1 4792   4.557   3.129  17.209 -1.6542 -0.4427 -0.4885
  315MPD2    H2 4793   4.403   2.777  17.356  0.5913  0.3422  1.0837
  315MPD2    H3 4794   4.425   2.949  17.185  1.1900 -2.9675 -0.1395
  315MPD2     N 4795   4.689   3.202  17.447  0.3489  0.3504  0.2759
  315MPD2    H5 4796   0.007   3.196  17.530  1.0316  0.9896 -0.1601
  315MPD2    N1 4797   4.523   2.785  17.604  0.0501  0.3214 -0.1276
  315MPD2    H7 4798   4.580   2.808  17.685 -0.3275  0.9106 -0.0286
  316TMC3    C1 4799   0.061   3.407  17.419  0.0359 -0.1186  0.2086
  316TMC3    C2 4800   0.156   3.367  17.514  0.0315  0.2445 -0.3591
  316TMC3    C3 4801   0.267   3.445  17.521  0.0946  0.4117 -0.1976
  316TMC3    C4 4802   0.074   3.522  17.345 -0.3863 -0.7352  0.6942
  316TMC3    C5 4803   0.199   3.585  17.347 -0.2667 -1.1374 -0.8883
  316TMC3    C6 4804   0.294   3.544  17.431  0.2389 -0.0085  0.4543
  316TMC3     C 4805   4.697   3.316  17.368 -0.2564  0.3872 -0.0554
  316TMC3     O 4806   4.630   3.349  17.269 -0.1297  0.1433 -0.2012
  316TMC3     H 4807   0.151   3.276  17.573  0.7488  0.1504 -0.4428
  316TMC3    H1 4808   0.014   3.538  17.257 -0.3342  0.7130  0.9129
  316TMC3    H2 4809   0.395   3.583  17.431  0.7056 -1.2456  0.4446
  316TMC3    C7 4810   0.222   3.709  17.273  0.4114  0.2494 -0.3386
  316TMC3    C8 4811   0.351   3.433  17.638 -0.1027 -0.2498  0.0220
  316TMC3    O1 4812   0.313   3.783  17.314 -0.0889  0.3961  0.5015
  316TMC3    O2 4813   0.468   3.482  17.630  0.2209 -0.5025  0.8812
  317MPD2     C 4814   1.951   1.243  12.920  0.4880  0.3093 -0.9001
  317MPD2    C1 4815   2.016   1.125  12.907  0.2583  0.4939  0.4225
  317MPD2    C2 4816   2.086   1.071  13.011 -0.4280 -0.2040 -0.2014
  317MPD2    C3 4817   2.099   1.131  13.132 -0.1093  0.3048 -0.3946
  317MPD2    C4 4818   2.030   1.255  13.144 -0.3423  0.0726  0.3855
  317MPD2    C5 4819   1.957   1.307  13.039  0.9214 -0.2068 -0.3835
  317MPD2     H 4820   2.128   0.974  12.989 -1.2985 -0.3011 -1.4297
  317MPD2    H1 4821   2.047   1.318  13.230 -0.0395  3.2285 -1.9853
  317MPD2    H2 4822   1.891   1.294  12.846 -0.6543  0.7311  0.3134
  317MPD2    H3 4823   1.906   1.402  13.051  2.1604  0.3309  0.5776
  317MPD2     N 4824   2.145   1.058  13.243  0.3348  0.2504 -0.6862
  317MPD2    H5 4825   2.188   0.967  13.230  0.1859 -0.0467  0.8263
  317MPD2    N1 4826   2.014   1.055  12.792  0.0159 -0.4998 -0.1893
  317MPD2    H7 4827   2.086   0.986  12.776 -2.2729 -1.8472 -4.7164
  318TMC3    C1 4828   2.190   1.006  13.465  0.4261  0.4977  0.5334
  318TMC3    C2 4829   2.121   0.891  13.463  0.1298 -0.4355  0.7243
  318TMC3    C3 4830   2.159   0.792  13.554  0.5435  0.4641 -0.3264
  318TMC3    C4 4831   2.288   1.034  13.553 -0.4107  0.1799 -0.2734
  318TMC3    C5 4832   2.328   0.935  13.642  0.6000 -0.5545  0.3288
  318TMC3    C6 4833   2.261   0.813  13.642  0.5125 -0.0266  0.2860
  318TMC3     C 4834   2.151   1.108  13.373  0.4530  0.2731 -0.2510
  318TMC3     O 4835   2.152   1.221  13.418 -0.2958 -0.1587  0.6674
  318TMC3     H 4836   2.048   0.876  13.384 -0.3604 -1.6511  1.4157
  318TMC3    H1 4837   2.345   1.126  13.548 -0.7915  0.4988  1.3385
  318TMC3    H2 4838   2.290   0.740  13.716  0.3521 -0.3954 -0.0170
  318TMC3    C7 4839   2.471   0.945  13.659 -0.1197  0.9043 -0.3142
  318TMC3    C8 4840   2.106   0.655  13.550 -0.1222 -0.0151 -1.0987
  318TMC3    O1 4841   2.526   1.051  13.633 -0.7568 -0.6930 -0.2744
  318TMC3    O2 4842   2.175   0.568  13.599  0.0024  0.0127 -0.3934
  319MPD2     C 4843   3.017   2.990  16.172 -0.0066 -0.0147  0.5369
  319MPD2    C1 4844   2.942   2.925  16.274 -0.2251  0.3237  0.3736
  319MPD2    C2 4845   2.853   2.830  16.243  0.0839  0.5597 -0.8717
  319MPD2    C3 4846   2.818   2.808  16.109  0.0553 -0.1079 -0.5041
  319MPD2    C4 4847   2.888   2.871  16.009 -0.3582  0.0949 -0.7470
  319MPD2    C5 4848   2.990   2.955  16.041  1.1048 -0.0619  0.5015
  319MPD2     H 4849   2.801   2.775  16.320  1.3780 -1.1925 -1.2544
  319MPD2    H1 4850   2.866   2.853  15.904 -0.2077  1.4941 -1.0167
  319MPD2    H2 4851   3.099   3.060  16.177  0.3125 -0.4042  0.8119
  319MPD2    H3 4852   3.058   3.002  15.971 -0.8378  1.1798 -0.5933
  319MPD2     N 4853   2.711   2.716  16.072  0.2637  0.3955  0.9000
  319MPD2    H5 4854   2.692   2.699  15.974 -0.5978 -0.0379  1.1480
  319MPD2    N1 4855   2.953   2.953  16.417 -0.4054  0.0473 -0.6867
  319MPD2    H7 4856   2.883   2.911  16.477  0.6771 -0.8525 -0.0582
  320TMC3    C1 4857   2.550   2.553  16.081 -0.4692  0.4675 -0.9484
  320TMC3    C2 4858   2.481   2.617  15.981 -0.7764  0.1803  0.2295
  320TMC3    C3 4859   2.362   2.554  15.957 -0.9455 -0.8142  0.7282
  320TMC3    C4 4860   2.512   2.451  16.149 -0.1844 -0.2271 -0.1437
  320TMC3    C5 4861   2.389   2.397  16.134  0.2935 -0.5219 -0.4388
  320TMC3    C6 4862   2.311   2.448  16.030  0.1077  1.1134 -0.3112
  320TMC3     C 4863   2.648   2.631  16.156 -0.4438 -0.1143 -0.3706
  320TMC3     O 4864   2.657   2.611  16.278 -0.2909  0.0925 -0.3275
  320TMC3     H 4865   2.511   2.705  15.926  0.4729  0.0937  0.7456
  320TMC3    H1 4866   2.585   2.414  16.220 -1.2100 -2.1044 -0.0597
  320TMC3    H2 4867   2.204   2.429  16.030  0.3289 -0.1518  0.2900
  320TMC3    C7 4868   2.358   2.267  16.190 -0.1295  0.2348 -0.2100
  320TMC3    C8 4869   2.283   2.609  15.847  0.0335  0.3999  0.2981
  320TMC3    O1 4870   2.257   2.221  16.136  0.3534  0.5062 -0.4549
  320TMC3    O2 4871   2.316   2.716  15.801 -0.0502 -0.1426  0.4636
  321TMC3    C1 4872   2.998   3.061  16.612  0.1222 -0.4627  0.4362
  321TMC3    C2 4873   2.891   2.994  16.675 -0.8597  0.3247 -0.8038
  321TMC3    C3 4874   2.848   3.047  16.795 -0.1047  0.1239  0.0546
  321TMC3    C4 4875   3.060   3.168  16.673 -0.0250  0.8342 -0.2325
  321TMC3    C5 4876   2.998   3.230  16.779 -0.4618 -0.3108  0.2621
  321TMC3    C6 4877   2.888   3.172  16.837 -0.4818 -0.1240  0.5919
  321TMC3     C 4878   3.034   3.042  16.482  1.0833 -0.2503 -0.5055
  321TMC3     O 4879   3.132   3.100  16.439 -0.4717 -0.7268  0.3446
  321TMC3     H 4880   2.858   2.893  16.654 -1.7446  0.1459  1.4007
  321TMC3    H1 4881   3.150   3.207  16.627 -0.3021  2.2274  0.4018
  321TMC3    H2 4882   2.822   3.222  16.908 -0.3259  0.9862 -0.0486
  321TMC3    C7 4883   3.077   3.277  16.887  0.6441  0.0158  0.7857
  321TMC3    C8 4884   2.842   2.953  16.908 -0.0176  0.2632  0.0434
  321TMC3    O1 4885   3.029   3.255  17.000  0.4379 -0.2526  0.0644
  321TMC3    O2 4886   2.821   2.836  16.887  0.1047 -0.1027 -0.0453
  322MPD2     C 4887   1.547   3.618  12.917 -0.1841  0.0452 -0.1752
  322MPD2    C1 4888   1.576   3.618  13.056  0.2863 -0.2624 -0.1328
  322MPD2    C2 4889   1.614   3.496  13.108 -0.0139 -0.2971  0.7756
  322MPD2    C3 4890   1.621   3.381  13.036 -0.2404 -0.6360 -0.4384
  322MPD2    C4 4891   1.590   3.385  12.904 -0.1430 -0.1873  0.0124
  322MPD2    C5 4892   1.556   3.503  12.843  0.6178  0.0612  0.3092
  322MPD2     H 4893   1.637   3.483  13.214 -0.1569 -1.2969  0.6808
  322MPD2    H1 4894   1.595   3.296  12.843 -0.9253 -0.6392  0.5962
  322MPD2    H2 4895   1.521   3.703  12.856 -0.4099  1.8929  2.4837
  322MPD2    H3 4896   1.538   3.514  12.737  0.2935 -0.1503  0.3425
  322MPD2     N 4897   1.658   3.259  13.106 -0.0564 -0.4177 -0.2352
  322MPD2    H5 4898   1.683   3.283  13.202 -0.4014  3.0241 -1.0231
  322MPD2    N1 4899   1.574   3.734  13.134 -0.3792  0.3950 -0.1506
  322MPD2    H7 4900   1.573   3.824  13.086 -1.2696  0.2558 -0.4080
  323TMC3    C1 4901   1.633   3.841  13.337 -0.8642  0.1898 -0.0639
  323TMC3    C2 4902   1.752   3.881  13.280  0.3208  0.1806  0.2748
  323TMC3    C3 4903   1.859   3.918  13.358  0.4015 -0.5957  0.7853
  323TMC3    C4 4904   1.631   3.824  13.476 -0.2268 -0.0931 -0.2604
  323TMC3    C5 4905   1.741   3.856  13.543  0.4946  0.2630 -0.2173
  323TMC3    C6 4906   1.857   3.905  13.490  0.2988 -0.0329 -0.0571
  323TMC3     C 4907   1.575   3.724  13.271 -0.4924  0.3880  0.3438
  323TMC3     O 4908   1.540   3.635  13.349 -0.4054  0.0231  0.6626
  323TMC3     H 4909   1.764   3.892  13.173  0.8704  0.7319  0.3882
  323TMC3    H1 4910   1.531   3.802  13.510  0.0333  0.5678  0.9327
  323TMC3    H2 4911   1.944   3.940  13.544  1.6698 -0.1749 -2.1679
  323TMC3    C7 4912   1.746   3.821  13.685  0.5130 -0.1979  1.0531
  323TMC3    C8 4913   1.983   3.974  13.298  0.3121 -0.0287 -0.2350
  323TMC3    O1 4914   1.650   3.770  13.732  0.0746  0.2290  0.0337
  323TMC3    O2 4915   2.082   3.973  13.368  0.1356  0.2553 -0.0426
  324MPD2     C 4916   3.416   4.578  14.218 -0.0243  0.0136  0.2767
  324MPD2    C1 4917   3.417   4.711  14.263 -0.5765  0.1513 -0.5970
  324MPD2    C2 4918   3.302   0.044  14.275 -0.5828  0.0076  0.2267
  324MPD2    C3 4919   3.177   4.725  14.244  0.2281  0.1780  0.5789
  324MPD2    C4 4920   3.182   4.594  14.193 -0.2863  0.1555  0.2867
  324MPD2    C5 4921   3.299   4.526  14.186 -0.1936  0.6487  0.2596
  324MPD2     H 4922   3.310   0.144  14.315  0.2635  1.4078 -3.4303
  324MPD2    H1 4923   3.090   4.546  14.159  0.1341 -1.4800  1.4876
  324MPD2    H2 4924   3.501   4.512  14.210 -2.0863 -2.4143 -1.8843
  324MPD2    H3 4925   3.299   4.426  14.145  1.0093 -0.2184  2.3581
  324MPD2     N 4926   3.053   0.053  14.246 -0.0059  0.6570 -0.4203
  324MPD2    H5 4927   2.972   0.002  14.211 -0.9823  0.7698  1.6579
  324MPD2    N1 4928   3.541   0.016  14.316  0.2636 -0.6935  0.7564
  324MPD2    H7 4929   3.625   4.712  14.279 -0.5413 -0.1692 -1.7590
  325TMC3    C1 4930   2.910   0.235  14.242  0.7448  0.6601 -0.2256
  325TMC3    C2 4931   2.803   0.147  14.254 -0.2820  0.5205 -0.1164
  325TMC3    C3 4932   2.681   0.192  14.220 -0.3678 -0.0756 -0.4710
  325TMC3    C4 4933   2.892   0.367  14.208 -0.6029  0.2210 -0.4302
  325TMC3    C5 4934   2.764   0.413  14.183 -0.8328  0.1130 -0.1738
  325TMC3    C6 4935   2.656   0.325  14.175 -0.0264  0.0346 -0.9799
  325TMC3     C 4936   3.042   0.190  14.273 -0.2039  0.0763  0.4228
  325TMC3     O 4937   3.132   0.273  14.292  0.4455 -0.1134  0.1383
  325TMC3     H 4938   2.810   0.048  14.299  1.7986 -0.1924 -2.0390
  325TMC3    H1 4939   2.973   0.438  14.198 -0.4549  0.1183  0.0450
  325TMC3    H2 4940   2.557   0.368  14.158  0.3023  0.0832 -2.7195
  325TMC3    C7 4941   2.749   0.535  14.107  0.0832  0.7647 -0.1719
  325TMC3    C8 4942   2.598   0.083  14.178 -0.0198 -0.0582 -0.5409
  325TMC3    O1 4943   2.828   0.558  14.019  0.5292  0.2395  0.1056
  325TMC3    O2 4944   2.651   4.721  14.149 -0.1175  0.2656  0.0043
  326MPD2     C 4945   0.341   1.334  11.423 -0.4120 -0.5916  0.8880
  326MPD2    C1 4946   0.330   1.336  11.284  0.5073  0.2655  0.0446
  326MPD2    C2 4947   0.435   1.380  11.212 -0.0386  0.0330 -0.3478
  326MPD2    C3 4948   0.552   1.428  11.271 -0.7586  0.0586  0.5042
  326MPD2    C4 4949   0.565   1.422  11.411 -0.7015  0.2407  0.3742
  326MPD2    C5 4950   0.455   1.381  11.483 -0.0821  0.4836  0.3353
  326MPD2     H 4951   0.422   1.392  11.105  1.0072  0.4362 -0.4394
  326MPD2    H1 4952   0.646   1.458  11.474  0.1676  0.4182 -0.8603
  326MPD2    H2 4953   0.260   1.309  11.490 -0.7263 -1.2913  0.2508
  326MPD2    H3 4954   0.474   1.376  11.590  1.2299 -0.9740  0.0309
  326MPD2     N 4955   0.658   1.484  11.201 -0.2167 -0.0505  0.1287
  326MPD2    H5 4956   0.732   1.530  11.254 -1.1534  0.4205  1.0206
  326MPD2    N1 4957   0.209   1.304  11.222  0.3394  0.1062 -0.2864
  326MPD2    H7 4958   0.207   1.321  11.122 -1.0565 -0.7739 -0.4171
  327TMC3    C1 4959   4.733   1.231  11.183 -0.3458 -0.3588 -0.0099
  327TMC3    C2 4960   4.686   1.341  11.122 -0.1570  0.3546 -0.4525
  327TMC3    C3 4961   4.614   1.323  11.008 -0.2235 -0.3136  1.0209
  327TMC3    C4 4962   4.714   1.109  11.137 -0.1575 -0.1098  0.1148
  327TMC3    C5 4963   4.649   1.090  11.014  0.5783 -0.5105  0.1221
  327TMC3    C6 4964   4.589   1.200  10.955  0.6113  0.7398  0.1006
  327TMC3     C 4965   0.099   1.250  11.280  0.4890 -0.2526  0.0233
  327TMC3     O 4966   0.103   1.185  11.383 -0.4969  0.0804  0.0232
  327TMC3     H 4967   4.706   1.442  11.158 -1.1296 -0.0685  1.2702
  327TMC3    H1 4968   0.007   1.028  11.202 -0.2483 -0.5876 -0.4342
  327TMC3    H2 4969   4.529   1.188  10.865  1.2517  2.6394 -0.5919
  327TMC3    C7 4970   0.001   1.040  10.913  0.3283 -0.0087 -0.0217
  327TMC3    C8 4971   4.539   1.440  10.961  0.6270  0.0393 -0.3545
  327TMC3    O1 4972   4.737   1.103  10.807  0.0424 -0.7311 -0.5038
  327TMC3    O2 4973   4.431   1.417  10.903  0.5635 -0.3364  0.0025
  328MPD2     C 4974   2.555   2.459  17.680 -0.4944 -0.2450 -0.4722
  328MPD2    C1 4975   2.495   2.386  17.586 -0.6112 -0.3906 -0.0899
  328MPD2    C2 4976   2.373   2.330  17.607 -0.7823  0.4997  0.1329
  328MPD2    C3 4977   2.308   2.348  17.728 -0.5917 -0.9810 -0.2658
  328MPD2    C4 4978   2.374   2.417   0.067  0.8289  0.2505  0.0823
  328MPD2    C5 4979   2.495   2.476   0.042  0.0018  0.6229 -0.4111
  328MPD2     H 4980   2.320   2.269  17.534  0.8455  0.3769 -0.9628
  328MPD2    H1 4981   2.314   2.468   0.142 -0.7389 -0.0526 -0.9812
  328MPD2    H2 4982   2.648   2.509  17.654  0.0847  0.1052  2.2597
  328MPD2    H3 4983   2.534   2.546   0.114 -0.2848  0.0699  0.2815
  328MPD2     N 4984   2.180   2.294  17.751  0.3612 -0.1526  0.8712
  328MPD2    H5 4985   2.133   2.318   0.080  0.9351  0.9893  0.8569
  328MPD2    N1 4986   2.566   2.369  17.466 -0.2007 -0.1274  0.1477
  328MPD2    H7 4987   2.665   2.385  17.478 -0.0387 -0.5150 -0.7151
  329TMC3    C1 4988   2.607   2.228  17.286  0.1945  0.3856 -0.1734
  329TMC3    C2 4989   2.557   2.117  17.233  0.2656  0.2052 -0.6396
  329TMC3    C3 4990   2.639   2.033  17.159  0.8242 -0.6735 -0.4200
  329TMC3    C4 4991   2.735   2.272  17.262  0.3680  0.1108 -0.4547
  329TMC3    C5 4992   2.812   2.195  17.181 -0.8414  0.4400  0.2938
  329TMC3    C6 4993   2.765   2.077  17.131 -0.1643 -0.4964  0.1218
  329TMC3     C 4994   2.512   2.303  17.361  1.0849 -0.1679  0.0259
  329TMC3     O 4995   2.393   2.310  17.320 -0.8443  0.2415 -0.2125
  329TMC3     H 4996   2.451   2.100  17.247  0.5097  0.0554  1.1278
  329TMC3    H1 4997   2.770   2.363  17.310 -0.1042  1.2584 -2.2855
  329TMC3    H2 4998   2.821   2.027  17.053  0.2616 -1.1016  0.8167
  329TMC3    C7 4999   2.944   2.237  17.144 -0.2858 -0.1022 -0.4626
  329TMC3    C8 5000   2.585   1.904  17.133 -0.2620  0.0597 -0.3811
  329TMC3    O1 5001   3.027   2.148  17.127  0.1513 -0.1736 -0.6115
  329TMC3    O2 5002   2.639   1.836  17.044 -0.1669 -0.1747 -0.0919
  330TMC3    C1 5003   4.639   0.352   9.284 -0.6596  0.1997 -0.2466
  330TMC3    C2 5004   4.547   0.257   9.275  0.3907  0.6216  0.6703
  330TMC3    C3 5005   4.528   0.174   9.381  0.6920  0.3818 -0.2168
  330TMC3    C4 5006   4.723   0.364   9.395  0.0206 -0.3155  0.2166
  330TMC3    C5 5007   4.716   0.270   9.491  0.1326 -0.5272  0.2020
  330TMC3    C6 5008   4.615   0.173   9.493 -0.2853 -0.3964 -0.0909
  330TMC3     C 5009   4.662   0.447   9.175  1.2057 -0.6506 -0.7880
  330TMC3     O 5010   0.022   0.511   9.192  0.0729  0.5229 -0.5427
  330TMC3     H 5011   4.515   0.226   9.176 -1.4870 -0.5824  1.6508
  330TMC3    H1 5012   0.056   0.444   9.392 -1.1249  0.8172  2.9108
  330TMC3    H2 5013   4.601   0.106   9.578 -0.6524 -1.1807 -0.7749
  330TMC3    C7 5014   0.095   0.253   9.567  0.5286  0.0315 -0.8157
  330TMC3    C8 5015   4.412   0.093   9.369 -0.6716 -0.4196 -0.4974
  330TMC3    O1 5016   0.138   0.357   9.606 -0.1024 -0.8915 -0.2519
  330TMC3    O2 5017   4.345   0.101   9.265 -0.3554 -0.4097  0.0335
  331MPD2     C 5018   3.090   4.208  12.648 -0.6495 -0.5229 -0.2726
  331MPD2    C1 5019   3.107   4.157  12.524  0.7148  0.6464 -0.4230
  331MPD2    C2 5020   3.107   4.014  12.511 -0.4614 -0.4279  0.4243
  331MPD2    C3 5021   3.096   3.938  12.620  0.5511  0.5248  0.3758
  331MPD2    C4 5022   3.077   3.997  12.742  0.2768 -0.4292 -0.7171
  331MPD2    C5 5023   3.077   4.132  12.758  0.0554  0.6128 -0.4686
  331MPD2     H 5024   3.110   3.973  12.410  2.8445  0.6805  0.0673
  331MPD2    H1 5025   3.074   3.936  12.831  0.9347  1.0039  0.3029
  331MPD2    H2 5026   3.081   4.316  12.654 -1.8678 -0.5237 -2.2801
  331MPD2    H3 5027   3.065   4.175  12.857  2.0706  1.4646 -0.5846
  331MPD2     N 5028   3.090   3.797  12.602 -0.4681  0.1208  0.8287
  331MPD2    H5 5029   3.079   3.759  12.508 -0.0908  3.5148 -0.5596
  331MPD2    N1 5030   3.125   4.249  12.417 -0.6274 -0.1868  0.0126
  331MPD2    H7 5031   3.104   4.348  12.425  0.8786  0.0799  0.6159
  332TMC3    C1 5032   3.087   3.560  12.680 -0.4446 -0.2273  0.0144
  332TMC3    C2 5033   3.013   3.520  12.571  0.7890  0.2515  1.1625
  332TMC3    C3 5034   2.993   3.387  12.559  0.3694  0.2561 -0.1314
  332TMC3    C4 5035   3.153   3.469  12.763 -0.2950  0.7403 -0.0733
  332TMC3    C5 5036   3.138   3.335  12.734  0.9008  0.0016 -0.2515
  332TMC3    C6 5037   3.058   3.287  12.633  0.5642 -0.1958  0.2460
  332TMC3     C 5038   3.104   3.707  12.706  0.7383  0.6358 -0.2534
  332TMC3     O 5039   3.153   3.728  12.819  0.3435 -0.6682 -0.1091
  332TMC3     H 5040   2.963   3.598  12.515 -0.3185  0.3808  2.3170
  332TMC3    H1 5041   3.200   3.509  12.852 -0.7475 -2.5485  1.6247
  332TMC3    H2 5042   3.065   3.183  12.604 -1.0097 -0.2271 -0.0428
  332TMC3    C7 5043   3.195   3.243  12.826  0.0047  0.0224  0.1018
  332TMC3    C8 5044   2.874   3.347  12.497 -0.6736 -0.4158 -0.5567
  332TMC3    O1 5045   3.157   3.127  12.810  0.3512  0.0860 -0.1523
  332TMC3    O2 5046   2.829   3.442  12.432  0.4439  0.0231 -0.4212
  333MPD2     C 5047   3.335   4.652  10.831  0.2594  0.8979  0.5297
  333MPD2    C1 5048   3.290   4.602  10.708  0.1123 -0.3223  1.1505
  333MPD2    C2 5049   3.229   4.477  10.708  0.7443  0.1242 -0.1604
  333MPD2    C3 5050   3.184   4.414  10.824  0.6206  0.0342 -0.5354
  333MPD2    C4 5051   3.224   4.472  10.939 -0.0296  0.3311 -0.0137
  333MPD2    C5 5052   3.302   4.585  10.943  0.4423 -0.8840 -0.3021
  333MPD2     H 5053   3.205   4.428  10.614  1.3697 -0.4347 -0.0244
  333MPD2    H1 5054   3.197   4.432  11.036 -0.2863  0.8289  0.1179
  333MPD2    H2 5055   3.383   0.009  10.840  0.3761  0.7866  1.1347
  333MPD2    H3 5056   3.344   4.629  11.032 -2.3857 -4.2896  2.7009
  333MPD2     N 5057   3.132   4.280  10.823 -0.6192 -0.8789 -0.5725
  333MPD2    H5 5058   3.139   4.235  10.732 -0.0065 -3.5158  0.7660
  333MPD2    N1 5059   3.354   4.659  10.596  0.1182  0.2298 -0.4457
  333MPD2    H7 5060   3.425   4.729  10.615 -1.2520  1.3281  0.5683
  334TMC3    C1 5061   3.432   4.682  10.375  0.2361 -0.0869 -0.3109
  334TMC3    C2 5062   3.484   4.612  10.266  0.3837  0.0015  0.1434
  334TMC3    C3 5063   3.560   4.671  10.167  0.5657  0.8044 -0.3025
  334TMC3    C4 5064   3.452   0.076  10.372 -0.1388 -0.4134  0.0773
  334TMC3    C5 5065   3.524   0.141  10.275  0.2849 -0.1939 -0.0178
  334TMC3    C6 5066   3.582   0.068  10.173 -0.1317 -0.0333 -0.0502
  334TMC3     C 5067   3.342   4.622  10.469 -0.0404 -0.2458 -0.1650
  334TMC3     O 5068   3.289   4.521  10.425 -0.3652  0.3543  0.1586
  334TMC3     H 5069   3.488   4.505  10.284  0.6824 -0.0843 -0.4300
  334TMC3    H1 5070   3.406   0.137  10.449  3.5236  1.0195  1.1083
  334TMC3    H2 5071   3.643   0.110  10.094 -1.5983  2.3427  0.0821
  334TMC3    C7 5072   3.517   0.288  10.274  0.0261  0.3744  0.2253
  334TMC3    C8 5073   3.681   4.590  10.141  0.0435  0.9695  0.0885
  334TMC3    O1 5074   3.520   0.347  10.383  0.1764 -0.3801  0.0414
  334TMC3    O2 5075   3.678   4.470  10.172 -0.0407  0.0926 -0.3593
  335TMC3    C1 5076   2.900   1.674  17.260 -0.6163 -0.6306  0.3952
  335TMC3    C2 5077   2.825   1.595  17.182  0.0405 -0.3634 -0.1108
  335TMC3    C3 5078   2.871   1.568  17.060  0.3819 -0.0362 -0.0729
  335TMC3    C4 5079   3.032   1.702  17.230 -0.1148  0.3991 -1.1200
  335TMC3    C5 5080   3.081   1.656  17.111 -0.3054 -0.1443 -0.7275
  335TMC3    C6 5081   3.000   1.590  17.027 -0.0268  0.2979  0.5006
  335TMC3     C 5082   2.835   1.723  17.385  0.3854 -0.0907  0.3658
  335TMC3     O 5083   2.739   1.655  17.422  0.1606 -0.3819  0.0602
  335TMC3     H 5084   2.718   1.596  17.199  0.3171  1.5282  1.4625
  335TMC3    H1 5085   3.092   1.762  17.297 -1.7127  1.4063 -0.5845
  335TMC3    H2 5086   3.029   1.557  16.928 -0.6151 -0.0250  0.4336
  335TMC3    C7 5087   3.223   1.646  17.093  0.3531  0.4131 -0.8247
  335TMC3    C8 5088   2.779   1.535  16.963 -0.5256 -1.0105  0.3993
  335TMC3    O1 5089   3.265   1.540  17.042 -0.2726  0.1547 -0.1703
  335TMC3    O2 5090   2.812   1.582  16.852 -0.6130  0.3160 -0.1640
  336MPD2     C 5091   2.417   3.986  15.746  0.1893  0.2502 -0.2590
  336MPD2    C1 5092   2.382   3.909  15.636 -0.3342  0.2218 -0.4194
  336MPD2    C2 5093   2.437   3.783  15.624 -0.2108  0.3199  0.2136
  336MPD2    C3 5094   2.530   3.750  15.717 -1.2407 -0.6058 -0.7425
  336MPD2    C4 5095   2.561   3.825  15.828 -0.4802  0.3031  0.0611
  336MPD2    C5 5096   2.498   3.949  15.849  0.1490  0.3707  0.2273
  336MPD2     H 5097   2.416   3.716  15.542  1.0353  1.2349 -0.8419
  336MPD2    H1 5098   2.615   3.785  15.913 -2.2813  0.5380  1.3202
  336MPD2    H2 5099   2.361   4.075  15.772  1.0840  0.4761  0.8754
  336MPD2    H3 5100   2.514   4.019  15.930 -0.6318  0.2482  0.4880
  336MPD2     N 5101   2.596   3.624  15.725 -0.0691 -0.6164  0.3396
  336MPD2    H5 5102   2.650   3.595  15.806  1.2910 -0.9321 -0.6798
  336MPD2    N1 5103   2.293   3.959  15.537  0.3151 -0.3657 -0.1012
  336MPD2    H7 5104   2.277   3.902  15.455 -2.1235  2.0073 -1.2769
  337TMC3    C1 5105   2.173   4.122  15.417 -0.4043 -0.2436 -0.8690
  337TMC3    C2 5106   2.100   4.020  15.360 -0.6180 -0.2771  0.4363
  337TMC3    C3 5107   2.036   4.040  15.239  0.2640 -0.0740 -0.1130
  337TMC3    C4 5108   2.201   4.238  15.355 -0.4082 -0.3186  0.4424
  337TMC3    C5 5109   2.145   4.256  15.232 -0.4093  0.8270 -0.1694
  337TMC3    C6 5110   2.055   4.162  15.179  0.3862 -0.2868  0.7543
  337TMC3     C 5111   2.250   4.093  15.534 -0.2730 -0.4172 -0.0757
  337TMC3     O 5112   2.255   4.190  15.612 -0.8482  0.0933  0.1704
  337TMC3     H 5113   2.076   3.936  15.425  0.1111 -2.0174 -1.5550
  337TMC3    H1 5114   2.258   4.312  15.410  0.7245 -0.2873 -0.7666
  337TMC3    H2 5115   2.000   4.191  15.091  0.0599 -0.2778  0.9599
  337TMC3    C7 5116   2.179   4.366  15.147 -0.0847  0.6258 -1.0253
  337TMC3    C8 5117   1.917   3.959  15.219 -0.4295 -0.3245 -0.9458
  337TMC3    O1 5118   2.089   4.393  15.069 -0.2816  0.1805 -0.5135
  337TMC3    O2 5119   1.904   3.858  15.284 -0.1582 -0.0049  0.5324
  338MPD2     C 5120   2.580   3.357   1.001  0.4849  0.8806  0.0545
  338MPD2    C1 5121   2.606   3.461   0.911 -0.0803 -0.2422  0.0278
  338MPD2    C2 5122   2.508   3.498   0.818  0.0395  0.0588  0.1588
  338MPD2    C3 5123   2.379   3.449   0.829  0.6131 -0.6749 -0.2443
  338MPD2    C4 5124   2.353   3.353   0.924  0.5511 -0.1300 -0.1111
  338MPD2    C5 5125   2.454   3.302   1.006 -0.3047  0.8377  0.2720
  338MPD2     H 5126   2.524   3.570   0.739  1.9875 -0.2858  0.2228
  338MPD2    H1 5127   2.253   3.309   0.926  0.1995  0.6967  0.4411
  338MPD2    H2 5128   2.660   3.318   1.063 -0.5493  0.9281  1.4070
  338MPD2    H3 5129   2.435   3.221   1.075 -2.3816 -0.3683 -1.7203
  338MPD2     N 5130   2.289   3.486   0.732 -0.7366  0.1828 -0.6047
  338MPD2    H5 5131   2.337   3.539   0.659  0.9725 -0.7655 -0.1857
  338MPD2    N1 5132   2.734   3.525   0.888 -0.5193  0.0096 -0.4959
  338MPD2    H7 5133   2.739   3.599   0.818 -0.1021  1.4851  1.1148
  339TMC3    C1 5134   2.088   3.516   0.613 -0.4253  0.0702 -0.2575
  339TMC3    C2 5135   1.999   3.445   0.537 -0.3226  0.3890  0.4078
  339TMC3    C3 5136   1.949   3.503   0.426  0.1350  0.0758 -0.6107
  339TMC3    C4 5137   2.135   3.637   0.572 -0.6026  0.7444  0.3738
  339TMC3    C5 5138   2.103   3.669   0.441 -0.6983 -0.7570 -0.2334
  339TMC3    C6 5139   2.011   3.601   0.365 -0.2242 -0.1964  0.2754
  339TMC3     C 5140   2.156   3.453   0.725  0.3045  0.4878 -0.4757
  339TMC3     O 5141   2.084   3.374   0.785  0.1252 -0.5362  0.1761
  339TMC3     H 5142   1.952   3.358   0.582 -0.5828  0.1587 -0.3218
  339TMC3    H1 5143   2.200   3.697   0.635 -2.1106  0.5857  2.1070
  339TMC3    H2 5144   1.972   3.647   0.275 -1.2760  0.7499  1.1918
  339TMC3    C7 5145   2.166   3.790   0.383 -0.3829  0.7960 -0.2318
  339TMC3    C8 5146   1.887   3.406   0.339  0.2495  0.2949 -0.1710
  339TMC3    O1 5147   2.103   3.856   0.300 -0.1549 -0.3435  0.1331
  339TMC3    O2 5148   1.897   3.433   0.221  0.2513 -0.4120  0.0727
  340MPD2     C 5149   3.121   0.408  10.204  0.3791 -0.1412  0.1275
  340MPD2    C1 5150   3.118   0.467  10.081  0.0643  0.3169  0.4704
  340MPD2    C2 5151   3.163   0.600  10.076 -0.8193  0.3386  0.6520
  340MPD2    C3 5152   3.185   0.675  10.194  0.0748  0.0085 -0.4313
  340MPD2    C4 5153   3.182   0.609  10.318 -0.0303  0.2183  0.4888
  340MPD2    C5 5154   3.158   0.479  10.320  0.2333  0.3338 -0.1349
  340MPD2     H 5155   3.153   0.650   9.981  2.7093 -1.5181 -0.6753
  340MPD2    H1 5156   3.198   0.669  10.407 -2.0085  0.3152  0.7870
  340MPD2    H2 5157   3.084   0.307  10.214 -2.8104  1.0097 -0.2603
  340MPD2    H3 5158   3.178   0.420  10.409 -1.4394 -1.1071 -0.7150
  340MPD2     N 5159   3.201   0.814  10.199 -0.1789  0.3198 -0.0400
  340MPD2    H5 5160   3.206   0.856  10.291 -0.9582  1.1600 -0.3811
  340MPD2    N1 5161   3.067   0.390   9.978  0.4539 -0.3966 -0.1062
  340MPD2    H7 5162   3.030   0.300  10.007 -1.3662  0.2028 -0.5721
  341TMC3    C1 5163   3.062   0.303   9.754 -0.1257  0.2605 -0.2884
  341TMC3    C2 5164   3.068   0.176   9.806 -0.7020 -0.4328 -1.0518
  341TMC3    C3 5165   3.068   0.070   9.717  0.1251 -0.2287  0.6843
  341TMC3    C4 5166   3.070   0.321   9.620  0.5668 -0.1808 -0.1164
  341TMC3    C5 5167   3.071   0.214   9.534  0.1439  0.1672  0.6328
  341TMC3    C6 5168   3.057   0.079   9.581 -0.0800 -0.4900  0.5474
  341TMC3     C 5169   3.082   0.420   9.845 -0.2487  0.3120 -0.5876
  341TMC3     O 5170   3.103   0.529   9.792 -0.1996 -0.4561 -0.0114
  341TMC3     H 5171   3.087   0.154   9.911 -2.1059  3.8636  0.0871
  341TMC3    H1 5172   3.072   0.422   9.581  0.8840  0.5457  1.7579
  341TMC3    H2 5173   3.049   4.739   9.508  1.2202 -0.3113  0.2015
  341TMC3    C7 5174   3.077   0.232   9.391  0.1995 -0.1307 -0.3773
  341TMC3    C8 5175   3.062   4.680   9.779 -0.4788  0.4068  0.7043
  341TMC3    O1 5176   3.050   0.135   9.325  0.4804  0.1280 -0.3414
  341TMC3    O2 5177   3.014   4.672   9.892  0.0026 -0.1970 -0.3114
  342MPD2     C 5178   0.649   4.237  17.219  0.1338 -0.1862  0.6393
  342MPD2    C1 5179   0.766   4.249  17.150 -0.1958 -0.6866  0.1460
  342MPD2    C2 5180   0.816   4.376  17.127 -0.2862 -0.4391  0.5786
  342MPD2    C3 5181   0.745   4.486  17.172  0.3710 -0.6877 -0.0829
  342MPD2    C4 5182   0.623   4.469  17.229 -0.9020  0.0894  0.3536
  342MPD2    C5 5183   0.571   4.341  17.248  0.3712 -0.7713 -0.7831
  342MPD2     H 5184   0.906   4.390  17.067  0.2419 -0.9752  1.2362
  342MPD2    H1 5185   0.560   4.550  17.265  0.9540  0.9286  1.7288
  342MPD2    H2 5186   0.604   4.144  17.252 -0.1770  0.0050  0.7571
  342MPD2    H3 5187   0.491   4.328  17.320 -0.6265  3.6671 -1.0936
  342MPD2     N 5188   0.788   4.619  17.161  0.6944  0.1872  0.4102
  342MPD2    H5 5189   0.729   4.699  17.183 -1.3576 -0.7711 -1.5720
  342MPD2    N1 5190   0.842   4.133  17.103  0.3846  0.8443  0.3292
  342MPD2    H7 5191   0.931   4.154  17.059 -0.1182  0.5835 -0.8233
  343TMC3    C1 5192   0.913   3.917  17.046 -0.3200 -0.2218  0.3636
  343TMC3    C2 5193   1.026   3.966  16.990 -0.7752  0.3629  0.3904
  343TMC3    C3 5194   1.111   3.879  16.929  0.2741  0.4406 -0.3561
  343TMC3    C4 5195   0.880   3.781  17.055  0.3607  0.2251  0.7624
  343TMC3    C5 5196   0.965   3.701  16.991 -0.5123 -0.3684 -0.1944
  343TMC3    C6 5197   1.082   3.741  16.932  0.3493  0.4352  0.0238
  343TMC3     C 5198   0.809   4.004  17.110 -0.3497 -0.4435  0.5171
  343TMC3     O 5199   0.716   3.949  17.165  0.0124 -0.0108 -0.2700
  343TMC3     H 5200   1.048   4.072  16.986 -1.7852  0.6490  2.6823
  343TMC3    H1 5201   0.787   3.750  17.100 -0.2164  2.2783  0.9899
  343TMC3    H2 5202   1.147   3.666  16.888  1.2447 -0.5247  3.0060
  343TMC3    C7 5203   0.937   3.563  17.006  0.6311 -0.2648  0.1542
  343TMC3    C8 5204   1.224   3.931  16.856 -0.0281  0.4476 -0.4521
  343TMC3    O1 5205   0.908   3.501  16.905 -0.1207  0.0818  0.3487
  343TMC3    O2 5206   1.256   4.048  16.882 -0.3154  0.8249 -0.1157
  344MPD2     C 5207   2.093   3.426  10.826  0.2483  0.4108 -0.5649
  344MPD2    C1 5208   1.970   3.428  10.758  0.2825 -0.4840 -0.1175
  344MPD2    C2 5209   1.958   3.518  10.651  0.0960  0.4815 -0.4716
  344MPD2    C3 5210   2.072   3.601  10.620  0.6541 -0.0454 -0.8197
  344MPD2    C4 5211   2.190   3.598  10.687  0.8254  0.1972 -0.3711
  344MPD2    C5 5212   2.196   3.509  10.791  0.2361 -0.4176 -0.0818
  344MPD2     H 5213   1.866   3.523  10.594 -0.1240  2.0633  0.0100
  344MPD2    H1 5214   2.267   3.670  10.664  1.0956  1.0134  3.0303
  344MPD2    H2 5215   2.114   3.381  10.923 -0.0882  2.6187  0.5318
  344MPD2    H3 5216   2.284   3.500  10.852 -0.3715 -0.4739  0.7844
  344MPD2     N 5217   2.073   3.696  10.513  0.3993 -0.5837 -0.2721
  344MPD2    H5 5218   2.167   3.730  10.491  0.8880 -1.5700  0.2889
  344MPD2    N1 5219   1.863   3.338  10.794 -0.6496 -0.2094  0.0120
  344MPD2    H7 5220   1.778   3.347  10.739 -1.5209  3.0758  1.8568
  345TMC3    C1 5221   2.001   3.833  10.336 -0.0518 -0.1884  0.7537
  345TMC3    C2 5222   2.130   3.878  10.347 -0.3181 -0.0945 -0.2354
  345TMC3    C3 5223   2.183   3.943  10.235 -0.0517  0.7686 -0.2890
  345TMC3    C4 5224   1.929   3.846  10.223 -0.0058 -0.1869 -1.3102
  345TMC3    C5 5225   1.989   3.896  10.112 -0.7352  0.0107 -0.2838
  345TMC3    C6 5226   2.119   3.953  10.119  0.4885 -0.5740 -0.8053
  345TMC3     C 5227   1.968   3.732  10.431 -0.1323 -0.5903 -0.4707
  345TMC3     O 5228   1.853   3.688  10.423 -0.1283  0.4584  0.4770
  345TMC3     H 5229   2.181   3.888  10.442 -1.3125 -0.1415  0.2983
  345TMC3    H1 5230   1.834   3.796  10.209  0.1311 -0.8624  0.1834
  345TMC3    H2 5231   2.158   3.998  10.028 -2.1416 -0.0135 -1.6574
  345TMC3    C7 5232   1.902   3.979  10.027  0.7263 -0.2664  0.2138
  345TMC3    C8 5233   2.244   4.073  10.268 -0.0339  0.3479  0.0444
  345TMC3    O1 5234   1.960   4.079   9.985  0.5284 -0.6416  0.9432
  345TMC3    O2 5235   2.221   4.163  10.190 -1.2594 -0.2914 -0.2216
  346MPD2     C 5236   1.878   0.613  14.564 -0.2868  0.5666 -0.6294
  346MPD2    C1 5237   1.980   0.632  14.479  0.5443  0.4219 -0.2625
  346MPD2    C2 5238   2.082   0.721  14.511 -0.2586 -0.6858  0.6945
  346MPD2    C3 5239   2.074   0.795  14.629  0.2255  0.1233 -0.5844
  346MPD2    C4 5240   1.976   0.775  14.722 -0.1137  0.4484  0.5273
  346MPD2    C5 5241   1.883   0.676  14.689 -0.0061 -0.0221  0.3410
  346MPD2     H 5242   2.161   0.738  14.438 -1.8229 -1.2158 -1.1427
  346MPD2    H1 5243   1.968   0.833  14.813  0.9939 -1.4046  1.8091
  346MPD2    H2 5244   1.794   0.549  14.540  1.2967 -1.2110 -1.4410
  346MPD2    H3 5245   1.791   0.665  14.745 -0.0110 -3.0285 -0.2288
  346MPD2     N 5246   2.167   0.895  14.640  0.2464 -0.4695  0.3358
  346MPD2    H5 5247   2.238   0.903  14.568 -0.8471 -1.1935 -0.8300
  346MPD2    N1 5248   1.985   0.576  14.348  0.0718  0.3155 -0.0503
  346MPD2    H7 5249   2.070   0.591  14.294 -1.3560  2.6616 -1.6717
  347TMC3    C1 5250   2.269   1.084  14.688  0.7879 -0.2711  0.4704
  347TMC3    C2 5251   2.271   1.086  14.550 -0.3535  0.6123  0.4078
  347TMC3    C3 5252   2.390   1.118  14.488  0.1157 -0.5740  0.3635
  347TMC3    C4 5253   2.369   1.116  14.768 -1.0240 -0.4432  0.1373
  347TMC3    C5 5254   2.491   1.143  14.709 -0.3109 -0.1609 -0.0977
  347TMC3    C6 5255   2.498   1.145  14.570 -0.0805  0.2132 -0.1963
  347TMC3     C 5256   2.171   0.995  14.737 -0.7036  0.0551  0.0028
  347TMC3     O 5257   2.129   1.013  14.849  0.1707 -0.0624  0.2016
  347TMC3     H 5258   2.188   1.070  14.482  0.7361 -4.3560  0.2425
  347TMC3    H1 5259   2.379   1.096  14.874 -3.9677  0.0571  0.5151
  347TMC3    H2 5260   2.597   1.162  14.530  0.7871 -1.4229  1.2831
  347TMC3    C7 5261   2.604   1.092  14.776 -0.1189  0.0579  0.3232
  347TMC3    C8 5262   2.407   1.026  14.382  0.8444 -0.8507 -0.1343
  347TMC3    O1 5263   2.602   0.971  14.789 -0.2042  0.8467 -0.1066
  347TMC3    O2 5264   2.322   0.940  14.375 -0.1355  0.3179  0.2163
  348MPD2     C 5265   0.504   0.335  12.018 -0.5829  0.0125  0.2891
  348MPD2    C1 5266   0.620   0.321  11.944 -0.1907 -0.1376 -0.2056
  348MPD2    C2 5267   0.619   0.363  11.817 -0.5927 -0.9577  0.2225
  348MPD2    C3 5268   0.506   0.425  11.762  0.2940  0.1132  0.3037
  348MPD2    C4 5269   0.390   0.431  11.838 -0.1796 -0.0940 -0.4186
  348MPD2    C5 5270   0.390   0.394  11.967  0.0040  0.2314  0.1226
  348MPD2     H 5271   0.705   0.357  11.750 -0.2597 -1.8677  0.7293
  348MPD2    H1 5272   0.297   0.476  11.803 -0.4055  0.2134  0.5558
  348MPD2    H2 5273   0.501   0.299  12.121 -0.3509 -2.4572 -0.5793
  348MPD2    H3 5274   0.300   0.409  12.026  0.8586 -3.6684  2.4708
  348MPD2     N 5275   0.527   0.465  11.628  0.1709  0.2296  0.1512
  348MPD2    H5 5276   0.618   0.452  11.584 -0.9163  1.6435 -2.5446
  348MPD2    N1 5277   0.748   0.267  11.988  0.4548  0.2435 -0.1431
  348MPD2    H7 5278   0.822   0.279  11.919  0.9013  1.9777  0.6547
  349TMC3    C1 5279   0.884   0.089  12.049  0.7870  0.4344 -0.5290
  349TMC3    C2 5280   0.903   4.718  12.124 -0.5515  0.4498  0.1438
  349TMC3    C3 5281   0.939   4.599  12.067  0.4205 -0.1018  0.5707
  349TMC3    C4 5282   0.926   0.085  11.915  0.1986  0.0617  0.4002
  349TMC3    C5 5283   0.951   4.696  11.853 -0.5043 -0.7012 -0.3464
  349TMC3    C6 5284   0.947   4.581  11.932  0.1731  0.8373 -0.4025
  349TMC3     C 5285   0.770   0.171  12.084 -0.6072 -0.2471 -0.1498
  349TMC3     O 5286   0.695   0.136  12.173  0.1275  0.5348 -0.3475
  349TMC3     H 5287   0.877   4.720  12.230  2.0557  0.4120  0.7839
  349TMC3    H1 5288   0.919   0.165  11.842  1.1138  0.3488  0.6279
  349TMC3    H2 5289   0.959   4.483  11.886  0.1068  0.8593 -0.4660
  349TMC3    C7 5290   0.909   4.681  11.718 -0.9795 -0.0614  0.0560
  349TMC3    C8 5291   0.991   4.497  12.157 -0.7479 -0.0374 -0.6202
  349TMC3    O1 5292   0.847   4.580  11.684  0.0778  0.5423 -0.5749
  349TMC3    O2 5293   0.944   4.485  12.272  0.0567 -0.5679  0.1928
  350MPD2     C 5294   4.604   3.220  10.584 -0.0412  0.0735  0.0936
  350MPD2    C1 5295   4.697   3.116  10.570 -0.3803  0.0763 -0.0482
  350MPD2    C2 5296   0.091   3.141  10.599 -0.1826  0.2264 -0.1243
  350MPD2    C3 5297   0.133   3.259  10.654  0.2547  0.1236 -0.2790
  350MPD2    C4 5298   0.034   3.358  10.678 -0.3068  0.3923 -0.0816
  350MPD2    C5 5299   4.642   3.338  10.642 -0.2194 -0.2170 -0.6311
  350MPD2     H 5300   0.171   3.069  10.593  0.5373  0.9168  1.1111
  350MPD2    H1 5301   0.052   3.457  10.717 -1.1563  0.0969  1.0700
  350MPD2    H2 5302   4.503   3.205  10.548  0.5439 -3.0791 -0.2587
  350MPD2    H3 5303   4.571   3.421  10.646  0.8133  0.5490  1.9249
  350MPD2     N 5304   0.268   3.273  10.703 -0.3801 -0.2032  0.0890
  350MPD2    H5 5305   0.329   3.196  10.676  1.3410  0.4842  2.0258
  350MPD2    N1 5306   4.642   2.998  10.529  0.1739 -0.1263 -0.9514
  350MPD2    H7 5307   4.542   2.994  10.516  0.1282 -1.9642 -0.0487
  351TMC3    C1 5308   4.638   2.779  10.439  0.0317 -0.1839 -0.0135
  351TMC3    C2 5309   4.691   2.678  10.365 -0.3460 -0.7952 -0.0041
  351TMC3    C3 5310   4.634   2.551  10.346 -0.0944 -0.3278  0.3020
  351TMC3    C4 5311   4.524   2.759  10.510  0.8161 -0.5222 -0.3294
  351TMC3    C5 5312   4.469   2.630  10.498 -0.1392  0.2233  0.1544
  351TMC3    C6 5313   4.511   2.539  10.406  0.0953 -0.2768  0.4954
  351TMC3     C 5314   4.716   2.894  10.473  0.4875 -0.6177  0.2134
  351TMC3     O 5315   0.091   2.899  10.434 -0.0249 -0.6428 -0.3527
  351TMC3     H 5316   0.036   2.708  10.306 -0.0145  0.3464  1.0499
  351TMC3    H1 5317   4.509   2.819  10.598  0.4506  0.0217 -0.7624
  351TMC3    H2 5318   4.465   2.442  10.396 -0.4841  0.2305 -1.8178
  351TMC3    C7 5319   4.369   2.602  10.592  0.0138 -0.4634 -0.6964
  351TMC3    C8 5320   4.674   2.479  10.231 -0.0320  0.9729 -0.3738
  351TMC3    O1 5321   4.344   2.487  10.620  0.4488 -0.2382 -0.7185
  351TMC3    O2 5322   4.586   2.423  10.166  0.1399  0.4702  0.2865
  352MPD2     C 5323   3.436   1.025   1.241  0.0845 -0.0950 -0.4066
  352MPD2    C1 5324   3.367   1.011   1.122  0.1535 -0.3259 -0.1670
  352MPD2    C2 5325   3.340   0.880   1.090  0.1032 -0.0271  0.4053
  352MPD2    C3 5326   3.397   0.779   1.158  0.0035 -0.3922  0.3858
  352MPD2    C4 5327   3.458   0.795   1.279 -0.7160 -0.7433  0.9929
  352MPD2    C5 5328   3.482   0.920   1.317  0.3024  0.2428 -0.5244
  352MPD2     H 5329   3.285   0.863   0.998 -2.7110  0.3227  2.0239
  352MPD2    H1 5330   3.493   0.712   1.339  0.7056 -1.2639 -0.5866
  352MPD2    H2 5331   3.453   1.127   1.272 -1.5070  0.1309 -0.2674
  352MPD2    H3 5332   3.547   0.936   1.403 -0.9298  1.6599  0.1391
  352MPD2     N 5333   3.370   0.642   1.128 -0.2490 -0.0740  0.4034
  352MPD2    H5 5334   3.400   0.573   1.197 -0.1157  0.3500  0.7688
  352MPD2    N1 5335   3.312   1.124   1.056  0.3121  0.0055 -0.1368
  352MPD2    H7 5336   3.334   1.220   1.080 -3.3701  0.3065  1.9637
  353TMC3    C1 5337   3.296   0.447   1.015  0.1936  0.0269 -0.8339
  353TMC3    C2 5338   3.405   0.378   1.066  0.1259 -0.5592  0.3906
  353TMC3    C3 5339   3.397   0.238   1.061  0.1984  0.6597 -0.2417
  353TMC3    C4 5340   3.187   0.377   0.966 -0.3159  0.0064  0.1817
  353TMC3    C5 5341   3.180   0.242   0.978 -0.8158 -0.5934 -0.7980
  353TMC3    C6 5342   3.285   0.167   1.025 -0.1310 -0.4801  0.3198
  353TMC3     C 5343   3.298   0.589   1.025 -0.0738 -0.2170 -0.2512
  353TMC3     O 5344   3.243   0.643   0.930 -0.0884  0.2616  0.1900
  353TMC3     H 5345   3.495   0.431   1.095 -0.4828  0.2312  0.8357
  353TMC3    H1 5346   3.102   0.428   0.924  0.4980  0.2499 -1.1882
  353TMC3    H2 5347   3.272   0.060   1.037 -0.3479 -0.7189 -1.9725
  353TMC3    C7 5348   3.069   0.166   0.910  0.5021  0.0726  0.6263
  353TMC3    C8 5349   3.527   0.176   1.091  0.0889 -0.5204  0.1897
  353TMC3    O1 5350   3.063   0.045   0.926 -0.0141  0.2585  0.3780
  353TMC3    O2 5351   3.629   0.239   1.114  0.1415  0.2928 -0.3881
  354TMC3    C1 5352   4.614   1.382  13.771  0.2118 -0.5349  0.5488
  354TMC3    C2 5353   4.692   1.494  13.746  0.1311  0.4177 -0.2918
  354TMC3    C3 5354   4.704   1.542  13.621 -0.4320 -0.0144 -0.0291
  354TMC3    C4 5355   4.552   1.323  13.672  0.0686 -0.4613  0.0098
  354TMC3    C5 5356   4.581   1.368  13.547 -0.4387  0.0365  0.6981
  354TMC3    C6 5357   4.638   1.483  13.517 -0.1686 -0.4941 -0.3803
  354TMC3     C 5358   4.587   1.326  13.900 -0.4549  0.4649 -0.2430
  354TMC3     O 5359   4.494   1.250  13.918 -0.4622  0.1089 -0.1212
  354TMC3     H 5360   4.730   1.545  13.834  1.1845  2.2207 -1.7875
  354TMC3    H1 5361   4.510   1.224  13.686  2.2398 -1.6006 -1.5048
  354TMC3    H2 5362   4.645   1.521  13.416 -1.0240  0.2551 -0.1617
  354TMC3    C7 5363   4.608   1.264  13.449  1.3657 -0.2490  0.0120
  354TMC3    C8 5364   0.084   1.615  13.594  0.0696 -0.9139  0.3380
  354TMC3    O1 5365   4.572   1.149  13.484 -0.5565 -0.2211 -1.0274
  354TMC3    O2 5366   0.154   1.653  13.690 -0.0489 -0.3884  0.2094
  355MPD2     C 5367   0.360   2.237  12.023  0.6063 -0.6686  0.2085
  355MPD2    C1 5368   0.453   2.206  11.922 -0.0989  0.4604  0.3345
  355MPD2    C2 5369   0.530   2.095  11.942  0.4577 -0.8767  0.5673
  355MPD2    C3 5370   0.514   2.010  12.049 -0.0165  0.4349  0.0030
  355MPD2    C4 5371   0.420   2.041  12.149  0.2008  0.1997 -0.8177
  355MPD2    C5 5372   0.350   2.159  12.139  0.6159 -0.3612  0.0274
  355MPD2     H 5373   0.608   2.068  11.872 -1.7196 -0.6697 -1.9531
  355MPD2    H1 5374   0.405   1.967  12.227 -2.8404 -1.7751 -3.2687
  355MPD2    H2 5375   0.304   2.330  12.019  0.2886 -0.9597 -2.4419
  355MPD2    H3 5376   0.276   2.182  12.215 -0.6809 -0.8192 -1.0816
  355MPD2     N 5377   0.604   1.897  12.070 -1.6021 -0.3718 -0.3533
  355MPD2    H5 5378   0.572   1.826  12.135 -1.8113 -0.3430 -0.4258
  355MPD2    N1 5379   0.488   2.305  11.828  0.2575  0.2087  0.2134
  355MPD2    H7 5380   0.453   2.399  11.846 -2.2714 -0.5075 -1.1184
  356TMC3    C1 5381   0.807   2.003  12.027 -0.0758 -0.3749  0.2278
  356TMC3    C2 5382   0.852   2.059  11.912  0.0730  0.7792  0.4375
  356TMC3    C3 5383   0.919   2.184  11.928  0.0612  0.4406  0.4634
  356TMC3    C4 5384   0.822   2.060  12.156 -1.1260  0.4005 -0.1326
  356TMC3    C5 5385   0.888   2.183  12.161  0.2589 -0.4952 -0.7635
  356TMC3    C6 5386   0.936   2.248  12.048 -0.5333  0.6751  0.2888
  356TMC3     C 5387   0.730   1.879  12.016 -0.7580  0.0189  0.3207
  356TMC3     O 5388   0.783   1.770  11.997  0.5351  0.3529 -0.6089
  356TMC3     H 5389   0.815   2.016  11.820  0.3647  0.1171  0.6313
  356TMC3    H1 5390   0.785   1.997  12.236  2.1841 -0.0150  1.0632
  356TMC3    H2 5391   0.991   2.342  12.051 -1.4768  1.2364 -0.0452
  356TMC3    C7 5392   0.879   2.248  12.292  0.3421  0.0481  0.3479
  356TMC3    C8 5393   0.958   2.251  11.807 -0.6172  0.6011  0.4968
  356TMC3    O1 5394   0.840   2.192  12.391 -0.0286  0.3973 -0.1204
  356TMC3    O2 5395   0.907   2.211  11.705  0.0927  0.0857 -0.3000
  357MPD2     C 5396   3.715   2.444   1.025  0.2499 -0.1732 -0.9325
  357MPD2    C1 5397   3.784   2.405   1.138  0.3497  0.0108 -0.1044
  357MPD2    C2 5398   3.735   2.433   1.265 -0.6084  0.1064 -0.2208
  357MPD2    C3 5399   3.605   2.485   1.276  0.2738 -0.1355 -0.1342
  357MPD2    C4 5400   3.537   2.524   1.161 -0.7928 -0.6315  0.0526
  357MPD2    C5 5401   3.589   2.504   1.037 -0.1399 -0.2301 -0.2387
  357MPD2     H 5402   3.802   2.411   1.348 -0.6758  0.2232 -0.1362
  357MPD2    H1 5403   3.440   2.568   1.182  0.1613  0.3810  2.3837
  357MPD2    H2 5404   3.759   2.423   0.927 -0.7197 -1.3942 -1.1096
  357MPD2    H3 5405   3.525   2.532   0.954 -0.9203  2.4767  1.2798
  357MPD2     N 5406   3.538   2.515   1.394 -0.0229  0.6558  0.2679
  357MPD2    H5 5407   3.437   2.530   1.387  0.1820  2.9938  2.0655
  357MPD2    N1 5408   3.909   2.335   1.119 -0.6542  0.6587 -0.9890
  357MPD2    H7 5409   3.931   2.310   1.023  0.6542  0.0162 -0.5260
  358TMC3    C1 5410   4.088   2.177   1.185  0.2881 -0.3259  0.1818
  358TMC3    C2 5411   4.097   2.132   1.058  0.5701 -0.5694  0.5121
  358TMC3    C3 5412   4.209   2.054   1.025  0.4270  0.4664 -1.6405
  358TMC3    C4 5413   4.171   2.137   1.286 -0.1452  0.1440 -0.1508
  358TMC3    C5 5414   4.273   2.056   1.252  0.3062 -0.2635 -0.2753
  358TMC3    C6 5415   4.300   2.022   1.121 -0.7412  0.1000 -0.3075
  358TMC3     C 5416   3.986   2.277   1.221  0.8332 -0.1198  0.0066
  358TMC3     O 5417   3.988   2.294   1.343  0.2526 -0.0934  0.1526
  358TMC3     H 5418   4.034   2.164   0.975  1.0352 -0.6165  0.1373
  358TMC3    H1 5419   4.163   2.168   1.390 -1.7942  0.0904 -0.2663
  358TMC3    H2 5420   4.379   1.951   1.099 -1.2986  0.1466 -2.5096
  358TMC3    C7 5421   4.354   2.008   1.364  0.7262 -0.3008 -0.6217
  358TMC3    C8 5422   4.254   2.039   0.889 -0.5281  0.1190  0.4501
  358TMC3    O1 5423   4.301   2.001   1.474  0.1580 -0.4916 -0.0212
  358TMC3    O2 5424   4.173   2.029   0.801  0.1602  0.1854  0.5381
  359MPD2     C 5425   0.423   0.161  12.495 -0.0432  0.9130 -0.6964
  359MPD2    C1 5426   0.417   0.268  12.411  0.3479  0.0271 -0.3479
  359MPD2    C2 5427   0.294   0.289  12.345 -0.3728 -0.2432 -0.8910
  359MPD2    C3 5428   0.183   0.219  12.372 -0.2673 -0.0108  0.9312
  359MPD2    C4 5429   0.194   0.118  12.464 -0.1203 -0.2398  0.0970
  359MPD2    C5 5430   0.317   0.084  12.515  0.4587  0.8056  0.0917
  359MPD2     H 5431   0.284   0.375  12.280  0.7305  0.7919  0.3332
  359MPD2    H1 5432   0.125   0.038  12.491  0.5922 -1.3480 -1.3938
  359MPD2    H2 5433   0.513   0.144  12.552 -0.7527 -4.4082 -1.1437
  359MPD2    H3 5434   0.324   4.737  12.580  2.2385 -0.7779 -2.2016
  359MPD2     N 5435   0.058   0.240  12.308  1.0011 -0.0951 -0.3029
  359MPD2    H5 5436   4.728   0.173  12.339 -1.7173  2.6494 -0.5397
  359MPD2    N1 5437   0.534   0.347  12.383 -0.1968  0.0148  0.5834
  359MPD2    H7 5438   0.523   0.422  12.317  1.0383 -0.3064  0.0163
  360TMC3    C1 5439   0.756   0.415  12.373 -0.6690 -0.2209  0.0616
  360TMC3    C2 5440   0.888   0.404  12.415 -0.6108  0.4659  0.1025
  360TMC3    C3 5441   0.985   0.433  12.323  0.1193 -0.5190  0.4283
  360TMC3    C4 5442   0.721   0.487  12.260  0.5404 -0.6208 -0.5689
  360TMC3    C5 5443   0.826   0.550  12.196 -0.4700  0.7362 -0.8986
  360TMC3    C6 5444   0.957   0.512  12.217 -0.0861 -0.2044  0.1560
  360TMC3     C 5445   0.660   0.335  12.440 -0.2796 -0.3957  0.3291
  360TMC3     O 5446   0.692   0.256  12.528  0.0704 -0.3162 -0.1724
  360TMC3     H 5447   0.896   0.342  12.504  0.3984  1.5515  0.7601
  360TMC3    H1 5448   0.618   0.491  12.227  0.0620 -3.7631  0.5759
  360TMC3    H2 5449   1.036   0.558  12.159 -0.7832 -0.0799 -0.7060
  360TMC3    C7 5450   0.797   0.608  12.062  0.4496  0.1196  0.3527
  360TMC3    C8 5451   1.088   0.331  12.311 -0.2260 -0.7515  0.1655
  360TMC3    O1 5452   0.882   0.595  11.976  0.7008 -0.0781 -0.3808
  360TMC3    O2 5453   1.099   0.257  12.410  0.2839 -0.4968  0.2190
  361MPD2     C 5454   1.951   0.580  16.950 -0.1209 -0.1170 -0.4598
  361MPD2    C1 5455   1.944   0.466  16.878  0.2730  0.0189 -0.9288
  361MPD2    C2 5456   2.023   0.360  16.921  0.5215 -0.1055 -0.3572
  361MPD2    C3 5457   2.099   0.365  17.033 -0.5542  0.2432 -0.7464
  361MPD2    C4 5458   2.096   0.479  17.103 -0.2800 -0.2287 -0.0962
  361MPD2    C5 5459   2.025   0.585  17.066  0.3260 -0.0128 -0.6105
  361MPD2     H 5460   2.015   0.270  16.861 -1.1614  1.4153 -2.4060
  361MPD2    H1 5461   2.159   0.497  17.189  1.2557 -1.6416 -0.9393
  361MPD2    H2 5462   1.896   0.668  16.921  0.4831  0.9009  1.4589
  361MPD2    H3 5463   2.034   0.673  17.129  0.1631 -1.1608  1.0100
  361MPD2     N 5464   2.177   0.254  17.090  0.0831 -0.6848  0.2312
  361MPD2    H5 5465   2.225   0.263  17.179  0.2973  1.3289 -0.0733
  361MPD2    N1 5466   1.850   0.461  16.769 -0.3277 -0.6612 -0.3631
  361MPD2    H7 5467   1.796   0.546  16.754 -0.1401 -0.6421 -0.9042
  362TMC3    C1 5468   1.698   0.396  16.626 -0.3773 -0.7382 -0.6639
  362TMC3    C2 5469   1.583   0.331  16.674  0.0134 -0.1554  0.0582
  362TMC3    C3 5470   1.465   0.407  16.694  0.0103 -0.4487 -0.0304
  362TMC3    C4 5471   1.697   0.538  16.604 -0.6492  0.1248  0.3960
  362TMC3    C5 5472   1.581   0.604  16.623 -0.4059 -0.0080  0.8778
  362TMC3    C6 5473   1.471   0.545  16.677 -0.0000  0.0379 -0.0983
  362TMC3     C 5474   1.815   0.351  16.696  0.3377  0.0124 -0.2831
  362TMC3     O 5475   1.847   0.232  16.694  0.0595 -0.2999  0.7013
  362TMC3     H 5476   1.581   0.227  16.706  0.4185 -1.0421 -2.7927
  362TMC3    H1 5477   1.780   0.594  16.564  1.2235 -3.0704 -0.2372
  362TMC3    H2 5478   1.381   0.604  16.689  1.1579  1.7914 -0.1096
  362TMC3    C7 5479   1.559   0.751  16.604 -0.8915  0.6801 -0.2552
  362TMC3    C8 5480   1.345   0.347  16.753 -0.7745  0.7924 -0.3059
  362TMC3    O1 5481   1.471   0.806  16.672 -0.4680  0.1274  0.0243
  362TMC3    O2 5482   1.321   0.231  16.728 -0.0150  0.3894 -0.5587
  363TMC3    C1 5483   0.250   2.442   8.744  0.1382  0.4220  0.0361
  363TMC3    C2 5484   0.331   2.335   8.733 -0.7058 -0.1528 -0.7618
  363TMC3    C3 5485   0.348   2.262   8.852 -0.5011  0.5064 -0.4591
  363TMC3    C4 5486   0.203   2.476   8.866 -0.2703  0.3298  0.1973
  363TMC3    C5 5487   0.227   2.401   8.972  0.5687  0.8471 -0.8030
  363TMC3    C6 5488   0.288   2.284   8.968  0.1409  0.4409 -0.9046
  363TMC3     C 5489   0.215   2.515   8.630 -0.3639  0.6731  0.3531
  363TMC3     O 5490   0.276   2.491   8.526 -0.5656  0.0085 -0.4041
  363TMC3     H 5491   0.381   2.307   8.641  0.1607 -0.0489 -0.3273
  363TMC3    H1 5492   0.152   2.569   8.887  0.5173  1.5877 -3.4023
  363TMC3    H2 5493   0.324   2.238   9.059  0.2715  2.2823 -0.0344
  363TMC3    C7 5494   0.161   2.437   9.103  0.0443  0.0785  0.2284
  363TMC3    C8 5495   0.458   2.174   8.846 -0.1373  0.2957  0.1967
  363TMC3    O1 5496   0.210   2.398   9.206  0.0243 -0.2286  0.4471
  363TMC3    O2 5497   0.544   2.217   8.770 -0.2387 -0.1201 -0.4775
  364MPD2     C 5498   4.460   1.947  10.936 -0.0502 -0.2188 -1.4871
  364MPD2    C1 5499   4.599   1.921  10.948  0.3994  0.3821 -0.4306
  364MPD2    C2 5500   4.652   1.790  10.944  0.1469 -0.2020  0.1968
  364MPD2    C3 5501   4.565   1.684  10.937  0.5313 -0.5667 -0.5825
  364MPD2    C4 5502   4.431   1.710  10.923 -0.9176  0.3670  0.6777
  364MPD2    C5 5503   4.378   1.839  10.930  0.2307  0.6140  0.3124
  364MPD2     H 5504   0.016   1.766  10.966  0.2686  1.7421  1.7708
  364MPD2    H1 5505   4.354   1.633  10.924 -0.3004 -0.2718 -0.4042
  364MPD2    H2 5506   4.413   2.044  10.939  2.5187  1.0054 -0.6689
  364MPD2    H3 5507   4.271   1.853  10.922 -0.0024 -1.7770 -0.7161
  364MPD2     N 5508   4.615   1.552  10.953 -0.7287  0.5185  0.0874
  364MPD2    H5 5509   4.715   1.545  10.968 -0.8583 -2.1310 -0.3677
  364MPD2    N1 5510   4.680   2.029  10.964  0.0288  0.1297  0.3930
  364MPD2    H7 5511   4.638   2.119  10.984 -0.6231 -0.7512  3.0368
  365TMC3    C1 5512   0.133   2.160  10.931  0.3348  0.7213 -0.5645
  365TMC3    C2 5513   0.242   2.181  10.850  0.3303  0.2072  0.3681
  365TMC3    C3 5514   0.310   2.306  10.861  0.1282  0.2261  0.2819
  365TMC3    C4 5515   0.089   2.248  11.027 -0.2407 -0.1367 -0.5338
  365TMC3    C5 5516   0.163   2.366  11.037  0.2820 -0.5840  0.7857
  365TMC3    C6 5517   0.264   2.399  10.949 -0.5899  0.1420 -0.3299
  365TMC3     C 5518   0.073   2.030  10.930 -0.0246 -0.3365 -0.3946
  365TMC3     O 5519   0.141   1.936  10.895  0.2064 -0.4119  0.5917
  365TMC3     H 5520   0.275   2.095  10.793 -1.5495 -0.7054  0.6897
  365TMC3    H1 5521   0.010   2.224  11.097  0.6346 -0.5669  0.3181
  365TMC3    H2 5522   0.304   2.499  10.950  4.1748 -1.7684 -1.3366
  365TMC3    C7 5523   0.103   2.475  11.122  0.8411  0.4870  1.0080
  365TMC3    C8 5524   0.405   2.349  10.758  0.2390  0.0692 -0.1874
  365TMC3    O1 5525   0.166   2.580  11.126  0.2992  0.4072 -0.3759
  365TMC3    O2 5526   0.478   2.446  10.776  0.6566  0.0942 -0.5916
  366MPD2     C 5527   2.108   2.949  15.182 -0.5787 -0.2316 -0.3059
  366MPD2    C1 5528   2.211   3.032  15.148 -0.2887 -0.2263  0.2643
  366MPD2    C2 5529   2.331   2.981  15.107  0.8890 -0.1359  0.3463
  366MPD2    C3 5530   2.337   2.847  15.062 -0.3732  0.2976 -0.5972
  366MPD2    C4 5531   2.231   2.764  15.089 -0.2342  0.3877 -0.2792
  366MPD2    C5 5532   2.113   2.815  15.150 -0.0411 -0.1470 -0.1438
  366MPD2     H 5533   2.416   3.048  15.097 -0.1209  1.1932  0.6544
  366MPD2    H1 5534   2.240   2.658  15.066 -0.3246  0.1317  0.8677
  366MPD2    H2 5535   2.015   2.985  15.224  0.4237 -0.3980  2.1038
  366MPD2    H3 5536   2.033   2.743  15.163  0.4239 -0.6892 -0.3327
  366MPD2     N 5537   2.453   2.801  14.990 -0.2546  0.7284  0.1858
  366MPD2    H5 5538   2.518   2.877  14.974  0.6221 -0.5260 -2.2280
  366MPD2    N1 5539   2.203   3.169  15.177 -0.0153 -0.0694 -0.0886
  366MPD2    H7 5540   2.291   3.218  15.192  0.9447 -2.0712  0.7482
  367TMC3    C1 5541   2.093   3.392  15.163  0.5813  0.2438  0.0903
  367TMC3    C2 5542   2.199   3.457  15.207 -0.4710 -0.3640 -0.3057
  367TMC3    C3 5543   2.205   3.588  15.177 -0.3131 -0.0860 -0.0553
  367TMC3    C4 5544   2.008   3.452  15.073 -0.1161  0.1308  0.3082
  367TMC3    C5 5545   2.016   3.584  15.047 -0.0557 -0.5444 -0.6216
  367TMC3    C6 5546   2.120   3.653  15.100  0.4441  0.0897 -0.0385
  367TMC3     C 5547   2.091   3.244  15.172 -0.0439  0.1080  0.3826
  367TMC3     O 5548   1.973   3.202  15.158 -0.4725 -0.1369  0.3507
  367TMC3     H 5549   2.275   3.402  15.261 -0.5179  0.7648  0.9015
  367TMC3    H1 5550   1.925   3.390  15.041  1.7999 -0.2688 -3.8749
  367TMC3    H2 5551   2.139   3.758  15.081  2.0072  0.1047  1.5986
  367TMC3    C7 5552   1.940   3.628  14.934 -1.2902  0.6150 -0.3232
  367TMC3    C8 5553   2.311   3.663  15.246 -0.3736  0.5305 -0.2061
  367TMC3    O1 5554   1.836   3.572  14.908  1.1285  0.0802 -0.7728
  367TMC3    O2 5555   2.355   3.618  15.351  1.0055 -0.2642  0.2663
  368MPD2     C 5556   3.676   4.270  13.360  0.2327  0.6317 -0.5803
  368MPD2    C1 5557   3.631   4.390  13.306  0.1276  0.4799 -0.0701
  368MPD2    C2 5558   3.723   4.493  13.288 -0.2132 -0.1747 -0.5774
  368MPD2    C3 5559   3.859   4.485  13.320 -0.3943  0.1005  0.4404
  368MPD2    C4 5560   3.902   4.365  13.382 -0.2640  0.2824 -0.0029
  368MPD2    C5 5561   3.812   4.261  13.394  0.0026  0.1409 -0.1287
  368MPD2     H 5562   3.695   4.583  13.235  3.5779  1.6335  0.4815
  368MPD2    H1 5563   4.009   4.360  13.399 -0.2736 -0.0844 -0.0600
  368MPD2    H2 5564   3.605   4.195  13.394  0.2137  0.2837 -1.3880
  368MPD2    H3 5565   3.841   4.161  13.426  0.8074  0.8212  1.2683
  368MPD2     N 5566   3.954   4.581  13.293  0.2011 -0.2021 -0.4637
  368MPD2    H5 5567   4.050   4.553  13.304 -0.2963 -1.2621  1.2243
  368MPD2    N1 5568   3.495   4.394  13.263  0.6972 -1.0366 -0.1011
  368MPD2    H7 5569   3.442   4.308  13.276  0.0773 -0.3887  1.6190
  369TMC3    C1 5570   3.336   4.459  13.111 -0.5834  0.8344 -0.1307
  369TMC3    C2 5571   3.374   4.461  12.981 -0.2486  0.0325  0.3900
  369TMC3    C3 5572   3.274   4.466  12.895  0.6608 -0.1793  0.9799
  369TMC3    C4 5573   3.207   4.469  13.152  1.1077 -0.5370 -0.4817
  369TMC3    C5 5574   3.113   4.501  13.067  0.0120  0.0203 -0.3920
  369TMC3    C6 5575   3.140   4.491  12.929 -0.2238 -0.0454 -0.3442
  369TMC3     C 5576   3.443   4.503  13.198  0.5983  0.7493 -0.8202
  369TMC3     O 5577   3.484   4.618  13.185 -0.1783  0.5228 -0.1759
  369TMC3     H 5578   3.480   4.467  12.960 -0.6308  0.2345 -1.4331
  369TMC3    H1 5579   3.192   4.473  13.260  0.1837 -0.6752 -0.6067
  369TMC3    H2 5580   3.068   4.516  12.851  0.4549  0.3030 -0.8579
  369TMC3    C7 5581   2.977   4.483  13.118  0.7877  0.4209  0.1326
  369TMC3    C8 5582   3.306   4.502  12.757  0.5433 -0.1352  0.1872
  369TMC3    O1 5583   2.967   4.480  13.239  0.7662 -0.2092 -0.3407
  369TMC3    O2 5584   3.244   4.597  12.706 -0.0174  0.3423 -0.3316
  370TMC3    C1 5585   2.969   1.162  16.248 -0.4684 -0.2680 -0.2439
  370TMC3    C2 5586   2.889   1.102  16.340  0.2811 -0.4858  0.2906
  370TMC3    C3 5587   2.808   1.000  16.305  0.2561  0.4406  0.0137
  370TMC3    C4 5588   2.961   1.115  16.119  0.2435  0.3314  0.7202
  370TMC3    C5 5589   2.874   1.016  16.086  0.2919  0.6941  0.1037
  370TMC3    C6 5590   2.796   0.949  16.178 -0.9570  0.5169  0.3470
  370TMC3     C 5591   3.094   1.210  16.297 -0.6692  0.6395  0.6537
  370TMC3     O 5592   3.124   1.184  16.414  0.3780 -0.0082 -0.2221
  370TMC3     H 5593   2.905   1.115  16.447  1.7161  0.9286 -0.0893
  370TMC3    H1 5594   3.020   1.149  16.035 -3.0389 -0.6343 -1.9916
  370TMC3    H2 5595   2.726   0.874  16.144 -1.2801  1.1241 -0.3548
  370TMC3    C7 5596   2.878   0.965  15.959 -0.3645 -0.4139  0.1197
  370TMC3    C8 5597   2.747   0.908  16.405  0.4040  0.4190 -0.1276
  370TMC3    O1 5598   2.891   1.045  15.867 -0.3045 -0.0140 -0.5124
  370TMC3    O2 5599   2.703   0.805  16.351  0.1079  0.5960  0.3462
  371TMC3    C1 5600   3.940   4.056  15.339 -0.9218 -0.3893  0.1288
  371TMC3    C2 5601   3.814   4.027  15.390 -0.1613 -0.1975  0.3041
  371TMC3    C3 5602   3.743   4.139  15.439 -0.5729  0.6331 -0.0107
  371TMC3    C4 5603   4.001   4.182  15.350  0.2803  0.0022  0.1933
  371TMC3    C5 5604   3.926   4.280  15.407  0.0745 -0.4297  0.1067
  371TMC3    C6 5605   3.799   4.259  15.447  0.5182  0.2833 -0.7029
  371TMC3     C 5606   4.027   3.958  15.282  0.3316  0.3809 -0.8078
  371TMC3     O 5607   4.120   3.999  15.208 -0.3346 -0.4198 -0.6414
  371TMC3     H 5608   3.772   3.927  15.382  0.7919 -0.5387 -0.4548
  371TMC3    H1 5609   4.106   4.193  15.326  0.4434  0.6989  1.2239
  371TMC3    H2 5610   3.740   4.346  15.476  1.2774  0.7198 -0.4740
  371TMC3    C7 5611   3.982   4.406  15.449  0.1703  0.1679  1.0868
  371TMC3    C8 5612   3.597   4.128  15.433 -0.6167  0.0531 -0.7545
  371TMC3    O1 5613   3.910   4.509  15.447  0.0620 -0.2745 -0.0882
  371TMC3    O2 5614   3.542   4.039  15.374  0.1954 -0.7942 -0.1467
  372MPD2     C 5615   4.351   0.470  13.547  0.4385 -0.3172  0.1031
  372MPD2    C1 5616   4.382   0.393  13.653 -0.3729  0.4318 -0.2744
  372MPD2    C2 5617   4.322   0.273  13.668 -0.3749  0.4140 -0.6409
  372MPD2    C3 5618   4.228   0.228  13.578  0.9197  0.0252 -0.0428
  372MPD2    C4 5619   4.209   0.292  13.460  0.7234 -0.6483  0.3965
  372MPD2    C5 5620   4.272   0.422  13.446  0.4064  0.1495 -0.1175
  372MPD2     H 5621   4.339   0.223  13.763  0.5933 -1.2092 -1.6670
  372MPD2    H1 5622   4.138   0.264  13.384  1.3626 -0.5809 -0.2279
  372MPD2    H2 5623   4.385   0.572  13.539 -1.5675  0.3962  0.6640
  372MPD2    H3 5624   4.264   0.478  13.353  1.8223  0.9675  0.2556
  372MPD2     N 5625   4.144   0.114  13.626  0.7500  0.1503  0.4483
  372MPD2    H5 5626   4.181   0.062  13.704 -0.3616 -3.7077 -1.5697
  372MPD2    N1 5627   4.463   0.431  13.766 -0.6128  0.0267 -0.2932
  372MPD2    H7 5628   4.465   0.366  13.844  0.2233  2.8528  2.0603
  373TMC3    C1 5629   3.964   4.715  13.655 -0.3687 -0.6601 -0.0356
  373TMC3    C2 5630   3.827   4.708  13.637 -1.2690 -0.4027 -0.1080
  373TMC3    C3 5631   3.778   4.578  13.650 -0.5702  0.0861  0.0906
  373TMC3    C4 5632   4.039   4.610  13.700  0.0586  0.5349  0.4165
  373TMC3    C5 5633   3.986   4.485  13.711  0.7386  0.5581 -0.7526
  373TMC3    C6 5634   3.857   4.469  13.667  0.1931 -0.5264  0.2824
  373TMC3     C 5635   4.027   0.076  13.567  0.3839 -0.1087  0.0896
  373TMC3     O 5636   3.956   0.145  13.494 -0.4936 -0.3021  0.4023
  373TMC3     H 5637   3.765   0.055  13.619  0.2914  0.9823  1.1371
  373TMC3    H1 5638   4.147   4.616  13.714  0.5701 -0.2739 -3.1286
  373TMC3    H2 5639   3.810   4.372  13.650  1.7789 -1.2935  0.2161
  373TMC3    C7 5640   4.068   4.369  13.745 -0.5115  0.1439 -0.5904
  373TMC3    C8 5641   3.631   4.563  13.644  0.0062 -0.2634  0.4116
  373TMC3    O1 5642   4.193   4.376  13.751  0.0927 -0.2096 -0.2338
  373TMC3    O2 5643   3.565   4.646  13.585  0.2156 -0.2233 -0.3284
  374TMC3    C1 5644   4.410   0.345   9.734  0.1524 -0.5996 -0.7318
  374TMC3    C2 5645   4.459   0.475   9.748 -0.0170  0.0671 -0.1735
  374TMC3    C3 5646   4.425   0.570   9.656  0.3093 -0.3715 -0.3163
  374TMC3    C4 5647   4.315   0.308   9.639 -0.4129  0.4272 -0.0242
  374TMC3    C5 5648   4.271   0.412   9.557 -0.1492  0.8021  0.4773
  374TMC3    C6 5649   4.333   0.536   9.560 -0.1888  0.0282 -0.3734
  374TMC3     C 5650   4.472   0.228   9.800 -0.6440  0.2758 -0.5931
  374TMC3     O 5651   4.427   0.116   9.775 -0.2445  0.3789  0.2831
  374TMC3     H 5652   4.507   0.492   9.844  0.1682  2.5201 -0.7017
  374TMC3    H1 5653   4.283   0.205   9.635 -1.5903  0.7132  1.8973
  374TMC3    H2 5654   4.309   0.603   9.479 -0.6250  0.5666  0.2008
  374TMC3    C7 5655   4.179   0.380   9.455 -0.1977 -0.4591  0.6608
  374TMC3    C8 5656   4.464   0.707   9.670 -0.0850  0.1676  0.2510
  374TMC3    O1 5657   4.187   0.444   9.349  0.3394  0.1852  0.2062
  374TMC3    O2 5658   4.383   0.782   9.619 -0.1834  0.1030  0.2602
  375MPD2     C 5659   4.549   1.214  17.103 -0.3270  0.0570  0.2085
  375MPD2    C1 5660   4.455   1.166  17.012  0.0395  0.8614 -0.1518
  375MPD2    C2 5661   4.487   1.062  16.931 -0.0239  0.4789  0.1907
  375MPD2    C3 5662   4.614   1.001  16.943  0.3598 -0.2330  0.3108
  375MPD2    C4 5663   4.692   1.042  17.043 -0.1117  0.3336 -0.1518
  375MPD2    C5 5664   4.667   1.151  17.119  0.3074 -0.3295 -0.0682
  375MPD2     H 5665   4.421   1.032  16.850 -0.7397  2.0749  0.1808
  375MPD2    H1 5666   0.045   0.993  17.069 -1.2090 -2.9130 -2.3162
  375MPD2    H2 5667   4.522   1.297  17.169  0.2059  0.2334  0.2028
  375MPD2    H3 5668   4.732   1.172  17.203 -0.7218  0.3665  0.5637
  375MPD2     N 5669   4.658   0.901  16.853 -0.2049 -0.4614 -0.1848
  375MPD2    H5 5670   0.008   0.859  16.874  0.1262  0.4414  0.1988
  375MPD2    N1 5671   4.323   1.213  17.003 -0.6539 -0.0137 -0.3732
  375MPD2    H7 5672   4.262   1.183  16.929  0.0046 -0.8036 -0.5903
  376TMC3    C1 5673   4.662   0.765  16.658  0.1651 -0.0075  0.9460
  376TMC3    C2 5674   0.033   0.702  16.710  0.0239  0.1574  0.2159
  376TMC3    C3 5675   0.124   0.656  16.619 -0.1071 -0.0212  0.1153
  376TMC3    C4 5676   4.638   0.761  16.525  1.1191  0.6763 -0.3071
  376TMC3    C5 5677   4.729   0.700  16.440 -0.5753 -0.0669 -0.2791
  376TMC3    C6 5678   0.104   0.643  16.482 -0.5912 -0.2719  0.1191
  376TMC3     C 5679   4.597   0.871  16.734  0.5272  0.7868  0.0953
  376TMC3     O 5680   4.508   0.927  16.670 -0.1258 -0.9461  0.0683
  376TMC3     H 5681   0.056   0.702  16.816  1.1260  1.6526 -0.0262
  376TMC3    H1 5682   4.565   0.830  16.484  0.2381 -0.0139  0.1047
  376TMC3    H2 5683   0.170   0.587  16.416  0.7214 -0.4839  1.6240
  376TMC3    C7 5684   4.719   0.721  16.297  0.7551 -0.5112  0.1741
  376TMC3    C8 5685   0.253   0.599  16.671  0.5420 -0.0814 -0.0052
  376TMC3    O1 5686   4.609   0.740  16.241 -0.3766 -0.0514  0.6671
  376TMC3    O2 5687   0.252   0.551  16.780 -0.1154  0.2195 -0.0858
  377MPD2     C 5688   3.203   0.136  12.900  0.3737  0.7107 -0.4168
  377MPD2    C1 5689   3.092   0.210  12.875 -0.8331 -0.2355 -0.0718
  377MPD2    C2 5690   2.984   0.215  12.966 -0.3059  0.1346 -0.3199
  377MPD2    C3 5691   2.994   0.143  13.080  0.3350 -0.7168  0.9481
  377MPD2    C4 5692   3.109   0.076  13.111 -0.9012 -0.3334 -0.1045
  377MPD2    C5 5693   3.224   0.082  13.026 -0.0914  0.0485 -0.5210
  377MPD2     H 5694   2.893   0.264  12.932 -0.6213 -0.9967 -1.1113
  377MPD2    H1 5695   3.107   0.004  13.192 -0.5135  0.2992  0.4654
  377MPD2    H2 5696   3.276   0.111  12.825 -0.5026 -2.4671 -0.2148
  377MPD2    H3 5697   3.316   0.033  13.054 -0.6741 -1.2850 -0.9820
  377MPD2     N 5698   2.888   0.111  13.161 -0.0473 -0.0159  0.6960
  377MPD2    H5 5699   2.910   0.041  13.232 -1.1164 -0.4928  0.5586
  377MPD2    N1 5700   3.077   0.268  12.747  0.3913 -0.2516  0.3686
  377MPD2    H7 5701   3.163   0.259  12.693  0.0152 -0.4941 -0.1845
  378TMC3    C1 5702   2.948   0.444  12.334  0.4286 -0.4730  0.7433
  378TMC3    C2 5703   2.944   0.455  12.470 -0.0953  0.4327 -0.0119
  378TMC3    C3 5704   3.003   0.353  12.552 -0.2036 -0.6936  0.4533
  378TMC3    C4 5705   3.002   0.332  12.274 -0.0569  0.1908  0.1570
  378TMC3    C5 5706   3.058   0.241  12.357  0.3578  0.1091  0.5452
  378TMC3    C6 5707   3.056   0.245  12.496  0.5082 -0.6973  0.4409
  378TMC3     C 5708   2.891   0.549  12.254 -0.1305  0.5974 -0.5354
  378TMC3     O 5709   2.799   0.616  12.302  0.8590 -0.3518 -0.0924
  378TMC3     H 5710   2.906   0.547  12.513 -2.4701 -0.7413  0.3910
  378TMC3    H1 5711   3.003   0.312  12.167  0.2926  1.0889 -0.0122
  378TMC3    H2 5712   3.097   0.161  12.551  0.2208 -1.0547  0.1188
  378TMC3    C7 5713   3.137   0.132  12.299  0.1432 -0.6157  0.3938
  378TMC3    C8 5714   2.982   0.351  12.694  0.1431  0.4049 -0.3876
  378TMC3    O1 5715   3.170   0.049  12.379  0.2015  0.0769  1.1120
  378TMC3    O2 5716   2.904   0.420  12.753  0.2000  0.1753  0.5487
  379MPD2     C 5717   3.349   4.073  15.938  0.2016  0.1629 -0.0969
  379MPD2    C1 5718   3.256   3.997  15.997  0.0967 -0.4231  0.0783
  379MPD2    C2 5719   3.266   3.954  16.127  0.9398  0.4728  0.0474
  379MPD2    C3 5720   3.374   3.997  16.193  0.1804  0.9325  0.0942
  379MPD2    C4 5721   3.472   4.082  16.134  0.2291 -0.7622 -0.3266
  379MPD2    C5 5722   3.449   4.132  16.011 -0.6245  0.0914 -0.1251
  379MPD2     H 5723   3.193   3.890  16.175  0.5285  1.4454  0.7272
  379MPD2    H1 5724   3.565   4.111  16.183  0.3041 -1.8554  0.1888
  379MPD2    H2 5725   3.337   4.109  15.837  0.9329  0.0838 -0.2126
  379MPD2    H3 5726   3.510   4.208  15.965  2.4542 -1.1617  1.9075
  379MPD2     N 5727   3.402   3.960  16.325  0.7506  0.0437  0.7946
  379MPD2    H5 5728   3.491   3.975  16.371  0.4269 -0.3100  1.5349
  379MPD2    N1 5729   3.144   3.964  15.909 -0.0610 -0.2489 -0.1273
  379MPD2    H7 5730   3.140   3.998  15.814  2.5141 -0.4651 -0.3104
  380TMC3    C1 5731   2.984   3.821  15.804 -0.2909  0.5496 -0.4185
  380TMC3    C2 5732   3.016   3.698  15.753 -0.4283 -0.0871  0.2352
  380TMC3    C3 5733   2.999   3.669  15.618 -0.0990 -0.2675  0.9026
  380TMC3    C4 5734   2.942   3.920  15.718 -0.3467 -0.3212  0.3573
  380TMC3    C5 5735   2.912   3.883  15.587 -0.9669 -0.2309  0.7470
  380TMC3    C6 5736   2.935   3.756  15.535  0.8637  0.4159  0.3258
  380TMC3     C 5737   3.051   3.861  15.928  0.5447  0.2450 -0.2397
  380TMC3     O 5738   3.039   3.791  16.026  0.5485  0.2280  0.4687
  380TMC3     H 5739   3.068   3.622  15.810 -0.4376  0.0194  0.3834
  380TMC3    H1 5740   2.923   4.018  15.760  0.3337 -0.7036  1.5730
  380TMC3    H2 5741   2.919   3.737  15.429  0.9079  0.4180  0.3187
  380TMC3    C7 5742   2.820   3.978  15.515  0.5248 -0.2485 -0.2068
  380TMC3    C8 5743   3.066   3.554  15.558  0.6022 -0.8487  0.6319
  380TMC3    O1 5744   2.798   4.096  15.543  0.2442 -0.2497  0.2962
  380TMC3    O2 5745   3.069   3.454  15.628  0.0294  0.2469  0.6802
  381TMC3    C1 5746   2.719   0.122  16.086 -0.0943  0.2001 -0.0898
  381TMC3    C2 5747   2.836   0.181  16.121 -0.5070  0.2447 -0.1906
  381TMC3    C3 5748   2.837   0.291  16.199  0.4721 -0.3951  0.4253
  381TMC3    C4 5749   2.599   0.174  16.126 -0.0509  0.2239 -0.2848
  381TMC3    C5 5750   2.595   0.283  16.210 -0.0486  0.1155  0.0191
  381TMC3    C6 5751   2.718   0.342  16.243  0.1970  0.2728  0.0118
  381TMC3     C 5752   2.727   4.739  16.002 -0.1741 -0.1815 -0.7789
  381TMC3     O 5753   2.834   4.690  16.015  0.0392  0.1444 -0.0635
  381TMC3     H 5754   2.929   0.138  16.086  1.1030  0.8135  3.3428
  381TMC3    H1 5755   2.507   0.125  16.096  0.5615 -0.3649 -1.1948
  381TMC3    H2 5756   2.713   0.438  16.294  2.0274 -1.7248  4.0015
  381TMC3    C7 5757   2.502   0.237  16.305  0.1713 -0.2954 -0.1175
  381TMC3    C8 5758   2.962   0.372  16.186  0.1248  0.8749 -0.0708
  381TMC3    O1 5759   2.472   0.120  16.303 -0.2040 -0.4938  0.0352
  381TMC3    O2 5760   3.041   0.346  16.100 -0.4769 -0.3538 -0.5505
  382MPD2     C 5761   2.401   2.607   0.486  0.3480  0.4557  0.1485
  382MPD2    C1 5762   2.307   2.614   0.389 -0.5983  0.0006 -0.0567
  382MPD2    C2 5763   2.221   2.515   0.374 -0.2322 -1.0290  0.3457
  382MPD2    C3 5764   2.215   2.411   0.469 -0.6591  0.5914  0.0606
  382MPD2    C4 5765   2.308   2.405   0.574 -0.2883  0.2312  0.4211
  382MPD2    C5 5766   2.401   2.501   0.572 -0.3988  0.4143  0.2025
  382MPD2     H 5767   2.148   2.518   0.294  0.5055 -1.9801 -0.3586
  382MPD2    H1 5768   2.302   2.330   0.652  0.7922 -2.3812 -2.0216
  382MPD2    H2 5769   2.475   2.684   0.501 -1.0422  1.6259  0.9504
  382MPD2    H3 5770   2.472   2.509   0.654 -1.0870  0.2330  0.8076
  382MPD2     N 5771   2.119   2.311   0.462 -0.0045  0.4943 -0.1214
  382MPD2    H5 5772   2.113   2.241   0.534  0.7551 -0.1557 -0.6907
  382MPD2    N1 5773   2.301   2.709   0.292 -0.5101  0.0598  0.1346
  382MPD2    H7 5774   2.228   2.696   0.223  0.0118 -1.1834 -0.1802
  383TMC3    C1 5775   1.932   2.176   0.390  0.3995  0.2375 -0.5775
  383TMC3    C2 5776   1.850   2.126   0.292 -0.2251 -0.0407  0.5910
  383TMC3    C3 5777   1.769   2.014   0.317  0.2900  0.8839  0.0590
  383TMC3    C4 5778   1.928   2.118   0.513  0.5645 -0.5077 -0.5896
  383TMC3    C5 5779   1.857   2.004   0.524 -0.3961  0.9263  0.4091
  383TMC3    C6 5780   1.774   1.948   0.435  0.0912  0.7400 -0.1628
  383TMC3     C 5781   2.032   2.284   0.355 -0.0765  0.6689  0.2005
  383TMC3     O 5782   2.011   2.335   0.247  0.4772 -0.4156 -0.8809
  383TMC3     H 5783   1.870   2.160   0.191  0.4215 -1.4603  0.2461
  383TMC3    H1 5784   1.977   2.167   0.596 -0.0350  0.1583 -0.6270
  383TMC3    H2 5785   1.710   1.864   0.458 -0.2676  1.0902  0.1154
  383TMC3    C7 5786   1.839   1.956   0.658 -0.1889 -0.2934  0.0382
  383TMC3    C8 5787   1.682   1.959   0.217 -0.3960  0.3884  0.5394
  383TMC3    O1 5788   1.870   2.024   0.758 -0.4012 -0.8143  0.3003
  383TMC3    O2 5789   1.652   2.038   0.127  0.1002  0.3985 -0.1817
  384MPD2     C 5790   4.106   3.477  12.737 -0.1020 -0.1008  0.1438
  384MPD2    C1 5791   4.018   3.388  12.690 -0.2893  0.5291 -0.4084
  384MPD2    C2 5792   4.047   3.254  12.686 -0.1512 -0.7807 -0.2913
  384MPD2    C3 5793   4.167   3.212  12.735  0.0320  0.0731  0.1413
  384MPD2    C4 5794   4.255   3.307  12.786 -0.2478 -0.0456  0.5042
  384MPD2    C5 5795   4.216   3.439  12.796 -0.0696 -0.4861  0.0979
  384MPD2     H 5796   3.972   3.188  12.643 -1.4012 -1.2515  2.6626
  384MPD2    H1 5797   4.353   3.282  12.826  1.2340  3.4573 -0.8822
  384MPD2    H2 5798   4.071   3.580  12.735 -2.8556 -1.0915 -1.3273
  384MPD2    H3 5799   4.285   3.517  12.828 -2.5807  1.8072 -0.0774
  384MPD2     N 5800   4.210   3.084  12.741 -0.3829  0.6662 -0.4726
  384MPD2    H5 5801   4.292   3.059  12.795  0.7383  1.9858 -1.5727
  384MPD2    N1 5802   3.897   3.444  12.641  0.2830  0.1204  0.3358
  384MPD2    H7 5803   3.891   3.544  12.626  0.0290  0.0320 -0.1352
  385TMC3    C1 5804   4.205   2.846  12.729  0.8237  0.4721 -0.1079
  385TMC3    C2 5805   4.157   2.738  12.661  0.4325  0.5882  1.2050
  385TMC3    C3 5806   4.140   2.620  12.726  0.1331  0.4257  0.1287
  385TMC3    C4 5807   4.234   2.837  12.862 -0.0890 -1.1165 -0.2929
  385TMC3    C5 5808   4.204   2.715  12.924 -0.5685  0.5450  0.8749
  385TMC3    C6 5809   4.168   2.604  12.859 -0.6501 -0.1441 -0.5956
  385TMC3     C 5810   4.152   2.972  12.683 -0.2752 -0.5940 -0.6642
  385TMC3     O 5811   4.044   2.967  12.624 -0.1622  0.6179 -0.3195
  385TMC3     H 5812   4.134   2.752  12.556  0.3956 -1.7594  0.9060
  385TMC3    H1 5813   4.255   2.920  12.928 -1.2182 -1.1840  0.1548
  385TMC3    H2 5814   4.156   2.512  12.915 -0.1533  0.9800  1.3511
  385TMC3    C7 5815   4.127   2.738  13.051 -0.1895 -0.6035  0.9093
  385TMC3    C8 5816   4.063   2.517  12.657 -0.3196 -0.0889  0.2362
  385TMC3    O1 5817   4.133   2.845  13.112 -0.1905  0.9944  0.2734
  385TMC3    O2 5818   3.992   2.448  12.731  0.0143  0.0296  0.1399
  386TMC3    C1 5819   4.359   0.512  11.359 -0.0027 -0.1170 -0.9381
  386TMC3    C2 5820   4.356   0.560  11.232 -0.5061 -0.6281  0.0373
  386TMC3    C3 5821   4.232   0.549  11.174  0.2327  0.3863  0.3213
  386TMC3    C4 5822   4.249   0.475  11.434 -0.0262 -0.0618  0.0838
  386TMC3    C5 5823   4.123   0.475  11.376 -0.1146  0.0836 -0.2643
  386TMC3    C6 5824   4.116   0.512  11.248 -1.1056 -0.1158  0.8177
  386TMC3     C 5825   4.485   0.489  11.421  0.3230  0.1310  0.2024
  386TMC3     O 5826   4.568   0.575  11.413  0.4189 -0.0483 -0.1294
  386TMC3     H 5827   4.447   0.581  11.178 -0.7336  0.5582  0.1107
  386TMC3    H1 5828   4.256   0.453  11.539  1.0821  2.6339  0.5716
  386TMC3    H2 5829   4.017   0.519  11.205  0.7287  1.4007 -3.0957
  386TMC3    C7 5830   4.015   0.412  11.447  0.0968  0.3061  0.1333
  386TMC3    C8 5831   4.196   0.647  11.067  0.4347 -0.0520  0.4212
  386TMC3    O1 5832   4.044   0.334  11.539  0.1278  0.3500  0.9519
  386TMC3    O2 5833   4.088   0.622  11.013  0.1580 -0.2177  0.0749
  387MPD2     C 5834   1.677   0.578   9.873  0.2229  0.1993 -0.0579
  387MPD2    C1 5835   1.796   0.518   9.840  0.1584  0.0504 -0.5832
  387MPD2    C2 5836   1.804   0.406   9.762 -0.1976 -0.5640  0.0754
  387MPD2    C3 5837   1.690   0.335   9.730  0.1687 -0.0551  0.3176
  387MPD2    C4 5838   1.572   0.391   9.763  0.5216  0.1934 -0.0897
  387MPD2    C5 5839   1.568   0.512   9.833 -0.4222  0.1007 -0.2044
  387MPD2     H 5840   1.899   0.360   9.740  0.9616  1.5097  0.7715
  387MPD2    H1 5841   1.476   0.348   9.739  0.5340 -1.7507  3.2176
  387MPD2    H2 5842   1.664   0.669   9.931  1.7361  0.9833 -0.9741
  387MPD2    H3 5843   1.468   0.548   9.857 -0.8297 -1.5647  0.6559
  387MPD2     N 5844   1.700   0.203   9.680  0.1303  0.1632  0.1512
  387MPD2    H5 5845   1.794   0.164   9.681  0.7548  1.6872  0.9284
  387MPD2    N1 5846   1.921   0.563   9.891  0.3628  0.1264  0.0166
  387MPD2    H7 5847   2.001   0.507   9.862  1.9498  2.5118 -0.2730
  388TMC3    C1 5848   2.066   0.612  10.069  0.2665  0.0115 -0.0614
  388TMC3    C2 5849   2.125   0.701  10.152 -0.2877 -0.0053 -0.1704
  388TMC3    C3 5850   2.245   0.670  10.201  0.4245  0.2006 -0.4188
  388TMC3    C4 5851   2.140   0.503  10.023 -0.6997  0.3275  0.6298
  388TMC3    C5 5852   2.270   0.486  10.070 -0.6588 -0.2509  1.1633
  388TMC3    C6 5853   2.326   0.563  10.167 -0.1975  0.2699 -0.0975
  388TMC3     C 5854   1.935   0.635  10.008  0.4956  0.5261  0.1056
  388TMC3     O 5855   1.867   0.734  10.038  0.0779  0.3094  0.3609
  388TMC3     H 5856   2.068   0.783  10.192  0.4325  0.0402  0.7607
  388TMC3    H1 5857   2.095   0.425   9.961 -0.9174  0.9142  0.0502
  388TMC3    H2 5858   2.426   0.560  10.210 -0.8010 -0.2948  1.2847
  388TMC3    C7 5859   2.347   0.362  10.033 -0.3809  0.6945 -0.6417
  388TMC3    C8 5860   2.305   0.762  10.293  0.6568 -0.7644 -1.0345
  388TMC3    O1 5861   2.445   0.342  10.105 -0.2656  0.0904  0.2467
  388TMC3    O2 5862   2.282   0.878  10.260  0.5337 -0.1212 -0.0841
  389MPD2     C 5863   1.210   4.039  10.956 -0.1603 -0.2587  0.1981
  389MPD2    C1 5864   1.102   3.960  10.977  0.1498  0.2548  0.1030
  389MPD2    C2 5865   1.106   3.858  11.075  0.1099 -0.5599  0.8309
  389MPD2    C3 5866   1.221   3.842  11.155 -0.1224  0.5561 -0.4462
  389MPD2    C4 5867   1.328   3.927  11.131 -0.2061  0.3066 -0.1775
  389MPD2    C5 5868   1.327   4.018  11.032  0.1532 -0.7535 -0.2638
  389MPD2     H 5869   1.029   3.782  11.073  0.0918 -0.4900 -0.7492
  389MPD2    H1 5870   1.419   3.906  11.186 -1.3397  0.5550  1.8077
  389MPD2    H2 5871   1.214   4.114  10.878  1.5708 -0.5689 -0.0277
  389MPD2    H3 5872   1.417   4.075  11.014  1.2352 -2.0346  1.0004
  389MPD2     N 5873   1.243   3.743  11.251 -0.9646 -0.0056  0.1604
  389MPD2    H5 5874   1.321   3.757  11.315 -0.3614  0.6470 -0.7231
  389MPD2    N1 5875   1.000   3.962  10.885  0.7109 -0.6704 -0.4124
  389MPD2    H7 5876   1.005   4.032  10.811 -1.4493 -0.6188 -0.5131
  390TMC3    C1 5877   1.181   3.555  11.393 -0.0350  0.0538 -0.3370
  390TMC3    C2 5878   1.139   3.423  11.400 -0.2096 -0.6231  0.0458
  390TMC3    C3 5879   1.147   3.368  11.526 -0.0613 -0.3285  0.5023
  390TMC3    C4 5880   1.213   3.634  11.499  0.0303 -0.1724 -0.5386
  390TMC3    C5 5881   1.226   3.578  11.621 -0.7873 -0.1748  0.7092
  390TMC3    C6 5882   1.191   3.445  11.633 -0.4769  0.1216 -0.1306
  390TMC3     C 5883   1.166   3.624  11.264  0.1113  0.3059  0.1120
  390TMC3     O 5884   1.077   3.585  11.187 -0.7337 -0.4327  0.0056
  390TMC3     H 5885   1.117   3.368  11.309 -1.5763 -1.8211  1.1056
  390TMC3    H1 5886   1.208   3.741  11.485 -0.7185 -0.1897 -0.3930
  390TMC3    H2 5887   1.216   3.396  11.727 -0.5180  1.5461  0.6243
  390TMC3    C7 5888   1.212   3.680  11.724  1.3695 -0.1460  0.3651
  390TMC3    C8 5889   1.113   3.232  11.551 -0.5813  0.3568  0.6597
  390TMC3    O1 5890   1.274   3.784  11.706 -0.3214 -0.0151  0.3240
  390TMC3    O2 5891   1.100   3.141  11.473 -0.3498  0.1718  0.5446
  391MPD2     C 5892   0.038   0.587  10.985  0.8513 -0.7889  0.3608
  391MPD2    C1 5893   0.173   0.616  10.974  0.6304 -0.1586  0.9001
  391MPD2    C2 5894   0.215   0.693  10.860 -0.5067 -0.4584 -0.4664
  391MPD2    C3 5895   0.129   0.747  10.768  0.1461  0.3293 -0.0867
  391MPD2    C4 5896   4.736   0.712  10.772  0.5087  0.6346  0.0769
  391MPD2    C5 5897   4.698   0.630  10.879 -0.8585 -0.4993  0.7972
  391MPD2     H 5898   0.318   0.726  10.855 -0.6072 -0.1753 -0.6898
  391MPD2    H1 5899   4.670   0.749  10.694  0.5902  2.1107  0.7144
  391MPD2    H2 5900   4.732   0.534  11.067  1.2620 -0.0358  1.0862
  391MPD2    H3 5901   4.601   0.584  10.869 -0.4047 -1.3634  0.3989
  391MPD2     N 5902   0.189   0.820  10.660  0.4421  0.4825 -0.0525
  391MPD2    H5 5903   0.291   0.815  10.659  0.3446 -1.7117 -0.1649
  391MPD2    N1 5904   0.261   0.572  11.078 -0.0652  0.0168 -0.1631
  391MPD2    H7 5905   0.209   0.541  11.160 -0.7490  1.2459 -0.1321
  392TMC3    C1 5906   0.219   0.922  10.459  0.1130 -0.9727 -0.2961
  392TMC3    C2 5907   0.159   0.940  10.340 -0.0307  0.1511 -1.0203
  392TMC3    C3 5908   0.236   0.938  10.231  0.0264  0.0286  0.2199
  392TMC3    C4 5909   0.353   0.904  10.474 -0.0098 -0.1809  0.0075
  392TMC3    C5 5910   0.422   0.897  10.358 -0.0135  0.2519  0.3262
  392TMC3    C6 5911   0.368   0.906  10.235  0.4431 -0.4365  0.1081
  392TMC3     C 5912   0.128   0.885  10.555 -0.0153 -0.4971 -0.0644
  392TMC3     O 5913   0.005   0.891  10.531  0.0425 -0.4350 -0.3719
  392TMC3     H 5914   0.053   0.950  10.321 -0.1070 -0.9669 -1.1674
  392TMC3    H1 5915   0.414   0.901  10.563  0.6877 -1.4153 -0.5040
  392TMC3    H2 5916   0.429   0.885  10.147 -0.5534  0.9919 -0.9145
  392TMC3    C7 5917   0.564   0.900  10.363 -0.2721  0.4335  0.2860
  392TMC3    C8 5918   0.173   0.906  10.105  0.1756  0.5107 -0.1853
  392TMC3    O1 5919   0.617   0.846  10.461  0.5799  0.2923  0.0704
  392TMC3    O2 5920   0.181   0.791  10.065  0.4576  0.2985  0.0105
  393TMC3    C1 5921   4.198   2.892  11.086  0.1849 -1.1402  0.4952
  393TMC3    C2 5922   4.135   2.814  11.178  0.1188 -0.3113  0.0475
  393TMC3    C3 5923   4.171   2.690  11.194  0.1313  0.4911  0.3373
  393TMC3    C4 5924   4.310   2.849  11.017 -0.0319  0.9161  0.2443
  393TMC3    C5 5925   4.356   2.726  11.049  0.5093  0.1819 -0.5664
  393TMC3    C6 5926   4.277   2.640  11.128  0.0568  0.4121  0.7615
  393TMC3     C 5927   4.149   3.027  11.066 -0.9395  0.0933 -0.8245
  393TMC3     O 5928   4.031   3.050  11.070 -0.2445 -0.2896 -0.3084
  393TMC3     H 5929   4.039   2.850  11.214  0.2371  1.2598 -1.2440
  393TMC3    H1 5930   4.338   2.894  10.922 -1.2044 -1.1255 -1.0605
  393TMC3    H2 5931   4.317   2.546  11.165 -0.1484 -0.5490 -1.4633
  393TMC3    C7 5932   4.469   2.671  10.979 -0.4620 -0.2205  0.1339
  393TMC3    C8 5933   4.111   2.622  11.308 -0.4118 -0.4301  0.4782
  393TMC3    O1 5934   4.473   2.555  10.945 -0.7823  0.4596  0.4373
  393TMC3    O2 5935   4.083   2.705  11.398  0.2792 -0.4109 -0.2002
  394TMC3    C1 5936   0.852   3.855  10.739  0.3591 -0.1523  0.1988
  394TMC3    C2 5937   0.724   3.808  10.715 -0.3547  0.3242  0.1899
  394TMC3    C3 5938   0.707   3.765  10.583  0.7332 -0.7423  0.2411
  394TMC3    C4 5939   0.962   3.843  10.652  0.9768 -0.3500  0.0940
  394TMC3    C5 5940   0.928   3.798  10.528  0.6371 -0.3652 -0.3183
  394TMC3    C6 5941   0.803   3.767  10.490 -0.0742 -0.2805 -0.7921
  394TMC3     C 5942   0.886   3.889  10.876  0.1789  0.6057  0.0851
  394TMC3     O 5943   0.833   3.824  10.963 -0.2549 -0.5729  0.6232
  394TMC3     H 5944   0.653   3.794  10.795  0.8868 -1.8803  0.8985
  394TMC3    H1 5945   1.065   3.868  10.675  0.0202  1.6676  2.1487
  394TMC3    H2 5946   0.773   3.747  10.388 -1.1038  3.0283 -1.1323
  394TMC3    C7 5947   1.024   3.825  10.418 -0.6790 -0.5545 -0.7847
  394TMC3    C8 5948   0.576   3.692  10.564 -0.0244  0.1386  0.6075
  394TMC3    O1 5949   0.973   3.887  10.328  0.5726  0.9214  0.2718
  394TMC3    O2 5950   0.473   3.728  10.623 -0.1101  0.0194  0.4216
  395TMC3    C1 5951   0.997   0.625  15.527 -0.0714 -0.3290 -0.2483
  395TMC3    C2 5952   0.975   0.502  15.476 -1.1070 -0.1925  0.4807
  395TMC3    C3 5953   1.011   0.486  15.346 -0.3567  0.1665  0.1616
  395TMC3    C4 5954   1.056   0.724  15.460 -0.1441  0.7172  0.1780
  395TMC3    C5 5955   1.103   0.697  15.333 -0.4733 -0.8233  0.6829
  395TMC3    C6 5956   1.094   0.575  15.279 -0.8425 -0.3829  0.0241
  395TMC3     C 5957   0.924   0.681  15.636 -0.5381  0.2698 -0.3827
  395TMC3     O 5958   0.909   0.804  15.638  0.6977  0.0009 -0.3626
  395TMC3     H 5959   0.923   0.426  15.533  1.8069 -2.1418  0.5423
  395TMC3    H1 5960   1.077   0.822  15.502  2.7815  0.2629 -0.2218
  395TMC3    H2 5961   1.145   0.547  15.187 -0.1620  1.1210 -0.0555
  395TMC3    C7 5962   1.172   0.812  15.260 -0.4353 -0.1870  0.0168
  395TMC3    C8 5963   0.981   0.364  15.297 -1.2565 -0.1537  0.3495
  395TMC3    O1 5964   1.181   0.914  15.329  0.4525  0.6699  0.2437
  395TMC3    O2 5965   1.011   0.276  15.375 -0.0255  0.3251 -0.3461
  396MPD2     C 5966   0.100   1.895  17.098  0.5485  0.3462 -0.3267
  396MPD2    C1 5967   0.156   2.016  17.151 -0.0537  0.3211 -0.7665
  396MPD2    C2 5968   0.228   2.093  17.056 -0.5110 -0.3292 -0.9730
  396MPD2    C3 5969   0.231   2.052  16.926  0.3066  0.5132  0.4083
  396MPD2    C4 5970   0.183   1.932  16.884 -0.1929  0.0224  0.4001
  396MPD2    C5 5971   0.117   1.859  16.973  0.3895  0.0994 -0.4977
  396MPD2     H 5972   0.285   2.182  17.080 -0.1826 -0.4912 -1.1552
  396MPD2    H1 5973   0.179   1.899  16.781 -0.2450  0.1033  0.3756
  396MPD2    H2 5974   0.043   1.829  17.163 -0.7965 -2.8004 -4.7116
  396MPD2    H3 5975   0.071   1.765  16.943  1.2265 -0.3748 -0.2880
  396MPD2     N 5976   0.276   2.157  16.843 -0.6118  0.5624 -0.3130
  396MPD2    H5 5977   0.281   2.252  16.878  0.3159 -0.1139  1.4329
  396MPD2    N1 5978   0.146   2.039  17.288 -0.0126 -0.8810 -0.2644
  396MPD2    H7 5979   0.094   1.969  17.341  0.6058  0.3823  2.0162
  397TMC3    C1 5980   0.235   2.096  17.501 -0.5579  0.7323 -0.4075
  397TMC3    C2 5981   0.358   2.051  17.530  0.1316  0.4115  0.1378
  397TMC3    C3 5982   0.377   1.926  17.586  0.2846 -0.4532  0.1261
  397TMC3    C4 5983   0.130   2.014  17.539  0.2650  0.5886  0.5379
  397TMC3    C5 5984   0.149   1.903  17.623  0.5919 -0.0211  0.5916
  397TMC3    C6 5985   0.274   1.856  17.644 -0.6488  0.2336 -0.0709
  397TMC3     C 5986   0.218   2.135  17.365  0.4422  0.0107  1.1252
  397TMC3     O 5987   0.292   2.224  17.326 -0.1920  0.2948 -0.0649
  397TMC3     H 5988   0.437   2.085  17.464  0.9119 -1.2410  0.2105
  397TMC3    H1 5989   0.031   2.045  17.506  0.2924 -2.1237 -2.1040
  397TMC3    H2 5990   0.290   1.764  17.701 -0.6124  1.0521  1.2436
  397TMC3    C7 5991   0.048   1.870  17.719  0.9546 -0.4903  0.0003
  397TMC3    C8 5992   0.465   1.843  17.509 -0.8511  0.7840 -0.2671
  397TMC3    O1 5993   0.079   1.861   0.080 -0.7729  0.2472  0.6833
  397TMC3    O2 5994   0.400   1.767  17.441 -0.7536 -0.0597 -0.4363
  398MPD2     C 5995   3.430   4.118  17.600 -0.2352 -0.5132 -0.0715
  398MPD2    C1 5996   3.528   4.030  17.644 -1.0321  0.4587  0.6137
  398MPD2    C2 5997   3.660   4.068  17.651 -0.1431  0.0951  0.6013
  398MPD2    C3 5998   3.697   4.203  17.629  0.3619  0.1603  0.2225
  398MPD2    C4 5999   3.601   4.285  17.578  0.2087 -0.5025  0.4841
  398MPD2    C5 6000   3.471   4.243  17.569  0.5485  1.2707 -0.0411
  398MPD2     H 6001   3.730   3.997  17.694 -0.4027 -1.4634 -1.5613
  398MPD2    H1 6002   3.619   4.389  17.552  1.4014 -0.6913  0.5597
  398MPD2    H2 6003   3.324   4.097  17.602 -0.7519  2.0928  0.0296
  398MPD2    H3 6004   3.406   4.321  17.529  0.0180  0.5568 -0.5755
  398MPD2     N 6005   3.833   4.234  17.637  0.1855 -0.4314  0.3962
  398MPD2    H5 6006   3.900   4.158  17.645  1.2485  0.4554  0.0389
  398MPD2    N1 6007   3.487   3.903  17.694  0.5303  0.3320  0.2261
  398MPD2    H7 6008   3.391   3.884  17.670  1.1993 -1.6121 -0.8860
  399TMC3    C1 6009   3.497   3.694   0.047 -0.6959 -0.5425  0.3067
  399TMC3    C2 6010   3.577   3.602   0.114 -0.1214  0.0487 -0.3243
  399TMC3    C3 6011   3.527   3.474   0.133 -0.7257  0.0512  0.2254
  399TMC3    C4 6012   3.376   3.659  17.753 -0.0698 -0.2294 -0.7114
  399TMC3    C5 6013   3.333   3.529   0.007  0.1257 -0.7829 -0.4462
  399TMC3    C6 6014   3.405   3.437   0.076  0.2145  0.6089  0.0982
  399TMC3     C 6015   3.565   3.814   0.001  0.5147  0.1704  0.6888
  399TMC3     O 6016   3.678   3.830   0.041 -0.2523  0.1028 -0.6014
  399TMC3     H 6017   3.672   3.637   0.152 -0.6033 -0.8873  1.7414
  399TMC3    H1 6018   3.329   3.719  17.676 -0.5643 -0.0018 -0.2361
  399TMC3    H2 6019   3.373   3.334   0.076 -0.9734  0.9706  1.5551
  399TMC3    C7 6020   3.220   3.483  17.684 -0.5886 -0.0306  0.0952
  399TMC3    C8 6021   3.613   3.387   0.205  0.3189 -0.2238  0.2794
  399TMC3    O1 6022   3.164   3.383  17.727  0.2744  0.1519  0.4054
  399TMC3    O2 6023   3.724   3.428   0.244 -0.2483  0.2673 -0.3272
  400TMC3    C1 6024   1.970   2.184  17.696  0.4094 -0.0452  0.2117
  400TMC3    C2 6025   1.924   2.055  17.683 -0.3285  0.6865  0.3324
  400TMC3    C3 6026   1.810   2.030  17.603 -0.2522 -0.9244 -0.1579
  400TMC3    C4 6027   1.900   2.288  17.636  0.6071 -0.3905  0.7891
  400TMC3    C5 6028   1.784   2.258  17.563  0.6310 -1.2481  0.2724
  400TMC3    C6 6029   1.736   2.128  17.545  0.2815 -0.0736  0.4326
  400TMC3     C 6030   2.112   2.194  17.673  0.2029 -0.2720 -0.1756
  400TMC3     O 6031   2.149   2.112  17.590 -0.0054 -0.2747 -0.1787
  400TMC3     H 6032   1.988   1.973  17.713 -0.3975  0.3589 -0.3967
  400TMC3    H1 6033   1.955   2.381  17.632  0.2819 -0.1332  2.4860
  400TMC3    H2 6034   1.645   2.118  17.487  2.5349 -0.8454 -2.9952
  400TMC3    C7 6035   1.700   2.368  17.510  0.1317  0.0504  0.1343
  400TMC3    C8 6036   1.798   1.883  17.572 -0.2113 -0.1533 -0.2119
  400TMC3    O1 6037   1.755   2.438  17.427 -0.3180  0.0581 -0.2867
  400TMC3    O2 6038   1.874   1.806  17.624  0.0355  0.2791 -0.1174
  401MPD2     C 6039   4.623   0.464   0.162 -0.5615  0.2671  0.3047
  401MPD2    C1 6040   4.686   0.437   0.281  0.0695  0.6976 -0.7661
  401MPD2    C2 6041   4.705   0.303   0.328 -0.3521  0.0108  0.0113
  401MPD2    C3 6042   4.667   0.195   0.251  0.5390 -0.2352 -0.2130
  401MPD2    C4 6043   4.596   0.227   0.139  0.0601 -0.0065 -0.2207
  401MPD2    C5 6044   4.575   0.353   0.093 -0.0932  0.6486 -0.7153
  401MPD2     H 6045   0.024   0.283   0.417 -0.6650 -0.2311  0.1656
  401MPD2    H1 6046   4.568   0.151   0.067  0.2615 -1.2949  1.0757
  401MPD2    H2 6047   4.624   0.558   0.107  1.3459  0.9253  1.4597
  401MPD2    H3 6048   4.515   0.364   0.003  0.0037  1.8747 -0.6316
  401MPD2     N 6049   4.709   0.068   0.293 -0.0711  0.3826  0.4784
  401MPD2    H5 6050   0.004   0.060   0.388 -0.8019 -1.1641  0.6156
  401MPD2    N1 6051   0.003   0.543   0.359 -0.5326 -0.5132  0.0142
  401MPD2    H7 6052   0.056   0.507   0.438  2.5548 -0.5936 -2.1206
  402TMC3    C1 6053   0.017   4.574   0.274 -0.2531  0.3957 -0.0201
  402TMC3    C2 6054   0.067   4.583   0.401  0.9380 -0.1610  0.3118
  402TMC3    C3 6055   0.127   4.468   0.446 -0.1315  0.0886 -0.4280
  402TMC3    C4 6056   0.045   4.464   0.199  0.2837 -0.4933 -0.6741
  402TMC3    C5 6057   0.124   4.359   0.245  0.5471 -0.6493 -0.4514
  402TMC3    C6 6058   0.168   4.366   0.368 -0.4234  0.2704 -0.4481
  402TMC3     C 6059   4.706   4.702   0.208  0.1432 -0.5397  0.3782
  402TMC3     O 6060   4.682   4.694   0.087 -0.7916  0.5943 -0.0254
  402TMC3     H 6061   0.028   4.659   0.468 -0.8780 -0.0631 -0.8656
  402TMC3    H1 6062   0.005   4.470   0.098  0.7992 -0.8756 -0.9017
  402TMC3    H2 6063   0.207   4.276   0.416  0.0953 -0.6499 -2.6126
  402TMC3    C7 6064   0.136   4.239   0.159 -0.3156  0.4038 -0.3278
  402TMC3    C8 6065   0.180   4.465   0.587  0.0122 -0.0008 -0.7396
  402TMC3    O1 6066   0.047   4.238   0.076  0.2144 -0.3893  0.3297
  402TMC3    O2 6067   0.243   4.363   0.613  0.0337  1.1994 -0.2455
  403MPD2     C 6068   3.513   2.292  13.183  1.0443 -0.0588 -0.5335
  403MPD2    C1 6069   3.417   2.355  13.261 -1.1715  0.1449  0.1378
  403MPD2    C2 6070   3.449   2.383  13.393 -0.0591 -0.5421 -0.0302
  403MPD2    C3 6071   3.567   2.338  13.449  0.2209 -0.4714  0.2474
  403MPD2    C4 6072   3.658   2.278  13.368 -0.0713  0.2046 -0.6003
  403MPD2    C5 6073   3.635   2.261  13.233 -0.7151 -0.3120  0.5813
  403MPD2     H 6074   3.376   2.421  13.462  0.3407  0.6760 -0.2882
  403MPD2    H1 6075   3.754   2.241  13.402 -0.8199 -0.4836  0.7690
  403MPD2    H2 6076   3.494   2.262  13.080  2.0536  1.3688 -1.1331
  403MPD2    H3 6077   3.709   2.214  13.169 -0.5974  1.9135 -0.9268
  403MPD2     N 6078   3.583   2.361  13.583  0.3711  0.2615  0.1028
  403MPD2    H5 6079   3.502   2.401  13.629  0.5603  1.4459 -0.5945
  403MPD2    N1 6080   3.299   2.391  13.195  0.7705 -0.6125  0.3460
  403MPD2    H7 6081   3.287   2.371  13.096 -3.9232  0.8770  0.6164
  404TMC3    C1 6082   3.076   2.434  13.153  0.4584  0.1164 -0.9448
  404TMC3    C2 6083   2.952   2.443  13.210  0.5116 -0.1240 -0.7529
  404TMC3    C3 6084   2.856   2.365  13.158  0.5500  0.0291 -0.6254
  404TMC3    C4 6085   3.099   2.386  13.030  0.1070  1.1883 -0.1383
  404TMC3    C5 6086   2.993   2.334  12.965  0.3039  0.3883  0.2971
  404TMC3    C6 6087   2.880   2.314  13.032 -0.3388  1.6303  0.1026
  404TMC3     C 6088   3.190   2.442  13.249  0.4237  0.2314 -0.5955
  404TMC3     O 6089   3.172   2.476  13.366  0.0349 -0.0990 -0.6494
  404TMC3     H 6090   2.940   2.501  13.300 -0.1285 -1.1828 -0.1627
  404TMC3    H1 6091   3.191   2.404  12.975  0.5512 -1.2425 -0.1851
  404TMC3    H2 6092   2.791   2.276  12.982 -0.0055 -0.2838  0.9292
  404TMC3    C7 6093   2.999   2.296  12.825 -0.9386 -0.3922 -0.1789
  404TMC3    C8 6094   2.721   2.354  13.209 -0.0382  0.8441  0.1887
  404TMC3    O1 6095   2.947   2.194  12.789 -0.2549 -0.9414  0.4920
  404TMC3    O2 6096   2.635   2.299  13.140 -0.1135  0.1910 -0.0836
  405MPD2     C 6097   3.602   3.767  14.317  0.4039  0.1797  0.4959
  405MPD2    C1 6098   3.587   3.631  14.304 -0.1178  0.8016  0.0712
  405MPD2    C2 6099   3.488   3.585  14.220 -0.9308  1.5838  0.2991
  405MPD2    C3 6100   3.391   3.662  14.153 -0.2266  0.0878 -0.6265
  405MPD2    C4 6101   3.395   3.800  14.186  0.1859 -0.3975  0.1979
  405MPD2    C5 6102   3.500   3.845  14.262 -0.3637 -0.7469 -0.8826
  405MPD2     H 6103   3.475   3.477  14.219  1.5061  1.2964 -1.9738
  405MPD2    H1 6104   3.328   3.870  14.138  0.0609 -0.7368 -0.1166
  405MPD2    H2 6105   3.682   3.822  14.364 -0.0710 -0.2700  1.8359
  405MPD2    H3 6106   3.496   3.950  14.290 -4.3665 -1.8360  2.5330
  405MPD2     N 6107   3.305   3.595  14.059  0.1302 -0.1669  0.5038
  405MPD2    H5 6108   3.321   3.496  14.051  1.5842  0.1007  0.1679
  405MPD2    N1 6109   3.664   3.535  14.368  0.2843 -0.0525  0.1634
  405MPD2    H7 6110   3.656   3.435  14.349 -1.2255  0.1740 -0.3632
  406TMC3    C1 6111   2.865   3.516  13.941  0.3184  0.1944 -0.1730
  406TMC3    C2 6112   2.886   3.387  13.983  0.2813  0.0577 -0.1095
  406TMC3    C3 6113   3.015   3.344  13.993  0.7838  0.4302  0.0731
  406TMC3    C4 6114   2.974   3.601  13.922 -0.1392  0.0847  0.2130
  406TMC3    C5 6115   3.103   3.554  13.947 -0.2746 -0.2427 -0.1246
  406TMC3    C6 6116   3.123   3.422  13.970  0.5364  0.5216  0.0699
  406TMC3     C 6117   2.728   3.568  13.908  0.2836 -0.7000  0.2273
  406TMC3     O 6118   2.707   3.630  13.805 -0.1205  0.8684  0.3081
  406TMC3     H 6119   2.801   3.322  14.002  2.3341 -2.8810 -1.1033
  406TMC3    H1 6120   2.948   3.705  13.905  2.0808  0.3322 -1.6278
  406TMC3    H2 6121   3.218   3.380  13.938  0.2150 -1.0537  1.2110
  406TMC3    C7 6122   3.205   3.652  13.984  0.2134  0.0063  0.0576
  406TMC3    C8 6123   3.033   3.233  14.088 -0.3080 -0.2322 -0.3642
  406TMC3    O1 6124   3.165   3.767  13.993  0.1352 -0.3627  0.1831
  406TMC3    O2 6125   2.934   3.163  14.118  0.0101 -0.1907  0.3228
  407MPD2     C 6126   1.076   0.200   9.353  0.3997  0.5025 -0.1266
  407MPD2    C1 6127   1.181   0.215   9.440  0.0851 -0.5355 -1.0090
  407MPD2    C2 6128   1.169   0.272   9.564 -0.0870 -0.8023  0.2046
  407MPD2    C3 6129   1.052   0.341   9.595 -0.0083 -0.8407 -0.2840
  407MPD2    C4 6130   0.950   0.341   9.496 -0.3017 -1.1106  0.9173
  407MPD2    C5 6131   0.951   0.257   9.387  0.0904 -0.0993 -0.0422
  407MPD2     H 6132   1.262   0.276   9.619 -0.0163  1.5238 -0.0698
  407MPD2    H1 6133   0.854   0.383   9.525 -1.0930 -2.1645 -0.1827
  407MPD2    H2 6134   1.090   0.140   9.264 -2.6932 -1.5702  0.7778
  407MPD2    H3 6135   0.866   0.249   9.321 -0.6478  0.4823  0.8429
  407MPD2     N 6136   1.031   0.424   9.707 -0.4552  0.4969 -0.7537
  407MPD2    H5 6137   0.941   0.468   9.722 -0.7620 -1.0812  2.1048
  407MPD2    N1 6138   1.314   0.185   9.406  0.4541  0.3982  0.4334
  407MPD2    H7 6139   1.389   0.196   9.474  0.1630  1.1139  0.6420
  408TMC3    C1 6140   1.502   0.145   9.299 -0.1476 -0.0981 -0.2969
  408TMC3    C2 6141   1.583   0.047   9.249 -1.3143 -0.6609  0.1393
  408TMC3    C3 6142   1.719   0.069   9.262 -0.7209 -0.1206 -0.1160
  408TMC3    C4 6143   1.557   0.271   9.333 -0.5060  0.0324 -0.4034
  408TMC3    C5 6144   1.694   0.291   9.324  0.1325 -0.1189  0.0410
  408TMC3    C6 6145   1.776   0.182   9.305 -0.4134 -0.3309  0.4437
  408TMC3     C 6146   1.361   0.123   9.290 -0.8304 -0.2330 -0.0461
  408TMC3     O 6147   1.303   0.055   9.209  0.5797 -0.1905 -0.1284
  408TMC3     H 6148   1.540   4.694   9.214 -0.3168 -0.5335 -1.4101
  408TMC3    H1 6149   1.493   0.354   9.360  0.9663  1.0551 -0.0348
  408TMC3    H2 6150   1.881   0.207   9.299 -0.3223 -0.9657 -0.6351
  408TMC3    C7 6151   1.752   0.413   9.376 -0.1970 -0.0338 -0.5864
  408TMC3    C8 6152   1.793   4.686   9.269 -0.4252 -0.1586  0.3179
  408TMC3    O1 6153   1.850   0.388   9.445  0.1486 -0.1879  0.0269
  408TMC3    O2 6154   1.726   4.583   9.260  0.4198 -0.0958  0.8713
  409MPD2     C 6155   0.751   1.366  16.954  0.1469 -0.1249  0.3573
  409MPD2    C1 6156   0.828   1.335  17.062 -0.0520  1.3102  0.2686
  409MPD2    C2 6157   0.904   1.440  17.117  0.7767 -0.4735  0.1421
  409MPD2    C3 6158   0.911   1.564  17.057 -0.5724  1.0658 -0.3714
  409MPD2    C4 6159   0.843   1.585  16.937  0.7600  0.7649  0.4675
  409MPD2    C5 6160   0.770   1.483  16.884  0.2224  0.5531  0.0440
  409MPD2     H 6161   0.955   1.412  17.208  0.3331 -1.9235 -0.0577
  409MPD2    H1 6162   0.847   1.678  16.882 -1.4748  0.4091 -0.3001
  409MPD2    H2 6163   0.691   1.291  16.905  1.2641  0.0451 -1.2967
  409MPD2    H3 6164   0.708   1.489  16.795 -0.0439  0.2833  0.2117
  409MPD2     N 6165   0.986   1.667  17.110  0.0974 -0.2695  0.4082
  409MPD2    H5 6166   0.993   1.747  17.047  1.1169 -0.4313  0.3146
  409MPD2    N1 6167   0.824   1.215  17.131 -0.5037 -0.2145  0.1388
  409MPD2    H7 6168   0.888   1.207  17.209 -0.8104 -2.0480  0.1834
  410TMC3    C1 6169   1.131   1.784  17.256  0.1697  0.3028 -0.1208
  410TMC3    C2 6170   1.186   1.793  17.382 -0.1721 -0.3717  0.4167
  410TMC3    C3 6171   1.301   1.871  17.392  0.3901 -0.1965 -0.1573
  410TMC3    C4 6172   1.171   1.858  17.145  0.3186  0.8323 -0.5277
  410TMC3    C5 6173   1.283   1.929  17.169 -1.1147  0.1721 -0.1889
  410TMC3    C6 6174   1.364   1.923  17.280  0.1295 -0.0685 -0.1223
  410TMC3     C 6175   1.034   1.670  17.234  0.7114  0.4996  0.1720
  410TMC3     O 6176   1.026   1.581  17.318 -0.0461 -1.1897 -0.1582
  410TMC3     H 6177   1.139   1.754  17.472 -1.5788 -0.8334 -0.5208
  410TMC3    H1 6178   1.143   1.848  17.041 -1.9812 -0.0157  0.1720
  410TMC3    H2 6179   1.463   1.967  17.286  0.3652 -0.3701 -2.0070
  410TMC3    C7 6180   1.351   1.965  17.041 -0.2238  0.0474 -0.1255
  410TMC3    C8 6181   1.376   1.873  17.521  0.2079  0.0210  0.3953
  410TMC3    O1 6182   1.469   1.941  17.042 -0.0354 -0.0920 -0.3450
  410TMC3    O2 6183   1.443   1.972  17.549  0.0401 -0.1479  0.0997
  411MPD2     C 6184   1.608   1.825  14.646  0.4519  0.1694  0.0662
  411MPD2    C1 6185   1.472   1.800  14.663  0.2697 -0.7930 -0.4477
  411MPD2    C2 6186   1.424   1.674  14.693  0.5345  0.5510  0.6215
  411MPD2    C3 6187   1.509   1.567  14.692  0.4872 -0.4683 -0.0522
  411MPD2    C4 6188   1.645   1.586  14.685 -0.0985  1.2805  0.1425
  411MPD2    C5 6189   1.689   1.716  14.651 -0.3318 -0.1364 -0.0564
  411MPD2     H 6190   1.317   1.658  14.702  0.3755  1.5210  0.4593
  411MPD2    H1 6191   1.716   1.507  14.666 -0.4781  0.4418  2.2070
  411MPD2    H2 6192   1.641   1.919  14.602  1.2061 -1.2192 -2.3446
  411MPD2    H3 6193   1.787   1.733  14.608  0.6046 -4.4354  0.3777
  411MPD2     N 6194   1.469   1.439  14.721  0.0830  0.2441 -0.3175
  411MPD2    H5 6195   1.544   1.370  14.714 -0.1473  0.0198 -0.5801
  411MPD2    N1 6196   1.383   1.907  14.638  0.1357  0.2475 -0.4183
  411MPD2    H7 6197   1.418   2.002  14.640 -0.7368  0.5407  1.0933
  412TMC3    C1 6198   1.315   1.258  14.734  0.8493  0.6625 -0.2033
  412TMC3    C2 6199   1.201   1.200  14.793  0.0088  0.0209  0.4120
  412TMC3    C3 6200   1.162   1.073  14.766  0.3819  0.2858  0.1530
  412TMC3    C4 6201   1.389   1.186  14.638 -0.1827  0.9456  0.1644
  412TMC3    C5 6202   1.337   1.059  14.606 -0.4737  0.0604  0.0610
  412TMC3    C6 6203   1.225   1.004  14.670 -0.2376 -0.0328 -0.4046
  412TMC3     C 6204   1.340   1.398  14.749 -0.2234 -0.0513 -0.0322
  412TMC3     O 6205   1.241   1.464  14.770 -0.1363  0.7546  0.1803
  412TMC3     H 6206   1.140   1.258  14.862  1.5547  1.3520  0.6627
  412TMC3    H1 6207   1.466   1.237  14.582  1.9694 -2.7047 -0.1811
  412TMC3    H2 6208   1.199   0.902  14.644 -1.2844 -0.0696  0.8125
  412TMC3    C7 6209   1.324   1.046  14.468 -0.2256  0.0209  0.2106
  412TMC3    C8 6210   1.023   1.059  14.731 -0.1993 -0.1711 -0.3728
  412TMC3    O1 6211   1.408   1.109  14.402  0.5237  0.0552  0.0548
  412TMC3    O2 6212   0.998   1.009  14.624 -0.0827  0.0176 -0.1310
  413MPD2     C 6213   2.502   0.302  15.460 -1.0208 -0.0375  0.2120
  413MPD2    C1 6214   2.469   0.279  15.329 -0.0888 -0.4277  0.5902
  413MPD2    C2 6215   2.565   0.255  15.233  0.1290 -0.2495  0.5107
  413MPD2    C3 6216   2.690   0.217  15.274  0.6098 -0.0239  0.0596
  413MPD2    C4 6217   2.725   0.244  15.409 -0.3473 -0.1050 -0.2567
  413MPD2    C5 6218   2.627   0.291  15.496 -0.5088 -0.0452  0.0876
  413MPD2     H 6219   2.531   0.229  15.133  2.0767  1.4712 -0.5892
  413MPD2    H1 6220   2.825   0.240  15.451 -0.0570 -2.0901 -1.1305
  413MPD2    H2 6221   2.434   0.338  15.536  0.7302  1.4817  1.0890
  413MPD2    H3 6222   2.661   0.311  15.597  0.5235 -0.2347 -0.2151
  413MPD2     N 6223   2.771   0.160  15.173  0.5401 -0.2501 -0.1799
  413MPD2    H5 6224   2.734   0.152  15.079  2.5448 -1.5022 -0.8678
  413MPD2    N1 6225   2.333   0.271  15.296 -0.3438  0.7030 -0.2662
  413MPD2    H7 6226   2.267   0.281  15.372  1.1948  0.6812  1.0834
  414TMC3    C1 6227   2.927   0.003  15.076  0.4768  0.4011  0.1828
  414TMC3    C2 6228   3.013   4.646  15.098 -0.8359  0.5391 -0.3416
  414TMC3    C3 6229   3.017   4.539  15.012 -0.1198 -0.4897 -0.2930
  414TMC3    C4 6230   2.863   0.009  14.954 -0.8245 -0.3611  0.1321
  414TMC3    C5 6231   2.876   4.652  14.866 -0.1847  0.0252  0.2755
  414TMC3    C6 6232   2.936   4.531  14.902  0.0282  0.3809  0.2770
  414TMC3     C 6233   2.888   0.090  15.194  0.2721  0.1064 -1.0409
  414TMC3     O 6234   2.956   0.084  15.295 -0.0587 -0.2599 -0.0164
  414TMC3     H 6235   3.053   4.633  15.198  0.8756 -1.3232 -1.2573
  414TMC3    H1 6236   2.805   0.093  14.917  0.0632  0.3734  0.4249
  414TMC3    H2 6237   2.948   4.455  14.827 -1.9079  0.8800 -0.5255
  414TMC3    C7 6238   2.814   4.664  14.735  0.1601  0.5600  0.4620
  414TMC3    C8 6239   3.128   4.442  15.025 -0.1324 -0.0273  0.1695
  414TMC3    O1 6240   2.712   4.734  14.724 -0.0257 -0.3301 -0.3982
  414TMC3    O2 6241   3.111   4.331  14.977 -0.1762 -0.3512  0.3378
  415TMC3    C1 6242   3.297   2.389  10.389  0.8839 -0.6025  0.8135
  415TMC3    C2 6243   3.333   2.464  10.278  0.7338 -0.4506 -0.5148
  415TMC3    C3 6244   3.286   2.420  10.161 -0.8201 -0.1685 -0.1908
  415TMC3    C4 6245   3.244   2.261  10.382 -0.0393 -0.2564 -0.0950
  415TMC3    C5 6246   3.193   2.231  10.260  0.1054  0.4218  1.0581
  415TMC3    C6 6247   3.208   2.311  10.150 -0.3747  0.1396 -0.6398
  415TMC3     C 6248   3.372   2.421  10.506 -0.5077 -0.2494  1.1818
  415TMC3     O 6249   3.398   2.318  10.571  0.5529 -0.1409 -0.0082
  415TMC3     H 6250   3.381   2.562  10.279 -2.3365  1.0466 -0.2498
  415TMC3    H1 6251   3.228   2.204  10.472 -1.1186 -3.2946 -2.2141
  415TMC3    H2 6252   3.177   2.279  10.052  1.6233 -1.8110 -0.6165
  415TMC3    C7 6253   3.153   2.091  10.232  0.3714 -0.6193  0.3093
  415TMC3    C8 6254   3.283   2.502  10.044 -0.7549 -0.0315 -0.1980
  415TMC3    O1 6255   3.055   2.075  10.156 -0.0157  0.0463  0.0391
  415TMC3    O2 6256   3.201   2.483   9.957  0.3081  0.3657 -0.1147
  416MPD2     C 6257   1.073   1.390  11.879 -0.4939  0.1941 -0.0538
  416MPD2    C1 6258   0.956   1.388  11.813  0.3609  0.9567 -1.2614
  416MPD2    C2 6259   0.944   1.341  11.674  0.4210 -0.5729 -0.4518
  416MPD2    C3 6260   1.056   1.284  11.613 -0.0829 -0.3091  0.5018
  416MPD2    C4 6261   1.174   1.277  11.690  0.1561 -0.0134  0.0966
  416MPD2    C5 6262   1.183   1.335  11.812 -0.2255 -0.6805 -0.0116
  416MPD2     H 6263   0.855   1.346  11.613 -0.2338 -1.0543  0.4642
  416MPD2    H1 6264   1.269   1.247  11.649 -0.0328 -0.5931  0.0822
  416MPD2    H2 6265   1.092   1.426  11.979  0.0061  0.1127 -0.1200
  416MPD2    H3 6266   1.277   1.337  11.865 -0.0998  3.5299 -0.4248
  416MPD2     N 6267   1.046   1.201  11.504 -0.0186  0.0907  0.1542
  416MPD2    H5 6268   1.117   1.133  11.478 -1.6002 -1.3126 -0.5135
  416MPD2    N1 6269   0.847   1.438  11.882  0.3482  0.3291 -0.7500
  416MPD2    H7 6270   0.868   1.471  11.975  1.4176 -0.7997 -0.5884
  417TMC3    C1 6271   0.631   1.515  11.914 -0.2294 -0.2130  0.0068
  417TMC3    C2 6272   0.619   1.491  12.045  0.2340  0.0497  0.2580
  417TMC3    C3 6273   0.518   1.550  12.112  0.1035 -0.2960  0.2844
  417TMC3    C4 6274   0.539   1.590  11.849  0.4201  0.0608  1.0045
  417TMC3    C5 6275   0.437   1.648  11.918  0.0139  0.1606  0.1491
  417TMC3    C6 6276   0.432   1.639  12.053  0.0874 -0.0752  0.4027
  417TMC3     C 6277   0.722   1.445  11.832  0.1707 -0.0788 -0.3474
  417TMC3     O 6278   0.668   1.404  11.724  0.5111  0.1763  0.3455
  417TMC3     H 6279   0.690   1.433  12.103 -0.9809 -0.8262  0.8639
  417TMC3    H1 6280   0.543   1.605  11.742  0.5121 -0.3445  0.9533
  417TMC3    H2 6281   0.366   1.705  12.109  0.2520 -0.1813  0.7219
  417TMC3    C7 6282   0.372   1.762  11.846 -0.2784 -1.0618  0.4310
  417TMC3    C8 6283   0.554   1.600  12.246 -1.0149 -0.0132  0.3213
  417TMC3    O1 6284   0.415   1.779  11.732  0.2183  1.0591 -0.3123
  417TMC3    O2 6285   0.523   1.716  12.271  0.7739 -0.5361 -0.5426
  418TMC3    C1 6286   4.172   4.183  17.632 -0.5755 -0.4037  1.1086
  418TMC3    C2 6287   4.082   4.280  17.587  0.5185  0.0646  0.2116
  418TMC3    C3 6288   4.023   4.364  17.671  0.0367 -0.0352 -0.4314
  418TMC3    C4 6289   4.190   4.162   0.008  0.4694  0.5904  0.6271
  418TMC3    C5 6290   4.138   4.250   0.099  0.6021  0.1525 -1.1338
  418TMC3    C6 6291   4.055   4.350   0.054 -0.3092 -0.0539 -0.6906
  418TMC3     C 6292   4.248   4.127  17.518 -0.2341  0.4075  0.5188
  418TMC3     O 6293   4.243   4.190  17.413  0.2490  0.6934  0.0492
  418TMC3     H 6294   4.048   4.268  17.485  3.8339 -3.5331 -0.4946
  418TMC3    H1 6295   4.276   4.104   0.041 -0.2965 -1.7897 -1.5231
  418TMC3    H2 6296   3.993   4.404   0.125  0.7089 -2.4069  1.9253
  418TMC3    C7 6297   4.167   4.243   0.240 -0.1912 -0.9259 -0.0201
  418TMC3    C8 6298   3.879   4.361  17.654  0.1173 -0.2793 -0.5508
  418TMC3    O1 6299   4.138   4.340   0.308  0.3388  0.1834 -0.0856
  418TMC3    O2 6300   3.826   4.463  17.697  0.4985  0.4652  0.1343
  419MPD2     C 6301   3.130   0.756  12.377 -0.1354 -0.1939 -0.3090
  419MPD2    C1 6302   3.044   0.864  12.359 -0.1182 -0.0207  0.6876
  419MPD2    C2 6303   2.976   0.900  12.474 -0.1800  0.5722 -0.0498
  419MPD2    C3 6304   2.996   0.846  12.594 -0.0378 -0.2669  0.0619
  419MPD2    C4 6305   3.091   0.746  12.611  0.0345 -0.7473 -0.4525
  419MPD2    C5 6306   3.151   0.697  12.499  0.3479 -0.2553  0.1800
  419MPD2     H 6307   2.900   0.977  12.466  0.3838  0.9447 -1.9274
  419MPD2    H1 6308   3.091   0.681  12.697  1.0350  0.2318  0.2971
  419MPD2    H2 6309   3.191   0.720  12.295  1.1587  4.4557 -1.3954
  419MPD2    H3 6310   3.228   0.621  12.508  0.2294 -0.4832 -0.7257
  419MPD2     N 6311   2.909   0.880  12.697  0.0850 -0.1649 -0.0477
  419MPD2    H5 6312   2.842   0.953  12.675  1.7318  1.4098  0.2296
  419MPD2    N1 6313   3.012   0.916  12.230 -0.2391 -0.2724 -0.0485
  419MPD2    H7 6314   2.961   1.004  12.234  1.8645  0.9673 -0.8864
  420TMC3    C1 6315   2.773   0.889  12.878 -0.1965 -0.3513  0.4627
  420TMC3    C2 6316   2.663   0.897  12.801 -0.2016 -0.1620  0.4722
  420TMC3    C3 6317   2.541   0.952  12.852 -0.1312 -0.5736  0.2426
  420TMC3    C4 6318   2.762   0.910  13.010  0.1344  0.2003  0.2380
  420TMC3    C5 6319   2.643   0.954  13.062  0.3028 -0.2695 -0.2809
  420TMC3    C6 6320   2.530   0.968  12.983  0.1002 -0.4856  0.4347
  420TMC3     C 6321   2.908   0.847  12.834  0.7139  0.3347  0.2245
  420TMC3     O 6322   2.982   0.778  12.901 -0.2281 -0.3271  0.1158
  420TMC3     H 6323   2.665   0.854  12.701  0.6613 -0.3261  0.5570
  420TMC3    H1 6324   2.848   0.902  13.075  0.9985  0.7150 -0.8499
  420TMC3    H2 6325   2.444   1.019  13.027 -0.7903  0.2997 -2.2304
  420TMC3    C7 6326   2.649   1.011  13.200 -0.0894  0.4806 -0.4080
  420TMC3    C8 6327   2.441   1.012  12.764 -0.5577  0.0041  0.2490
  420TMC3    O1 6328   2.568   0.977  13.286  0.0498 -0.3502 -0.0734
  420TMC3    O2 6329   2.348   1.077  12.818  0.1803  0.1179 -0.1791
  421TMC3    C1 6330   3.687   2.348  13.804 -0.5670 -0.4216  0.7288
  421TMC3    C2 6331   3.686   2.478  13.824 -0.0750  0.3205  0.0279
  421TMC3    C3 6332   3.733   2.523  13.939 -0.2614  0.3323 -0.4228
  421TMC3    C4 6333   3.760   2.263  13.880  0.2074  0.4420 -0.4781
  421TMC3    C5 6334   3.811   2.322  13.993 -0.0128 -0.6616 -0.1079
  421TMC3    C6 6335   3.792   2.452  14.034  0.1259  0.1664 -0.4683
  421TMC3     C 6336   3.689   2.311  13.662  0.0542 -0.6200 -0.0268
  421TMC3     O 6337   3.777   2.233  13.628  0.2825  0.5460  0.5256
  421TMC3     H 6338   3.676   2.539  13.734 -0.0697 -0.5838 -0.5812
  421TMC3    H1 6339   3.768   2.156  13.864  1.7858  0.2783  1.4400
  421TMC3    H2 6340   3.831   2.497  14.125  0.1933 -1.8953  0.5345
  421TMC3    C7 6341   3.914   2.246  14.065 -0.0709  0.0496  0.0322
  421TMC3    C8 6342   3.689   2.657  13.970 -0.4936  0.1645 -0.5716
  421TMC3    O1 6343   3.941   2.298  14.172  0.1598  0.6839  0.0629
  421TMC3    O2 6344   3.738   2.709  14.073  0.1710  0.6378 -0.1411
  422TMC3    C1 6345   1.237   4.442  12.708 -0.4241  0.2711 -0.0274
  422TMC3    C2 6346   1.216   4.519  12.820  0.5990  0.8674 -0.4487
  422TMC3    C3 6347   1.116   4.485  12.908 -1.3046 -0.2686  0.4239
  422TMC3    C4 6348   1.145   4.346  12.674 -0.6411  0.2648 -0.3011
  422TMC3    C5 6349   1.037   4.322  12.752  0.2547  0.4518 -0.2328
  422TMC3    C6 6350   1.023   4.384  12.873 -0.2668  0.0866 -0.1570
  422TMC3     C 6351   1.323   4.494  12.605 -0.1868  0.2032  0.1133
  422TMC3     O 6352   1.346   4.617  12.610 -0.1296 -0.3223 -0.1456
  422TMC3     H 6353   1.283   4.600  12.846 -0.2647  0.8504  1.8678
  422TMC3    H1 6354   1.161   4.298  12.578 -1.1040 -1.7448  0.6310
  422TMC3    H2 6355   0.938   4.361  12.936 -1.7436  1.6769 -1.5754
  422TMC3    C7 6356   0.942   4.237  12.692  0.5998 -0.1963 -0.5081
  422TMC3    C8 6357   1.071   4.593  12.992 -0.3761  0.1308  0.6902
  422TMC3    O1 6358   0.975   4.196  12.582  0.2210  0.5497  0.4720
  422TMC3    O2 6359   1.162   4.652  13.049 -0.5545  0.1310  0.0010
  423MPD2     C 6360   3.112   1.396   0.266 -0.0508 -0.2003  0.0792
  423MPD2    C1 6361   3.053   1.292   0.339 -0.3219 -0.6799  0.1759
  423MPD2    C2 6362   3.002   1.187   0.267 -0.4314 -0.2887 -1.0599
  423MPD2    C3 6363   3.017   1.178   0.132  0.1175 -0.5429 -0.0078
  423MPD2    C4 6364   3.081   1.282   0.065 -0.9289  0.4516  0.3264
  423MPD2    C5 6365   3.125   1.388   0.134 -0.1161 -0.4793 -0.2436
  423MPD2     H 6366   2.948   1.106   0.316 -1.8051  1.5312  0.4633
  423MPD2    H1 6367   3.092   1.280  17.715  0.4546  0.6903  0.4579
  423MPD2    H2 6368   3.154   1.486   0.309  0.3808 -0.7591  0.8307
  423MPD2    H3 6369   3.178   1.469   0.085  1.7193 -1.4829  0.0632
  423MPD2     N 6370   2.942   1.093   0.049  0.2065 -0.6082  0.0547
  423MPD2    H5 6371   2.969   1.100  17.709 -1.2595 -1.1262 -0.3875
  423MPD2    N1 6372   3.064   1.289   0.485  0.0776  0.0785  0.3093
  423MPD2    H7 6373   3.053   1.203   0.537  0.3456 -0.6845 -0.8915
  424TMC3    C1 6374   3.105   1.365   0.702 -0.0930  0.7044  0.3027
  424TMC3    C2 6375   3.168   1.251   0.750  0.2230  0.2388 -0.5700
  424TMC3    C3 6376   3.204   1.241   0.883  0.6789 -0.0838  0.4875
  424TMC3    C4 6377   3.057   1.461   0.789 -0.1117  1.1877 -0.0971
  424TMC3    C5 6378   3.095   1.450   0.919  0.9653 -0.6394  0.0827
  424TMC3    C6 6379   3.167   1.343   0.969 -0.0541  0.5194 -0.2973
  424TMC3     C 6380   3.099   1.400   0.559  0.0805  0.3754  0.7012
  424TMC3     O 6381   3.103   1.520   0.533  0.4462  0.1553 -0.3391
  424TMC3     H 6382   3.201   1.174   0.681  1.6466  0.5018 -0.1806
  424TMC3    H1 6383   2.991   1.541   0.756 -3.5651 -1.0480  1.4036
  424TMC3    H2 6384   3.189   1.338   1.075 -0.2809  0.9721 -0.2293
  424TMC3    C7 6385   3.016   1.522   1.019 -0.3142  0.5781 -0.9526
  424TMC3    C8 6386   3.257   1.116   0.932  0.5907 -0.4637 -0.2100
  424TMC3    O1 6387   3.051   1.498   1.137  0.0894 -0.8694 -0.2963
  424TMC3    O2 6388   3.256   1.029   0.848 -0.2642 -0.2388 -0.8591
  425MPD2     C 6389   1.746   0.118  16.988  0.8605  0.2043 -0.1578
  425MPD2    C1 6390   1.665   0.003  16.973 -0.4292  0.0008 -0.0528
  425MPD2    C2 6391   1.533   0.014  16.999  0.1067  0.5888  0.6684
  425MPD2    C3 6392   1.475   0.134  17.037 -0.4574 -0.2849 -0.4757
  425MPD2    C4 6393   1.552   0.247  17.030 -0.0847 -0.4774 -0.3876
  425MPD2    C5 6394   1.686   0.238  17.017 -0.3895 -0.3072 -0.1364
  425MPD2     H 6395   1.473   4.664  17.008 -0.1029  0.6931  0.2990
  425MPD2    H1 6396   1.516   0.347  17.056  2.5532 -0.2041  2.1806
  425MPD2    H2 6397   1.853   0.126  16.974  1.1146 -3.2330 -0.0701
  425MPD2    H3 6398   1.743   0.330  17.010  0.1924 -0.7442 -1.2346
  425MPD2     N 6399   1.338   0.132  17.063  0.2793  0.0760 -0.3469
  425MPD2    H5 6400   1.287   0.048  17.039  0.3443 -0.3268  0.9053
  425MPD2    N1 6401   1.733   4.622  16.957 -0.9492 -0.7895 -0.5831
  425MPD2    H7 6402   1.828   4.629  16.923 -1.3761  1.8110 -1.1969
  426TMC3    C1 6403   1.757   4.384  16.973  0.7716  0.5299 -0.2386
  426TMC3    C2 6404   1.858   4.388  16.873  0.2557 -0.0149  0.5599
  426TMC3    C3 6405   1.899   4.264  16.826 -0.2002 -0.1935  0.5467
  426TMC3    C4 6406   1.714   4.267  17.025 -0.9537  0.5129  0.4019
  426TMC3    C5 6407   1.781   4.151  16.991  0.4545  0.3426 -0.1451
  426TMC3    C6 6408   1.858   4.150  16.883  0.1181  0.3797  0.3160
  426TMC3     C 6409   1.691   4.504  17.012 -0.0214 -0.7187 -0.1025
  426TMC3     O 6410   1.607   4.493  17.097 -0.4074 -0.7557  0.2329
  426TMC3     H 6411   1.895   4.480  16.831  0.5122 -0.1241  0.5416
  426TMC3    H1 6412   1.649   4.271  17.112 -0.7556  0.7569  0.5379
  426TMC3    H2 6413   1.877   4.049  16.846 -1.6728  0.0386  0.3283
  426TMC3    C7 6414   1.725   4.021  17.028 -0.1998  0.4533  0.3705
  426TMC3    C8 6415   1.920   4.245  16.687 -0.0400  0.1980  0.5325
  426TMC3    O1 6416   1.788   3.921  16.996  0.3995 -0.1214 -0.1782
  426TMC3    O2 6417   1.899   4.130  16.644 -0.1187  0.0209  0.0216
  427MPD2     C 6418   0.265   2.020  14.913 -0.3227 -0.9269  0.1355
  427MPD2    C1 6419   0.228   1.970  15.039  0.3492 -0.1571 -0.5960
  427MPD2    C2 6420   0.113   2.021  15.092 -0.8707  0.3668 -0.2390
  427MPD2    C3 6421   0.025   2.103  15.023 -0.8902  0.6086 -0.8640
  427MPD2    C4 6422   0.060   2.155  14.904  0.3991 -0.1229 -0.1685
  427MPD2    C5 6423   0.184   2.113  14.853  0.0580  0.1238  0.0606
  427MPD2     H 6424   0.082   1.989  15.191 -0.1525  1.2780  0.2814
  427MPD2    H1 6425   0.008   2.230  14.847  1.3098  0.2902 -0.4634
  427MPD2    H2 6426   0.349   1.978  14.859 -0.2796  1.3078 -1.5125
  427MPD2    H3 6427   0.211   2.157  14.757  1.1042 -0.9659 -0.1491
  427MPD2     N 6428   4.634   2.131  15.064  0.0455 -0.2030  0.7721
  427MPD2    H5 6429   4.586   2.212  15.028  1.2935 -0.9843 -2.5973
  427MPD2    N1 6430   0.307   1.870  15.112  0.0262  0.3353  0.2259
  427MPD2    H7 6431   0.276   1.839  15.204  0.4324  1.8143  0.8588
  428TMC3    C1 6432   0.457   1.693  15.139 -0.3054  0.1642  0.1338
  428TMC3    C2 6433   0.418   1.678  15.268 -0.2324  0.5555 -0.4549
  428TMC3    C3 6434   0.472   1.569  15.332  0.2761 -0.1430 -0.5385
  428TMC3    C4 6435   0.555   1.620  15.069 -0.2769 -0.0927  0.5812
  428TMC3    C5 6436   0.618   1.520  15.144 -0.1606 -0.1916  0.4864
  428TMC3    C6 6437   0.566   1.493  15.270 -0.1198 -0.2239  0.9297
  428TMC3     C 6438   0.399   1.790  15.047 -0.6583  0.7076  0.0661
  428TMC3     O 6439   0.439   1.784  14.931  0.8696 -0.3204 -0.1406
  428TMC3     H 6440   0.331   1.723  15.314 -0.7815  1.0427 -1.9540
  428TMC3    H1 6441   0.579   1.632  14.964 -0.4942  1.0429  0.6564
  428TMC3    H2 6442   0.610   1.410  15.324 -0.7215 -0.8078  0.5242
  428TMC3    C7 6443   0.766   1.507  15.138  0.2887 -0.2007 -0.9692
  428TMC3    C8 6444   0.437   1.535  15.465  0.3822 -0.6260 -0.2995
  428TMC3    O1 6445   0.815   1.437  15.226  0.1012  0.8331 -0.3125
  428TMC3    O2 6446   0.440   1.417  15.500  0.2734 -0.1553  0.2768
  429MPD2     C 6447   0.537   1.773   0.291  0.0868 -0.6400 -1.1245
  429MPD2    C1 6448   0.666   1.778   0.247 -0.2481 -0.3425 -0.1074
  429MPD2    C2 6449   0.703   1.873   0.158  0.2914  0.6723 -0.3700
  429MPD2    C3 6450   0.620   1.971   0.111  0.7560  0.6635  0.2086
  429MPD2    C4 6451   0.488   1.964   0.153  0.5897  0.1602  0.0295
  429MPD2    C5 6452   0.449   1.873   0.249  0.0263 -0.2873 -1.1071
  429MPD2     H 6453   0.806   1.866   0.124  0.5654  0.8437  0.4143
  429MPD2    H1 6454   0.418   2.040   0.123 -1.2635 -1.4876  0.1368
  429MPD2    H2 6455   0.495   1.692   0.349 -0.0676  1.8899  2.2737
  429MPD2    H3 6456   0.344   1.868   0.272  0.3696  0.1879  0.6231
  429MPD2     N 6457   0.674   2.081   0.033 -0.5471 -0.4763  0.5986
  429MPD2    H5 6458   0.773   2.071   0.013 -0.7968  0.7075 -1.2151
  429MPD2    N1 6459   0.757   1.678   0.289  0.1019  0.3238 -0.3046
  429MPD2    H7 6460   0.845   1.666   0.239  0.1502 -0.4106 -0.0468
  430TMC3    C1 6461   0.700   2.291  17.688 -0.7797  0.0243 -0.3261
  430TMC3    C2 6462   0.641   2.363  17.583  0.4533 -0.0235 -0.4363
  430TMC3    C3 6463   0.718   2.452  17.517  0.5453 -0.3017  0.0766
  430TMC3    C4 6464   0.835   2.307  17.727  0.5146  0.4127 -0.7307
  430TMC3    C5 6465   0.908   2.386  17.645 -0.0021 -0.2295  0.1094
  430TMC3    C6 6466   0.851   2.473  17.548  0.2198 -0.3379 -0.0597
  430TMC3     C 6467   0.611   2.197  17.752 -0.3462 -0.5788 -0.1306
  430TMC3     O 6468   0.497   2.236   0.001  0.4615  0.1051 -0.2812
  430TMC3     H 6469   0.534   2.359  17.570  0.1925 -1.2691  2.0162
  430TMC3    H1 6470   0.877   2.229   0.032  0.0785  1.0032  0.2957
  430TMC3    H2 6471   0.916   2.534  17.486  1.2809 -2.9242 -1.4782
  430TMC3    C7 6472   1.055   2.377  17.653  0.3442 -0.2804  0.2089
  430TMC3    C8 6473   0.702   2.455  17.370 -0.0326  1.0051 -0.0586
  430TMC3    O1 6474   1.098   2.275  17.698  0.1114  0.8634  0.5495
  430TMC3    O2 6475   0.772   2.535  17.317  0.6084  0.3159 -0.0125
  431MPD2     C 6476   2.493   1.553  12.118  0.2245  0.6218  0.1310
  431MPD2    C1 6477   2.608   1.571  12.037  0.1294 -0.0742  0.3111
  431MPD2    C2 6478   2.668   1.457  11.990 -0.6798 -0.0712  0.0515
  431MPD2    C3 6479   2.629   1.330  12.031 -0.3340  0.5492  0.0657
  431MPD2    C4 6480   2.525   1.314  12.122 -0.2704 -0.0619 -0.3646
  431MPD2    C5 6481   2.452   1.425  12.151  0.3122  0.0070  0.6259
  431MPD2     H 6482   2.754   1.473  11.926 -0.6638  0.6245  0.2464
  431MPD2    H1 6483   2.491   1.214  12.146 -0.7268 -0.3530 -2.2761
  431MPD2    H2 6484   2.422   1.629  12.149 -0.1612 -0.1838  1.2094
  431MPD2    H3 6485   2.357   1.419  12.203 -0.8666  2.5711 -1.2304
  431MPD2     N 6486   2.692   1.211  11.984  0.2629 -0.4298 -0.0362
  431MPD2    H5 6487   2.692   1.137  12.054  1.8325  0.2442  0.6683
  431MPD2    N1 6488   2.658   1.695  11.996 -0.0164  0.3907 -0.1354
  431MPD2    H7 6489   2.730   1.696  11.924  1.4726 -1.8928  1.3391
  432TMC3    C1 6490   2.872   1.091  11.884  1.0817  0.8159 -0.3668
  432TMC3    C2 6491   2.930   1.066  11.759  0.1969  0.6144  0.3205
  432TMC3    C3 6492   3.035   0.988  11.763 -1.0041 -0.0535 -0.0100
  432TMC3    C4 6493   2.909   1.033  12.002  0.8048 -0.0858  0.6301
  432TMC3    C5 6494   3.022   0.955  11.998 -0.5058 -0.9503  1.0649
  432TMC3    C6 6495   3.092   0.937  11.881 -0.0914 -0.2880  0.1318
  432TMC3     C 6496   2.782   1.201  11.880  0.5446  0.1624  0.5176
  432TMC3     O 6497   2.776   1.274  11.780  0.4917 -0.3245  0.2274
  432TMC3     H 6498   2.901   1.117  11.668 -0.1782  0.4677  0.3609
  432TMC3    H1 6499   2.856   1.051  12.095 -0.8965 -1.7146 -0.0087
  432TMC3    H2 6500   3.170   0.863  11.873 -0.1987 -0.1143 -2.7105
  432TMC3    C7 6501   3.064   0.871  12.111  0.4332 -0.3817 -0.1479
  432TMC3    C8 6502   3.132   1.027  11.666 -0.7908 -0.2135  0.3166
  432TMC3    O1 6503   3.140   0.774  12.092  0.4856 -0.1792  0.1390
  432TMC3    O2 6504   3.099   1.031  11.548  0.5131 -0.5476 -0.2548
  433MPD2     C 6505   1.239   0.398  10.769  0.0549  0.4478  0.0278
  433MPD2    C1 6506   1.173   0.287  10.790 -0.6291 -0.0402 -0.2977
  433MPD2    C2 6507   1.161   0.233  10.919  0.2745 -0.3530  0.3034
  433MPD2    C3 6508   1.245   0.281  11.020  0.0872 -1.4585  0.7707
  433MPD2    C4 6509   1.327   0.388  10.998 -0.2763  0.3569  0.0815
  433MPD2    C5 6510   1.325   0.448  10.871 -0.0211 -0.0832  0.2477
  433MPD2     H 6511   1.095   0.151  10.946  0.2550 -0.5921 -0.4758
  433MPD2    H1 6512   1.393   0.435  11.070  1.0718 -2.0652  0.4435
  433MPD2    H2 6513   1.253   0.439  10.669 -2.9624  1.9108  0.2169
  433MPD2    H3 6514   1.386   0.537  10.857 -0.5144  0.0360 -1.1251
  433MPD2     N 6515   1.251   0.208  11.141 -0.3648  0.1514 -0.1237
  433MPD2    H5 6516   1.190   0.128  11.154 -0.6563  0.3402 -0.3244
  433MPD2    N1 6517   1.130   0.221  10.672  1.1064 -0.0797  0.2949
  433MPD2    H7 6518   1.144   0.276  10.588 -1.5871  0.0256 -0.0959
  434TMC3    C1 6519   1.094   0.035  10.531 -0.5357  0.2581 -0.2919
  434TMC3    C2 6520   1.190   4.683  10.554 -0.5028 -0.1617 -0.4910
  434TMC3    C3 6521   1.305   4.682  10.472 -0.3288 -0.3721  0.1126
  434TMC3    C4 6522   1.109   0.132  10.435 -0.8836 -0.2608  0.0082
  434TMC3    C5 6523   1.214   0.116  10.346 -0.1271  0.8467  1.1184
  434TMC3    C6 6524   1.326   0.035  10.374 -0.0199 -0.1930 -0.2121
  434TMC3     C 6525   1.069   0.092  10.667  0.0579  0.4863 -0.2927
  434TMC3     O 6526   1.038   0.010  10.754  0.3480 -0.1148 -0.6835
  434TMC3     H 6527   1.174   4.609  10.631  1.1351  0.9679  0.9079
  434TMC3    H1 6528   1.036   0.211  10.423 -1.8377 -0.8560  1.9453
  434TMC3    H2 6529   1.417   0.045  10.316 -0.2598  0.0468 -0.5479
  434TMC3    C7 6530   1.205   0.199  10.226 -0.2664 -0.3977  1.0392
  434TMC3    C8 6531   1.423   4.603  10.523  0.2441  0.2053 -0.1461
  434TMC3    O1 6532   1.262   0.310  10.242  0.1764  0.2286 -0.4824
  434TMC3    O2 6533   1.393   4.529  10.616 -0.2649 -0.1449  0.1508
  435MPD2     C 6534   2.944   1.154  15.412 -0.4910 -0.2374 -0.2081
  435MPD2    C1 6535   2.969   1.167  15.547  0.0765 -0.1492  0.1482
  435MPD2    C2 6536   3.077   1.104  15.600 -0.1751 -0.2314 -0.0193
  435MPD2    C3 6537   3.163   1.029  15.525 -0.3685  0.2399 -0.2430
  435MPD2    C4 6538   3.139   1.018  15.389 -0.1970  0.1616 -0.2345
  435MPD2    C5 6539   3.031   1.080  15.336 -0.0756  1.1828  0.0487
  435MPD2     H 6540   3.082   1.114  15.707  0.3746  2.6579 -0.3166
  435MPD2    H1 6541   3.197   0.952  15.325 -0.2878  0.1971 -0.3529
  435MPD2    H2 6542   2.859   1.197  15.359  1.1337  1.4886 -1.4338
  435MPD2    H3 6543   3.014   1.065  15.230 -3.3088  2.7805  0.3316
  435MPD2     N 6544   3.266   0.960  15.602 -0.0060  0.5579  0.5007
  435MPD2    H5 6545   3.262   0.975  15.703 -0.3136  0.1641  0.5514
  435MPD2    N1 6546   2.882   1.221  15.650  0.7029  0.6088  0.2478
  435MPD2    H7 6547   2.917   1.218  15.745  0.1184 -2.3542  0.3779
  436TMC3    C1 6548   2.689   1.329  15.991 -0.6041  0.3427  0.1244
  436TMC3    C2 6549   2.743   1.340  15.862  0.0061 -0.4557 -0.3009
  436TMC3    C3 6550   2.673   1.291  15.750  0.4576 -0.2431 -0.7420
  436TMC3    C4 6551   2.575   1.255  16.012  0.7137  0.2125  0.1570
  436TMC3    C5 6552   2.517   1.189  15.901 -0.5407  0.0206 -0.3463
  436TMC3    C6 6553   2.562   1.215  15.771 -0.2309 -0.5114  0.4426
  436TMC3     C 6554   2.752   1.400  16.105  0.7875  0.0562 -0.0778
  436TMC3     O 6555   2.864   1.451  16.085  0.0997  0.2016 -0.3563
  436TMC3     H 6556   2.830   1.404  15.853 -1.7337  2.1658  1.6160
  436TMC3    H1 6557   2.547   1.231  16.113  0.4225  1.0990  0.2908
  436TMC3    H2 6558   2.530   1.154  15.687 -0.5452  1.1428 -0.6302
  436TMC3    C7 6559   2.507   1.047  15.936  0.1842 -0.4044 -0.1073
  436TMC3    C8 6560   2.749   1.261  15.628  0.0133  0.4704  0.0042
  436TMC3    O1 6561   2.505   1.016  16.055  0.1058  0.1757  0.5273
  436TMC3    O2 6562   2.673   1.240  15.533  0.3122  0.2075  0.0647
  437TMC3    C1 6563   2.645   2.589  11.316 -0.1471  1.2078  0.4905
  437TMC3    C2 6564   2.660   2.597  11.181  0.1383  0.6898 -0.0221
  437TMC3    C3 6565   2.762   2.522  11.130 -0.3115  0.3658  1.0306
  437TMC3    C4 6566   2.711   2.503  11.397 -0.1923 -0.2136 -0.0121
  437TMC3    C5 6567   2.815   2.428  11.342 -0.3582  1.1541  0.0561
  437TMC3    C6 6568   2.846   2.444  11.209 -0.3826 -0.2740 -0.2639
  437TMC3     C 6569   2.532   2.661  11.376 -0.1324  0.6667 -0.2372
  437TMC3     O 6570   2.503   2.634  11.492 -0.5223  0.2782  0.2411
  437TMC3     H 6571   2.588   2.654  11.124 -1.6947 -2.1251 -0.5031
  437TMC3    H1 6572   2.665   2.471  11.490 -0.3898  0.3596  0.0886
  437TMC3    H2 6573   2.927   2.380  11.177 -1.6152 -1.6096 -0.7331
  437TMC3    C7 6574   2.936   2.406  11.421 -0.5150  0.0594 -0.8078
  437TMC3    C8 6575   2.767   2.514  10.987  0.0345  0.3503  0.3859
  437TMC3    O1 6576   3.046   2.412  11.365  0.0716 -0.3369 -0.7890
  437TMC3    O2 6577   2.814   2.412  10.938  0.4776 -0.1548  0.0716
  438MPD2     C 6578   4.083   3.734  16.511  0.4607 -0.0919  0.0473
  438MPD2    C1 6579   4.190   3.678  16.579  0.1955  0.1393  0.0371
  438MPD2    C2 6580   4.225   3.728  16.702  0.1051 -0.1656  0.1868
  438MPD2    C3 6581   4.158   3.839  16.753 -0.2709  0.4162 -0.8194
  438MPD2    C4 6582   4.052   3.897  16.683 -0.5080  0.2935 -0.6195
  438MPD2    C5 6583   4.021   3.839  16.563 -1.1296 -0.3419  0.2132
  438MPD2     H 6584   4.308   3.681  16.754  0.6938  0.6716 -0.0010
  438MPD2    H1 6585   3.988   3.979  16.713  0.4372  0.5161  0.7687
  438MPD2    H2 6586   4.051   3.689  16.418 -1.6771  2.0930 -0.2562
  438MPD2    H3 6587   3.937   3.881  16.508 -0.2725 -0.1479 -0.9598
  438MPD2     N 6588   4.168   3.891  16.883 -0.2673 -0.3449 -0.3154
  438MPD2    H5 6589   4.103   3.963  16.914  0.4529 -0.1153  0.6544
  438MPD2    N1 6590   4.270   3.566  16.532 -0.0678 -0.0672 -0.0267
  438MPD2    H7 6591   4.347   3.533  16.588 -0.2210  1.5667  1.1315
  439TMC3    C1 6592   4.322   3.384  16.382  0.0500 -0.6562  0.1803
  439TMC3    C2 6593   4.353   3.346  16.258  0.0012 -0.2689 -0.4494
  439TMC3    C3 6594   4.390   3.220  16.231 -0.3716  0.4030  0.4525
  439TMC3    C4 6595   4.341   3.298  16.490 -0.0184 -0.3629  0.2796
  439TMC3    C5 6596   4.384   3.171  16.465  0.1765 -0.0012  0.3218
  439TMC3    C6 6597   4.407   3.133  16.335  0.5594 -0.6287  0.0552
  439TMC3     C 6598   4.271   3.523  16.399 -0.0037  0.0236 -0.1039
  439TMC3     O 6599   4.218   3.566  16.294  0.0509  0.2011  0.0315
  439TMC3     H 6600   4.347   3.417  16.177  3.1505 -0.1811 -0.6233
  439TMC3    H1 6601   4.317   3.315  16.594 -0.7611 -1.1969  0.2449
  439TMC3    H2 6602   4.454   3.039  16.311 -0.8358 -1.2470 -0.2278
  439TMC3    C7 6603   4.459   3.099  16.565 -0.2052  0.2503  0.4158
  439TMC3    C8 6604   4.450   3.187  16.106 -0.4701 -0.0103  0.5086
  439TMC3    O1 6605   4.496   3.162  16.663 -0.1649  0.0122 -0.2979
  439TMC3    O2 6606   4.521   3.086  16.105 -0.3855 -0.2969  0.4744
  440MPD2     C 6607   3.100   3.562  14.347  0.0454  0.2346  0.2660
  440MPD2    C1 6608   3.107   3.697  14.378 -0.0931  0.1847 -0.5318
  440MPD2    C2 6609   3.190   3.737  14.484 -0.2177  0.2382  0.4835
  440MPD2    C3 6610   3.289   3.651  14.536 -0.3837 -0.1759 -0.0262
  440MPD2    C4 6611   3.293   3.521  14.484  0.0796 -0.1580 -0.1058
  440MPD2    C5 6612   3.195   3.475  14.402 -0.2371 -0.2857  0.2444
  440MPD2     H 6613   3.183   3.840  14.516 -1.2895  0.0995  0.7003
  440MPD2    H1 6614   3.371   3.455  14.518  0.3988 -0.5368 -1.5764
  440MPD2    H2 6615   3.026   3.523  14.278  0.8769 -0.7529 -0.0630
  440MPD2    H3 6616   3.195   3.369  14.378 -2.0247 -0.5791  1.5909
  440MPD2     N 6617   3.385   3.691  14.638  0.0771 -0.6033 -0.0811
  440MPD2    H5 6618   3.433   3.619  14.690 -1.0072 -1.5650 -0.4002
  440MPD2    N1 6619   3.024   3.801  14.331 -0.1427  0.2045 -0.4406
  440MPD2    H7 6620   3.035   3.889  14.380  2.3577  0.4688 -1.4191
  441TMC3    C1 6621   3.486   3.831  14.790  0.7070 -0.7113  0.6441
  441TMC3    C2 6622   3.574   3.933  14.806  0.6232 -0.1970  0.2455
  441TMC3    C3 6623   3.646   3.931  14.924  0.4439 -0.1194 -1.2433
  441TMC3    C4 6624   3.472   3.731  14.883 -0.0995 -0.0363  0.0392
  441TMC3    C5 6625   3.554   3.726  14.995 -0.4480  0.2058 -0.0494
  441TMC3    C6 6626   3.637   3.828  15.011 -0.7246  0.4027 -0.6853
  441TMC3     C 6627   3.403   3.823  14.675  0.2235 -0.6255  0.4379
  441TMC3     O 6628   3.379   3.925  14.616  0.5742  0.7482  0.0990
  441TMC3     H 6629   3.570   4.010  14.729  1.4618 -0.3025  0.0935
  441TMC3    H1 6630   3.388   3.663  14.874  0.4826 -0.4410 -2.3466
  441TMC3    H2 6631   3.686   3.832  15.108 -0.4948 -1.7133 -0.7012
  441TMC3    C7 6632   3.501   3.664  15.111 -0.1999  0.4635  0.2162
  441TMC3    C8 6633   3.667   4.064  14.977  0.2105 -0.0898  0.1268
  441TMC3    O1 6634   3.509   3.731  15.212 -0.3187 -0.0051  0.2989
  441TMC3    O2 6635   3.775   4.083  15.034  0.2731  0.4583 -0.2590
  442MPD2     C 6636   1.468   4.315  16.310  0.1455 -0.7582 -0.1696
  442MPD2    C1 6637   1.355   4.260  16.354  0.7758  0.4542  0.1583
  442MPD2    C2 6638   1.327   4.124  16.323 -0.1514 -0.1607  0.1632
  442MPD2    C3 6639   1.415   4.039  16.263  0.1618  0.3304  0.1026
  442MPD2    C4 6640   1.534   4.097  16.225  0.1865 -0.2313  0.8383
  442MPD2    C5 6641   1.562   4.231  16.247  0.2597  0.3830 -0.5183
  442MPD2     H 6642   1.230   4.089  16.354  0.2591 -1.8640 -0.4685
  442MPD2    H1 6643   1.598   4.037  16.162  1.3415  2.8887 -0.9833
  442MPD2    H2 6644   1.489   4.422  16.308 -0.7764 -0.5434  1.5304
  442MPD2    H3 6645   1.644   4.273  16.189 -0.7159  2.5484 -0.3118
  442MPD2     N 6646   1.382   3.905  16.220 -0.3888  0.2758 -0.0405
  442MPD2    H5 6647   1.445   3.855  16.158 -0.7607 -0.0116 -0.1873
  442MPD2    N1 6648   1.256   4.332  16.424  0.2139 -0.0383  0.1967
  442MPD2    H7 6649   1.169   4.283  16.439  0.5468 -0.6175  0.2101
  443TMC3    C1 6650   1.132   4.491  16.541  0.7605  0.0775 -0.2086
  443TMC3    C2 6651   1.068   4.613  16.533  0.4185  0.7204  0.2814
  443TMC3    C3 6652   0.951   4.632  16.604 -0.6011 -0.3522 -0.0923
  443TMC3    C4 6653   1.098   4.398  16.632 -0.1751 -0.3980 -0.1045
  443TMC3    C5 6654   0.985   4.420  16.699  0.1340 -0.1801  0.2227
  443TMC3    C6 6655   0.914   4.532  16.693 -0.1454 -0.5609  0.0476
  443TMC3     C 6656   1.254   4.460  16.465 -0.4716  0.7033  0.2645
  443TMC3     O 6657   1.331   4.558  16.451  0.4952 -0.5406 -0.0393
  443TMC3     H 6658   1.125   4.691  16.484  1.0102  0.9355  1.3131
  443TMC3    H1 6659   1.169   4.319  16.652 -4.3062 -4.8737 -3.1874
  443TMC3    H2 6660   0.826   4.536  16.755 -1.3284  0.9225 -1.7270
  443TMC3    C7 6661   0.918   4.302  16.747 -0.8426 -0.5470  0.4443
  443TMC3    C8 6662   0.839   4.668  16.518 -0.5056 -0.1037  0.3447
  443TMC3    O1 6663   0.820   4.312  16.815 -0.2918  0.1558  0.1546
  443TMC3    O2 6664   0.735   4.601  16.530 -0.1420 -0.5076 -0.0022
  444MPD2     C 6665   1.468   3.974  16.690 -0.1700  0.1660 -0.4746
  444MPD2    C1 6666   1.398   3.857  16.695 -0.0977 -0.2923  0.2226
  444MPD2    C2 6667   1.436   3.756  16.605  0.0851 -0.6005  0.3193
  444MPD2    C3 6668   1.549   3.769  16.530  0.0092  0.1254  0.3884
  444MPD2    C4 6669   1.616   3.885  16.530 -0.1401  0.5704 -0.4998
  444MPD2    C5 6670   1.588   3.985  16.615 -0.0666  0.5677 -0.1442
  444MPD2     H 6671   1.380   3.664  16.605 -1.9360  0.6193 -0.7806
  444MPD2    H1 6672   1.711   3.900  16.479 -0.9665  1.3155 -1.8206
  444MPD2    H2 6673   1.451   4.057  16.757  0.1240  1.3363 -1.8556
  444MPD2    H3 6674   1.647   4.075  16.627  1.0131  0.0883 -1.7935
  444MPD2     N 6675   1.584   3.660  16.446  0.3891  0.3766 -0.1300
  444MPD2    H5 6676   1.521   3.581  16.455 -0.2053  0.5390 -2.9982
  444MPD2    N1 6677   1.280   3.838  16.776  0.2082  0.4027  0.1799
  444MPD2    H7 6678   1.230   3.750  16.771 -0.3783  0.6990  0.8945
  445TMC3    C1 6679   1.718   3.517  16.307  0.4514 -0.4919 -0.0916
  445TMC3    C2 6680   1.610   3.441  16.275  0.4871  1.3319  0.3740
  445TMC3    C3 6681   1.637   3.328  16.200 -0.7231  0.6463  0.6806
  445TMC3    C4 6682   1.847   3.479  16.278  0.0979 -0.1687  0.4235
  445TMC3    C5 6683   1.871   3.360  16.217  0.1470 -0.5784 -0.1687
  445TMC3    C6 6684   1.766   3.280  16.181 -0.0344 -0.2807  0.4837
  445TMC3     C 6685   1.698   3.651  16.365 -0.3937 -0.3877 -0.3554
  445TMC3     O 6686   1.796   3.725  16.358 -0.1070 -0.4876 -0.5208
  445TMC3     H 6687   1.511   3.486  16.277  0.0109  0.2802  0.3136
  445TMC3    H1 6688   1.931   3.528  16.325  1.4337 -0.1475 -2.0094
  445TMC3    H2 6689   1.778   3.195  16.115 -0.6409 -0.0546  0.0827
  445TMC3    C7 6690   2.005   3.323  16.186 -0.3685 -0.1984 -0.4612
  445TMC3    C8 6691   1.522   3.242  16.185 -0.0421  0.1575  0.3648
  445TMC3    O1 6692   2.087   3.415  16.187  0.6366 -0.1718  0.3370
  445TMC3    O2 6693   1.409   3.287  16.216 -0.4121  0.1262  0.3088
  446MPD2     C 6694   1.190   4.374  11.038  0.0703  0.0135  0.4786
  446MPD2    C1 6695   1.150   4.480  10.961  0.1465 -0.1059 -0.1916
  446MPD2    C2 6696   1.247   4.573  10.924  0.8645 -0.4798 -0.6589
  446MPD2    C3 6697   1.380   4.558  10.956  0.2311  0.5466  0.4573
  446MPD2    C4 6698   1.418   4.449  11.027  0.8066  0.6174 -0.3880
  446MPD2    C5 6699   1.322   4.361  11.069  0.4727 -0.4197 -0.1099
  446MPD2     H 6700   1.228   4.656  10.857  0.1250  0.9149  1.2486
  446MPD2    H1 6701   1.522   4.433  11.055  0.5590  0.5329  0.4743
  446MPD2    H2 6702   1.124   4.304  11.088 -2.2415  2.1070  0.3350
  446MPD2    H3 6703   1.343   4.280  11.138  1.2953  0.1609  0.3366
  446MPD2     N 6704   1.469   4.655  10.907  0.2320 -0.4004 -0.5307
  446MPD2    H5 6705   1.434   4.739  10.863  1.1299 -0.6294 -1.6685
  446MPD2    N1 6706   1.011   4.495  10.918  0.1093 -0.1705 -0.1175
  446MPD2    H7 6707   0.984   4.576  10.864  0.3674 -0.1768 -0.2548
  447TMC3    C1 6708   1.673   0.022  10.858  0.4255 -0.7202 -0.1685
  447TMC3    C2 6709   1.612   0.084  10.756 -0.3503  0.2446 -0.9190
  447TMC3    C3 6710   1.694   0.129  10.656  0.5163  0.2614  0.2775
  447TMC3    C4 6711   1.811   0.002  10.862  0.5192  0.0043 -0.2954
  447TMC3    C5 6712   1.889   0.057  10.763 -0.3728  0.5260 -0.7543
  447TMC3    C6 6713   1.828   0.120  10.657 -0.3295  0.4904  0.3369
  447TMC3     C 6714   1.603   4.665  10.935 -0.2483 -0.2928  0.4574
  447TMC3     O 6715   1.675   4.588  11.001 -0.4257  0.2303 -0.2960
  447TMC3     H 6716   1.503   0.083  10.747 -0.3283 -0.5334 -1.0800
  447TMC3    H1 6717   1.853   4.707  10.956  0.1578 -1.3001 -0.6327
  447TMC3    H2 6718   1.889   0.147  10.572 -0.9729  0.1095 -0.2432
  447TMC3    C7 6719   2.034   0.029  10.753 -0.5092  0.1425  0.7993
  447TMC3    C8 6720   1.626   0.227  10.567  0.0654  1.3446 -0.1905
  447TMC3    O1 6721   2.097   0.063  10.653 -0.6949 -0.2657  0.0015
  447TMC3    O2 6722   1.507   0.234  10.571  0.1713 -0.6338 -0.3905
  448TMC3    C1 6723   4.223   0.199  16.588  0.4366  0.5397  0.3019
  448TMC3    C2 6724   4.219   0.116  16.475 -0.0287 -0.0465  0.0728
  448TMC3    C3 6725   4.302   0.011  16.463  0.3282 -0.5274  0.5026
  448TMC3    C4 6726   4.325   0.174  16.687 -0.0584  0.5164 -0.9126
  448TMC3    C5 6727   4.410   0.069  16.660 -0.1305 -0.7391  0.1866
  448TMC3    C6 6728   4.399   4.729  16.553 -0.6636  0.0674  0.4839
  448TMC3     C 6729   4.149   0.324  16.586  0.0057 -0.1610 -0.0189
  448TMC3     O 6730   4.103   0.361  16.481  0.0629 -0.5047  0.2094
  448TMC3     H 6731   4.136   0.131  16.406 -0.6154  0.0917  0.8057
  448TMC3    H1 6732   4.342   0.234  16.776  0.9766  0.8616 -1.3407
  448TMC3    H2 6733   4.471   4.650  16.536  1.1584  1.5229  1.4530
  448TMC3    C7 6734   4.506   0.032  16.765 -0.5188 -0.9682  0.1333
  448TMC3    C8 6735   4.255   4.626  16.399 -0.6411  0.2322 -0.4549
  448TMC3    O1 6736   4.606   4.717  16.722  0.0074  0.7333  0.5075
  448TMC3    O2 6737   4.338   4.554  16.348 -0.5385 -0.2049  0.0603
  449MPD2     C 6738   1.030   2.775  13.789  0.4529  0.2363 -0.7576
  449MPD2    C1 6739   0.944   2.877  13.736 -0.9842  0.2673 -0.2164
  449MPD2    C2 6740   0.809   2.886  13.774  0.4480  0.1786 -0.0768
  449MPD2    C3 6741   0.758   2.781  13.843 -0.0596 -0.4305 -0.2234
  449MPD2    C4 6742   0.837   2.677  13.882  0.6170 -0.6134  0.7908
  449MPD2    C5 6743   0.973   2.675  13.867  0.0104 -0.1001 -0.5448
  449MPD2     H 6744   0.747   2.955  13.718 -0.4846 -0.7394 -0.1723
  449MPD2    H1 6745   0.787   2.593  13.928 -3.2495  0.8929 -0.6306
  449MPD2    H2 6746   1.135   2.778  13.761  0.5340 -0.6568 -0.5483
  449MPD2    H3 6747   1.037   2.602  13.914 -0.8923  0.5177  1.6727
  449MPD2     N 6748   0.620   2.781  13.866 -0.8452  0.7760  0.4764
  449MPD2    H5 6749   0.571   2.847  13.807  1.1134  1.5706 -0.2539
  449MPD2    N1 6750   0.991   2.980  13.650  0.2573 -0.2445  0.2698
  449MPD2    H7 6751   0.919   3.047  13.627  0.9098  0.3693  0.0208
  450TMC3    C1 6752   1.127   3.120  13.527 -0.8329  0.0019  1.1295
  450TMC3    C2 6753   1.136   3.090  13.396  0.5072  0.0614  0.4510
  450TMC3    C3 6754   1.051   3.169  13.316 -0.0146  0.1926  0.5414
  450TMC3    C4 6755   1.045   3.224  13.573 -0.8782 -0.7495 -0.2501
  450TMC3    C5 6756   0.954   3.288  13.500  0.0164 -0.6514  0.4701
  450TMC3    C6 6757   0.962   3.265  13.365 -0.9116  0.3937  0.3246
  450TMC3     C 6758   1.113   2.993  13.598  0.2995 -0.3548  0.9347
  450TMC3     O 6759   1.191   2.903  13.573  0.1167  0.2148  0.4304
  450TMC3     H 6760   1.205   3.025  13.344  0.8867  2.4442 -2.0388
  450TMC3    H1 6761   1.026   3.225  13.680  0.2819 -0.1858 -0.0414
  450TMC3    H2 6762   0.905   3.321  13.291 -0.6192 -0.9785 -0.9476
  450TMC3    C7 6763   0.824   3.262  13.539 -0.5000 -0.1031 -0.5379
  450TMC3    C8 6764   1.047   3.144  13.175  0.0204 -0.0658  0.8648
  450TMC3    O1 6765   0.816   3.169  13.618  0.5042  0.0733  0.0107
  450TMC3    O2 6766   0.948   3.190  13.117 -0.3839 -0.3524  0.4767
  451MPD2     C 6767   2.397   2.392   1.191 -0.1034 -0.2619  0.1941
  451MPD2    C1 6768   2.336   2.337   1.083  0.1459  0.2292  0.4435
  451MPD2    C2 6769   2.408   2.297   0.971  0.7245 -0.0785  0.2620
  451MPD2    C3 6770   2.548   2.322   0.969 -0.1799 -0.3185 -0.2458
  451MPD2    C4 6771   2.606   2.373   1.077 -0.3491 -0.1803  0.7808
  451MPD2    C5 6772   2.527   2.413   1.184 -0.0946  0.4423  0.2371
  451MPD2     H 6773   2.366   2.254   0.880 -0.9043 -1.3389  1.6216
  451MPD2    H1 6774   2.713   2.393   1.075 -0.2186 -1.0589 -0.5159
  451MPD2    H2 6775   2.332   2.425   1.271  0.0507 -1.3909  0.7722
  451MPD2    H3 6776   2.579   2.455   1.269 -0.7404 -1.3221  1.4876
  451MPD2     N 6777   2.627   2.286   0.853  0.3089 -0.0014 -0.0443
  451MPD2    H5 6778   2.726   2.306   0.857  0.8510 -2.8155  0.6624
  451MPD2    N1 6779   2.194   2.326   1.091 -0.6448  0.3492  0.1182
  451MPD2    H7 6780   2.147   2.325   1.181  0.2061 -2.7053  0.5465
  452TMC3    C1 6781   2.664   2.204   0.635 -0.8502 -0.6754  0.5238
  452TMC3    C2 6782   2.671   2.091   0.560 -0.5497 -0.5318  0.1938
  452TMC3    C3 6783   2.749   2.090   0.442 -0.4925  0.4681  0.0993
  452TMC3    C4 6784   2.728   2.315   0.592  0.1378  0.3784 -0.7544
  452TMC3    C5 6785   2.793   2.320   0.478 -0.5415 -0.6679  0.1678
  452TMC3    C6 6786   2.808   2.208   0.401 -0.3913  0.5782  0.0841
  452TMC3     C 6787   2.583   2.200   0.753  0.0597 -0.1202  0.5725
  452TMC3     O 6788   2.493   2.112   0.757 -1.1817  0.4542  0.1267
  452TMC3     H 6789   2.615   2.004   0.593 -0.5950  0.2020  2.0201
  452TMC3    H1 6790   2.705   2.408   0.643 -0.4265  0.2848 -0.8464
  452TMC3    H2 6791   2.858   2.213   0.305 -2.1289  2.0965 -0.7480
  452TMC3    C7 6792   2.780   2.436   0.397  0.6348 -0.7289  0.4109
  452TMC3    C8 6793   2.749   1.969   0.364 -0.7568  0.2010 -0.4177
  452TMC3    O1 6794   2.733   2.414   0.289  0.0876 -0.5237  0.2244
  452TMC3    O2 6795   2.660   1.884   0.376  0.2024  0.4960  0.1408
  453TMC3    C1 6796   3.259   3.848  11.788  0.7146 -0.3304 -1.0646
  453TMC3    C2 6797   3.225   3.723  11.817 -0.0242 -0.6166 -0.0564
  453TMC3    C3 6798   3.146   3.657  11.727 -0.5686  0.2193  0.7286
  453TMC3    C4 6799   3.235   3.912  11.664 -0.0990  0.4338  0.2372
  453TMC3    C5 6800   3.157   3.841  11.577 -0.2424 -0.3064 -0.2309
  453TMC3    C6 6801   3.108   3.713  11.607  1.1795  0.0497 -0.8735
  453TMC3     C 6802   3.345   3.921  11.888 -0.7377  0.3137  0.2083
  453TMC3     O 6803   3.387   3.850  11.978  0.5089  0.1504  0.4989
  453TMC3     H 6804   3.231   3.700  11.923  0.0909  1.8589  0.4897
  453TMC3    H1 6805   3.267   4.009  11.629 -0.1791  0.0289 -0.9679
  453TMC3    H2 6806   3.040   3.655  11.545  0.3280  0.4317 -0.3060
  453TMC3    C7 6807   3.133   3.894  11.444 -0.2221  0.4970 -0.3336
  453TMC3    C8 6808   3.093   3.526  11.757  0.0893 -0.0061  0.0323
  453TMC3    O1 6809   3.131   4.013  11.441 -0.4703  0.0838 -0.7447
  453TMC3    O2 6810   2.998   3.482  11.696 -0.4743 -0.0948  0.3145
  454MPD2     C 6811   2.259   3.454  15.760 -0.2069  0.5391  0.7283
  454MPD2    C1 6812   2.168   3.505  15.666 -0.3725  0.2195 -0.4141
  454MPD2    C2 6813   2.124   3.637  15.676  0.0792 -0.0054 -0.0854
  454MPD2    C3 6814   2.159   3.713  15.787 -0.5309 -0.5494 -0.5507
  454MPD2    C4 6815   2.241   3.656  15.888 -0.0388 -0.8097 -0.0211
  454MPD2    C5 6816   2.290   3.529  15.872  0.2423  0.1437 -0.3285
  454MPD2     H 6817   2.053   3.680  15.606 -0.8318 -1.8191 -0.2621
  454MPD2    H1 6818   2.249   3.690  15.990 -0.6626 -1.2957  0.1889
  454MPD2    H2 6819   2.280   3.347  15.760 -4.3529 -0.3019 -0.6439
  454MPD2    H3 6820   2.333   3.486  15.962 -1.9657  0.9090  1.1088
  454MPD2     N 6821   2.103   3.838  15.819  0.5994  0.1736 -0.5197
  454MPD2    H5 6822   2.144   3.889  15.897 -0.7157  0.2690  0.1178
  454MPD2    N1 6823   2.103   3.425  15.565  0.4407 -0.2834  0.0602
  454MPD2    H7 6824   2.033   3.473  15.508 -0.1793 -0.8575  0.3471
  455TMC3    C1 6825   1.920   3.970  15.827  0.3342  0.6785  0.1005
  455TMC3    C2 6826   1.980   4.025  15.935 -0.5881  0.5127 -0.6608
  455TMC3    C3 6827   1.921   3.995  16.055 -0.1539  0.2718  0.3236
  455TMC3    C4 6828   1.796   3.905  15.833 -0.4836  0.4319  0.4211
  455TMC3    C5 6829   1.741   3.873  15.951 -0.5935  0.1762 -0.4546
  455TMC3    C6 6830   1.802   3.928  16.066  0.2589 -0.5174 -0.1185
  455TMC3     C 6831   2.006   3.901  15.739 -0.2037 -0.5010 -0.5473
  455TMC3     O 6832   1.949   3.870  15.636  0.3475  0.6936  0.1629
  455TMC3     H 6833   2.082   4.062  15.926 -0.8289  1.3892  0.1975
  455TMC3    H1 6834   1.751   3.861  15.744 -2.5293 -0.7874  2.0598
  455TMC3    H2 6835   1.748   3.900  16.156 -0.1044 -1.1946 -0.5412
  455TMC3    C7 6836   1.697   3.731  15.960  0.1358  0.5195  0.4987
  455TMC3    C8 6837   1.937   4.072  16.173  0.0411  0.0208  0.1806
  455TMC3    O1 6838   1.596   3.708  16.027 -0.6107 -0.1886 -0.0711
  455TMC3    O2 6839   1.881   4.028  16.272 -0.7983  0.0605 -0.2749
  456MPD2     C 6840   4.722   3.594  15.835 -0.3238  0.3968  0.2218
  456MPD2    C1 6841   0.005   3.513  15.948  0.0352 -0.4028  0.3208
  456MPD2    C2 6842   4.697   3.539  16.075  0.1277  0.1657  0.2692
  456MPD2    C3 6843   4.629   3.655  16.096  0.1416  0.8495  0.3792
  456MPD2    C4 6844   4.607   3.738  15.985  0.4660  0.2122 -0.0932
  456MPD2    C5 6845   4.652   3.705  15.861  0.3647  0.3092  0.4623
  456MPD2     H 6846   4.714   3.472  16.158  0.1581 -0.6009 -0.3468
  456MPD2    H1 6847   4.564   3.837  15.992 -2.7587 -0.9423 -3.2968
  456MPD2    H2 6848   0.018   3.573  15.736  0.6513  2.0341  0.2169
  456MPD2    H3 6849   4.623   3.777  15.785  1.7474 -1.7849 -2.0589
  456MPD2     N 6850   4.570   3.678  16.225 -0.3718 -0.0018  0.2149
  456MPD2    H5 6851   4.603   3.616  16.298 -1.4903  0.5869  1.2306
  456MPD2    N1 6852   0.095   3.408  15.914  0.1484 -0.6917  0.2657
  456MPD2    H7 6853   0.130   3.400  15.819 -2.2800 -0.4602 -0.6467
  457TMC3    C1 6854   4.470   3.811  16.382  0.1991  0.1084  0.4402
  457TMC3    C2 6855   4.379   3.915  16.398 -0.1328  0.2039  0.0398
  457TMC3    C3 6856   4.394   3.988  16.510  0.4641  0.1029  0.4664
  457TMC3    C4 6857   4.566   3.789  16.477  0.7849  0.5722  0.6024
  457TMC3    C5 6858   4.566   3.863  16.595  0.4249  0.3364 -0.5747
  457TMC3    C6 6859   4.485   3.966  16.612 -0.2234 -0.3100  0.2101
  457TMC3     C 6860   4.478   3.777  16.247 -1.3977  0.6946  0.2615
  457TMC3     O 6861   4.421   3.851  16.169 -0.6562  0.2732  0.2702
  457TMC3     H 6862   4.304   3.940  16.324 -0.9945 -2.6749 -0.0641
  457TMC3    H1 6863   4.649   3.722  16.460 -1.4371 -1.6103 -1.6830
  457TMC3    H2 6864   4.486   4.026  16.703 -1.4761  1.3469 -0.8763
  457TMC3    C7 6865   4.656   3.824  16.703 -0.4748  0.2645 -0.3414
  457TMC3    C8 6866   4.337   4.119  16.503  0.2099  1.0210  0.1639
  457TMC3    O1 6867   4.672   3.705  16.726  0.2550  0.5689  0.3475
  457TMC3    O2 6868   4.401   4.210  16.550 -0.5803 -0.5188 -0.2872
  458MPD2     C 6869   3.145   2.573  11.839 -0.7668  0.7483 -0.0948
  458MPD2    C1 6870   3.011   2.549  11.869  0.0706  0.1685  0.0096
  458MPD2    C2 6871   2.926   2.515  11.763  0.5416 -0.6961  0.1158
  458MPD2    C3 6872   2.990   2.477  11.648 -0.1322  0.5517 -0.7009
  458MPD2    C4 6873   3.127   2.483  11.631  0.0990 -0.0257  0.2610
  458MPD2    C5 6874   3.201   2.542  11.723 -0.2964 -0.3066 -0.3769
  458MPD2     H 6875   2.818   2.510  11.772  0.3542  1.0304 -1.2054
  458MPD2    H1 6876   3.172   2.423  11.553 -0.3435 -0.7772  0.5753
  458MPD2    H2 6877   3.206   2.601  11.923 -2.5267  1.8062  0.8288
  458MPD2    H3 6878   3.308   2.526  11.727 -0.3907 -0.4802  1.4206
  458MPD2     N 6879   2.901   2.422  11.550 -0.7224  0.5019 -0.0941
  458MPD2    H5 6880   2.803   2.414  11.577 -0.6055  0.0602  0.1862
  458MPD2    N1 6881   2.977   2.578  12.006  0.3140 -0.2248  0.1196
  458MPD2    H7 6882   3.040   2.627  12.068 -1.0630  2.9456 -0.9892
  459TMC3    C1 6883   2.854   2.579  12.207  0.4399  0.0552 -0.0170
  459TMC3    C2 6884   2.934   2.687  12.238 -0.2533  0.4315 -0.1278
  459TMC3    C3 6885   2.911   2.734  12.364 -0.0381  0.1498  0.2729
  459TMC3    C4 6886   2.756   2.522  12.284  0.7328  0.5662  0.2734
  459TMC3    C5 6887   2.756   2.553  12.412  0.2556  0.4416 -0.0960
  459TMC3    C6 6888   2.830   2.664  12.453  0.0035 -0.3168  1.0246
  459TMC3     C 6889   2.865   2.532  12.069  0.3433  0.1758  0.3046
  459TMC3     O 6890   2.780   2.452  12.025  0.0116  0.2616 -0.1862
  459TMC3     H 6891   2.988   2.747  12.166 -0.8543 -2.4312 -2.9095
  459TMC3    H1 6892   2.697   2.438  12.247  0.9846 -0.1167  1.3971
  459TMC3    H2 6893   2.817   2.697  12.555 -1.3953 -0.1254  0.7939
  459TMC3    C7 6894   2.702   2.456  12.509  0.2109 -0.0709  0.7604
  459TMC3    C8 6895   2.987   2.846  12.416  0.6398  0.1162  0.0374
  459TMC3    O1 6896   2.748   2.465  12.623 -0.2930 -0.0755 -0.4856
  459TMC3    O2 6897   3.020   2.836  12.536  0.1586  0.1026 -0.2212
  460MPD2     C 6898   1.770   0.516  10.404  0.8888 -0.7452 -0.0267
  460MPD2    C1 6899   1.674   0.429  10.433 -0.1494 -0.0736 -0.3767
  460MPD2    C2 6900   1.550   0.435  10.370  0.5991 -0.4769 -0.3413
  460MPD2    C3 6901   1.512   0.546  10.290  0.0480 -0.6211 -0.3610
  460MPD2    C4 6902   1.608   0.646  10.272 -0.5152  0.4730  0.5256
  460MPD2    C5 6903   1.736   0.624  10.323 -0.1057  0.6286 -0.0895
  460MPD2     H 6904   1.478   0.354  10.383 -1.1765  1.2826  0.7443
  460MPD2    H1 6905   1.589   0.731  10.209  0.2599  1.3712  1.5060
  460MPD2    H2 6906   1.873   0.510  10.438  1.0258 -1.0999 -0.4975
  460MPD2    H3 6907   1.813   0.698  10.301  0.2930 -0.1270 -1.2231
  460MPD2     N 6908   1.387   0.549  10.227 -0.5224 -0.5593  0.3128
  460MPD2    H5 6909   1.333   0.463  10.228 -0.0629 -0.8443  0.9757
  460MPD2    N1 6910   1.716   0.318  10.505 -0.3457  0.1486  0.2392
  460MPD2    H7 6911   1.815   0.319  10.526 -0.8869  0.2605  2.7950
  461TMC3    C1 6912   1.212   0.653  10.095 -0.7091  0.6936 -0.6065
  461TMC3    C2 6913   1.194   0.533  10.030 -0.2438  0.0242  0.0818
  461TMC3    C3 6914   1.108   0.529   9.919  0.2481 -0.3182  0.2048
  461TMC3    C4 6915   1.128   0.758  10.064  0.3163 -0.4520  0.3236
  461TMC3    C5 6916   1.040   0.753   9.961  0.4371 -0.5599  0.3538
  461TMC3    C6 6917   1.038   0.641   9.886  0.3278  0.6791  0.4784
  461TMC3     C 6918   1.330   0.672  10.177 -0.1560  0.4238 -0.5758
  461TMC3     O 6919   1.364   0.786  10.193 -0.9740 -0.0491 -0.6072
  461TMC3     H 6920   1.265   0.454  10.048 -0.5373 -0.0461  0.9210
  461TMC3    H1 6921   1.121   0.846  10.128  1.0944  0.8077 -1.3311
  461TMC3    H2 6922   0.978   0.650   9.796  2.3800 -3.1555 -1.2771
  461TMC3    C7 6923   0.990   0.873   9.908  0.6174  0.2026 -0.0665
  461TMC3    C8 6924   1.119   0.421   9.817  0.0038  0.3274  0.7423
  461TMC3    O1 6925   0.891   0.870   9.833  0.0430  0.2923 -0.4518
  461TMC3    O2 6926   1.218   0.354   9.829  0.3496  0.1765  0.5126
  462TMC3    C1 6927   2.001   1.538   0.048 -0.5017 -0.1538 -0.2870
  462TMC3    C2 6928   2.037   1.564  17.675 -0.5289 -0.1765 -0.0861
  462TMC3    C3 6929   2.016   1.465  17.584 -0.5506 -1.2367 -0.5706
  462TMC3    C4 6930   1.922   1.428   0.073 -0.4867 -1.1162  0.0844
  462TMC3    C5 6931   1.914   1.338  17.734 -0.1813  0.3885  0.2517
  462TMC3    C6 6932   1.964   1.345  17.609  0.7565 -0.2343 -0.0359
  462TMC3     C 6933   2.029   1.628   0.161 -1.4287 -0.2579 -0.3706
  462TMC3     O 6934   1.983   1.591   0.267  0.1032  0.7284 -0.1142
  462TMC3     H 6935   2.052   1.667  17.645 -1.3767  0.1663  0.6959
  462TMC3    H1 6936   1.888   1.404   0.174 -0.1507 -2.3997 -0.0992
  462TMC3    H2 6937   1.929   1.292  17.521 -1.1293 -0.2398  0.7103
  462TMC3    C7 6938   1.829   1.229   0.010 -0.7248  0.5335  0.2555
  462TMC3    C8 6939   2.068   1.491  17.445 -0.0523  0.4138 -0.2212
  462TMC3    O1 6940   1.717   1.255   0.059 -0.5058 -0.4039 -0.4854
  462TMC3    O2 6941   2.014   1.426  17.357 -0.3633 -0.5252 -0.1162
  463MPD2     C 6942   2.936   0.304   1.253 -0.3367  0.0627  0.0476
  463MPD2    C1 6943   2.876   0.368   1.143 -0.2723  0.9484  0.0282
  463MPD2    C2 6944   2.912   0.497   1.115  0.3825  0.0740  0.6187
  463MPD2    C3 6945   3.005   0.566   1.192  0.2117 -0.1394 -0.3597
  463MPD2    C4 6946   3.079   0.497   1.280 -0.1914  0.2481  0.8816
  463MPD2    C5 6947   3.045   0.369   1.312  0.0062  0.4392 -0.3045
  463MPD2     H 6948   2.871   0.540   1.025 -1.0567  1.6943  2.0516
  463MPD2    H1 6949   3.151   0.547   1.344  0.8085  0.1201 -0.1296
  463MPD2    H2 6950   2.914   0.201   1.278  2.9077  0.0818  3.0721
  463MPD2    H3 6951   3.093   0.317   1.394 -0.8926 -0.4486 -0.3384
  463MPD2     N 6952   3.025   0.707   1.183  0.0266  0.2783  1.0123
  463MPD2    H5 6953   3.082   0.749   1.256 -0.0653  1.4150  0.4241
  463MPD2    N1 6954   2.771   0.316   1.063  0.0056 -0.3544  0.1347
  463MPD2    H7 6955   2.722   0.385   1.007 -0.1801 -2.5336 -2.3570
  464TMC3    C1 6956   2.585   0.180   1.005 -0.0541  0.4524  0.2456
  464TMC3    C2 6957   2.507   0.288   1.006  0.4107 -0.8932 -0.6829
  464TMC3    C3 6958   2.374   0.266   1.008 -0.4886  0.5779  0.3996
  464TMC3    C4 6959   2.539   0.051   0.991 -0.0674 -0.1554  0.4351
  464TMC3    C5 6960   2.399   0.034   0.978 -0.1555  0.5009  0.4247
  464TMC3    C6 6961   2.314   0.138   0.993  0.0112  0.3266 -0.0119
  464TMC3     C 6962   2.726   0.190   1.053  0.3269  0.5148 -0.1534
  464TMC3     O 6963   2.789   0.089   1.082 -0.4211 -0.7052 -0.4075
  464TMC3     H 6964   2.546   0.389   1.011 -0.3454 -0.6833  1.2023
  464TMC3    H1 6965   2.604   4.705   0.987 -0.4271 -0.3999 -0.1062
  464TMC3    H2 6966   2.208   0.127   1.011 -0.3813  2.1074 -1.2188
  464TMC3    C7 6967   2.342   4.643   0.962 -0.4703 -0.7833  0.4398
  464TMC3    C8 6968   2.284   0.381   1.018  0.8872 -0.4488 -0.2181
  464TMC3    O1 6969   2.418   4.550   0.985  0.1329  0.0782 -0.0800
  464TMC3    O2 6970   2.178   0.380   0.963  0.7715  0.4603  0.3243
  465MPD2     C 6971   3.530   4.496  16.391  0.3919 -0.4272 -0.5891
  465MPD2    C1 6972   3.506   4.381  16.456 -0.1638 -0.1264  0.6399
  465MPD2    C2 6973   3.393   4.314  16.410 -0.3260 -0.6074 -0.2859
  465MPD2    C3 6974   3.324   4.350  16.293  0.1894  0.9706  0.0474
  465MPD2    C4 6975   3.368   4.457  16.218  0.0130 -0.1652 -0.1094
  465MPD2    C5 6976   3.470   4.532  16.273 -0.3574 -0.2316  0.2944
  465MPD2     H 6977   3.360   4.229  16.467 -1.3982  0.8677  1.2916
  465MPD2    H1 6978   3.338   4.484  16.118 -0.8282 -0.9792 -0.0796
  465MPD2    H2 6979   3.603   4.571  16.420  0.6796 -1.2797  0.9236
  465MPD2    H3 6980   3.499   4.625  16.226  0.3802 -0.7367 -0.2447
  465MPD2     N 6981   3.204   4.280  16.259  0.1805  0.1562  0.2459
  465MPD2    H5 6982   3.178   4.196  16.310  0.3233  0.9391  1.6113
  465MPD2    N1 6983   3.585   4.343  16.563 -0.2357 -0.0252  0.8516
  465MPD2    H7 6984   3.637   4.421  16.603 -0.4524  0.5631 -0.0190
  466TMC3    C1 6985   2.887   4.024  16.179 -0.3823 -0.3759  0.0294
  466TMC3    C2 6986   2.790   4.057  16.086 -0.5105  0.5972  0.3954
  466TMC3    C3 6987   2.801   4.186  16.035  0.1901 -0.0649  0.4078
  466TMC3    C4 6988   2.998   4.104  16.201  0.3568  0.0850  0.4678
  466TMC3    C5 6989   3.022   4.216  16.120  0.6171 -0.0111  0.5595
  466TMC3    C6 6990   2.916   4.261  16.040 -0.4810 -0.1400  0.0219
  466TMC3     C 6991   2.824   3.997  16.312 -0.7400  0.1723  0.3229
  466TMC3     O 6992   2.895   3.995  16.416 -0.6431  0.1967  0.1774
  466TMC3     H 6993   2.715   3.983  16.061  1.5615 -1.9772  1.8415
  466TMC3    H1 6994   3.071   4.076  16.277  0.2970 -1.8127 -0.1662
  466TMC3    H2 6995   2.917   4.354  15.983  2.0039 -0.3581 -0.2844
  466TMC3    C7 6996   3.124   4.312  16.153 -0.0060  0.7681  0.2172
  466TMC3    C8 6997   2.680   4.249  16.075  0.3892  0.3755  0.3904
  466TMC3    O1 6998   3.127   4.403  16.069 -0.2506  0.3044  0.0708
  466TMC3    O2 6999   2.587   4.170  16.087  0.2952 -0.3709  0.0087
  467TMC3    C1 7000   0.017   2.058  13.926 -0.1223  0.2866  0.1628
  467TMC3    C2 7001   0.025   2.158  13.829  0.2375  0.3377  0.1998
  467TMC3    C3 7002   4.674   2.158  13.728 -0.4845 -0.2910 -0.2476
  467TMC3    C4 7003   4.667   1.956  13.906  0.2676 -0.7410 -0.0981
  467TMC3    C5 7004   4.580   1.957  13.801  0.1350 -0.1616  0.2253
  467TMC3    C6 7005   4.580   2.061  13.715  0.6327 -0.5247  0.1571
  467TMC3     C 7006   0.137   2.030  14.004 -0.8091 -0.9803 -0.1255
  467TMC3     O 7007   0.220   2.119  14.010  0.7647 -0.3465  0.0484
  467TMC3     H 7008   0.109   2.227  13.837  0.4786  0.4174 -3.2593
  467TMC3    H1 7009   4.670   1.872  13.975  2.5577  1.1555  2.1544
  467TMC3    H2 7010   4.528   2.064  13.620 -1.6662  1.1158  1.4728
  467TMC3    C7 7011   4.512   1.836  13.769  0.3982  0.5571 -0.9664
  467TMC3    C8 7012   4.729   2.216  13.607 -0.6698 -0.5989 -0.3446
  467TMC3    O1 7013   4.560   1.736  13.827 -0.8171 -0.4365 -0.1279
  467TMC3    O2 7014   4.664   2.302  13.550  0.0164  0.1234  0.0454
  468MPD2     C 7015   3.632   0.719  10.007  0.2723 -0.6226  0.1976
  468MPD2    C1 7016   3.637   0.697  10.143  0.7703  0.7058  0.2400
  468MPD2    C2 7017   3.591   0.576  10.185  0.3977  0.0324  0.8676
  468MPD2    C3 7018   3.547   0.470  10.095 -0.3636  0.2422 -0.0840
  468MPD2    C4 7019   3.551   0.494   9.956  0.0253 -0.0485  0.3337
  468MPD2    C5 7020   3.583   0.626   9.917 -0.3530  0.1212  0.1865
  468MPD2     H 7021   3.597   0.558  10.291  0.3174 -1.2557  0.6568
  468MPD2    H1 7022   3.514   0.428   9.878 -0.6386  0.3865  0.2844
  468MPD2    H2 7023   3.672   0.810   9.964 -1.2236  0.1608  0.4544
  468MPD2    H3 7024   3.559   0.657   9.816  1.0639  1.4222  0.2470
  468MPD2     N 7025   3.527   0.339  10.140 -1.2105  0.3481  0.2095
  468MPD2    H5 7026   3.518   0.269  10.067 -1.0967  1.4336 -0.8538
  468MPD2    N1 7027   3.675   0.788  10.240  0.1726 -0.2745 -0.6284
  468MPD2    H7 7028   3.630   0.766  10.328 -3.3246  0.5910 -2.1989
  469TMC3    C1 7029   3.758   0.994  10.338  0.6920 -0.5654  0.7892
  469TMC3    C2 7030   3.880   1.024  10.378  0.1235 -0.5035  0.7975
  469TMC3    C3 7031   3.906   1.047  10.512  0.5379 -0.3370 -0.9177
  469TMC3    C4 7032   3.666   0.977  10.428 -0.1347  0.2265  0.3024
  469TMC3    C5 7033   3.688   1.010  10.557  0.5551 -0.2113 -0.0490
  469TMC3    C6 7034   3.807   1.052  10.609  0.3749 -0.2902  0.2464
  469TMC3     C 7035   3.737   0.914  10.216 -0.4884  0.0857  0.4722
  469TMC3     O 7036   3.808   0.936  10.119  0.2697 -0.1253 -0.1130
  469TMC3     H 7037   3.956   1.035  10.301  0.1223  0.3400  0.9153
  469TMC3    H1 7038   3.564   0.962  10.395 -0.5710 -0.5467  2.0198
  469TMC3    H2 7039   3.826   1.071  10.714 -0.0265 -0.0561  0.2739
  469TMC3    C7 7040   3.566   1.042  10.630  0.6441  0.3469  0.6909
  469TMC3    C8 7041   4.041   1.040  10.555  0.4971 -0.1701 -0.5504
  469TMC3    O1 7042   3.469   1.087  10.566 -0.4614 -0.2202 -0.6419
  469TMC3    O2 7043   4.127   1.088  10.487 -0.5084 -0.2524 -0.2359
  470TMC3    C1 7044   0.586   0.817   1.029  0.3270 -0.4189 -0.3881
  470TMC3    C2 7045   0.657   0.931   1.048 -0.7620 -1.0417  0.0742
  470TMC3    C3 7046   0.629   1.010   1.157  0.6400  0.1581 -0.3743
  470TMC3    C4 7047   0.487   0.776   1.110  0.3495 -0.0445 -0.0840
  470TMC3    C5 7048   0.460   0.868   1.215 -0.5347 -0.3405  0.5885
  470TMC3    C6 7049   0.524   0.987   1.237 -0.8316  0.6451 -0.0465
  470TMC3     C 7050   0.591   0.743   0.911 -0.4260  0.2344  0.5309
  470TMC3     O 7051   0.497   0.667   0.894 -0.7334  0.3793  0.5072
  470TMC3     H 7052   0.727   0.964   0.973  0.4918  3.5374  3.2436
  470TMC3    H1 7053   0.426   0.689   1.092 -2.3152  1.6860  0.5612
  470TMC3    H2 7054   0.497   1.054   1.317  2.3626 -0.0950  1.6263
  470TMC3    C7 7055   0.340   0.858   1.302  0.6548  0.0205 -0.5394
  470TMC3    C8 7056   0.715   1.121   1.190 -0.3689 -0.0849 -0.1867
  470TMC3    O1 7057   0.333   0.919   1.405  0.0261 -0.7314  0.2271
  470TMC3    O2 7058   0.654   1.215   1.238 -0.1036 -0.0544  0.6167
  471MPD2     C 7059   0.630   2.269  16.893 -0.8538  0.3371 -0.4489
  471MPD2    C1 7060   0.705   2.383  16.938 -0.0811 -0.1352  0.1816
  471MPD2    C2 7061   0.704   2.412  17.075  0.3254 -0.6219  0.1055
  471MPD2    C3 7062   0.647   2.326  17.169 -0.0683  0.1994  0.0434
  471MPD2    C4 7063   0.577   2.216  17.123  0.4700  0.6212 -0.1495
  471MPD2    C5 7064   0.579   2.185  16.989  0.6371  0.5601  0.2269
  471MPD2     H 7065   0.771   2.492  17.104 -0.1070 -0.7318  1.4165
  471MPD2    H1 7066   0.530   2.147  17.192 -1.5364 -0.0414 -2.1706
  471MPD2    H2 7067   0.626   2.233  16.791 -2.3406 -2.2786  0.5509
  471MPD2    H3 7068   0.527   2.096  16.955 -0.9556  0.5023  2.8309
  471MPD2     N 7069   0.639   2.350  17.307 -0.1769  0.7093  0.1221
  471MPD2    H5 7070   0.592   2.286  17.370 -0.0317 -0.5462 -1.0538
  471MPD2    N1 7071   0.783   2.468  16.848 -0.3282  0.4710  0.3019
  471MPD2    H7 7072   0.846   2.536  16.889  0.3539 -0.3932  0.7078
  472TMC3    C1 7073   0.845   2.565  16.636 -0.5834  0.2515 -0.2190
  472TMC3    C2 7074   0.797   2.579  16.502 -0.0009  0.7163  0.7513
  472TMC3    C3 7075   0.885   2.572  16.398  0.2130 -0.3029  0.0150
  472TMC3    C4 7076   0.980   2.556  16.659 -0.0688  0.3445  0.3605
  472TMC3    C5 7077   1.074   2.560  16.553 -0.3195  0.2806 -0.2669
  472TMC3    C6 7078   1.017   2.570  16.425  0.0802 -0.6978 -0.0193
  472TMC3     C 7079   0.767   2.463  16.704 -0.4134  0.6172  0.0012
  472TMC3     O 7080   0.678   2.408  16.643 -0.0597 -0.3221  0.3867
  472TMC3     H 7081   0.690   2.583  16.486 -0.2793 -0.7402  2.2139
  472TMC3    H1 7082   1.024   2.550  16.758  0.3239 -5.5355 -0.1654
  472TMC3    H2 7083   1.086   2.536  16.349  0.0003  0.5284 -0.6374
  472TMC3    C7 7084   1.203   2.495  16.569  0.6753 -0.6178  0.5591
  472TMC3    C8 7085   0.861   2.459  16.312 -0.0469 -0.0826  1.0526
  472TMC3    O1 7086   1.290   2.519  16.489 -0.3746  0.1926  0.3423
  472TMC3    O2 7087   0.917   2.454  16.198  0.3856 -0.3900 -0.2795
  473MPD2     C 7088   1.323   4.355  13.724  0.5025 -0.0351 -0.6335
  473MPD2    C1 7089   1.252   4.471  13.712  0.4489 -0.1530 -0.4791
  473MPD2    C2 7090   1.278   4.568  13.808 -0.3711 -0.2130 -0.2428
  473MPD2    C3 7091   1.374   4.549  13.908  0.2338  0.3484 -0.0129
  473MPD2    C4 7092   1.450   4.433  13.912 -0.2171  1.4082  0.0032
  473MPD2    C5 7093   1.419   4.336  13.821 -0.3495  0.2874 -0.2617
  473MPD2     H 7094   1.217   4.657  13.801  1.0480  1.0941  4.1286
  473MPD2    H1 7095   1.514   4.404  13.995  0.9534  2.3126 -0.5815
  473MPD2    H2 7096   1.294   4.262  13.676 -0.0926 -0.0979 -0.1569
  473MPD2    H3 7097   1.477   4.245  13.825 -0.3512  0.1998 -2.1750
  473MPD2     N 7098   1.405   4.643  14.011  0.1327 -0.1187 -0.0824
  473MPD2    H5 7099   1.477   4.607  14.073 -0.8972  0.9216  1.7292
  473MPD2    N1 7100   1.154   4.480  13.610  0.5588 -0.0673 -0.1947
  473MPD2    H7 7101   1.093   4.561  13.611  0.9539  0.2301 -0.0547
  474TMC3    C1 7102   1.421   0.107  14.123 -0.3811  0.0731  0.1222
  474TMC3    C2 7103   1.366   0.228  14.161  0.4113 -0.4207  0.1235
  474TMC3    C3 7104   1.423   0.302  14.262 -0.5089  0.0005  0.6127
  474TMC3    C4 7105   1.526   0.049  14.201 -0.0071  0.3106  0.5272
  474TMC3    C5 7106   1.580   0.126  14.305  0.5097 -0.7866  0.0865
  474TMC3    C6 7107   1.536   0.253  14.329  0.0227 -0.3844  0.1609
  474TMC3     C 7108   1.341   0.027  14.031 -0.0962  0.3818 -0.2436
  474TMC3     O 7109   1.255   0.076  13.959  0.4499 -0.2619  0.0197
  474TMC3     H 7110   1.277   0.265  14.111  0.1161 -0.8397  0.3401
  474TMC3    H1 7111   1.582   4.700  14.175 -1.4487 -0.1918 -0.8644
  474TMC3    H2 7112   1.597   0.320  14.389 -0.8023 -0.2307  0.8325
  474TMC3    C7 7113   1.733   0.114  14.311 -0.1755  0.0927  0.1032
  474TMC3    C8 7114   1.427   0.445  14.239 -0.4436  0.7775  0.2963
  474TMC3    O1 7115   1.788   0.040  14.230 -0.6489 -0.0530  0.1173
  474TMC3    O2 7116   1.402   0.481  14.124  0.7844  0.5304 -0.2831
  475MPD2     C 7117   0.190   2.771  10.807 -0.3416 -0.8592  0.9302
  475MPD2    C1 7118   0.144   2.886  10.872 -0.5613 -0.6095 -0.4408
  475MPD2    C2 7119   0.013   2.892  10.908  0.3228 -0.2113  0.0696
  475MPD2    C3 7120   4.674   2.783  10.886 -0.1439 -0.1007  0.4714
  475MPD2    C4 7121   4.718   2.678  10.814  0.1047  0.9651 -0.2743
  475MPD2    C5 7122   0.106   2.671  10.772 -0.1142  0.5636  0.0313
  475MPD2     H 7123   4.717   2.977  10.964 -0.2786 -0.9721  0.8367
  475MPD2    H1 7124   4.648   2.597  10.798  0.3592 -0.1814  4.3884
  475MPD2    H2 7125   0.293   2.754  10.779 -0.4276 -0.7173  0.5223
  475MPD2    H3 7126   0.138   2.591  10.705 -0.1658  0.8788 -0.3684
  475MPD2     N 7127   4.560   2.778  10.962 -0.1485  0.2918 -0.0253
  475MPD2    H5 7128   4.531   2.866  11.005 -0.9023  1.0398 -2.1026
  475MPD2    N1 7129   0.233   2.992  10.904  0.0838 -0.3911  0.0508
  475MPD2    H7 7130   0.197   3.058  10.972  0.2351  0.0329 -0.2857
  476TMC3    C1 7131   0.423   3.109  10.922 -0.3339 -0.3514  0.5636
  476TMC3    C2 7132   0.459   3.204  10.835 -0.2604 -0.3200  0.2924
  476TMC3    C3 7133   0.429   3.334  10.866  0.2052  0.6735 -0.7739
  476TMC3    C4 7134   0.400   3.142  11.049 -0.0595 -0.8076 -0.1196
  476TMC3    C5 7135   0.392   3.277  11.091 -0.5244 -0.1431 -0.5367
  476TMC3    C6 7136   0.408   3.375  10.994  0.0674  0.2571  0.0686
  476TMC3     C 7137   0.353   3.004  10.858  1.0016 -1.1403 -0.0138
  476TMC3     O 7138   0.388   2.977  10.743 -0.0708  0.2181 -0.1933
  476TMC3     H 7139   0.496   3.178  10.737 -1.0719 -1.1892  0.2108
  476TMC3    H1 7140   0.384   3.065  11.124 -2.0290  0.1208  0.4002
  476TMC3    H2 7141   0.412   3.481  11.014  1.1415  0.1290  0.5489
  476TMC3    C7 7142   0.273   3.291  11.173 -0.2722 -0.2541  0.2385
  476TMC3    C8 7143   0.314   3.375  10.783  0.2608 -0.2659 -0.3056
  476TMC3    O1 7144   0.238   3.205  11.255  0.5172 -0.2614  0.3307
  476TMC3    O2 7145   0.246   3.459  10.835 -0.1718  1.0591 -0.0017
  477MPD2     C 7146   2.171   4.507  11.400 -0.0860 -0.3468 -0.4661
  477MPD2    C1 7147   2.224   4.383  11.364  0.0641 -0.5041  0.4156
  477MPD2    C2 7148   2.302   4.312  11.453 -0.0350 -0.0536 -0.0643
  477MPD2    C3 7149   2.324   4.365  11.578 -0.8072  0.1212  0.0748
  477MPD2    C4 7150   2.279   4.492  11.615  0.3026  0.2656 -0.0439
  477MPD2    C5 7151   2.205   4.555  11.520 -0.6849 -0.4658  0.1584
  477MPD2     H 7152   2.345   4.214  11.434  1.6667  1.1487 -2.3625
  477MPD2    H1 7153   2.313   4.532  11.709  0.3880  1.5482 -0.6217
  477MPD2    H2 7154   2.102   4.570  11.346  0.6336 -0.3681 -1.4186
  477MPD2    H3 7155   2.169   4.654  11.545  0.8468  0.4820 -1.3569
  477MPD2     N 7156   2.413   4.284  11.658 -0.3416 -0.1251 -0.3073
  477MPD2    H5 7157   2.475   4.216  11.615 -2.5117 -0.4950 -2.9150
  477MPD2    N1 7158   2.178   4.332  11.242  0.1404 -0.2686  0.0443
  477MPD2    H7 7159   2.110   4.391  11.195  2.0277  1.8198 -0.1077
  478TMC3    C1 7160   2.133   4.183  11.065 -0.0990 -0.1388 -0.3317
  478TMC3    C2 7161   2.035   4.101  11.092  0.1516  0.1541  0.2181
  478TMC3    C3 7162   1.915   4.112  11.027 -0.4235  0.2888 -0.1656
  478TMC3    C4 7163   2.119   4.278  10.971 -0.0010  0.2131 -0.1025
  478TMC3    C5 7164   1.995   4.286  10.902 -0.1306  0.2138  0.0205
  478TMC3    C6 7165   1.886   4.211  10.934 -0.3243  0.7574  0.0893
  478TMC3     C 7166   2.217   4.210  11.177  0.1218 -0.5688 -0.1009
  478TMC3     O 7167   2.290   4.123  11.226 -0.4568 -0.3965  0.2793
  478TMC3     H 7168   2.049   4.020  11.163 -2.0386 -0.7767 -0.3936
  478TMC3    H1 7169   2.197   4.349  10.946  3.3545 -3.6278 -0.5379
  478TMC3    H2 7170   1.793   4.195  10.882 -0.5181  0.6948  0.4513
  478TMC3    C7 7171   1.991   4.377  10.788 -0.2521  0.4888 -0.4396
  478TMC3    C8 7172   1.810   4.081  11.118 -0.5476 -0.1724 -0.0313
  478TMC3    O1 7173   2.095   4.423  10.754 -0.4424 -0.1521 -0.0960
  478TMC3    O2 7174   1.819   3.964  11.161 -0.7289  0.0153  0.6948
  479MPD2     C 7175   1.015   1.672  14.920  0.7045  1.0492 -0.2459
  479MPD2    C1 7176   0.964   1.613  15.034 -0.9107 -0.8544  0.2541
  479MPD2    C2 7177   1.053   1.597  15.140 -0.0962  0.0140  1.0915
  479MPD2    C3 7178   1.184   1.655  15.139  0.4085 -1.4388  0.4385
  479MPD2    C4 7179   1.231   1.719  15.021  0.2477 -0.0937 -0.1315
  479MPD2    C5 7180   1.144   1.724  14.918  0.8354  0.1555  0.5266
  479MPD2     H 7181   1.010   1.578  15.238 -0.6234  2.3282  1.3008
  479MPD2    H1 7182   1.331   1.760  15.021  1.2053 -2.3719  1.7163
  479MPD2    H2 7183   0.953   1.690  14.833 -1.2437 -2.9894  0.3012
  479MPD2    H3 7184   1.170   1.769  14.823 -0.2393  0.3425  0.3272
  479MPD2     N 7185   1.250   1.672  15.260 -0.0523  0.2947 -0.1216
  479MPD2    H5 7186   1.326   1.739  15.262  0.7756 -0.6948  1.6036
  479MPD2    N1 7187   0.824   1.587  15.039 -0.1179 -0.0794 -0.0463
  479MPD2    H7 7188   0.764   1.615  14.962 -0.0364 -0.3983 -0.2270
  480TMC3    C1 7189   1.140   1.556  15.679  0.5385  0.1905  0.1905
  480TMC3    C2 7190   1.061   1.667  15.680  0.1050 -0.1986 -0.2164
  480TMC3    C3 7191   1.102   1.775  15.596 -0.7607  0.1925 -0.7047
  480TMC3    C4 7192   1.243   1.539  15.589  0.3648 -0.6328 -0.0556
  480TMC3    C5 7193   1.264   1.636  15.489  0.6706 -0.5260  0.2842
  480TMC3    C6 7194   1.202   1.759  15.506 -0.2650  0.0247 -0.4545
  480TMC3     C 7195   1.102   1.440  15.770  0.4102 -0.5039 -0.2045
  480TMC3     O 7196   1.136   1.329  15.741 -0.0668 -0.6469  0.4940
  480TMC3     H 7197   0.974   1.683  15.742 -0.0498  3.9096 -1.4369
  480TMC3    H1 7198   1.279   1.437  15.577 -0.4619 -1.0339  0.8600
  480TMC3    H2 7199   1.231   1.842  15.443  0.4708 -0.8733 -1.2897
  480TMC3    C7 7200   1.231   1.582  15.363  0.4432 -0.4100  0.2932
  480TMC3    C8 7201   0.978   1.830  15.533 -1.0624 -0.8249 -0.0958
  480TMC3    O1 7202   1.161   1.482  15.367  0.3559  0.2162  0.3622
  480TMC3    O2 7203   0.870   1.812  15.588  0.4839  0.2239 -0.3490
  481MPD2     C 7204   2.804   1.693  14.283  0.0848 -0.3983 -0.0161
  481MPD2    C1 7205   2.723   1.588  14.318 -0.4181  0.7714 -0.3440
  481MPD2    C2 7206   2.692   1.565  14.452  0.6392 -0.3667 -0.2038
  481MPD2    C3 7207   2.748   1.644  14.546  0.0154 -0.1397 -0.4291
  481MPD2    C4 7208   2.839   1.737  14.511  0.2989  0.1966 -0.8680
  481MPD2    C5 7209   2.868   1.763  14.381 -0.1230 -0.5884 -1.2062
  481MPD2     H 7210   2.619   1.489  14.478 -1.2137  1.6198  0.3605
  481MPD2    H1 7211   2.883   1.805  14.583 -2.6133 -0.6522  1.7155
  481MPD2    H2 7212   2.830   1.719  14.181  1.0437  1.9528  0.8369
  481MPD2    H3 7213   2.940   1.838  14.349 -0.5699  0.6398  0.6752
  481MPD2     N 7214   2.708   1.644  14.685 -0.2154  0.0371  0.1314
  481MPD2    H5 7215   2.737   1.729  14.733 -0.7730 -1.2490  2.7628
  481MPD2    N1 7216   2.664   1.519  14.212 -0.2095 -0.6582  0.1133
  481MPD2    H7 7217   2.689   1.553  14.120 -1.9279 -0.2554 -0.2079
  482TMC3    C1 7218   2.548   1.366  14.083 -0.3655  0.0191  0.0272
  482TMC3    C2 7219   2.423   1.310  14.068  0.0347  0.0352  0.1202
  482TMC3    C3 7220   2.387   1.279  13.943  0.1313  0.1256 -0.4692
  482TMC3    C4 7221   2.633   1.388  13.979 -0.2124 -0.7243 -0.5223
  482TMC3    C5 7222   2.594   1.339  13.854 -0.4828  0.5047  0.1728
  482TMC3    C6 7223   2.466   1.290  13.834  0.9644  0.1299  0.1005
  482TMC3     C 7224   2.590   1.402  14.216  0.5533 -0.0711 -0.3305
  482TMC3     O 7225   2.549   1.338  14.312 -0.1280  0.3909 -0.0706
  482TMC3     H 7226   2.360   1.287  14.152  0.4108  0.2558  0.4644
  482TMC3    H1 7227   2.738   1.416  13.987 -0.2419 -0.2582 -1.8178
  482TMC3    H2 7228   2.430   1.273  13.733 -1.3054  4.3287  0.1839
  482TMC3    C7 7229   2.678   1.377  13.736 -0.0615 -0.4921  0.0308
  482TMC3    C8 7230   2.270   1.187  13.938  0.5809 -0.0721 -0.3926
  482TMC3    O1 7231   2.762   1.463  13.751 -0.4759 -0.0504 -0.4023
  482TMC3    O2 7232   2.270   1.102  14.022  0.1750 -0.3386  0.3080
  483TMC3    C1 7233   0.084   0.741   0.439  0.5017  0.0730  0.5139
  483TMC3    C2 7234   0.208   0.799   0.409  0.1513  0.1230 -0.2605
  483TMC3    C3 7235   0.296   0.807   0.514 -0.4296 -0.2936 -0.0334
  483TMC3    C4 7236   0.063   0.683   0.559 -0.7175  0.1756  0.7794
  483TMC3    C5 7237   0.163   0.673   0.652 -0.1546 -0.1382  0.0518
  483TMC3    C6 7238   0.281   0.743   0.632  0.2442 -0.1167 -0.1939
  483TMC3     C 7239   4.735   0.676   0.336 -0.3963  0.4386  0.3380
  483TMC3     O 7240   4.681   0.744   0.251  0.2934  0.3296 -0.3320
  483TMC3     H 7241   0.224   0.845   0.313 -0.5445  2.2911  0.6606
  483TMC3    H1 7242   4.711   0.629   0.582 -0.3835  0.8177  3.5369
  483TMC3    H2 7243   0.364   0.719   0.698  2.1931 -1.7965 -3.2973
  483TMC3    C7 7244   0.194   0.534   0.679  0.0686  0.6961  0.2666
  483TMC3    C8 7245   0.425   0.876   0.489  0.5346 -0.2479  0.1010
  483TMC3    O1 7246   0.143   0.455   0.601  0.0061  0.0939 -0.5549
  483TMC3    O2 7247   0.470   0.874   0.373  0.1053  0.3626  0.0527
  484MPD2     C 7248   3.064   3.164  12.239  0.4677 -0.1399  0.4292
  484MPD2    C1 7249   3.083   3.059  12.327 -0.1518 -0.7794 -0.4290
  484MPD2    C2 7250   3.186   3.065  12.421  0.4153  0.3124 -0.1569
  484MPD2    C3 7251   3.277   3.173  12.421 -0.2380  0.3676  0.5513
  484MPD2    C4 7252   3.258   3.277  12.333  0.4658 -0.3981 -0.3167
  484MPD2    C5 7253   3.148   3.272  12.250 -0.7521 -0.5736 -0.1327
  484MPD2     H 7254   3.192   2.983  12.493 -1.6579 -0.2830 -0.6420
  484MPD2    H1 7255   3.329   3.357  12.321 -0.1191  0.4380  1.7410
  484MPD2    H2 7256   2.980   3.167  12.170  1.0069 -0.4133 -0.2297
  484MPD2    H3 7257   3.134   3.353  12.180  2.3251  0.2427  0.1743
  484MPD2     N 7258   3.390   3.180  12.506  0.3362  0.1888  0.6138
  484MPD2    H5 7259   3.443   3.266  12.493  2.5971 -1.3629 -0.4423
  484MPD2    N1 7260   3.002   2.948  12.319 -0.1570 -0.4392 -0.2857
  484MPD2    H7 7261   2.946   2.940  12.235 -3.2717 -1.7662  1.8748
  485TMC3    C1 7262   3.550   3.117  12.651  0.4041 -0.1310  0.8272
  485TMC3    C2 7263   3.557   3.088  12.785  0.3857 -0.3100  0.7097
  485TMC3    C3 7264   3.664   3.147  12.849 -0.0774 -0.3729  0.3508
  485TMC3    C4 7265   3.635   3.203  12.592  0.2154  0.8781  0.6458
  485TMC3    C5 7266   3.728   3.267  12.660 -0.6443  0.4198  0.7107
  485TMC3    C6 7267   3.746   3.242  12.792 -0.0967 -0.0731 -0.1118
  485TMC3     C 7268   3.424   3.084  12.596  0.3190 -0.1710  0.4233
  485TMC3     O 7269   3.370   2.982  12.639  0.3926 -0.3129  0.0282
  485TMC3     H 7270   3.491   3.013  12.826  2.2048 -1.4168  1.6008
  485TMC3    H1 7271   3.630   3.219  12.485 -2.0199 -3.1032  0.1631
  485TMC3    H2 7272   3.812   3.295  12.861  1.1462 -1.7651 -0.0177
  485TMC3    C7 7273   3.779   3.385  12.598 -0.2872 -0.0008  0.8188
  485TMC3    C8 7274   3.721   3.063  12.965  0.4171  0.7953 -0.9451
  485TMC3    O1 7275   3.700   3.440  12.521 -0.4133 -0.7441  0.0517
  485TMC3    O2 7276   3.830   3.100  13.005 -0.0420 -0.4505  0.0663
  486MPD2     C 7277   0.989   1.931  13.022  0.0182  0.1492 -0.7157
  486MPD2    C1 7278   0.861   1.906  13.055 -0.1209 -0.0572 -0.2832
  486MPD2    C2 7279   0.766   2.008  13.039  0.7344 -0.4492  0.1199
  486MPD2    C3 7280   0.801   2.138  13.004  0.2435 -0.2529 -0.3684
  486MPD2    C4 7281   0.936   2.159  12.975 -0.1996 -0.1600 -0.9447
  486MPD2    C5 7282   1.026   2.055  12.980 -0.1589 -0.1481  0.6815
  486MPD2     H 7283   0.664   1.995  13.072  0.1898 -1.7265 -2.0271
  486MPD2    H1 7284   0.978   2.253  12.941  1.2779 -0.2861  0.5080
  486MPD2    H2 7285   1.062   1.851  13.023 -0.5022 -0.2706  1.4747
  486MPD2    H3 7286   1.129   2.073  12.954 -0.4883  2.7845  1.4944
  486MPD2     N 7287   0.713   2.246  12.977 -0.0608 -0.2647  0.6516
  486MPD2    H5 7288   0.749   2.339  12.960 -0.0510 -0.5023 -0.6509
  486MPD2    N1 7289   0.820   1.777  13.089  0.0397  0.3678 -0.6995
  486MPD2    H7 7290   0.890   1.709  13.117  0.5656  1.9185  1.7109
  487TMC3    C1 7291   0.668   1.603  13.131 -0.1996  0.1575 -0.3711
  487TMC3    C2 7292   0.584   1.526  13.057  0.0742  0.1529 -0.2556
  487TMC3    C3 7293   0.574   1.392  13.092  0.5327 -0.3249 -0.3471
  487TMC3    C4 7294   0.736   1.553  13.237 -0.1001  0.3074 -0.4392
  487TMC3    C5 7295   0.720   1.428  13.278 -0.1662 -0.2099  0.3299
  487TMC3    C6 7296   0.652   1.339  13.199  0.3281  0.7748 -0.0801
  487TMC3     C 7297   0.690   1.734  13.088  0.8471 -0.0558 -0.1144
  487TMC3     O 7298   0.595   1.780  13.033  0.1676 -0.3492  0.2539
  487TMC3     H 7299   0.530   1.562  12.970 -0.2158 -0.7625 -0.4558
  487TMC3    H1 7300   0.800   1.619  13.296  1.3208 -1.2786 -0.2151
  487TMC3    H2 7301   0.626   1.248  13.252 -0.0940  1.2750  0.5622
  487TMC3    C7 7302   0.673   1.409  13.413  0.1353 -0.2598  0.2337
  487TMC3    C8 7303   0.435   1.370  13.122  0.4525 -0.2167 -0.0422
  487TMC3    O1 7304   0.753   1.394  13.503  0.5823 -0.2322 -1.0211
  487TMC3    O2 7305   0.367   1.469  13.141 -0.5295  0.6845 -0.1876
  488MPD2     C 7306   0.349   3.702  16.163 -0.4974 -0.1039  0.3028
  488MPD2    C1 7307   0.413   3.803  16.236  0.2700 -0.5532  0.0796
  488MPD2    C2 7308   0.385   3.819  16.368  0.0524  0.3673  0.6681
  488MPD2    C3 7309   0.300   3.727  16.428 -0.6470  0.1936  0.3867
  488MPD2    C4 7310   0.255   3.618  16.364  0.1926 -0.0852  0.0444
  488MPD2    C5 7311   0.269   3.608  16.231 -0.7814  0.4602 -0.0365
  488MPD2     H 7312   0.441   3.902  16.411 -1.3760  1.8458 -0.2817
  488MPD2    H1 7313   0.190   3.544  16.408  0.6995 -1.6400 -1.8084
  488MPD2    H2 7314   0.366   3.681  16.058  1.1941  2.4897  0.0783
  488MPD2    H3 7315   0.227   3.525  16.175 -0.1651  1.2086 -1.6387
  488MPD2     N 7316   0.282   3.739  16.564 -0.3887 -0.1118 -0.5571
  488MPD2    H5 7317   0.298   3.830  16.606  2.4924  0.3615 -2.6480
  488MPD2    N1 7318   0.517   3.882  16.192  0.4986 -0.7767  0.3076
  488MPD2    H7 7319   0.562   3.932  16.268 -1.2773  0.4470  0.5424
  489TMC3    C1 7320   0.268   3.692  16.790  0.2334  0.5407  0.4409
  489TMC3    C2 7321   0.338   3.812  16.801  0.2931 -0.9407 -0.0268
  489TMC3    C3 7322   0.442   3.814  16.890 -0.4818  0.1236  0.5624
  489TMC3    C4 7323   0.286   3.583  16.871  0.4219 -0.0668 -0.4587
  489TMC3    C5 7324   0.386   3.598  16.962  0.6480 -0.2190  0.3644
  489TMC3    C6 7325   0.480   3.700  16.964  0.1070 -0.5350  0.2299
  489TMC3     C 7326   0.238   3.647  16.654  0.2507 -0.6448 -0.3376
  489TMC3     O 7327   0.226   3.529  16.635 -0.1283  0.4974 -0.0897
  489TMC3     H 7328   0.321   3.900  16.739  0.1462 -0.2608  0.9745
  489TMC3    H1 7329   0.243   3.487  16.844  0.6533 -0.6105  1.1246
  489TMC3    H2 7330   0.548   3.709  17.048  0.0646  2.1554 -0.0050
  489TMC3    C7 7331   0.408   3.490  17.055 -0.3370 -0.9877 -0.2205
  489TMC3    C8 7332   0.547   3.912  16.865  0.2109  0.0599 -0.5918
  489TMC3    O1 7333   0.499   3.510  17.134  0.3579  0.1585  0.1990
  489TMC3    O2 7334   0.525   4.031  16.856 -0.2513 -0.3776  0.4159
  490MPD2     C 7335   1.519   3.349  16.803 -0.0183  0.3327  1.2279
  490MPD2    C1 7336   1.494   3.315  16.928 -0.3394  0.1586  0.3492
  490MPD2    C2 7337   1.582   3.358  17.025 -0.4798  0.5288  0.5976
  490MPD2    C3 7338   1.685   3.448  17.002  0.2547 -0.5250 -0.8614
  490MPD2    C4 7339   1.706   3.489  16.867 -0.3575 -0.6507  0.0203
  490MPD2    C5 7340   1.618   3.437  16.772 -0.0598  0.8521  0.8280
  490MPD2     H 7341   1.547   3.330  17.124 -0.9014  1.3671  0.6834
  490MPD2    H1 7342   1.778   3.561  16.831 -0.6603  0.1708  1.0519
  490MPD2    H2 7343   1.448   3.318  16.727  0.5654  2.1347 -0.0397
  490MPD2    H3 7344   1.639   3.477  16.673 -1.0785 -0.5682  0.0410
  490MPD2     N 7345   1.761   3.512  17.104  0.1342 -0.2200  0.6840
  490MPD2    H5 7346   1.838   3.572  17.078  0.6076 -0.3610  1.7559
  490MPD2    N1 7347   1.386   3.234  16.975 -0.0131 -0.0003  0.0252
  490MPD2    H7 7348   1.402   3.203  17.071  1.9642 -0.8048 -0.5755
  491TMC3    C1 7349   1.186   3.106  16.973  0.0824  0.7481  0.1657
  491TMC3    C2 7350   1.227   3.051  17.089 -0.3500  0.2936 -0.6715
  491TMC3    C3 7351   1.159   2.936  17.127 -0.5437 -0.0355 -1.2753
  491TMC3    C4 7352   1.070   3.066  16.908  0.3342 -0.4977 -0.4394
  491TMC3    C5 7353   1.008   2.949  16.954  0.4290  0.2803  0.3024
  491TMC3    C6 7354   1.060   2.880  17.057 -0.4549  0.4890  0.3798
  491TMC3     C 7355   1.278   3.193  16.900  0.3434  0.2301  0.0894
  491TMC3     O 7356   1.243   3.235  16.789  0.3156  0.0254  0.3348
  491TMC3     H 7357   1.313   3.090  17.143  0.0738 -0.9009 -0.4653
  491TMC3    H1 7358   1.052   3.112  16.811 -0.5325 -1.6691 -0.8336
  491TMC3    H2 7359   1.017   2.788  17.094 -1.4280  0.5941 -0.4938
  491TMC3    C7 7360   0.895   2.889  16.884 -0.7897 -0.3285 -0.1604
  491TMC3    C8 7361   1.148   2.900  17.274  0.1557  0.0870 -0.0091
  491TMC3    O1 7362   0.870   2.770  16.911  0.2760  0.6906  0.2679
  491TMC3    O2 7363   1.048   2.835  17.303 -0.2674  0.0508 -0.0698
  492MPD2     C 7364   1.799   3.085  11.469  0.3095 -0.1014 -0.4143
  492MPD2    C1 7365   1.738   2.983  11.405 -0.3430  0.3935 -0.7169
  492MPD2    C2 7366   1.684   2.877  11.473 -0.0656 -0.5934 -0.1749
  492MPD2    C3 7367   1.698   2.869  11.613 -0.7242  0.0233 -0.7195
  492MPD2    C4 7368   1.757   2.980  11.677 -0.6726  0.0043  1.0456
  492MPD2    C5 7369   1.803   3.092  11.604 -0.2019  0.1838  0.1220
  492MPD2     H 7370   1.621   2.808  11.419 -0.1636 -0.7299  0.1124
  492MPD2    H1 7371   1.757   2.988  11.785  1.4038 -0.9240  1.1153
  492MPD2    H2 7372   1.837   3.167  11.409  1.6918 -0.9658 -0.7096
  492MPD2    H3 7373   1.851   3.177  11.652  1.6693 -0.9242  0.2385
  492MPD2     N 7374   1.656   2.760  11.695 -0.4957 -0.0009 -0.6502
  492MPD2    H5 7375   1.665   2.768  11.796  0.0418  0.4366 -0.7321
  492MPD2    N1 7376   1.716   3.010  11.265 -0.1748  0.1810  0.1616
  492MPD2    H7 7377   1.770   3.089  11.231 -0.1670  1.0303  2.1461
  493TMC3    C1 7378   1.631   3.014  11.042 -0.0499 -0.5025  0.0627
  493TMC3    C2 7379   1.744   3.087  11.015 -0.5794 -0.0485  0.3252
  493TMC3    C3 7380   1.745   3.175  10.914  0.0777 -0.4754 -0.0036
  493TMC3    C4 7381   1.521   3.030  10.964  0.0741  0.4487 -0.4473
  493TMC3    C5 7382   1.528   3.119  10.861  0.1340  0.3238 -0.0951
  493TMC3    C6 7383   1.645   3.186  10.823  0.2167  0.0710  0.5971
  493TMC3     C 7384   1.619   2.962  11.177 -0.3505  0.3410 -0.3760
  493TMC3     O 7385   1.536   2.876  11.196 -0.4358 -0.8222 -0.0495
  493TMC3     H 7386   1.838   3.072  11.067  0.5743 -0.8433 -1.9986
  493TMC3    H1 7387   1.426   2.983  10.986  0.7684 -0.1424  1.3504
  493TMC3    H2 7388   1.650   3.243  10.731 -1.1923  1.4428  1.3524
  493TMC3    C7 7389   1.416   3.123  10.766  0.6184  0.3647 -0.6586
  493TMC3    C8 7390   1.870   3.250  10.897 -0.1655 -0.4723  0.3581
  493TMC3    O1 7391   1.329   3.037  10.786  0.1912  0.0006  0.2911
  493TMC3    O2 7392   1.962   3.217  10.971 -0.3563  0.6620 -0.2524
  494TMC3    C1 7393   1.887   0.435   0.138 -0.6160  0.0007  0.7747
  494TMC3    C2 7394   1.877   0.301   0.127  0.5375 -0.2028  1.1266
  494TMC3    C3 7395   1.972   0.239   0.054  0.0156  0.0244 -0.2066
  494TMC3    C4 7396   1.996   0.507   0.092 -0.3331 -0.1369  0.3791
  494TMC3    C5 7397   2.098   0.439   0.026  0.4490  0.0066 -0.1537
  494TMC3    C6 7398   2.080   0.308   0.001 -0.2421 -0.1710  0.0917
  494TMC3     C 7399   1.810   0.495   0.246 -0.7338  0.0599  0.7207
  494TMC3     O 7400   1.867   0.572   0.325 -0.2456 -0.0081 -0.3468
  494TMC3     H 7401   1.787   0.248   0.156  0.0249  0.3510  0.5365
  494TMC3    H1 7402   2.004   0.615   0.103 -4.7036  0.1144  1.0193
  494TMC3    H2 7403   2.152   0.248  17.705  0.0822 -0.5103  0.9202
  494TMC3    C7 7404   2.209   0.502  17.717  0.0862  0.4362 -0.1993
  494TMC3    C8 7405   2.014   0.114   0.114  0.0771  0.1719 -0.2590
  494TMC3    O1 7406   2.245   0.453  17.611 -0.3880  0.6996 -0.0296
  494TMC3    O2 7407   2.121   0.123   0.174 -0.2281 -0.1574 -0.7530
  495TMC3    C1 7408   1.183   2.017  14.616 -0.6344 -0.6438 -0.0534
  495TMC3    C2 7409   1.077   2.017  14.532  0.5622  0.6497  0.2090
  495TMC3    C3 7410   0.954   2.055  14.573  0.2365  0.0878  1.0796
  495TMC3    C4 7411   1.164   2.049  14.745  0.1360 -0.0341  0.3641
  495TMC3    C5 7412   1.035   2.081  14.790 -0.0650 -0.3040  0.2542
  495TMC3    C6 7413   0.931   2.086  14.702 -0.1946 -0.6023 -0.2185
  495TMC3     C 7414   1.260   1.895  14.596 -0.7735  0.6035  0.4677
  495TMC3     O 7415   1.215   1.806  14.524 -0.3882 -0.0274  0.2027
  495TMC3     H 7416   1.095   1.980  14.431 -1.2330  0.1979  0.0552
  495TMC3    H1 7417   1.252   2.044  14.809  0.8489  1.7102 -0.4767
  495TMC3    H2 7418   0.832   2.119  14.732  0.3346 -0.2225  1.1342
  495TMC3    C7 7419   1.015   2.067  14.926 -0.0550 -0.0908 -0.1340
  495TMC3    C8 7420   0.842   2.019  14.499  0.1235 -0.2416  0.3062
  495TMC3    O1 7421   1.115   2.069  14.997  0.0316 -0.0644 -0.2858
  495TMC3    O2 7422   0.739   2.073  14.537  0.2000 -0.1592 -0.1120
  496MPD2     C 7423   2.927   2.683  15.123  0.7963  0.1533 -0.0799
  496MPD2    C1 7424   2.930   2.561  15.053 -0.4535  0.2248 -0.6154
  496MPD2    C2 7425   2.817   2.489  15.040 -0.1005  0.7760 -0.0531
  496MPD2    C3 7426   2.695   2.538  15.088  0.2178 -0.0272 -0.1636
  496MPD2    C4 7427   2.699   2.655  15.163 -0.3030  0.7746 -0.3779
  496MPD2    C5 7428   2.815   2.731  15.173  0.8882  0.8563 -0.0114
  496MPD2     H 7429   2.822   2.395  14.986 -0.3787  0.8452 -0.1978
  496MPD2    H1 7430   2.605   2.691  15.203 -0.5330 -1.2004  0.8550
  496MPD2    H2 7431   3.017   2.739  15.146  0.9683 -1.2890  2.6912
  496MPD2    H3 7432   2.815   2.831  15.213 -0.5369  1.0918 -0.5722
  496MPD2     N 7433   2.573   2.461  15.091  0.1920 -0.1720 -0.5888
  496MPD2    H5 7434   2.505   2.491  15.160  0.7573 -1.0762  0.3616
  496MPD2    N1 7435   3.058   2.504  15.025  0.2818  0.1482  0.7083
  496MPD2    H7 7436   3.139   2.552  15.062  1.9341 -2.5044  0.4940
  497TMC3    C1 7437   2.475   2.237  15.083  0.0598  0.5449 -0.3308
  497TMC3    C2 7438   2.428   2.134  15.010 -0.3267  0.4680 -0.0879
  497TMC3    C3 7439   2.380   2.024  15.078 -0.4774 -0.3535  0.0645
  497TMC3    C4 7440   2.489   2.233  15.221 -0.0727 -1.0237  0.8164
  497TMC3    C5 7441   2.441   2.119  15.285  0.3521  0.0688  0.3881
  497TMC3    C6 7442   2.392   2.013  15.214  0.0664 -0.7914 -0.7043
  497TMC3     C 7443   2.555   2.343  15.019 -0.2773  0.7430  0.0357
  497TMC3     O 7444   2.617   2.305  14.922 -0.8527  0.0041 -0.1445
  497TMC3     H 7445   2.456   2.126  14.905 -0.8391 -0.4525 -0.1499
  497TMC3    H1 7446   2.530   2.314  15.278 -1.6146  1.0462 -0.9967
  497TMC3    H2 7447   2.368   1.924  15.271 -1.6971 -0.3413 -0.7444
  497TMC3    C7 7448   2.430   2.110  15.427 -0.1940  0.2744 -1.0924
  497TMC3    C8 7449   2.322   1.916  15.006 -0.1054 -0.6195  0.0239
  497TMC3    O1 7450   2.340   2.043  15.477 -0.0152  0.3092  0.1543
  497TMC3    O2 7451   2.304   1.819  15.076 -0.1430 -0.9739 -0.0785
  498MPD2     C 7452   3.425   2.933   9.793 -0.1546 -0.8919 -0.1777
  498MPD2    C1 7453   3.516   2.897   9.884 -0.4462 -0.6945 -1.1676
  498MPD2    C2 7454   3.503   2.784   9.957  0.6809 -0.4236  0.5129
  498MPD2    C3 7455   3.391   2.705   9.950  0.2608 -0.0365 -0.1216
  498MPD2    C4 7456   3.290   2.741   9.866 -0.1395  0.0700 -0.0967
  498MPD2    C5 7457   3.319   2.850   9.781 -0.3302 -0.2082 -1.2956
  498MPD2     H 7458   3.575   2.761  10.035  2.5032  2.5444 -0.3088
  498MPD2    H1 7459   3.191   2.698   9.857 -0.5178  0.3365  2.7559
  498MPD2    H2 7460   3.433   3.013   9.721 -2.9562 -1.5030 -1.1755
  498MPD2    H3 7461   3.249   2.879   9.703  0.1954 -1.4492 -2.2192
  498MPD2     N 7462   3.378   2.597  10.044 -0.1227  0.5549  0.0003
  498MPD2    H5 7463   3.448   2.586  10.116 -0.1816 -0.3293 -0.0670
  498MPD2    N1 7464   3.631   2.982   9.904 -0.2421  0.2534  0.1265
  498MPD2    H7 7465   3.687   2.960   9.985  0.8073  0.5547 -0.5166
  499TMC3    C1 7466   3.792   3.150   9.884 -0.5869  0.2614 -0.6727
  499TMC3    C2 7467   3.807   3.155  10.024 -0.1251  0.7732 -0.7226
  499TMC3    C3 7468   3.928   3.204  10.064  0.6788 -0.6800 -0.8578
  499TMC3    C4 7469   3.880   3.209   9.796 -0.8570  0.2818 -0.0738
  499TMC3    C5 7470   3.998   3.264   9.847  0.0203 -0.5152 -0.0981
  499TMC3    C6 7471   4.021   3.260   9.980  0.3988  0.7693 -0.1502
  499TMC3     C 7472   3.679   3.085   9.821  0.1043 -0.3295 -0.3271
  499TMC3     O 7473   3.658   3.104   9.698  0.2508 -0.0124 -0.0715
  499TMC3     H 7474   3.724   3.120  10.085 -0.2700  0.9393 -0.8236
  499TMC3    H1 7475   3.850   3.217   9.693  0.6221  0.3495 -0.4954
  499TMC3    H2 7476   4.119   3.288  10.017  0.0457  0.2798  1.1656
  499TMC3    C7 7477   4.117   3.272   9.766  0.3024 -0.2459 -0.1639
  499TMC3    C8 7478   3.950   3.203  10.203 -0.6417  0.4643  0.0498
  499TMC3    O1 7479   4.218   3.220   9.813  0.4200  0.4823  0.3311
  499TMC3    O2 7480   3.870   3.134  10.273 -0.1490 -0.3756  0.0722
  500MPD2     C 7481   0.724   4.159  10.653 -0.4336  0.4353  0.1341
  500MPD2    C1 7482   0.776   4.130  10.531  0.2031  0.1058  0.0640
  500MPD2    C2 7483   0.694   4.081  10.434 -0.3369 -0.6321  0.3113
  500MPD2    C3 7484   0.559   4.053  10.457 -0.5396 -0.4831  0.4271
  500MPD2    C4 7485   0.509   4.079  10.582 -0.7808  0.4053 -0.3524
  500MPD2    C5 7486   0.590   4.123  10.675 -0.9156 -0.0920 -0.6876
  500MPD2     H 7487   0.743   4.055  10.341  2.4927  1.4367  1.2064
  500MPD2    H1 7488   0.407   4.052  10.609 -0.5422 -1.6883 -1.5839
  500MPD2    H2 7489   0.787   4.195  10.733  0.4060  1.2628 -0.9099
  500MPD2    H3 7490   0.543   4.132  10.772  0.6606  1.0684 -0.0338
  500MPD2     N 7491   0.470   3.989  10.367  0.3439  0.6060  0.8091
  500MPD2    H5 7492   0.377   3.973  10.405 -0.1365  2.6775  0.5031
  500MPD2    N1 7493   0.911   4.157  10.497 -0.3435  0.1481  0.1387
  500MPD2    H7 7494   0.939   4.168  10.400 -0.4460  0.1086  0.1049
  501TMC3    C1 7495   1.133   4.213  10.513  0.7506 -0.9433  0.1446
  501TMC3    C2 7496   1.130   4.307  10.417  0.1480  0.3050 -0.7322
  501TMC3    C3 7497   1.245   4.330  10.353  0.5976 -0.7914  0.1241
  501TMC3    C4 7498   1.247   4.160  10.554 -0.6516 -0.2080 -0.8425
  501TMC3    C5 7499   1.362   4.196  10.484  0.7417  0.5730  0.8812
  501TMC3    C6 7500   1.366   4.278  10.377 -0.4847 -0.3381  0.7876
  501TMC3     C 7501   1.013   4.174  10.584  0.5957 -0.4252 -0.2194
  501TMC3     O 7502   1.031   4.165  10.702  0.1718  0.2162 -0.1133
  501TMC3     H 7503   1.035   4.354  10.398  1.2224  2.5412 -0.4804
  501TMC3    H1 7504   1.245   4.092  10.639  1.5337  0.9652  0.1448
  501TMC3    H2 7505   1.452   4.320  10.325 -1.2683  0.0444 -0.1925
  501TMC3    C7 7506   1.491   4.160  10.547 -0.7493  0.7325 -0.1826
  501TMC3    C8 7507   1.232   4.417  10.244 -0.4758 -0.2781  0.5118
  501TMC3    O1 7508   1.469   4.103  10.652  0.2297 -0.6106 -0.2812
  501TMC3    O2 7509   1.336   4.481  10.226 -0.7426  0.0369 -0.2699
  502TMC3    C1 7510   0.268   2.692  14.649  0.2655  0.4535 -0.5266
  502TMC3    C2 7511   0.260   2.792  14.559  0.2886 -0.3086  0.0911
  502TMC3    C3 7512   0.171   2.899  14.593  0.0648 -0.1586  0.9695
  502TMC3    C4 7513   0.163   2.662  14.735  0.8390  0.0637 -0.1006
  502TMC3    C5 7514   0.069   2.765  14.761 -0.3011  0.6320 -0.0856
  502TMC3    C6 7515   0.077   2.887  14.692 -0.5145 -0.2110  0.0914
  502TMC3     C 7516   0.397   2.694  14.708  0.1334  0.7356 -0.4828
  502TMC3     O 7517   0.481   2.757  14.643 -0.4143 -0.0165  0.2343
  502TMC3     H 7518   0.334   2.800  14.480  0.3309  1.2976  0.3084
  502TMC3    H1 7519   0.171   2.569  14.790  0.6341 -0.8620 -1.6493
  502TMC3    H2 7520   0.018   2.972  14.724  0.8207  0.4068  0.8701
  502TMC3    C7 7521   4.714   2.737  14.863  0.1977  0.6169 -0.0526
  502TMC3    C8 7522   0.228   3.031  14.552  0.1680  0.8054  0.3665
  502TMC3    O1 7523   4.738   2.637  14.929 -0.2862 -0.0080  0.4200
  502TMC3    O2 7524   0.156   3.131  14.551 -0.0003 -0.5300 -0.6532
  503MPD2     C 7525   2.089   4.134  17.236  0.2776  0.5987 -0.4172
  503MPD2    C1 7526   2.183   4.201  17.315 -0.1859 -0.1054 -0.2816
  503MPD2    C2 7527   2.275   4.132  17.385  0.8643 -0.5448  0.7551
  503MPD2    C3 7528   2.286   3.997  17.368 -0.1868  0.5239  0.0354
  503MPD2    C4 7529   2.198   3.936  17.284  0.3356 -0.5528  0.3048
  503MPD2    C5 7530   2.093   4.001  17.221  0.3716 -0.0788 -0.0113
  503MPD2     H 7531   2.343   4.184  17.451 -0.5022  0.8714  1.0479
  503MPD2    H1 7532   2.212   3.829  17.274  1.7932 -0.1457 -1.8472
  503MPD2    H2 7533   2.019   4.186  17.173  2.4322  3.6880 -0.2663
  503MPD2    H3 7534   2.024   3.952  17.154  0.7312  0.2582 -0.6208
  503MPD2     N 7535   2.395   3.935  17.429  0.2076  0.0916 -0.6590
  503MPD2    H5 7536   2.457   3.990  17.488  0.7246 -1.1862 -0.0077
  503MPD2    N1 7537   2.197   4.338  17.312  0.4312 -0.1916 -0.1698
  503MPD2    H7 7538   2.273   4.378  17.366 -0.7507  1.6865  0.0904
  504TMC3    C1 7539   2.567   3.779  17.460 -0.2196  0.0555  0.0157
  504TMC3    C2 7540   2.590   3.838  17.582  0.4861  0.3458  0.1709
  504TMC3    C3 7541   2.722   3.821  17.625 -0.0017  0.1959  0.3728
  504TMC3    C4 7542   2.664   3.726  17.380 -0.2203 -0.1110  0.2231
  504TMC3    C5 7543   2.790   3.722  17.419 -0.1205 -0.6904  0.0050
  504TMC3    C6 7544   2.820   3.764  17.546  0.5939  0.5966  0.5224
  504TMC3     C 7545   2.443   3.813  17.389  0.1850  0.5605  0.2240
  504TMC3     O 7546   2.417   3.747  17.290  0.0273 -0.1008 -0.2002
  504TMC3     H 7547   2.520   3.889  17.648  0.2755  1.1821 -0.7050
  504TMC3    H1 7548   2.648   3.704  17.275  1.1350  1.3703 -0.2895
  504TMC3    H2 7549   2.920   3.769  17.589 -0.4005  1.6368  2.7229
  504TMC3    C7 7550   2.884   3.741  17.312  0.1327 -0.4084  0.3200
  504TMC3    C8 7551   2.766   3.901  17.732  0.0711 -0.3236  0.4053
  504TMC3    O1 7552   2.849   3.713  17.198 -0.1168  0.5641  0.6204
  504TMC3    O2 7553   2.734   4.020  17.736 -0.4900 -0.9114  0.1467
  505MPD2     C 7554   3.180   1.954  11.075  0.4219  0.1830 -1.0096
  505MPD2    C1 7555   3.294   1.877  11.078 -0.2864 -0.7495 -0.9629
  505MPD2    C2 7556   3.411   1.936  11.126 -0.4560  0.0729 -0.7546
  505MPD2    C3 7557   3.423   2.074  11.139 -0.1821 -0.1825  0.2731
  505MPD2    C4 7558   3.308   2.151  11.113 -0.9950 -0.4245 -0.2526
  505MPD2    C5 7559   3.190   2.086  11.090 -0.1315 -0.1899  0.4060
  505MPD2     H 7560   3.502   1.876  11.121  1.0072  2.3750 -1.5816
  505MPD2    H1 7561   3.304   2.260  11.106 -1.2931 -0.5066 -1.4908
  505MPD2    H2 7562   3.093   1.900  11.041 -0.6944  0.3952  1.4568
  505MPD2    H3 7563   3.095   2.139  11.090 -0.6085 -1.0473 -0.4598
  505MPD2     N 7564   3.548   2.142  11.160  0.1264  0.5644  0.1178
  505MPD2    H5 7565   3.538   2.243  11.165 -0.9711  0.5267 -1.5581
  505MPD2    N1 7566   3.282   1.743  11.040 -0.0909 -0.2735  0.7298
  505MPD2    H7 7567   3.195   1.715  10.996  0.7373 -0.8755 -0.5388
  506TMC3    C1 7568   3.367   1.527  10.963  0.3664 -0.9176  0.9286
  506TMC3    C2 7569   3.329   1.548  10.835 -0.7330 -0.0310  0.7492
  506TMC3    C3 7570   3.364   1.459  10.739  0.3725 -0.2032  0.3751
  506TMC3    C4 7571   3.446   1.427  10.992 -0.6079 -0.4786  0.3930
  506TMC3    C5 7572   3.500   1.343  10.899  0.2723 -0.0092 -0.1139
  506TMC3    C6 7573   3.453   1.358  10.767 -0.6438  0.6028 -0.2481
  506TMC3     C 7574   3.383   1.649  11.050 -0.1778  0.3443 -0.6315
  506TMC3     O 7575   3.487   1.645  11.116  0.5195 -0.1056 -0.5860
  506TMC3     H 7576   3.269   1.634  10.809 -1.0232 -0.7894 -1.0864
  506TMC3    H1 7577   3.476   1.412  11.095  0.5098  2.7167  0.5495
  506TMC3    H2 7578   3.489   1.292  10.689  1.3638 -0.2239  1.3796
  506TMC3    C7 7579   3.641   1.353  10.902  0.5309 -0.3928  0.3078
  506TMC3    C8 7580   3.320   1.479  10.607 -0.0959  0.4272 -0.0977
  506TMC3    O1 7581   3.704   1.289  10.822  0.1325 -0.5841 -0.7090
  506TMC3    O2 7582   3.335   1.388  10.525 -0.6711 -0.0537  0.5273
  507TMC3    C1 7583   3.643   3.297  14.700 -0.5355 -0.2920 -0.3178
  507TMC3    C2 7584   3.652   3.193  14.612 -0.0944 -0.2432 -0.5607
  507TMC3    C3 7585   3.710   3.206  14.490  0.0839  0.7619 -0.6097
  507TMC3    C4 7586   3.690   3.414  14.663 -0.3685 -0.4731 -0.0543
  507TMC3    C5 7587   3.754   3.433  14.547 -0.0488  0.3437  0.0522
  507TMC3    C6 7588   3.768   3.325  14.458 -0.1343 -0.3395 -0.1372
  507TMC3     C 7589   3.513   3.316  14.764  0.5437  0.3405  0.1194
  507TMC3     O 7590   3.514   3.398  14.855  0.2579  0.1456 -0.0775
  507TMC3     H 7591   3.636   3.092  14.650 -1.3153  1.2965  3.0853
  507TMC3    H1 7592   3.653   3.504  14.711 -1.4536 -1.8891  1.7751
  507TMC3    H2 7593   3.817   3.345  14.363 -0.1421  2.1876  0.3988
  507TMC3    C7 7594   3.731   3.564  14.485  0.0548  0.8204 -0.3652
  507TMC3    C8 7595   3.616   3.171  14.379  0.0796  0.5495 -0.6612
  507TMC3    O1 7596   3.737   3.672  14.539  0.0670  0.3698 -0.1333
  507TMC3    O2 7597   3.611   3.256  14.292  0.5359 -0.0533 -0.0092
  508MPD2     C 7598   0.247   0.757  16.053  0.3737 -0.3194  0.3914
  508MPD2    C1 7599   0.124   0.782  16.106 -0.1568  0.1528 -0.2550
  508MPD2    C2 7600   0.026   0.852  16.036  0.0845 -0.2689 -0.1754
  508MPD2    C3 7601   0.066   0.904  15.907  0.2437 -0.3927  0.5027
  508MPD2    C4 7602   0.198   0.887  15.859  0.2909 -0.4147 -0.0037
  508MPD2    C5 7603   0.285   0.816  15.934  0.5196  0.4027  0.1239
  508MPD2     H 7604   4.669   0.881  16.077 -0.9677 -2.7014 -0.9762
  508MPD2    H1 7605   0.234   0.931  15.766  0.8650 -2.5856 -0.8140
  508MPD2    H2 7606   0.309   0.676  16.089 -2.6814 -2.1243  1.5455
  508MPD2    H3 7607   0.388   0.801  15.907  0.1428  0.5048 -1.3651
  508MPD2     N 7608   4.714   0.988  15.844  0.2017 -0.6139  0.1304
  508MPD2    H5 7609   4.626   1.006  15.891  1.6752 -0.3031  2.7532
  508MPD2    N1 7610   0.095   0.727  16.234 -0.2581 -0.6064 -0.1250
  508MPD2    H7 7611   0.181   0.696  16.278 -1.4271  0.5579  2.9549
  509TMC3    C1 7612   4.498   1.286  15.563  0.3503  1.0239 -0.3531
  509TMC3    C2 7613   4.464   1.380  15.666 -0.5528  0.6090  0.5102
  509TMC3    C3 7614   4.516   1.347  15.791 -0.4080 -0.3761  0.0535
  509TMC3    C4 7615   4.576   1.174  15.577  0.1547 -0.0502 -0.1116
  509TMC3    C5 7616   4.622   1.152  15.703  0.3662  0.1829  0.5919
  509TMC3    C6 7617   4.601   1.238  15.810 -0.0509 -0.1281 -0.6186
  509TMC3     C 7618   4.473   1.319  15.421 -0.0811  0.4507 -0.2183
  509TMC3     O 7619   4.535   1.259  15.338  0.2118 -0.0329  0.0611
  509TMC3     H 7620   4.403   1.467  15.643  0.7604  1.5111  0.4653
  509TMC3    H1 7621   4.614   1.121  15.491  0.9887  0.8813 -0.3238
  509TMC3    H2 7622   4.645   1.216  15.906  0.1789  0.7029 -0.5346
  509TMC3    C7 7623   4.723   1.049  15.718  0.8833  0.8111  0.2543
  509TMC3    C8 7624   4.542   1.453  15.885 -0.4802  0.6623  0.0805
  509TMC3    O1 7625   0.051   1.018  15.619 -0.0871 -0.0100 -0.4908
  509TMC3    O2 7626   4.558   1.415  16.002 -0.3132 -0.4895  0.0820
  510MPD2     C 7627   1.909   2.741  14.544 -0.6230 -0.3852 -0.4768
  510MPD2    C1 7628   2.016   2.657  14.581  0.1659  0.1951  0.3990
  510MPD2    C2 7629   2.112   2.635  14.488  0.1090 -0.5233 -0.0950
  510MPD2    C3 7630   2.107   2.690  14.358  0.2868  0.0618  0.6890
  510MPD2    C4 7631   2.010   2.776  14.332  0.0731 -0.7575 -0.7742
  510MPD2    C5 7632   1.911   2.802  14.422 -0.5051  0.2312 -0.5735
  510MPD2     H 7633   2.199   2.574  14.507  0.2325  0.1875  1.5564
  510MPD2    H1 7634   2.011   2.839  14.244  0.3802  0.3776  0.0484
  510MPD2    H2 7635   1.844   2.787  14.618  1.6492  0.8860  0.7479
  510MPD2    H3 7636   1.842   2.885  14.413  0.5977  0.9973 -1.8706
  510MPD2     N 7637   2.227   2.668  14.282 -0.2840  0.3799  1.0589
  510MPD2    H5 7638   2.310   2.638  14.332 -0.0533 -1.3992 -0.4054
  510MPD2    N1 7639   2.011   2.597  14.712 -0.3918 -0.0995  0.3068
  510MPD2    H7 7640   1.935   2.629  14.771 -0.4340  1.3687 -0.5389
  511TMC3    C1 7641   2.044   2.424  14.870  0.2102  0.0215 -0.2188
  511TMC3    C2 7642   1.958   2.484  14.965 -0.3660 -0.4121  0.3031
  511TMC3    C3 7643   1.905   2.397  15.058  0.1411 -0.5716  0.1348
  511TMC3    C4 7644   2.058   2.284  14.863  0.1836  0.6281 -0.4822
  511TMC3    C5 7645   2.000   2.210  14.964  0.2247 -0.4491  0.0349
  511TMC3    C6 7646   1.921   2.264  15.056 -0.0832 -0.0858 -0.3279
  511TMC3     C 7647   2.075   2.482  14.743  0.0616  0.3407  0.0681
  511TMC3     O 7648   2.164   2.429  14.677 -0.8628  0.3684  0.1383
  511TMC3     H 7649   1.949   2.592  14.971 -0.5284 -0.4456  0.6634
  511TMC3    H1 7650   2.110   2.233  14.783 -0.1396  0.2266 -0.4327
  511TMC3    H2 7651   1.862   2.205  15.125  0.8285 -1.0054 -0.3351
  511TMC3    C7 7652   1.993   2.071  14.939  0.5749 -0.4561 -0.0931
  511TMC3    C8 7653   1.816   2.461  15.154  0.0398  0.1465 -0.0605
  511TMC3    O1 7654   1.974   2.025  14.829 -0.2985 -0.0263  0.3993
  511TMC3    O2 7655   1.819   2.578  15.172  0.1841 -0.1522  0.1044
  512TMC3    C1 7656   1.002   1.598  13.600 -0.7952  0.4012 -0.1416
  512TMC3    C2 7657   1.133   1.562  13.581 -0.2549  0.8509  0.4534
  512TMC3    C3 7658   1.183   1.447  13.633 -0.0939 -0.7275 -1.0610
  512TMC3    C4 7659   0.924   1.539  13.702 -0.3787  0.2824  0.1220
  512TMC3    C5 7660   0.972   1.429  13.761 -0.0070 -0.7109 -0.3312
  512TMC3    C6 7661   1.101   1.382  13.729  0.6763 -1.0824  0.0266
  512TMC3     C 7662   0.958   1.704  13.517  0.2513  0.9671 -0.2332
  512TMC3     O 7663   1.008   1.701  13.405  0.0461 -0.2417  0.7726
  512TMC3     H 7664   1.190   1.610  13.501 -1.2634 -1.0962 -1.4428
  512TMC3    H1 7665   0.822   1.575  13.713 -0.6061 -0.5825  0.8716
  512TMC3    H2 7666   1.145   1.302  13.786 -0.0628 -0.8314  0.9503
  512TMC3    C7 7667   0.878   1.315  13.790  0.1714  0.0057  0.0608
  512TMC3    C8 7668   1.323   1.446  13.665  0.0592 -0.0895 -0.0856
  512TMC3    O1 7669   0.770   1.334  13.844 -0.2880 -0.1560 -0.3182
  512TMC3    O2 7670   1.367   1.334  13.696  0.8482  0.2532 -0.2372
  513MPD2     C 7671   3.363   1.595  12.879  0.1599 -0.3430 -0.5744
  513MPD2    C1 7672   3.322   1.478  12.940  0.2434 -0.2418 -0.1117
  513MPD2    C2 7673   3.320   1.473  13.077 -0.3771  0.1669  0.6041
  513MPD2    C3 7674   3.372   1.579  13.152 -0.1393  0.3359  0.1672
  513MPD2    C4 7675   3.411   1.695  13.089  0.1113  0.0254  1.1310
  513MPD2    C5 7676   3.413   1.697  12.954 -0.6733  0.4199 -0.8407
  513MPD2     H 7677   3.280   1.387  13.128 -1.9223  1.4261  1.5140
  513MPD2    H1 7678   3.453   1.782  13.137  1.5313  0.8714 -1.6397
  513MPD2    H2 7679   3.371   1.605  12.771 -2.5069  0.8107 -0.6684
  513MPD2    H3 7680   3.443   1.786  12.900  2.1515  0.4098  0.6965
  513MPD2     N 7681   3.379   1.557  13.287 -0.4640  0.3393  0.2262
  513MPD2    H5 7682   3.344   1.469  13.326 -0.7971  0.1611 -0.4916
  513MPD2    N1 7683   3.267   1.366  12.871  0.2353 -0.1907 -0.2744
  513MPD2    H7 7684   3.235   1.289  12.929  2.8869 -0.3244  1.0087
  514TMC3    C1 7685   3.218   1.220  12.706  0.1782 -0.2131 -0.3443
  514TMC3    C2 7686   3.309   1.143  12.635 -0.2028  0.3638  0.5585
  514TMC3    C3 7687   3.325   1.014  12.689 -0.7864  0.5595  0.0371
  514TMC3    C4 7688   3.143   1.173  12.811  0.0124 -0.3458  0.3259
  514TMC3    C5 7689   3.163   1.049  12.864 -0.4186 -0.1682 -0.0939
  514TMC3    C6 7690   3.253   0.964  12.796  0.2055 -0.2195  0.2902
  514TMC3     C 7691   3.269   1.349  12.732  0.6047  0.0776  0.7130
  514TMC3     O 7692   3.334   1.408  12.648  0.6406 -0.1185  0.1596
  514TMC3     H 7693   3.379   1.191  12.568  0.6818 -2.8935 -0.8232
  514TMC3    H1 7694   3.067   1.240  12.849 -2.8376 -3.0013 -0.7002
  514TMC3    H2 7695   3.276   0.863  12.828 -0.3042 -0.2610  0.5192
  514TMC3    C7 7696   3.165   1.057  13.010 -0.3135  0.1981 -0.4580
  514TMC3    C8 7697   3.422   0.918  12.640 -0.1445  0.2090  0.5614
  514TMC3    O1 7698   3.173   1.168  13.052  0.5319  0.2864 -0.2562
  514TMC3    O2 7699   3.440   0.810  12.693  1.0914  0.2160 -0.1846
  515MPD2     C 7700   1.145   3.053  14.516  0.2913  0.8511  0.4102
  515MPD2    C1 7701   1.113   3.143  14.415 -0.0560 -0.2521 -0.6509
  515MPD2    C2 7702   1.158   3.275  14.434  0.1287 -0.0704  0.2094
  515MPD2    C3 7703   1.218   3.315  14.553  0.4618  0.7373 -0.0996
  515MPD2    C4 7704   1.224   3.227  14.655 -0.1349 -0.6045  0.2659
  515MPD2    C5 7705   1.186   3.098  14.634 -0.0983  0.4366 -0.0346
  515MPD2     H 7706   1.147   3.343  14.350 -0.0119 -0.6477 -0.2415
  515MPD2    H1 7707   1.264   3.260  14.750  1.7340 -1.0288 -0.3867
  515MPD2    H2 7708   1.131   2.947  14.496 -0.8077  0.9281  0.7597
  515MPD2    H3 7709   1.222   3.023  14.703 -0.4520  1.0322  0.7965
  515MPD2     N 7710   1.245   3.451  14.580 -0.1461 -0.1502 -0.3818
  515MPD2    H5 7711   1.274   3.484  14.671 -0.3540 -2.4498  0.5166
  515MPD2    N1 7712   1.039   3.087  14.311 -0.1433 -0.5749 -0.7743
  515MPD2    H7 7713   1.022   2.988  14.303 -3.0249 -0.2278  1.3796
  516TMC3    C1 7714   0.925   3.097  14.107  0.4191  0.1279 -0.0084
  516TMC3    C2 7715   0.822   3.177  14.069  0.8313  0.2874 -0.5722
  516TMC3    C3 7716   0.695   3.122  14.087  0.7841  0.1477  0.3955
  516TMC3    C4 7717   0.902   2.966  14.133 -0.1759  0.3276  0.1551
  516TMC3    C5 7718   0.779   2.913  14.151 -0.1152  0.1433 -0.6574
  516TMC3    C6 7719   0.667   2.993  14.138 -0.0846 -0.3136 -0.2757
  516TMC3     C 7720   1.008   3.163  14.198 -0.2725  0.8872  0.0050
  516TMC3     O 7721   1.007   3.283  14.188 -0.4655 -0.9918 -0.2784
  516TMC3     H 7722   0.843   3.279  14.037 -2.1357  0.2798 -2.5421
  516TMC3    H1 7723   0.982   2.894  14.124  0.0517  0.8705 -2.0970
  516TMC3    H2 7724   0.575   2.958  14.183  1.1483  0.0504  2.4829
  516TMC3    C7 7725   0.792   2.818  14.260  0.7268 -0.2465 -0.4899
  516TMC3    C8 7726   0.573   3.205  14.074 -0.2780  0.4583  0.5596
  516TMC3    O1 7727   0.889   2.833  14.336 -0.4529 -0.1386 -0.4526
  516TMC3    O2 7728   0.474   3.147  14.100  0.3608  0.3495  0.6950
  517MPD2     C 7729   0.731   0.546  17.475 -0.8087 -0.5317  0.1465
  517MPD2    C1 7730   0.853   0.486  17.497 -0.4694 -0.4995  0.7584
  517MPD2    C2 7731   0.929   0.519  17.606 -0.0162 -0.4407 -0.1757
  517MPD2    C3 7732   0.889   0.621  17.692 -0.0375  0.4782  0.3275
  517MPD2    C4 7733   0.768   0.673  17.669  0.2859 -0.9088 -0.5061
  517MPD2    C5 7734   0.684   0.637  17.569 -0.0841 -0.1134  0.2729
  517MPD2     H 7735   1.027   0.471  17.613  0.0478 -0.3076 -0.1628
  517MPD2    H1 7736   0.742   0.756  17.733 -0.8399 -0.8544 -1.0193
  517MPD2    H2 7737   0.661   0.523  17.396 -1.3413  1.0948  0.1443
  517MPD2    H3 7738   0.582   0.673  17.563  0.2054  0.8778  1.3793
  517MPD2     N 7739   0.961   0.670   0.045 -0.5046 -0.0563  0.4677
  517MPD2    H5 7740   0.923   0.748   0.098 -1.2368 -0.6346  0.7794
  517MPD2    N1 7741   0.909   0.388  17.407 -0.1721 -0.0791 -0.6070
  517MPD2    H7 7742   0.996   0.341  17.426 -0.3935 -0.9498 -1.7346
  518TMC3    C1 7743   0.925   0.258  17.215  0.5226  0.2120 -0.6179
  518TMC3    C2 7744   0.860   0.142  17.183  0.2736 -0.3350  0.5142
  518TMC3    C3 7745   0.941   0.048  17.119 -0.5731 -0.4222  0.8805
  518TMC3    C4 7746   1.050   0.289  17.191  0.2030 -0.4596  0.7366
  518TMC3    C5 7747   1.126   0.193  17.135  0.2893 -0.4941 -1.2050
  518TMC3    C6 7748   1.077   0.072  17.102 -0.4079  0.1485 -0.3899
  518TMC3     C 7749   0.848   0.354  17.287  0.1156  0.3849 -0.4236
  518TMC3     O 7750   0.743   0.387  17.241  0.6207 -0.4309 -0.0364
  518TMC3     H 7751   0.758   0.126  17.215  0.7666 -2.2305  1.1223
  518TMC3    H1 7752   1.091   0.387  17.213 -1.4583  0.7899 -1.7436
  518TMC3    H2 7753   1.139   0.005  17.043 -0.4275 -1.8654  1.8670
  518TMC3    C7 7754   1.267   0.227  17.123 -0.1358 -0.0661  0.7303
  518TMC3    C8 7755   0.915   4.650  17.117 -0.1346  0.5903 -0.0454
  518TMC3    O1 7756   1.303   0.333  17.177  0.4304  0.1878 -0.8316
  518TMC3    O2 7757   1.006   4.581  17.069  0.0590 -0.6074 -0.3653
  519MPD2     C 7758   2.387   3.140  14.212  0.0529 -0.1337  0.4686
  519MPD2    C1 7759   2.385   3.143  14.074 -0.5607 -0.3190  0.1965
  519MPD2    C2 7760   2.493   3.116  14.003  0.1101 -0.2475  0.2779
  519MPD2    C3 7761   2.613   3.075  14.063 -0.0939 -0.0201 -0.6925
  519MPD2    C4 7762   2.618   3.070  14.205 -0.3152  0.5421 -0.4021
  519MPD2    C5 7763   2.503   3.105  14.277 -0.3644  0.2392 -0.4940
  519MPD2     H 7764   2.486   3.127  13.895  0.0700  1.0398  0.4113
  519MPD2    H1 7765   2.707   3.042  14.259 -0.5681  1.2036  0.3613
  519MPD2    H2 7766   2.304   3.160  14.280 -1.8367  0.1293 -1.9305
  519MPD2    H3 7767   2.512   3.100  14.385 -0.3327 -1.1033 -0.5539
  519MPD2     N 7768   2.721   3.024  13.982  0.1811 -0.0179 -0.3136
  519MPD2    H5 7769   2.799   2.983  14.032 -0.6058 -3.1410 -1.6464
  519MPD2    N1 7770   2.262   3.191  14.014  0.6275 -0.0719  0.1216
  519MPD2    H7 7771   2.185   3.195  14.081 -0.6052  1.1138 -1.3744
  520TMC3    C1 7772   2.836   2.978  13.786  0.1051 -0.6858 -0.3113
  520TMC3    C2 7773   2.797   2.950  13.660 -0.0647 -0.4434 -0.4884
  520TMC3    C3 7774   2.834   2.830  13.598 -0.0537  0.0831  0.1799
  520TMC3    C4 7775   2.902   2.883  13.857  0.5250 -0.6303  0.1583
  520TMC3    C5 7776   2.945   2.764  13.794 -0.4019  0.2513  0.3786
  520TMC3    C6 7777   2.909   2.738  13.665 -0.0411 -0.8317  0.2079
  520TMC3     C 7778   2.744   3.071  13.855 -0.0910  0.4885 -0.0601
  520TMC3     O 7779   2.687   3.159  13.788 -0.0862  0.2692  0.2364
  520TMC3     H 7780   2.745   3.030  13.608 -0.1004  0.4309  0.8841
  520TMC3    H1 7781   2.948   2.914  13.950 -0.7155  3.9516 -0.8061
  520TMC3    H2 7782   2.946   2.647  13.619  0.2182  0.2693 -1.7351
  520TMC3    C7 7783   3.008   2.669  13.884  0.6007 -0.3896  0.4165
  520TMC3    C8 7784   2.768   2.785  13.476  0.0545 -0.2604  0.0054
  520TMC3    O1 7785   3.031   2.704  13.997 -0.0031 -0.5325  0.1510
  520TMC3    O2 7786   2.834   2.703  13.412 -0.7300  0.9624 -0.1368
  521MPD2     C 7787   3.474   1.835  17.283  0.8371 -0.0166  0.1490
  521MPD2    C1 7788   3.425   1.752  17.191 -0.2211 -0.2960 -0.3011
  521MPD2    C2 7789   3.519   1.672  17.123  0.6079 -0.4865 -0.2574
  521MPD2    C3 7790   3.654   1.680  17.155  0.1849 -0.5394  0.1959
  521MPD2    C4 7791   3.699   1.781  17.239  0.4957  0.3514 -0.2249
  521MPD2    C5 7792   3.608   1.855  17.300  0.2016 -0.3022 -0.1592
  521MPD2     H 7793   3.492   1.601  17.046 -2.2160 -0.0159  0.3154
  521MPD2    H1 7794   3.800   1.810  17.263  0.0018  0.5701  1.5735
  521MPD2    H2 7795   3.407   1.898  17.341  0.2590 -1.1670  0.7358
  521MPD2    H3 7796   3.646   1.927  17.372 -1.6513 -0.2304  0.7491
  521MPD2     N 7797   3.740   1.590  17.098 -0.0458 -0.2656  0.4354
  521MPD2    H5 7798   3.719   1.536  17.014 -1.1999 -0.4434  0.8400
  521MPD2    N1 7799   3.291   1.749  17.161 -0.0353 -0.3557 -0.1870
  521MPD2    H7 7800   3.238   1.824  17.204  0.9151 -0.3368  0.9788
  522TMC3    C1 7801   3.948   1.484  17.056 -0.3481 -0.0694  0.4449
  522TMC3    C2 7802   4.056   1.417  17.113 -0.7345  0.1199  0.3421
  522TMC3    C3 7803   4.150   1.362  17.033  0.2133  0.6088  0.3760
  522TMC3    C4 7804   3.935   1.502  16.922  0.3660 -0.4166 -0.0618
  522TMC3    C5 7805   4.030   1.438  16.843  0.3189  0.6418  0.2325
  522TMC3    C6 7806   4.129   1.359  16.893 -0.8141 -0.0636 -0.1083
  522TMC3     C 7807   3.867   1.562  17.142  0.9212  0.4382 -0.7105
  522TMC3     O 7808   3.923   1.595  17.244 -0.2332 -0.1335  0.6249
  522TMC3     H 7809   4.060   1.401  17.220 -0.2116  1.0664  0.4718
  522TMC3    H1 7810   3.863   1.573  16.884 -0.0567  0.1974  1.8698
  522TMC3    H2 7811   4.200   1.319  16.822  0.7389  0.0250  1.3924
  522TMC3    C7 7812   4.009   1.432  16.699 -0.4168 -0.0381 -0.1681
  522TMC3    C8 7813   4.269   1.298  17.093  0.1099  0.0589  0.0184
  522TMC3    O1 7814   4.112   1.416  16.635 -0.3326  0.2121 -0.3551
  522TMC3    O2 7815   4.299   1.339  17.203 -0.1767 -0.1951 -0.1951
  523MPD2     C 7816   1.156   1.214   9.922 -0.7435  0.1849 -0.1164
  523MPD2    C1 7817   1.065   1.119   9.869 -0.1280 -0.5381  0.3088
  523MPD2    C2 7818   0.980   1.155   9.764 -0.5601  0.6249 -0.4720
  523MPD2    C3 7819   0.981   1.287   9.710 -0.9845  0.0361  0.5125
  523MPD2    C4 7820   1.079   1.374   9.757  0.4037 -0.2725 -0.0988
  523MPD2    C5 7821   1.164   1.333   9.855 -0.0371 -0.2713  0.3305
  523MPD2     H 7822   0.909   1.082   9.727  2.6223 -3.1433  0.9674
  523MPD2    H1 7823   1.101   1.473   9.719 -0.4248 -0.2395 -0.5093
  523MPD2    H2 7824   1.219   1.185  10.005 -2.5727 -1.3964  0.7131
  523MPD2    H3 7825   1.236   1.407   9.887 -0.1261  0.2277 -0.6054
  523MPD2     N 7826   0.895   1.328   9.604 -0.1592  0.0429 -0.3166
  523MPD2    H5 7827   0.909   1.426   9.582 -3.3659  0.9263  1.5683
  523MPD2    N1 7828   1.069   0.991   9.931  0.1775 -0.4844  0.0529
  523MPD2    H7 7829   1.141   0.981  10.001 -1.4033 -1.1822  1.5955
  524TMC3    C1 7830   0.715   1.322   9.448 -0.6056 -0.1010 -0.1878
  524TMC3    C2 7831   0.603   1.255   9.407  0.8766 -0.0871 -0.0213
  524TMC3    C3 7832   0.519   1.323   9.320  0.3261  0.4221  0.5976
  524TMC3    C4 7833   0.755   1.448   9.400  0.0307 -0.2074 -0.5322
  524TMC3    C5 7834   0.662   1.516   9.317 -0.1274  0.1581  0.4526
  524TMC3    C6 7835   0.551   1.448   9.271 -0.4637  0.3456  0.1688
  524TMC3     C 7836   0.783   1.256   9.559  0.5036 -0.3297 -0.1304
  524TMC3     O 7837   0.750   1.142   9.585  0.0029 -0.2205 -0.9904
  524TMC3     H 7838   0.555   1.180   9.468  1.9767 -0.7928 -0.0295
  524TMC3    H1 7839   0.838   1.508   9.433  1.5484 -1.9661 -1.1309
  524TMC3    H2 7840   0.474   1.509   9.225 -1.3845 -0.5648  0.5047
  524TMC3    C7 7841   0.696   1.635   9.246 -0.1773 -0.8232  0.3815
  524TMC3    C8 7842   0.406   1.255   9.260 -0.0475  0.1650  0.3514
  524TMC3    O1 7843   0.812   1.675   9.261  0.2796 -0.2983  0.1737
  524TMC3    O2 7844   0.321   1.322   9.197 -0.0545  0.6487  1.0204
  525MPD2     C 7845   3.882   2.829  14.350  0.7991 -0.2541  0.4331
  525MPD2    C1 7846   3.998   2.837  14.421  0.3769 -0.0313 -1.0870
  525MPD2    C2 7847   4.078   2.949  14.391  0.0804  0.3847  0.7338
  525MPD2    C3 7848   4.049   3.045  14.304 -0.3177  0.3842  1.1469
  525MPD2    C4 7849   3.929   3.038  14.237  0.5472 -0.4067  0.1134
  525MPD2    C5 7850   3.854   2.927  14.257  0.6679  0.0608  0.8925
  525MPD2     H 7851   4.170   2.944  14.449 -0.2520  0.4659  1.2705
  525MPD2    H1 7852   3.903   3.103  14.154 -1.6775 -0.4127  0.8164
  525MPD2    H2 7853   3.814   2.745  14.365 -0.9924  1.4512  1.8272
  525MPD2    H3 7854   3.761   2.934  14.202 -0.2622  0.1190  2.4977
  525MPD2     N 7855   4.115   3.165  14.303 -0.3942  0.1180 -0.0041
  525MPD2    H5 7856   4.070   3.235  14.245 -0.8756  0.8474  1.2380
  525MPD2    N1 7857   4.035   2.752  14.525  0.9859  0.4108 -0.2358
  525MPD2    H7 7858   4.124   2.772  14.569  1.3205 -2.4609  0.4167
  526TMC3    C1 7859   4.009   2.615  14.711 -0.2710 -0.0051  0.5300
  526TMC3    C2 7860   3.955   2.633  14.835  0.1282 -0.6833  0.1315
  526TMC3    C3 7861   4.021   2.582  14.939 -0.3858  0.0839  0.5564
  526TMC3    C4 7862   4.121   2.551  14.683  0.7059  0.3293  0.1057
  526TMC3    C5 7863   4.177   2.490  14.789 -0.3784  0.7479  0.0590
  526TMC3    C6 7864   4.132   2.511  14.915 -0.8829  0.7022  0.4523
  526TMC3     C 7865   3.943   2.670  14.597 -0.2289  0.2935  0.1650
  526TMC3     O 7866   3.826   2.651  14.581  0.3067  0.1689  0.6795
  526TMC3     H 7867   3.872   2.700  14.854  0.7389 -0.0746  0.6658
  526TMC3    H1 7868   4.149   2.529  14.580  0.4012 -1.5021  0.4099
  526TMC3    H2 7869   4.198   2.455  14.981 -0.5486  0.2940 -0.2362
  526TMC3    C7 7870   4.316   2.454  14.777 -0.6281  0.0120  0.0821
  526TMC3    C8 7871   3.994   2.634  15.076  0.2870  0.1123  0.4943
  526TMC3    O1 7872   4.364   2.363  14.842 -0.4461  0.1297  0.1502
  526TMC3    O2 7873   4.083   2.620  15.160  0.0253 -0.3294  0.1269
  527MPD2     C 7874   2.578   1.634   1.227  0.3335  0.7272  0.3870
  527MPD2    C1 7875   2.548   1.577   1.104 -0.3322 -0.3361  0.1404
  527MPD2    C2 7876   2.656   1.560   1.020 -0.1827 -0.4907  0.5762
  527MPD2    C3 7877   2.782   1.583   1.060 -0.3634 -0.0494 -0.4773
  527MPD2    C4 7878   2.805   1.634   1.183  0.5580  0.8568  0.0762
  527MPD2    C5 7879   2.702   1.658   1.263 -0.4642 -0.3771 -0.8241
  527MPD2     H 7880   2.649   1.520   0.919  0.2095  2.3334 -0.5747
  527MPD2    H1 7881   2.901   1.673   1.213  0.5233  0.0433  1.2367
  527MPD2    H2 7882   2.498   1.651   1.299 -1.1229 -0.8465 -0.8409
  527MPD2    H3 7883   2.718   1.710   1.357  1.5529  1.4371 -2.1454
  527MPD2     N 7884   2.888   1.547   0.975  0.0795  0.6522 -0.2494
  527MPD2    H5 7885   2.849   1.508   0.890  2.1616 -1.4019 -0.2316
  527MPD2    N1 7886   2.424   1.536   1.056 -0.4045 -0.3603  0.0807
  527MPD2    H7 7887   2.427   1.483   0.970 -0.4147 -0.9380  0.4393
  528TMC3    C1 7888   2.184   1.510   1.042  0.3326 -0.1609 -0.3851
  528TMC3    C2 7889   2.199   1.491   0.908 -0.8943  0.7796 -0.1380
  528TMC3    C3 7890   2.098   1.430   0.835 -0.6321 -0.1022  0.3822
  528TMC3    C4 7891   2.069   1.472   1.107  0.3339 -0.5107 -1.0667
  528TMC3    C5 7892   1.966   1.419   1.029 -0.0324 -0.5087  0.3246
  528TMC3    C6 7893   1.983   1.394   0.898  0.8848 -0.4694  0.1290
  528TMC3     C 7894   2.304   1.537   1.125  0.3565  0.2277 -0.6060
  528TMC3     O 7895   2.280   1.573   1.242 -0.2929 -0.0956 -0.2255
  528TMC3     H 7896   2.288   1.520   0.854  0.0237  0.5208  1.2156
  528TMC3    H1 7897   2.047   1.477   1.213  0.1139 -0.9368 -1.0892
  528TMC3    H2 7898   1.902   1.350   0.840  1.7378 -0.9474 -0.7056
  528TMC3    C7 7899   1.843   1.369   1.102 -0.4418  0.0792  0.8025
  528TMC3    C8 7900   2.105   1.420   0.689 -0.1825  0.0682 -0.0619
  528TMC3    O1 7901   1.768   1.283   1.052 -0.5462 -0.1011  0.6432
  528TMC3    O2 7902   2.186   1.493   0.633  0.1927  0.5088 -0.1179
  529MPD2     C 7903   4.499   4.670   0.584 -0.2078 -0.4215 -0.4276
  529MPD2    C1 7904   4.494   4.544   0.534  0.0316 -0.0576 -0.9153
  529MPD2    C2 7905   4.437   4.527   0.403  0.0894 -0.0637  0.5392
  529MPD2    C3 7906   4.389   4.638   0.330 -0.3828 -0.0379  0.3856
  529MPD2    C4 7907   4.395   0.024   0.387 -0.4270  0.4335  0.1197
  529MPD2    C5 7908   4.445   0.035   0.512 -0.4258 -0.7506  0.3138
  529MPD2     H 7909   4.421   4.424   0.373  0.0634  0.0365  0.2068
  529MPD2    H1 7910   4.351   0.112   0.341  0.9767  0.5202 -1.0877
  529MPD2    H2 7911   4.545   4.697   0.678 -0.0195 -0.4658 -0.5061
  529MPD2    H3 7912   4.449   0.136   0.550 -0.0952  0.4772 -3.0016
  529MPD2     N 7913   4.326   4.622   0.206  0.0781 -0.4111  0.3120
  529MPD2    H5 7914   4.345   4.530   0.169  3.0855  0.3620 -0.0702
  529MPD2    N1 7915   4.552   4.429   0.595 -0.2640 -0.0542  0.4331
  529MPD2    H7 7916   4.563   4.348   0.536  0.5033 -1.6080  2.6946
  530TMC3    C1 7917   4.626   4.290   0.782 -0.0770 -0.4574  0.2517
  530TMC3    C2 7918   4.680   4.301   0.907  0.8805 -0.5414 -0.0660
  530TMC3    C3 7919   4.669   4.193   0.990 -0.3666 -0.5751  0.0884
  530TMC3    C4 7920   4.572   4.170   0.737 -0.2032 -0.1916 -0.2249
  530TMC3    C5 7921   4.570   4.068   0.827  0.5085  0.0328  0.2380
  530TMC3    C6 7922   4.617   4.072   0.955 -0.1883 -0.6236 -0.1393
  530TMC3     C 7923   4.573   4.417   0.730 -0.2367 -0.3455  0.0360
  530TMC3     O 7924   4.551   4.498   0.817 -0.4354  0.3640 -0.5383
  530TMC3     H 7925   4.718   4.394   0.945  1.0591 -0.1290 -1.2490
  530TMC3    H1 7926   4.511   4.171   0.647 -0.0946  1.8625 -0.2896
  530TMC3    H2 7927   4.614   3.984   1.018 -0.0837  0.8648  1.9483
  530TMC3    C7 7928   4.506   3.948   0.774  0.1181 -0.3501 -0.3585
  530TMC3    C8 7929   0.015   4.195   1.097 -0.9111 -0.2395 -0.4507
  530TMC3    O1 7930   4.481   3.947   0.656  0.8153 -0.1269  0.0320
  530TMC3    O2 7931   0.013   4.299   1.167  0.2507 -0.5825 -0.0131
  531MPD2     C 7932   3.265   0.905  13.488  0.1632 -0.0600 -0.3077
  531MPD2    C1 7933   3.253   1.032  13.439  0.2656 -0.9781 -0.0871
  531MPD2    C2 7934   3.214   1.044  13.309  0.1295  0.8070  0.7076
  531MPD2    C3 7935   3.200   0.936  13.223  0.8957 -0.2228 -0.2274
  531MPD2    C4 7936   3.223   0.812  13.276  0.1871 -0.5874  0.4838
  531MPD2    C5 7937   3.259   0.798  13.404  0.3334  0.3735  0.3114
  531MPD2     H 7938   3.202   1.145  13.271  0.8993  0.5029 -0.3286
  531MPD2    H1 7939   3.218   0.726  13.210 -1.2835 -1.2395  1.4439
  531MPD2    H2 7940   3.296   0.886  13.590  0.7115  0.3702 -0.3912
  531MPD2    H3 7941   3.281   0.697  13.434  0.3587  0.1815 -0.3442
  531MPD2     N 7942   3.181   0.944  13.078  0.6647  0.7682  0.7355
  531MPD2    H5 7943   3.176   0.861  13.020 -0.0180  0.1865  1.6138
  531MPD2    N1 7944   3.288   1.140  13.522 -0.3132  0.1366 -0.0840
  531MPD2    H7 7945   3.320   1.117  13.616  0.2972  1.7678  0.1037
  532TMC3    C1 7946   3.351   1.364  13.574 -0.2181  0.2896 -0.6168
  532TMC3    C2 7947   3.340   1.487  13.517  0.2959 -0.3928 -0.8339
  532TMC3    C3 7948   3.453   1.568  13.503  0.3584 -0.5322  0.1718
  532TMC3    C4 7949   3.473   1.321  13.631 -0.5239  0.2724 -0.3486
  532TMC3    C5 7950   3.579   1.405  13.613 -0.1645 -0.4937  0.2559
  532TMC3    C6 7951   3.573   1.527  13.550 -0.1166  0.7492 -0.0430
  532TMC3     C 7952   3.291   1.270  13.476  0.0737  0.0661  0.5709
  532TMC3     O 7953   3.257   1.327  13.375 -0.6155 -0.3942  0.0929
  532TMC3     H 7954   3.244   1.517  13.479  0.4998 -1.4090 -2.1740
  532TMC3    H1 7955   3.478   1.219  13.667 -0.2760 -0.5402 -2.6792
  532TMC3    H2 7956   3.661   1.587  13.531 -0.4703  0.8373 -1.4408
  532TMC3    C7 7957   3.706   1.388  13.678 -0.4854  0.2166  0.3705
  532TMC3    C8 7958   3.459   1.629  13.373 -0.0174  0.2347 -0.1522
  532TMC3    O1 7959   3.755   1.485  13.737  0.2784 -0.2695 -0.3518
  532TMC3    O2 7960   3.534   1.726  13.355 -0.1975  0.6738  0.8674
  533TMC3    C1 7961   4.250   3.344  14.377 -0.0224 -0.5419 -0.2458
  533TMC3    C2 7962   4.372   3.392  14.342 -0.3422 -0.8000 -0.2665
  533TMC3    C3 7963   4.387   3.525  14.355  0.1964  0.3552 -0.8019
  533TMC3    C4 7964   4.149   3.419  14.428  0.2324 -0.0085  0.3543
  533TMC3    C5 7965   4.166   3.555  14.433 -0.4678 -0.0768  0.1148
  533TMC3    C6 7966   4.285   3.608  14.395 -0.0717  0.4642 -0.6980
  533TMC3     C 7967   4.227   3.197  14.376 -0.6205 -0.1132  0.3891
  533TMC3     O 7968   4.313   3.124  14.427  0.0685 -0.3758 -0.6038
  533TMC3     H 7969   4.446   3.319  14.312  0.3429  0.8459 -2.5514
  533TMC3    H1 7970   4.058   3.368  14.459 -0.6378  0.6126 -1.1630
  533TMC3    H2 7971   4.295   3.715  14.386  1.2401  0.3931 -0.0800
  533TMC3    C7 7972   4.098   3.622  14.544  0.1216 -0.0735  0.0310
  533TMC3    C8 7973   4.513   3.579  14.320  0.2718  0.0283 -0.4029
  533TMC3    O1 7974   4.074   3.741  14.535  0.3308 -0.8069  0.2405
  533TMC3    O2 7975   4.615   3.512  14.342  0.0868 -0.1714 -0.7583
  534MPD2     C 7976   2.161   4.409   0.861 -0.0356 -0.2121  0.1712
  534MPD2    C1 7977   2.146   4.544   0.839  0.0859  0.1502  0.0874
  534MPD2    C2 7978   2.032   4.573   0.765  0.5375 -0.0691 -0.1778
  534MPD2    C3 7979   1.931   4.479   0.739 -0.0132  0.4525 -0.1034
  534MPD2    C4 7980   1.952   4.347   0.769 -0.1524  0.5336 -0.2632
  534MPD2    C5 7981   2.073   4.310   0.820  0.7461  0.1008 -0.1258
  534MPD2     H 7982   2.007   4.677   0.744  1.3691 -0.1147 -1.3618
  534MPD2    H1 7983   1.869   4.280   0.752 -1.2836  2.0336 -0.6772
  534MPD2    H2 7984   2.259   4.384   0.899  0.3553  0.3611 -0.4591
  534MPD2    H3 7985   2.085   4.206   0.849  0.3979 -0.7325 -2.9588
  534MPD2     N 7986   1.801   4.523   0.693 -0.4078  0.4360 -0.2667
  534MPD2    H5 7987   1.726   4.455   0.687  0.2751 -0.2935 -0.5309
  534MPD2    N1 7988   2.225   4.650   0.889  0.3322 -0.0763  0.0408
  534MPD2    H7 7989   2.195   0.004   0.866 -1.3349 -0.9512 -1.3430
  535TMC3    C1 7990   1.637   4.661   0.603  0.5498 -0.3770  0.0829
  535TMC3    C2 7991   1.553   4.607   0.689  1.0527 -0.6859 -0.0410
  535TMC3    C3 7992   1.422   4.637   0.670 -0.0515 -0.0459  0.0643
  535TMC3    C4 7993   1.602   0.007   0.502  0.2071  0.2749  1.1912
  535TMC3    C5 7994   1.468   0.016   0.474 -0.1213  0.6383 -0.2662
  535TMC3    C6 7995   1.373   4.704   0.560 -0.6145  0.1133 -0.0187
  535TMC3     C 7996   1.777   4.652   0.637 -0.0144  0.3182  0.0558
  535TMC3     O 7997   1.853   0.004   0.603 -0.6003 -0.2848 -0.3540
  535TMC3     H 7998   1.590   4.564   0.781 -1.3094  0.4591  1.4299
  535TMC3    H1 7999   1.670   0.070   0.446 -0.6662  1.0394  0.9828
  535TMC3    H2 8000   1.266   4.719   0.546 -0.8423 -0.1404  1.4787
  535TMC3    C7 8001   1.433   0.048   0.340  0.9906 -0.4032 -0.4310
  535TMC3    C8 8002   1.325   4.591   0.771  0.2949  0.2534 -0.5209
  535TMC3    O1 8003   1.519   0.026   0.252  0.7639 -0.2141 -0.3534
  535TMC3    O2 8004   1.206   4.583   0.737  0.1057 -0.2575 -0.2295
  536MPD2     C 8005   0.496   2.346  16.036 -0.7129  0.1086  0.4619
  536MPD2    C1 8006   0.415   2.450  16.086  0.3919 -0.2688 -0.6519
  536MPD2    C2 8007   0.402   2.565  16.010 -0.4458  0.2729 -0.2689
  536MPD2    C3 8008   0.458   2.579  15.885 -0.5595 -0.0243 -0.1836
  536MPD2    C4 8009   0.543   2.483  15.853 -0.2445 -0.2451  0.9492
  536MPD2    C5 8010   0.564   2.367  15.920 -0.2029  0.2215 -0.2765
  536MPD2     H 8011   0.348   2.644  16.061  1.6981  1.1548  0.6138
  536MPD2    H1 8012   0.590   2.481  15.756  0.2948 -3.5677  1.2787
  536MPD2    H2 8013   0.509   2.256  16.094 -0.5975  1.2508  2.2191
  536MPD2    H3 8014   0.618   2.292  15.865  0.3336  1.0145 -0.8334
  536MPD2     N 8015   0.418   2.673  15.788 -0.6116  0.6998 -0.2341
  536MPD2    H5 8016   0.470   2.668  15.702 -0.3712  2.2168 -0.1670
  536MPD2    N1 8017   0.355   2.452  16.212 -0.4006  0.0949  0.1915
  536MPD2    H7 8018   0.331   2.542  16.254  0.6674  0.6914 -0.4517
  537TMC3    C1 8019   0.356   2.355  16.431 -0.1873 -0.2926  0.1582
  537TMC3    C2 8020   0.386   2.478  16.485 -0.0457 -0.1937  0.3073
  537TMC3    C3 8021   0.371   2.496  16.622  0.5088 -0.8183 -0.0038
  537TMC3    C4 8022   0.319   2.248  16.504  0.0456 -0.4158 -0.5669
  537TMC3    C5 8023   0.304   2.271  16.635  0.5721  0.3575 -0.4715
  537TMC3    C6 8024   0.331   2.389  16.700 -0.7306  0.1901 -0.0237
  537TMC3     C 8025   0.355   2.336  16.288  0.2086 -0.1603  0.0153
  537TMC3     O 8026   0.349   2.217  16.242 -0.3693  0.1451  0.4545
  537TMC3     H 8027   0.415   2.559  16.418 -0.8823  1.7964  2.3410
  537TMC3    H1 8028   0.288   2.159  16.450 -0.8905 -0.8613  0.7036
  537TMC3    H2 8029   0.302   2.403  16.804  2.0644 -0.3639  0.8223
  537TMC3    C7 8030   0.286   2.145  16.708  0.3507 -0.7276  1.1778
  537TMC3    C8 8031   0.427   2.612  16.689  0.0008  0.2046  0.2975
  537TMC3    O1 8032   0.258   2.044  16.639 -0.0442 -0.3040  0.0083
  537TMC3    O2 8033   0.447   2.607  16.810  0.3551  0.5139  0.5968
  538TMC3    C1 8034   2.128   0.270  10.993  0.5749 -0.5815  0.9597
  538TMC3    C2 8035   2.268   0.264  10.990  0.6487  0.1720  0.1521
  538TMC3    C3 8036   2.325   0.337  10.898 -1.3331 -0.1422 -0.3193
  538TMC3    C4 8037   2.048   0.341  10.911  0.2171  0.5980  0.6870
  538TMC3    C5 8038   2.115   0.418  10.824 -0.0064  0.3385  0.1027
  538TMC3    C6 8039   2.255   0.425  10.818  0.4149 -0.3017  0.1883
  538TMC3     C 8040   2.064   0.210  11.107  0.1425 -0.2038 -0.3964
  538TMC3     O 8041   1.969   0.135  11.091 -0.0634 -0.4237  0.0304
  538TMC3     H 8042   2.321   0.206  11.065  1.0021  0.0345 -0.2041
  538TMC3    H1 8043   1.940   0.344  10.925  0.2258  0.0966  0.8842
  538TMC3    H2 8044   2.305   0.506  10.766  0.6575  0.4913  1.6498
  538TMC3    C7 8045   2.032   0.490  10.729  0.0145  0.0921 -0.8436
  538TMC3    C8 8046   2.465   0.352  10.908 -1.3741  1.0749 -0.1612
  538TMC3    O1 8047   1.917   0.452  10.715  0.0352  0.7254 -0.2291
  538TMC3    O2 8048   2.528   0.328  11.013  0.4429  0.2469 -0.1080
  539MPD2     C 8049   1.590   4.094  11.311  0.0800 -0.2642 -0.0170
  539MPD2    C1 8050   1.637   4.202  11.253  0.1182 -0.1478 -0.0770
  539MPD2    C2 8051   1.597   4.332  11.289  0.3466 -0.0685 -1.0655
  539MPD2    C3 8052   1.502   4.333  11.393 -0.0681  0.1137 -1.2225
  539MPD2    C4 8053   1.452   4.223  11.458 -0.1412 -0.0320 -0.1566
  539MPD2    C5 8054   1.499   4.105  11.410 -0.5155 -0.4982  0.6578
  539MPD2     H 8055   1.636   4.419  11.238  0.7141  0.9797  1.0176
  539MPD2    H1 8056   1.374   4.225  11.534  0.8290  2.3396  0.7723
  539MPD2    H2 8057   1.623   3.993  11.288 -0.4830 -0.9061  1.9270
  539MPD2    H3 8058   1.469   4.009  11.451  2.7744 -1.6624  0.3194
  539MPD2     N 8059   1.445   4.457  11.432  0.3568 -0.6343 -0.1011
  539MPD2    H5 8060   1.375   4.452  11.505 -0.4759  0.2864 -0.8379
  539MPD2    N1 8061   1.733   4.192  11.150  0.1244  0.0320  0.2761
  539MPD2    H7 8062   1.762   4.284  11.117 -0.1940  0.4382  1.1212
  540TMC3    C1 8063   1.380   4.677  11.418 -0.8434  0.4275 -0.5886
  540TMC3    C2 8064   1.354   0.021  11.321 -0.0983 -0.1192  0.3524
  540TMC3    C3 8065   1.320   0.149  11.350  0.1667  0.5848 -0.6070
  540TMC3    C4 8066   1.368   4.709  11.552  0.2895  0.1230  0.0861
  540TMC3    C5 8067   1.326   0.094  11.575 -0.2718 -0.1058  0.0738
  540TMC3    C6 8068   1.294   0.186  11.474 -0.4852 -0.3295  0.2775
  540TMC3     C 8069   1.469   4.577  11.374 -0.2162  0.2831 -0.5084
  540TMC3     O 8070   1.560   4.613  11.302 -0.0927 -0.0797 -0.6582
  540TMC3     H 8071   1.376   4.725  11.221  3.2175  0.1653  0.9742
  540TMC3    H1 8072   1.401   4.640  11.629  0.0986  0.2933  0.3168
  540TMC3    H2 8073   1.263   0.287  11.499  0.1088 -0.2150  0.5568
  540TMC3    C7 8074   1.266   0.123  11.704 -0.3362  0.0198 -0.6207
  540TMC3    C8 8075   1.302   0.252  11.257 -0.7733 -0.5793  0.4385
  540TMC3    O1 8076   1.166   0.196  11.714  0.0363  0.4459 -0.0006
  540TMC3    O2 8077   1.348   0.359  11.291  0.4095 -0.3006  0.0919
  541MPD2     C 8078   0.336   1.715  13.484  0.1861  0.2972 -0.4004
  541MPD2    C1 8079   0.214   1.723  13.416 -0.9349  0.0738  0.4052
  541MPD2    C2 8080   0.218   1.790  13.291 -0.2594 -0.1420  0.1812
  541MPD2    C3 8081   0.336   1.840  13.241 -0.3019 -0.6487  0.3685
  541MPD2    C4 8082   0.450   1.832  13.312 -0.0554 -0.6628  0.5332
  541MPD2    C5 8083   0.449   1.766  13.430  0.1101 -0.4015 -0.9301
  541MPD2     H 8084   0.123   1.798  13.239  0.9738  0.8535 -1.9289
  541MPD2    H1 8085   0.539   1.881  13.275  0.6226 -1.3168  1.3068
  541MPD2    H2 8086   0.349   1.654  13.573  2.7348  1.1451 -0.2132
  541MPD2    H3 8087   0.539   1.784  13.488 -2.5501  3.1416  2.1245
  541MPD2     N 8088   0.347   1.897  13.113 -0.1147  0.4056  0.2544
  541MPD2    H5 8089   0.440   1.895  13.072  0.6547  1.4161  1.9256
  541MPD2    N1 8090   0.095   1.662  13.462 -0.1257 -0.4013 -1.0994
  541MPD2    H7 8091   0.015   1.654  13.399  1.2491 -2.2365 -2.6229
  542TMC3    C1 8092   0.284   2.008  12.913  0.3906 -0.1780 -0.5069
  542TMC3    C2 8093   0.386   1.935  12.856  0.0896 -0.1598  0.6522
  542TMC3    C3 8094   0.457   1.993  12.753 -0.1382 -0.1811 -0.9628
  542TMC3    C4 8095   0.232   2.124  12.865 -0.1679 -0.0745  0.1440
  542TMC3    C5 8096   0.298   2.175  12.756  0.3470 -0.5584  0.7110
  542TMC3    C6 8097   0.413   2.113  12.693 -0.4844 -0.2602  0.4573
  542TMC3     C 8098   0.242   1.956  13.045 -0.0699 -0.1118 -0.5685
  542TMC3     O 8099   0.128   1.977  13.089  0.3069  0.2750 -0.3618
  542TMC3     H 8100   0.406   1.832  12.885  1.1052 -0.0572  0.3191
  542TMC3    H1 8101   0.148   2.170  12.915  1.1699  1.6593  0.7850
  542TMC3    H2 8102   0.460   2.143  12.600  1.2760 -1.6642  0.8854
  542TMC3    C7 8103   0.231   2.286  12.696 -0.7245  0.1277 -0.3986
  542TMC3    C8 8104   0.534   1.909  12.670  0.3020  0.3568  0.0483
  542TMC3    O1 8105   0.126   2.320  12.744 -0.4360  0.3927  0.0977
  542TMC3    O2 8106   0.529   1.941  12.552  0.1208 -0.1605 -0.5547
  543TMC3    C1 8107   4.211   3.868  17.108 -0.4030 -0.1027 -0.4441
  543TMC3    C2 8108   4.203   3.757  17.185  0.5865 -0.4285  0.4248
  543TMC3    C3 8109   4.142   3.764  17.304  0.9324 -0.0490 -0.5774
  543TMC3    C4 8110   4.141   3.981  17.136  0.1115 -0.0929  0.0090
  543TMC3    C5 8111   4.065   3.980  17.249  0.4721  0.4787 -0.3057
  543TMC3    C6 8112   4.072   3.875  17.340 -0.3203  0.0980 -0.5701
  543TMC3     C 8113   4.255   3.842  16.971  0.3546  0.7916 -0.5932
  543TMC3     O 8114   4.343   3.757  16.958 -0.3825  0.5559  0.0998
  543TMC3     H 8115   4.273   3.678  17.164  0.4701 -0.6677  0.9360
  543TMC3    H1 8116   4.144   4.068  17.072 -0.7480 -0.3964 -0.4306
  543TMC3    H2 8117   4.003   3.873  17.424  0.4657  1.2694  0.0938
  543TMC3    C7 8118   3.987   4.101  17.286  0.6767  0.2066  0.4522
  543TMC3    C8 8119   4.111   3.632  17.361 -0.2109 -0.6055 -0.6759
  543TMC3    O1 8120   3.904   4.077  17.372  0.5762 -0.1779 -0.6611
  543TMC3    O2 8121   4.120   3.543  17.280 -0.7326 -0.3569  0.0797
  544MPD2     C 8122   3.921   3.313  17.715 -0.9014  0.3197 -0.0111
  544MPD2    C1 8123   3.932   3.297  17.575 -0.5646 -0.5379  0.3058
  544MPD2    C2 8124   3.986   3.401  17.505 -0.1077  1.0035  0.0021
  544MPD2    C3 8125   4.032   3.520  17.571  0.0291 -0.2112  0.1933
  544MPD2    C4 8126   4.022   3.535  17.707 -0.1733 -0.1428  0.1289
  544MPD2    C5 8127   3.960   3.426   0.019  0.2841  0.0275  1.1197
  544MPD2     H 8128   3.986   3.399  17.397 -0.6780  3.0546 -0.0404
  544MPD2    H1 8129   4.051   3.620   0.009  0.6877  0.2468 -0.8511
  544MPD2    H2 8130   3.886   3.226   0.010  1.4895 -0.4307  0.3188
  544MPD2    H3 8131   3.954   3.426   0.127 -2.3486 -0.7809  0.9798
  544MPD2     N 8132   4.081   3.634  17.496 -0.0894 -0.3107  0.2148
  544MPD2    H5 8133   4.097   3.718  17.550 -1.5987 -0.0864  0.3147
  544MPD2    N1 8134   3.871   3.180  17.522 -0.1846 -0.8773  0.4975
  544MPD2    H7 8135   3.850   3.104  17.586 -0.7928 -1.5164 -0.4464
  545TMC3    C1 8136   3.765   3.050  17.343  0.1797  0.2385 -0.4102
  545TMC3    C2 8137   3.728   3.040  17.211  0.0246 -0.6118  0.2651
  545TMC3    C3 8138   3.639   2.943  17.168 -0.3223  0.3404 -0.5821
  545TMC3    C4 8139   3.726   2.949  17.429  0.2903  0.2057 -0.0818
  545TMC3    C5 8140   3.636   2.856  17.385  0.5121  0.5176  0.0364
  545TMC3    C6 8141   3.589   2.856  17.254  0.1511  0.0435 -0.3899
  545TMC3     C 8142   3.856   3.157  17.386  0.4943  0.7655 -0.3377
  545TMC3     O 8143   3.898   3.232  17.300  0.3221  0.4486  0.1883
  545TMC3     H 8144   3.755   3.125  17.148 -0.3557  0.1761  1.1616
  545TMC3    H1 8145   3.772   2.941  17.526  0.4996 -0.5045 -0.2370
  545TMC3    H2 8146   3.514   2.779  17.238  1.2463 -1.2731  0.7785
  545TMC3    C7 8147   3.591   2.760  17.474  0.2272 -0.1494  0.0890
  545TMC3    C8 8148   3.566   2.962  17.044 -0.3785 -0.0839 -0.2200
  545TMC3    O1 8149   3.476   2.720  17.452  0.2443 -0.1298 -0.1797
  545TMC3    O2 8150   3.463   2.897  17.023  0.3124  0.0765 -0.2580
  546MPD2     C 8151   0.854   3.140  17.287 -1.0273 -0.3380 -0.7442
  546MPD2    C1 8152   0.806   3.171  17.166  0.0083  0.1510 -0.1262
  546MPD2    C2 8153   0.842   3.293  17.111 -0.4364  0.1434  0.3334
  546MPD2    C3 8154   0.930   3.381  17.173  0.3373 -0.4600 -0.2256
  546MPD2    C4 8155   0.983   3.343  17.295 -0.0780 -0.0835 -0.1827
  546MPD2    C5 8156   0.951   3.223  17.347  0.4530 -0.2669 -0.1190
  546MPD2     H 8157   0.793   3.327  17.021 -1.4174  0.7112  1.0899
  546MPD2    H1 8158   1.046   3.416  17.345 -0.0660  0.2848 -0.7230
  546MPD2    H2 8159   0.821   3.049  17.337 -0.4386  0.1310  0.4873
  546MPD2    H3 8160   0.990   3.203  17.446 -1.6745 -1.2080  0.5154
  546MPD2     N 8161   0.950   3.515  17.127  0.5482 -0.6027 -0.4858
  546MPD2    H5 8162   0.999   3.577  17.190  0.3282 -1.1369  0.2130
  546MPD2    N1 8163   0.714   3.075  17.112 -0.2978  0.6387 -0.6457
  546MPD2    H7 8164   0.692   2.987  17.159 -1.6802  1.0410 -0.5310
  547TMC3    C1 8165   0.527   3.010  16.989 -0.4797 -0.2036  0.2056
  547TMC3    C2 8166   0.415   3.045  16.916  0.0122 -0.0417  0.1047
  547TMC3    C3 8167   0.314   2.957  16.915  0.2956 -0.1930  0.7640
  547TMC3    C4 8168   0.532   2.899  17.059 -0.9006 -0.2725 -0.4205
  547TMC3    C5 8169   0.421   2.813  17.054  0.1078  0.5730 -0.4533
  547TMC3    C6 8170   0.309   2.839  16.981 -0.2445  0.3893 -0.1910
  547TMC3     C 8171   0.635   3.103  17.005 -0.0018  0.7096 -0.5140
  547TMC3     O 8172   0.636   3.200  16.925 -0.2333 -0.3286  0.5064
  547TMC3     H 8173   0.422   3.121  16.839 -0.9194 -0.3392 -0.2879
  547TMC3    H1 8174   0.632   2.863  17.080 -1.1850 -0.4717  0.5728
  547TMC3    H2 8175   0.216   2.785  16.989 -0.5348  0.6154 -1.8771
  547TMC3    C7 8176   0.398   2.741  17.180 -0.8242 -0.0537  0.5206
  547TMC3    C8 8177   0.222   2.969  16.799 -0.1404 -0.2517 -0.3272
  547TMC3    O1 8178   0.284   2.700  17.192  0.3663 -0.1571 -0.0372
  547TMC3    O2 8179   0.208   3.076  16.736 -0.2209 -0.0488 -0.2681
  548MPD2     C 8180   0.534   3.549  12.718  0.2523  0.1248 -0.5555
  548MPD2    C1 8181   0.488   3.416  12.713  0.7567 -0.1006  0.2528
  548MPD2    C2 8182   0.585   3.315  12.699 -0.4973 -0.3929 -0.5580
  548MPD2    C3 8183   0.721   3.353  12.678  0.3731 -0.1608 -0.0824
  548MPD2    C4 8184   0.758   3.489  12.686 -0.1163  0.0315  0.3411
  548MPD2    C5 8185   0.663   3.585  12.713  0.3119 -0.2901 -0.1777
  548MPD2     H 8186   0.557   3.210  12.689 -0.9570 -0.3918  0.7190
  548MPD2    H1 8187   0.855   3.529  12.660  0.3778 -0.8456  0.8066
  548MPD2    H2 8188   0.474   3.638  12.729  2.8851  1.5955  1.8831
  548MPD2    H3 8189   0.696   3.688  12.720  2.2061 -0.8755 -0.3771
  548MPD2     N 8190   0.809   3.255  12.641 -0.3216  0.7362  0.4915
  548MPD2    H5 8191   0.771   3.168  12.606 -0.4194  0.3979  1.4249
  548MPD2    N1 8192   0.348   3.402  12.738  0.2429  0.2002  0.2640
  548MPD2    H7 8193   0.292   3.486  12.748  1.2093  1.0410 -1.2913
  549TMC3    C1 8194   0.133   3.306  12.758 -0.2556  0.1483 -0.0479
  549TMC3    C2 8195   0.069   3.402  12.689  0.0645  0.2079  0.1871
  549TMC3    C3 8196   4.672   3.386  12.666 -0.7333  0.4568  0.1619
  549TMC3    C4 8197   0.071   3.193  12.799 -0.1248 -0.3426 -0.1117
  549TMC3    C5 8198   4.675   3.184  12.768  0.1114  0.1434  1.0604
  549TMC3    C6 8199   4.602   3.278  12.704  0.5364  0.1409  0.4713
  549TMC3     C 8200   0.277   3.288  12.732  0.5818  0.6603 -0.5850
  549TMC3     O 8201   0.316   3.179  12.693  0.7377  0.1013 -0.4219
  549TMC3     H 8202   0.133   3.448  12.615 -1.3724 -0.5511 -1.5397
  549TMC3    H1 8203   0.113   3.115  12.862  2.2035  0.6400 -0.4529
  549TMC3    H2 8204   4.495   3.274  12.684  0.8989 -0.6248 -1.2840
  549TMC3    C7 8205   4.609   3.059  12.772 -0.1435 -0.5408 -0.1581
  549TMC3    C8 8206   4.599   3.500  12.628 -0.0915  0.3403  1.0045
  549TMC3    O1 8207   4.490   3.055  12.752  0.4087  0.4140  0.5803
  549TMC3    O2 8208   4.484   3.474  12.592  0.7313 -0.5033 -0.3906
  550TMC3    C1 8209   4.298   1.050  12.714 -0.6199 -0.0551 -0.7811
  550TMC3    C2 8210   4.218   1.147  12.748 -0.6616 -0.2264 -0.5019
  550TMC3    C3 8211   4.259   1.278  12.747 -0.5142 -0.1916 -0.1034
  550TMC3    C4 8212   4.421   1.073  12.662  0.4856  0.1589 -0.0940
  550TMC3    C5 8213   4.459   1.208  12.641 -0.4149  0.2750 -0.3823
  550TMC3    C6 8214   4.384   1.308  12.697  0.3404 -0.4834  0.0974
  550TMC3     C 8215   4.213   0.966  12.622 -0.1461 -0.3310 -0.6114
  550TMC3     O 8216   4.114   0.908  12.671  0.2174  0.2308 -0.1310
  550TMC3     H 8217   4.113   1.128  12.764 -0.1380 -3.4001 -0.7155
  550TMC3    H1 8218   4.472   0.986  12.620  2.7202  2.1903 -1.5806
  550TMC3    H2 8219   4.412   1.412  12.696  1.9701 -0.9306  0.2858
  550TMC3    C7 8220   4.495   1.235  12.497 -0.8826 -0.1267  0.0121
  550TMC3    C8 8221   4.168   1.383  12.805  0.3051 -0.4084 -0.1333
  550TMC3    O1 8222   4.464   1.152  12.415 -0.3124  0.4221 -0.4144
  550TMC3    O2 8223   4.199   1.498  12.791 -0.1190 -0.0344 -0.1127
  551TMC3    C1 8224   1.421   4.513  13.180  0.4982  0.3604  0.1096
  551TMC3    C2 8225   1.468   4.599  13.088  0.4051 -0.8110  0.2924
  551TMC3    C3 8226   1.552   4.695  13.135 -0.1683  0.0730  0.2597
  551TMC3    C4 8227   1.431   4.536  13.318  0.3038 -0.0343  0.1450
  551TMC3    C5 8228   1.497   4.648  13.360  0.5516 -0.6704 -0.7694
  551TMC3    C6 8229   1.562   4.731  13.271  0.0002  0.7584  0.5300
  551TMC3     C 8230   1.396   4.382  13.126 -0.1003 -0.8346  1.2032
  551TMC3     O 8231   1.400   4.368  13.005  0.5022  0.1703 -0.3023
  551TMC3     H 8232   1.479   4.567  12.985  1.3870  1.6332 -0.3548
  551TMC3    H1 8233   1.404   4.462  13.392 -0.6817 -0.5071 -0.6822
  551TMC3    H2 8234   1.618   0.076  13.308  0.6567  0.7100 -0.3316
  551TMC3    C7 8235   1.541   4.651  13.496 -0.3156 -0.2602 -0.1733
  551TMC3    C8 8236   1.650   0.014  13.042  0.4581 -0.2642  0.4297
  551TMC3    O1 8237   1.560   4.542  13.551 -0.1946 -0.9418  0.7573
  551TMC3    O2 8238   1.619   0.001  12.923  0.1503 -0.3520 -0.3521
  552MPD2     C 8239   3.383   1.383  13.923  0.3504 -0.3420 -0.0700
  552MPD2    C1 8240   3.393   1.310  14.041  1.0151 -0.4636  0.3872
  552MPD2    C2 8241   3.439   1.363  14.161  0.0695  0.0636 -0.4627
  552MPD2    C3 8242   3.509   1.481  14.161  1.0638 -0.0654  0.2204
  552MPD2    C4 8243   3.525   1.546  14.037  0.6809 -0.7054 -0.0953
  552MPD2    C5 8244   3.442   1.507  13.932  0.1081 -0.3763  0.4842
  552MPD2     H 8245   3.423   1.310  14.254 -2.5112  2.1051  0.2568
  552MPD2    H1 8246   3.576   1.641  14.032 -2.5427  0.9905 -0.8573
  552MPD2    H2 8247   3.326   1.344  13.839  1.9801  0.7115 -1.6791
  552MPD2    H3 8248   3.426   1.576  13.850 -0.3982  1.9110  2.4891
  552MPD2     N 8249   3.583   1.521  14.271 -0.4286  0.3288  0.3711
  552MPD2    H5 8250   3.637   1.606  14.254  0.5314 -0.8342 -2.4161
  552MPD2    N1 8251   3.347   1.181  14.053  0.1699  0.4244  0.4060
  552MPD2    H7 8252   3.358   1.134  14.143  2.5706 -1.4228 -0.8491
  553TMC3    C1 8253   3.260   0.974  14.000 -0.5008  0.3946  0.2111
  553TMC3    C2 8254   3.314   0.871  13.922  0.0753 -0.4958 -0.0108
  553TMC3    C3 8255   3.394   0.780  13.985  0.7514 -0.0060 -0.1717
  553TMC3    C4 8256   3.259   0.956  14.138  0.8263  0.7228  0.0395
  553TMC3    C5 8257   3.358   0.876  14.186 -0.2470  0.3012  1.1366
  553TMC3    C6 8258   3.425   0.778  14.111  0.0024 -0.1166 -0.2023
  553TMC3     C 8259   3.296   1.102  13.957  0.7079 -0.0693 -0.9658
  553TMC3     O 8260   3.282   1.123  13.837  0.1283 -0.3069  1.0166
  553TMC3     H 8261   3.295   0.869  13.815 -1.4650  2.4142  0.2188
  553TMC3    H1 8262   3.212   1.034  14.197  0.6540  1.7853 -1.5068
  553TMC3    H2 8263   3.488   0.697  14.146  1.7157  2.0000  1.6082
  553TMC3    C7 8264   3.416   0.909  14.316  0.0375 -0.4741 -0.0268
  553TMC3    C8 8265   3.472   0.692  13.900 -0.1937 -0.2490  0.7345
  553TMC3    O1 8266   3.341   0.970  14.392  0.5339 -0.1827 -0.2727
  553TMC3    O2 8267   3.590   0.687  13.933  0.4053 -0.6477  0.3034
  554TMC3    C1 8268   0.491   0.556  11.415  0.8349  0.0278  0.1190
  554TMC3    C2 8269   0.413   0.549  11.305  0.3607  0.0959  0.5601
  554TMC3    C3 8270   0.466   0.522  11.182  0.5799 -0.2352 -0.9219
  554TMC3    C4 8271   0.631   0.549  11.390  0.0128 -0.8873  0.3804
  554TMC3    C5 8272   0.680   0.520  11.267  0.3240 -0.3262  0.5302
  554TMC3    C6 8273   0.597   0.504  11.162 -0.1563  0.1035  0.3276
  554TMC3     C 8274   0.432   0.521  11.543  0.2963  0.2002  0.3999
  554TMC3     O 8275   0.315   0.540  11.567  0.6886  0.3000 -0.0680
  554TMC3     H 8276   0.307   0.558  11.323  0.0894  1.8240 -1.9423
  554TMC3    H1 8277   0.699   0.570  11.472 -0.2496  1.4439  0.0232
  554TMC3    H2 8278   0.635   0.458  11.072  2.8739 -1.6279  2.4875
  554TMC3    C7 8279   0.792   0.588  11.218 -0.3059  0.6815  0.2533
  554TMC3    C8 8280   0.394   0.568  11.061 -0.1445  0.2586  0.4968
  554TMC3    O1 8281   0.769   0.652  11.115 -0.0173 -0.2491 -0.1159
  554TMC3    O2 8282   0.460   0.593  10.959  0.6191 -0.0976 -0.8198
  555TMC3    C1 8283   4.146   0.500  15.378  0.0315 -0.1532  0.2029
  555TMC3    C2 8284   4.244   0.565  15.439 -0.0646 -0.2445 -0.3027
  555TMC3    C3 8285   4.340   0.487  15.489  0.2083 -0.2049  0.6940
  555TMC3    C4 8286   4.117   0.366  15.394 -0.6536 -0.0249 -0.1710
  555TMC3    C5 8287   4.216   0.298  15.457 -1.1294 -0.1644  0.1467
  555TMC3    C6 8288   4.329   0.352  15.500 -0.9939  0.4780 -0.1917
  555TMC3     C 8289   4.056   0.584  15.296 -0.2775 -0.1832  1.4219
  555TMC3     O 8290   4.024   0.695  15.329 -0.1441 -0.1748 -0.1292
  555TMC3     H 8291   4.254   0.672  15.425 -1.0277 -0.1872 -0.5808
  555TMC3    H1 8292   4.028   0.319  15.354 -0.4584 -0.5696  0.0331
  555TMC3    H2 8293   4.410   0.302  15.550 -0.7562  0.6932 -0.3642
  555TMC3    C7 8294   4.195   0.151  15.456 -0.5493  0.5171  0.3465
  555TMC3    C8 8295   4.470   0.545  15.517 -0.1565 -0.5442  0.7219
  555TMC3    O1 8296   4.141   0.102  15.360  0.3377  0.0799 -0.1994
  555TMC3    O2 8297   4.468   0.656  15.566 -0.4187  0.0437  0.0079
  556MPD2     C 8298   2.916   1.372  10.584 -0.0186 -0.3487 -0.3820
  556MPD2    C1 8299   2.928   1.250  10.645 -0.2092 -0.4721  0.4458
  556MPD2    C2 8300   2.926   1.133  10.569  0.0507  0.3079 -0.1600
  556MPD2    C3 8301   2.896   1.138  10.434 -0.0212  0.4475  0.1346
  556MPD2    C4 8302   2.876   1.264  10.374  0.8662  0.6070 -0.1908
  556MPD2    C5 8303   2.891   1.378  10.451  0.4919  0.3018  0.2661
  556MPD2     H 8304   2.946   1.039  10.619 -0.2071  0.4090  0.1301
  556MPD2    H1 8305   2.856   1.279  10.268  0.9995 -0.4467 -0.3626
  556MPD2    H2 8306   2.918   1.469  10.633 -0.5673 -0.9172  0.7739
  556MPD2    H3 8307   2.882   1.474  10.402 -3.1028 -0.3100 -0.2679
  556MPD2     N 8308   2.890   1.019  10.365  0.6699  0.3561 -0.0645
  556MPD2    H5 8309   2.920   0.936  10.416  0.5695 -0.1639 -0.8461
  556MPD2    N1 8310   2.950   1.230  10.781  0.1713 -0.2150 -0.2745
  556MPD2    H7 8311   2.952   1.135  10.816 -3.0955 -0.4347 -0.6802
  557TMC3    C1 8312   2.838   0.862  10.212 -0.0953  0.1591 -0.1107
  557TMC3    C2 8313   2.821   0.824  10.079  0.6542  0.0071 -0.9910
  557TMC3    C3 8314   2.794   0.693  10.048 -0.4360  0.8297 -0.2457
  557TMC3    C4 8315   2.820   0.770  10.314  0.0140 -0.6123 -0.2158
  557TMC3    C5 8316   2.795   0.639  10.270 -0.2347  0.2766  0.7453
  557TMC3    C6 8317   2.778   0.595  10.139 -0.7949 -0.5772 -0.5767
  557TMC3     C 8318   2.848   1.001  10.235 -0.1323  0.1619 -0.3648
  557TMC3     O 8319   2.806   1.081  10.156 -0.0534  0.3580 -0.0130
  557TMC3     H 8320   2.815   0.904  10.006  1.4690 -0.8921 -2.0431
  557TMC3    H1 8321   2.813   0.787  10.421  2.9651  1.3540 -0.3349
  557TMC3    H2 8322   2.777   0.487  10.126 -1.0775 -0.5365 -0.8950
  557TMC3    C7 8323   2.778   0.542  10.372  0.7569  0.6163 -0.0306
  557TMC3    C8 8324   2.785   0.652   9.907  0.1214  0.2534 -0.1230
  557TMC3    O1 8325   2.707   0.441  10.356 -0.3079  0.1079 -0.4551
  557TMC3    O2 8326   2.823   0.737   9.826  0.1744 -0.7493  0.3970
  558TMC3    C1 8327   0.419   3.811  10.208 -0.0810 -0.2840 -0.1100
  558TMC3    C2 8328   0.287   3.831  10.227  0.0672 -0.2503 -0.2736
  558TMC3    C3 8329   0.201   3.733  10.178  0.0150 -0.3593  0.1502
  558TMC3    C4 8330   0.470   3.696  10.152 -0.1010  0.2958  0.1160
  558TMC3    C5 8331   0.379   3.605  10.105 -0.5512  0.0274  0.2867
  558TMC3    C6 8332   0.246   3.619  10.128 -0.1974 -0.0492  0.0523
  558TMC3     C 8333   0.511   3.915  10.250  0.2010 -0.3852 -0.2503
  558TMC3     O 8334   0.624   3.900  10.212  0.4845 -0.2377 -0.3940
  558TMC3     H 8335   0.252   3.930  10.254  1.5919  0.1631  0.1821
  558TMC3    H1 8336   0.575   3.671  10.145  0.2822  1.9855  0.0158
  558TMC3    H2 8337   0.172   3.544  10.104  0.1646 -0.5894  0.6369
  558TMC3    C7 8338   0.428   3.483  10.033  0.2178  0.0504  0.9315
  558TMC3    C8 8339   0.053   3.750  10.190 -0.1299 -0.5259  0.2662
  558TMC3    O1 8340   0.548   3.458  10.034  0.1866 -0.5755 -0.4203
  558TMC3    O2 8341   4.723   3.707  10.099 -0.1417  0.4219 -0.1135
  559MPD2     C 8342   0.402   0.268  10.316 -0.0297  0.0467  0.5557
  559MPD2    C1 8343   0.300   0.202  10.385 -0.5466 -0.0407  0.2817
  559MPD2    C2 8344   0.345   0.118  10.486  0.1020 -0.6530 -0.0273
  559MPD2    C3 8345   0.477   0.084  10.501  0.5637  0.0632  0.2212
  559MPD2    C4 8346   0.573   0.134  10.414  0.5205 -0.0255 -0.0377
  559MPD2    C5 8347   0.534   0.223  10.326  0.1732  0.4350 -0.7228
  559MPD2     H 8348   0.281   0.082  10.566 -0.0543  0.6668  0.4496
  559MPD2    H1 8349   0.679   0.108  10.415  0.4667 -0.0787  2.5943
  559MPD2    H2 8350   0.375   0.343  10.243  0.3815  0.7946  1.1824
  559MPD2    H3 8351   0.610   0.242  10.251 -0.3493  0.4200 -1.2599
  559MPD2     N 8352   0.517   4.737  10.602  0.3864  0.2000  0.2082
  559MPD2    H5 8353   0.448   4.712  10.671  0.9623  1.4090  1.2186
  559MPD2    N1 8354   0.165   0.241  10.363  0.1327 -0.0064 -0.9709
  559MPD2    H7 8355   0.140   0.308  10.291 -2.4942 -0.2002 -0.2571
  560TMC3    C1 8356   0.663   4.609  10.746  0.1785  0.6275 -0.4817
  560TMC3    C2 8357   0.544   4.561  10.805 -0.3119 -0.5886 -0.2654
  560TMC3    C3 8358   0.552   4.478  10.917  0.1009 -0.4577 -0.9375
  560TMC3    C4 8359   0.790   4.553  10.786  0.2725  1.1099  0.1389
  560TMC3    C5 8360   0.789   4.466  10.890  0.4366 -0.3403  0.1577
  560TMC3    C6 8361   0.679   4.442  10.961  0.0601  0.2904  0.1671
  560TMC3     C 8362   0.651   4.686  10.622 -0.7199  0.1543  0.7083
  560TMC3     O 8363   0.754   4.700  10.558  0.3760 -0.2034  0.0879
  560TMC3     H 8364   0.445   4.587  10.770  0.9948  1.9986 -2.0947
  560TMC3    H1 8365   0.871   4.564  10.716  0.5569  4.5431  1.0203
  560TMC3    H2 8366   0.686   4.390  11.056 -1.7640  0.7021  0.5259
  560TMC3    C7 8367   0.911   4.411  10.942  0.0109 -0.5525 -0.2387
  560TMC3    C8 8368   0.434   4.408  10.960 -0.4285  0.0936  0.4303
  560TMC3    O1 8369   0.902   4.308  11.012 -0.1406 -0.1926 -0.3278
  560TMC3    O2 8370   0.359   4.378  10.874 -0.3545 -0.0951 -0.2039
  561TMC3    C1 8371   3.067   3.897  10.742 -0.0628 -0.1683  0.2113
  561TMC3    C2 8372   3.002   3.815  10.831  0.2424 -0.3659 -0.1800
  561TMC3    C3 8373   2.942   3.877  10.937  0.6070 -0.3049  0.7720
  561TMC3    C4 8374   3.077   4.035  10.760 -0.0488 -0.3513 -0.8883
  561TMC3    C5 8375   3.033   4.086  10.880  0.6185 -0.5019 -0.1777
  561TMC3    C6 8376   2.968   4.007  10.973  0.1421 -0.3462  0.0632
  561TMC3     C 8377   3.151   3.837  10.644 -0.4331  0.4395  0.0055
  561TMC3     O 8378   3.105   3.762  10.563  0.3747 -0.3476 -0.2244
  561TMC3     H 8379   3.010   3.709  10.810  0.6299 -0.9453  2.8524
  561TMC3    H1 8380   3.134   4.085  10.683 -0.4004 -0.7760 -1.4154
  561TMC3    H2 8381   2.910   4.050  11.054  0.8394 -0.9587  0.8861
  561TMC3    C7 8382   3.065   4.214  10.924  0.7409 -0.3823  0.1845
  561TMC3    C8 8383   2.898   3.780  11.042 -0.5623 -0.6261 -0.2304
  561TMC3    O1 8384   3.033   4.256  11.035 -0.6736  0.1228  0.5350
  561TMC3    O2 8385   2.900   3.661  11.013 -0.0815 -0.2482 -0.1335
  562TMC3    C1 8386   4.311   0.502  16.331 -0.5965 -0.1756  0.6233
  562TMC3    C2 8387   4.292   0.638  16.330  0.0261 -0.2424  0.9206
  562TMC3    C3 8388   4.219   0.688  16.222  0.0829  0.3370  0.2839
  562TMC3    C4 8389   4.260   0.413  16.247 -0.2804  0.0301 -0.2441
  562TMC3    C5 8390   4.189   0.471  16.145 -0.2875 -0.2215  0.0182
  562TMC3    C6 8391   4.167   0.606  16.124  0.0313 -0.2394  0.9433
  562TMC3     C 8392   4.414   0.438  16.418 -1.0075 -0.5440 -0.0948
  562TMC3     O 8393   4.474   0.342  16.384  0.2195  0.1550 -0.6929
  562TMC3     H 8394   4.343   0.707  16.396  0.6903  1.1177 -0.9846
  562TMC3    H1 8395   4.271   0.305  16.253  0.4767  0.0159 -1.8610
  562TMC3    H2 8396   4.106   0.637  16.040 -2.0242 -2.5556  1.5847
  562TMC3    C7 8397   4.118   0.378  16.060  0.0370  0.3247  0.5214
  562TMC3    C8 8398   4.176   0.829  16.223 -0.3990  0.0021  0.2137
  562TMC3    O1 8399   4.025   0.416  15.994 -0.3880  0.0897 -0.5397
  562TMC3    O2 8400   4.196   0.893  16.324  0.3028  0.3890 -0.0590
  563MPD2     C 8401   1.739   2.162  15.628  0.0773 -0.1799  0.2780
  563MPD2    C1 8402   1.804   2.167  15.750 -0.3975 -1.1989  0.3669
  563MPD2    C2 8403   1.922   2.091  15.770 -0.0450  0.3549 -0.2146
  563MPD2    C3 8404   1.972   2.001  15.675  0.2557  0.2138  0.2299
  563MPD2    C4 8405   1.892   1.980  15.563 -0.4523  0.0747  0.5450
  563MPD2    C5 8406   1.782   2.063  15.544 -0.2417  0.1919 -0.7269
  563MPD2     H 8407   1.978   2.107  15.861 -2.4552 -0.4556  1.3848
  563MPD2    H1 8408   1.919   1.921  15.476 -1.6516  0.3500 -0.0163
  563MPD2    H2 8409   1.663   2.233  15.598 -1.3764 -1.6248  0.5328
  563MPD2    H3 8410   1.738   2.060  15.445  0.4163  0.3414 -1.0275
  563MPD2     N 8411   2.083   1.922  15.718  0.4709 -0.2147 -0.0233
  563MPD2    H5 8412   2.105   1.944  15.814  2.1757  1.5470 -0.7984
  563MPD2    N1 8413   1.772   2.252  15.861 -0.3647 -0.8961  0.2748
  563MPD2    H7 8414   1.839   2.250  15.938 -0.0515  0.2505  0.0201
  564TMC3    C1 8415   1.629   2.385  15.987  0.0682 -0.2583  0.3523
  564TMC3    C2 8416   1.504   2.349  16.044  0.2063  0.3012  0.0229
  564TMC3    C3 8417   1.496   2.345  16.178 -0.3876 -0.2311  0.3858
  564TMC3    C4 8418   1.739   2.409  16.067 -0.7247 -0.8642 -0.2980
  564TMC3    C5 8419   1.722   2.411  16.198 -0.4353 -0.3491 -0.3134
  564TMC3    C6 8420   1.599   2.387  16.256 -0.2613  0.2592 -0.2100
  564TMC3     C 8421   1.652   2.325  15.860 -0.1645 -0.6203 -0.5202
  564TMC3     O 8422   1.550   2.314  15.789  0.9336  1.1277 -0.2422
  564TMC3     H 8423   1.418   2.318  15.986  0.8429  0.0561 -0.7850
  564TMC3    H1 8424   1.835   2.440  16.029 -0.7443  0.9521  1.1584
  564TMC3    H2 8425   1.592   2.367  16.362  0.0917  0.5232 -0.1377
  564TMC3    C7 8426   1.840   2.395  16.290 -0.7604 -0.3610  0.0734
  564TMC3    C8 8427   1.448   2.227  16.239 -0.0094  0.5535  0.6140
  564TMC3    O1 8428   1.834   2.303  16.362  0.5168 -0.4074  0.1111
  564TMC3    O2 8429   1.530   2.136  16.260 -0.1865 -0.2491  0.2870
  565TMC3    C1 8430   2.212   2.361  10.824  0.7942  0.5122  0.2200
  565TMC3    C2 8431   2.298   2.391  10.927 -0.2361 -0.1425 -0.0800
  565TMC3    C3 8432   2.242   2.403  11.047  1.3444  0.1597  0.9500
  565TMC3    C4 8433   2.080   2.344  10.836 -0.9226  0.6941  0.1786
  565TMC3    C5 8434   2.028   2.356  10.963  0.2415  0.5847  0.3785
  565TMC3    C6 8435   2.106   2.394  11.068 -0.3875 -0.0527 -0.5357
  565TMC3     C 8436   2.270   2.347  10.693  0.2556  0.1482  0.7275
  565TMC3     O 8437   2.381   2.389  10.677  0.2850 -0.6863 -0.1851
  565TMC3     H 8438   2.405   2.385  10.913 -0.3181 -0.3363 -0.6312
  565TMC3    H1 8439   2.017   2.322  10.751 -1.3870 -2.6803  1.4019
  565TMC3    H2 8440   2.053   2.426  11.157 -1.3948 -1.4652 -0.6185
  565TMC3    C7 8441   1.887   2.346  10.986  0.1014  0.3531  0.4427
  565TMC3    C8 8442   2.334   2.392  11.163 -0.8797  0.2623 -0.6053
  565TMC3    O1 8443   1.855   2.297  11.093  0.2368 -0.6876 -0.6001
  565TMC3    O2 8444   2.454   2.379  11.143  0.2743  0.0495 -0.0359
  566MPD2     C 8445   3.663   4.189  13.980 -0.3039 -0.0336 -0.4306
  566MPD2    C1 8446   3.724   4.310  13.984  0.1791 -0.4754  0.0533
  566MPD2    C2 8447   3.685   4.406  13.896  0.6402 -0.1076  0.3395
  566MPD2    C3 8448   3.586   4.371  13.802 -0.4633  0.3450  0.5979
  566MPD2    C4 8449   3.508   4.252  13.805  0.7259  0.4186 -0.2798
  566MPD2    C5 8450   3.557   4.160  13.891  0.7235 -0.4790  0.5373
  566MPD2     H 8451   3.737   4.501  13.896  0.4614 -0.0295 -2.6072
  566MPD2    H1 8452   3.432   4.233  13.730  0.5287 -1.1467  0.3153
  566MPD2    H2 8453   3.691   4.109  14.048 -0.8918  2.5204  2.8267
  566MPD2    H3 8454   3.518   4.059  13.892 -1.5320  0.3881 -1.5668
  566MPD2     N 8455   3.565   4.450  13.691  0.2438 -0.1007 -0.2420
  566MPD2    H5 8456   3.476   4.436  13.644  0.4014 -3.2647  0.4308
  566MPD2    N1 8457   3.842   4.311  14.065 -0.0453 -0.6245  0.2453
  566MPD2    H7 8458   3.843   4.231  14.128  1.5717 -0.6956  0.1290
  567TMC3    C1 8459   4.053   4.376  14.140 -0.7561 -0.4264 -0.2344
  567TMC3    C2 8460   4.169   4.429  14.104  0.1824 -0.0868 -0.5872
  567TMC3    C3 8461   4.276   4.427  14.192 -0.7087  0.8374 -0.2299
  567TMC3    C4 8462   4.045   4.303  14.259  0.7536  0.0277 -0.4937
  567TMC3    C5 8463   4.155   4.300  14.343 -0.1356  0.0462  0.1584
  567TMC3    C6 8464   4.275   4.362  14.310 -0.0427  1.2480  0.0092
  567TMC3     C 8465   3.933   4.408  14.064 -0.6540  0.7512  0.7311
  567TMC3     O 8466   3.930   4.513  14.000 -0.0056 -0.5862 -0.0021
  567TMC3     H 8467   4.180   4.470  14.004  2.5912  1.9721  0.5068
  567TMC3    H1 8468   3.951   4.258  14.288  0.2559  0.6599 -1.1313
  567TMC3    H2 8469   4.367   4.351  14.367  0.2753 -0.3456 -0.8162
  567TMC3    C7 8470   4.104   4.348  14.469  1.0249  0.6828  0.7092
  567TMC3    C8 8471   4.365   4.541  14.167  0.2112  0.1159  0.2231
  567TMC3    O1 8472   3.993   4.326  14.510 -0.0940 -0.4869  0.1476
  567TMC3    O2 8473   4.362   4.584  14.052  0.3093 -0.5751  0.8089
  568MPD2     C 8474   1.660   0.956  16.320  0.1497  0.1290  0.1797
  568MPD2    C1 8475   1.612   0.934  16.446  0.3818 -0.0221  0.0301
  568MPD2    C2 8476   1.573   1.039  16.526 -0.8679 -0.0796 -0.3053
  568MPD2    C3 8477   1.562   1.170  16.481 -0.1746 -0.0386 -0.4212
  568MPD2    C4 8478   1.612   1.195  16.356  0.0797  0.3721 -0.4072
  568MPD2    C5 8479   1.657   1.090  16.283  0.5035 -0.0715 -0.2054
  568MPD2     H 8480   1.540   1.018  16.627  0.1102  0.8078  0.1950
  568MPD2    H1 8481   1.580   1.286  16.308 -0.4785 -0.3226 -1.3618
  568MPD2    H2 8482   1.704   0.880  16.257  2.9169  0.2250  2.0023
  568MPD2    H3 8483   1.684   1.112  16.181  1.7642 -2.6060 -0.4189
  568MPD2     N 8484   1.528   1.270  16.573  0.9478 -0.2138  0.5331
  568MPD2    H5 8485   1.521   1.242  16.671 -1.4550 -0.5565  0.2793
  568MPD2    N1 8486   1.627   0.802  16.501  0.0581  0.3158 -0.4187
  568MPD2    H7 8487   1.667   0.728  16.444  1.1917  1.7011 -1.4233
  569TMC3    C1 8488   1.472   1.501  16.637  0.1776  0.3136 -0.1167
  569TMC3    C2 8489   1.509   1.474  16.771  0.9816 -0.5664 -0.1036
  569TMC3    C3 8490   1.468   1.558  16.870 -0.7010 -0.0127 -0.1065
  569TMC3    C4 8491   1.416   1.619  16.601 -0.1593 -0.1193 -0.1816
  569TMC3    C5 8492   1.372   1.697  16.706  0.5754 -0.0052 -0.0919
  569TMC3    C6 8493   1.394   1.666  16.837 -0.2403  0.0323 -0.2901
  569TMC3     C 8494   1.511   1.405  16.533 -0.1573 -0.3400  0.5356
  569TMC3     O 8495   1.535   1.465  16.428 -0.0796 -0.5497  0.2824
  569TMC3     H 8496   1.575   1.390  16.790  0.8597 -0.6684 -0.1267
  569TMC3    H1 8497   1.390   1.640  16.498 -1.2819  1.4227  0.4214
  569TMC3    H2 8498   1.332   1.720  16.908 -1.7328 -0.8241 -0.9634
  569TMC3    C7 8499   1.261   1.787  16.679 -0.5163  0.6662 -0.2129
  569TMC3    C8 8500   1.524   1.537  17.002  0.3810  0.4515  0.2459
  569TMC3    O1 8501   1.158   1.776  16.740  0.1171 -0.0284 -0.5506
  569TMC3    O2 8502   1.586   1.432  17.019  0.1922 -0.3154  0.6837
  570TMC3    C1 8503   0.653   4.014  16.049 -0.0414 -0.3673 -0.2850
  570TMC3    C2 8504   0.753   4.000  15.959  0.0676  0.0148 -0.1736
  570TMC3    C3 8505   0.808   4.122  15.915 -0.2706  0.1365 -0.0661
  570TMC3    C4 8506   0.611   4.137  16.101 -0.6420 -0.1335 -0.2244
  570TMC3    C5 8507   0.658   4.257  16.046 -0.2275  0.6232  0.2063
  570TMC3    C6 8508   0.762   4.248  15.952 -0.1232 -0.0994 -0.3570
  570TMC3     C 8509   0.562   3.899  16.067  0.1141  0.0223 -0.5616
  570TMC3     O 8510   0.540   3.834  15.967  0.1477 -0.4692  0.4362
  570TMC3     H 8511   0.788   3.902  15.929 -0.6153 -0.4195  0.4626
  570TMC3    H1 8512   0.522   4.139  16.163 -1.1930  2.4908 -1.1146
  570TMC3    H2 8513   0.797   4.334  15.896  0.7858  1.1935  2.2220
  570TMC3    C7 8514   0.646   4.378  16.129 -0.2112  0.4205  0.8491
  570TMC3    C8 8515   0.910   4.127  15.816 -0.0627 -0.3033  0.2967
  570TMC3    O1 8516   0.588   4.370  16.235  0.1514 -0.0528 -0.5325
  570TMC3    O2 8517   0.979   4.227  15.836 -0.1145 -0.2180  0.0969
  571MPD2     C 8518   2.823   1.790   0.741 -0.1231 -0.1867  0.5093
  571MPD2    C1 8519   2.860   1.897   0.815 -0.2300 -0.3857 -0.6918
  571MPD2    C2 8520   2.960   1.983   0.762  0.1573 -0.2193  0.5754
  571MPD2    C3 8521   3.026   1.956   0.641  0.4932 -0.4811  0.4168
  571MPD2    C4 8522   2.995   1.840   0.573 -0.7022  0.1066 -0.0203
  571MPD2    C5 8523   2.895   1.755   0.626 -1.1106  0.1463  0.2154
  571MPD2     H 8524   2.993   2.068   0.820 -1.6446  0.1204  1.1204
  571MPD2    H1 8525   3.040   1.810   0.479  0.2445 -1.3180  0.8968
  571MPD2    H2 8526   2.744   1.720   0.770 -0.0387  0.2408  1.7870
  571MPD2    H3 8527   2.868   1.671   0.563 -1.0247  0.4853 -0.2712
  571MPD2     N 8528   3.137   2.033   0.592  0.5942 -0.1021  0.1461
  571MPD2    H5 8529   3.200   1.995   0.521  0.0922  0.3638 -0.5427
  571MPD2    N1 8530   2.803   1.924   0.940 -0.3450 -0.3543 -0.0730
  571MPD2    H7 8531   2.716   1.883   0.974 -0.1947  0.4959  1.3489
  572TMC3    C1 8532   3.285   2.201   0.605 -0.3338 -0.6369  0.0473
  572TMC3    C2 8533   3.378   2.139   0.684  0.8594 -0.1600 -0.1623
  572TMC3    C3 8534   3.509   2.185   0.674 -0.3662 -0.8635  0.4578
  572TMC3    C4 8535   3.315   2.303   0.516 -0.0166 -0.2473  0.4685
  572TMC3    C5 8536   3.449   2.343   0.509  0.4492 -0.2276 -0.3864
  572TMC3    C6 8537   3.549   2.286   0.586 -0.2521 -0.8127 -0.1782
  572TMC3     C 8538   3.154   2.169   0.626 -0.5614  0.1437  0.0613
  572TMC3     O 8539   3.075   2.251   0.666  0.5080 -0.5628 -0.6215
  572TMC3     H 8540   3.349   2.082   0.771 -0.1766  0.3891 -0.1399
  572TMC3    H1 8541   3.232   2.359   0.475  0.6478  0.2546 -0.1919
  572TMC3    H2 8542   3.650   2.326   0.592  0.4309 -2.8140  1.8008
  572TMC3    C7 8543   3.473   2.462   0.421 -0.4838  0.0341  0.3572
  572TMC3    C8 8544   3.600   2.172   0.784  0.3605  0.8406 -0.8503
  572TMC3    O1 8545   3.387   2.549   0.420 -0.1234  0.1069  0.0602
  572TMC3    O2 8546   3.719   2.188   0.755  0.7531  0.8110  0.4265
  573MPD2     C 8547   4.603   2.075   0.775 -0.2293 -0.1982  0.3793
  573MPD2    C1 8548   4.465   2.059   0.764  0.0582 -0.1008  0.4378
  573MPD2    C2 8549   4.401   2.066   0.642 -0.8542  0.0424  0.7676
  573MPD2    C3 8550   4.486   2.092   0.529 -0.5482  0.6213  0.0917
  573MPD2    C4 8551   4.621   2.115   0.548 -0.0921 -0.3765 -0.6272
  573MPD2    C5 8552   4.685   2.098   0.668 -0.6771 -0.0173  0.0518
  573MPD2     H 8553   4.293   2.059   0.636 -0.7950 -1.8288  1.8589
  573MPD2    H1 8554   4.691   2.136   0.469  0.3638  0.0980 -0.0955
  573MPD2    H2 8555   4.651   2.065   0.872 -3.2969 -0.6302  1.8707
  573MPD2    H3 8556   0.050   2.119   0.687 -0.7545 -0.2944  0.7882
  573MPD2     N 8557   4.444   2.103   0.397 -0.5359  0.5138 -0.4874
  573MPD2    H5 8558   4.520   2.131   0.336 -0.5530  3.9561  1.1252
  573MPD2    N1 8559   4.391   2.049   0.883  0.5303 -0.3696 -0.1230
  573MPD2    H7 8560   4.442   2.067   0.969 -0.2716 -2.2469  0.7380
  574TMC3    C1 8561   4.291   2.139   0.213 -0.1015 -0.1288  0.2598
  574TMC3    C2 8562   4.160   2.172   0.194  0.2427 -1.0025 -0.0323
  574TMC3    C3 8563   4.127   2.213   0.071  1.0883  0.4978 -0.1462
  574TMC3    C4 8564   4.393   2.158   0.122 -0.1956  0.4669  0.2190
  574TMC3    C5 8565   4.352   2.195  17.755  0.8157  0.2365  0.0088
  574TMC3    C6 8566   4.221   2.225  17.727  0.0537  0.4938 -0.3025
  574TMC3     C 8567   4.313   2.098   0.356 -0.0502  0.1899 -0.2686
  574TMC3     O 8568   4.221   2.051   0.425 -0.1713  0.1791 -1.2257
  574TMC3     H 8569   4.094   2.187   0.279 -0.1522 -2.3174 -0.1139
  574TMC3    H1 8570   4.497   2.136   0.144 -1.2470 -1.6804  3.0029
  574TMC3    H2 8571   4.191   2.258  17.628 -2.6672  0.2190  0.4463
  574TMC3    C7 8572   4.458   2.212  17.655 -0.7275  0.0287 -0.2093
  574TMC3    C8 8573   3.984   2.243   0.054  0.3671 -0.2037 -0.4725
  574TMC3    O1 8574   4.574   2.229  17.688  0.2767 -0.1338  0.4287
  574TMC3    O2 8575   3.917   2.185   0.136  0.0192 -0.5530 -0.3657
  575TMC3    C1 8576   2.859   1.792  11.516  0.4817  0.1240 -0.0571
  575TMC3    C2 8577   2.905   1.733  11.402 -0.2239 -0.0286  0.0277
  575TMC3    C3 8578   2.869   1.781  11.279  0.0358 -0.1328  0.2507
  575TMC3    C4 8579   2.770   1.892  11.514 -0.5909  0.1463  0.4894
  575TMC3    C5 8580   2.738   1.944  11.391  0.3680  0.1816 -0.2391
  575TMC3    C6 8581   2.795   1.893  11.273  0.3003  0.2601  0.2196
  575TMC3     C 8582   2.882   1.739  11.647 -0.2116 -0.2814  0.2168
  575TMC3     O 8583   2.792   1.748  11.728 -0.4444 -0.1463 -0.3359
  575TMC3     H 8584   2.972   1.649  11.413  0.1970  0.1860 -0.9233
  575TMC3    H1 8585   2.736   1.945  11.603 -3.0628 -1.3285  0.4213
  575TMC3    H2 8586   2.750   1.922  11.178 -1.2565 -0.6493  0.6737
  575TMC3    C7 8587   2.660   2.063  11.377 -0.5441 -0.1087  0.0962
  575TMC3    C8 8588   2.839   1.667  11.190 -0.0500  0.3157 -0.3227
  575TMC3    O1 8589   2.639   2.097  11.262  0.1312  0.1877 -0.1493
  575TMC3    O2 8590   2.818   1.561  11.250 -0.3847  0.6886 -0.2712
  576MPD2     C 8591   2.695   4.118  12.463  0.0671 -0.5228 -0.4381
  576MPD2    C1 8592   2.658   4.211  12.366  0.7404  0.5699 -0.2163
  576MPD2    C2 8593   2.665   4.343  12.404 -0.3060  0.4662 -0.3077
  576MPD2    C3 8594   2.725   4.385  12.525  0.7377 -0.5984  0.3729
  576MPD2    C4 8595   2.766   4.294  12.617  0.4564  0.0308  0.7111
  576MPD2    C5 8596   2.749   4.162  12.585 -0.1907 -1.4161 -0.1725
  576MPD2     H 8597   2.627   4.410  12.327 -2.6776  1.2275  1.5422
  576MPD2    H1 8598   2.806   4.309  12.717 -0.8784  0.7148  1.1467
  576MPD2    H2 8599   2.702   4.012  12.443 -1.1329 -0.7749  0.4322
  576MPD2    H3 8600   2.795   4.095  12.656  3.9875  0.0801 -1.4607
  576MPD2     N 8601   2.745   4.524  12.543 -0.3560 -0.3631 -0.1633
  576MPD2    H5 8602   2.712   4.578  12.464  1.6534  0.0629 -0.7247
  576MPD2    N1 8603   2.618   4.179  12.238  0.4267  0.2325 -0.2433
  576MPD2    H7 8604   2.578   4.257  12.186  1.1820 -0.9766 -2.6085
  577TMC3    C1 8605   2.580   4.061  12.036 -0.0245  0.7844  0.0515
  577TMC3    C2 8606   2.631   3.963  11.952 -0.5741  0.8739  0.4139
  577TMC3    C3 8607   2.601   3.971  11.822 -0.1278 -0.0868 -0.4471
  577TMC3    C4 8608   2.522   4.176  11.983 -0.4376  0.4698 -0.6795
  577TMC3    C5 8609   2.503   4.178  11.845 -0.1020 -0.0129 -0.7542
  577TMC3    C6 8610   2.537   4.079  11.762  0.1677 -0.1006 -0.2137
  577TMC3     C 8611   2.619   4.055  12.175  0.2101  0.0176 -1.2639
  577TMC3     O 8612   2.664   3.950  12.217  0.1023  0.0639  0.2337
  577TMC3     H 8613   2.688   3.881  11.992  0.1582  1.2385  0.1279
  577TMC3    H1 8614   2.460   4.243  12.042 -1.5387 -2.0958  1.0838
  577TMC3    H2 8615   2.520   4.085  11.655  2.0521 -0.4694 -0.5389
  577TMC3    C7 8616   2.409   4.276  11.794 -0.6233  0.1919 -0.1719
  577TMC3    C8 8617   2.638   3.852  11.742  0.2149 -0.3909  0.3996
  577TMC3    O1 8618   2.345   4.348  11.866  0.2446 -0.3252 -0.2117
  577TMC3    O2 8619   2.658   3.745  11.793 -0.0956  1.0850  0.6133
  578MPD2     C 8620   0.173   4.703   0.872 -0.3065  0.0749 -0.6705
  578MPD2    C1 8621   0.193   4.581   0.800 -1.4190 -0.1483  0.0927
  578MPD2    C2 8622   0.260   4.482   0.867  0.9842  0.6987  0.5762
  578MPD2    C3 8623   0.298   4.506   0.994  0.1508 -0.2451 -0.9477
  578MPD2    C4 8624   0.274   4.620   1.059  0.1642 -0.5056 -0.7273
  578MPD2    C5 8625   0.215   4.725   0.997  0.5845  0.3077  0.4258
  578MPD2     H 8626   0.280   4.388   0.816 -1.7442  0.2275  0.3661
  578MPD2    H1 8627   0.306   4.645   1.160 -1.6128  1.9483 -0.7602
  578MPD2    H2 8628   0.118   0.044   0.825 -0.7073 -0.8942 -1.8615
  578MPD2    H3 8629   0.209   0.083   1.044  0.4260  0.5390 -0.0762
  578MPD2     N 8630   0.384   4.412   1.059  0.0288  0.2025  0.5125
  578MPD2    H5 8631   0.400   4.326   1.007 -1.1704  1.1254 -1.3709
  578MPD2    N1 8632   0.157   4.569   0.665  0.0039  0.8480 -0.4860
  578MPD2    H7 8633   0.138   4.655   0.614  0.4298  1.9588  1.2198
  579TMC3    C1 8634   0.570   4.330   1.193  0.5431  0.8361 -0.1300
  579TMC3    C2 8635   0.678   4.379   1.262  0.2557 -0.7094  0.6426
  579TMC3    C3 8636   0.801   4.351   1.225  0.0928 -0.0110 -0.2808
  579TMC3    C4 8637   0.581   4.235   1.094  0.6402  0.2923  0.2695
  579TMC3    C5 8638   0.708   4.196   1.058 -0.0018 -0.0265  0.1659
  579TMC3    C6 8639   0.812   4.258   1.122 -0.2778  0.3890 -0.1318
  579TMC3     C 8640   0.458   4.426   1.177 -0.5973  0.6487 -0.0351
  579TMC3     O 8641   0.467   4.520   1.254  0.0815 -0.3354  0.6813
  579TMC3     H 8642   0.661   4.436   1.352  0.6372 -0.2072  0.3967
  579TMC3    H1 8643   0.489   4.193   1.056  1.5111 -1.0600 -0.3400
  579TMC3    H2 8644   0.911   4.217   1.102 -0.6851 -0.6788  0.0623
  579TMC3    C7 8645   0.734   4.078   0.983 -0.4842  0.3184 -0.3321
  579TMC3    C8 8646   0.917   4.429   1.255  0.2010  0.5059 -0.1292
  579TMC3    O1 8647   0.846   4.031   0.990  0.8167 -0.0530 -0.4655
  579TMC3    O2 8648   0.911   4.479   1.366  0.2307  0.1384  0.3703
  580TMC3    C1 8649   0.425   3.550  12.365 -0.7160 -0.3518 -0.1179
  580TMC3    C2 8650   0.532   3.638  12.359  0.0070 -0.3850 -0.6562
  580TMC3    C3 8651   0.656   3.590  12.333 -0.2459  0.4312  0.5150
  580TMC3    C4 8652   0.450   3.411  12.370 -0.4738  0.0677 -0.7415
  580TMC3    C5 8653   0.580   3.364  12.353  0.1864 -0.1921 -0.2521
  580TMC3    C6 8654   0.687   3.453  12.336  1.4141 -0.2750 -0.9532
  580TMC3     C 8655   0.287   3.599  12.351  0.0717 -0.5717 -0.8134
  580TMC3     O 8656   0.268   3.721  12.346  0.0194  0.2353 -0.3011
  580TMC3     H 8657   0.521   3.744  12.341  0.3129 -0.7872 -3.1839
  580TMC3    H1 8658   0.364   3.345  12.359 -0.6497  0.0118  1.0354
  580TMC3    H2 8659   0.788   3.416  12.322  1.3671  0.5150 -3.3656
  580TMC3    C7 8660   0.607   3.224  12.321  0.0168  0.4272 -0.4202
  580TMC3    C8 8661   0.761   3.687  12.291 -0.5480 -0.1520  0.1702
  580TMC3    O1 8662   0.710   3.193  12.263  0.2282  0.0476 -0.0890
  580TMC3    O2 8663   0.752   3.800  12.330 -0.2582 -0.3343  1.0180
  581MPD2     C 8664   2.019   2.912  14.832  0.0856  0.6338  0.0400
  581MPD2    C1 8665   2.084   2.968  14.724  0.5286  0.3608  0.3014
  581MPD2    C2 8666   2.029   3.080  14.669  0.3427 -0.2364  0.8376
  581MPD2    C3 8667   1.912   3.128  14.713 -0.5228  0.8909 -0.4444
  581MPD2    C4 8668   1.853   3.067  14.825  0.5830  0.3232 -0.1478
  581MPD2    C5 8669   1.903   2.954  14.880 -0.3496  0.2720  0.1692
  581MPD2     H 8670   2.067   3.108  14.571  1.7219  3.3815  2.3982
  581MPD2    H1 8671   1.779   3.124  14.879 -0.3008  0.4688 -1.5212
  581MPD2    H2 8672   2.054   2.819  14.877 -0.5911  0.8774  1.0723
  581MPD2    H3 8673   1.858   2.916  14.971  2.0470  0.3075  1.3511
  581MPD2     N 8674   1.852   3.244  14.643 -0.1526  0.0395  0.0866
  581MPD2    H5 8675   1.908   3.271  14.563  1.8549  0.8988  1.7636
  581MPD2    N1 8676   2.205   2.912  14.690  0.1269  0.3478  0.4840
  581MPD2    H7 8677   2.237   2.830  14.741 -2.2865 -1.0858 -0.3301
  582TMC3    C1 8678   2.438   2.920  14.653 -0.0181 -0.0813 -0.0446
  582TMC3    C2 8679   2.531   3.005  14.697 -0.5492 -0.3637 -0.1974
  582TMC3    C3 8680   2.631   2.972  14.781 -0.5295 -0.7030 -0.3683
  582TMC3    C4 8681   2.446   2.780  14.680 -0.0873 -0.4099 -0.5649
  582TMC3    C5 8682   2.528   2.755  14.783 -0.1625 -0.0720  0.3520
  582TMC3    C6 8683   2.625   2.843  14.825  0.2168  0.0677 -0.3761
  582TMC3     C 8684   2.305   2.969  14.615  0.3414  1.0411 -0.0497
  582TMC3     O 8685   2.303   3.080  14.561 -0.6268 -1.2170 -0.1483
  582TMC3     H 8686   2.525   3.112  14.678  0.9982  0.3846  3.6207
  582TMC3    H1 8687   2.361   2.719  14.651 -1.7229  1.0414  1.0840
  582TMC3    H2 8688   2.681   2.822  14.916 -1.2946  0.7541  0.7134
  582TMC3    C7 8689   2.444   2.705  14.892  0.9643 -0.1482 -0.8095
  582TMC3    C8 8690   2.678   3.064  14.886 -0.7881 -0.3207 -0.0868
  582TMC3    O1 8691   2.356   2.620  14.867  0.0636  0.7685  0.2516
  582TMC3    O2 8692   2.592   3.108  14.965 -0.0325 -0.6179 -0.3585
  583MPD2     C 8693   2.462   0.171  16.599 -0.0880  0.6731 -0.1479
  583MPD2    C1 8694   2.457   0.299  16.546  0.5223  0.2857  0.1714
  583MPD2    C2 8695   2.430   0.399  16.635 -0.5939  0.0153 -0.4201
  583MPD2    C3 8696   2.393   0.371  16.768  0.1903  0.2148  0.5575
  583MPD2    C4 8697   2.396   0.246  16.811  0.4887 -0.4432 -0.0846
  583MPD2    C5 8698   2.428   0.150  16.727  0.1022  0.5433 -0.3044
  583MPD2     H 8699   2.421   0.493  16.582  0.4114  0.3056 -0.0887
  583MPD2    H1 8700   2.391   0.211  16.913  2.9972 -2.1177 -0.5213
  583MPD2    H2 8701   2.487   0.091  16.530  0.2863  1.0044 -0.3903
  583MPD2    H3 8702   2.437   0.051  16.768 -0.5342  1.5532  2.2976
  583MPD2     N 8703   2.355   0.480  16.852  0.4494 -0.0907  0.3832
  583MPD2    H5 8704   2.344   0.463  16.952  1.3493 -0.6998  0.3850
  583MPD2    N1 8705   2.491   0.323  16.409 -0.4084  0.0447 -0.9383
  583MPD2    H7 8706   2.528   0.417  16.397 -1.1234  0.5600  0.8461
  584TMC3    C1 8707   2.289   0.699  16.910 -0.1226 -0.0990 -0.1321
  584TMC3    C2 8708   2.225   0.822  16.878 -0.9432 -0.1120 -0.1129
  584TMC3    C3 8709   2.217   0.917  16.982  0.8881  0.4388 -1.0792
  584TMC3    C4 8710   2.339   0.680  17.035 -0.1745 -0.2145  0.3426
  584TMC3    C5 8711   2.326   0.768  17.134 -0.5140 -0.0565  0.5762
  584TMC3    C6 8712   2.274   0.892  17.103  0.0971 -0.4483  0.2904
  584TMC3     C 8713   2.314   0.606  16.804 -0.4500  0.2689  0.0792
  584TMC3     O 8714   2.265   0.636  16.693  0.1442 -0.0590  0.0165
  584TMC3     H 8715   2.185   0.839  16.779 -0.4087  0.7013 -0.1890
  584TMC3    H1 8716   2.389   0.588  17.064 -1.7573 -0.8065  1.1846
  584TMC3    H2 8717   2.258   0.961  17.186 -2.7003 -0.6864 -0.0614
  584TMC3    C7 8718   2.353   0.735  17.274 -0.5541  0.9356 -0.7122
  584TMC3    C8 8719   2.225   1.054  16.932  0.1718  0.1817 -0.0189
  584TMC3    O1 8720   2.365   0.616  17.297 -0.3325 -0.0746 -0.3060
  584TMC3    O2 8721   2.147   1.083  16.839  0.2120 -0.1740  0.3005
  585MPD2     C 8722   1.255   4.093  17.640 -0.2902  0.5045 -0.4429
  585MPD2    C1 8723   1.367   4.142  17.582 -0.5582  0.0370 -0.4897
  585MPD2    C2 8724   1.476   4.057  17.571 -0.0493 -0.4186  0.0233
  585MPD2    C3 8725   1.468   3.924  17.604 -0.5397 -0.4125 -0.2981
  585MPD2    C4 8726   1.349   3.876  17.646  1.0437  0.3390 -0.1351
  585MPD2    C5 8727   1.243   3.959  17.668 -0.4057 -0.5215  0.4119
  585MPD2     H 8728   1.568   4.096  17.528  0.9018  0.2860  2.6977
  585MPD2    H1 8729   1.336   3.769  17.660 -1.0264  0.6537  0.4024
  585MPD2    H2 8730   1.173   4.163  17.658  0.9728  2.0415 -0.7013
  585MPD2    H3 8731   1.147   3.915  17.693 -1.4280 -0.1240 -2.7724
  585MPD2     N 8732   1.574   3.835  17.576  0.0365 -0.2770 -0.2641
  585MPD2    H5 8733   1.559   3.736  17.594  0.8344 -0.1807  0.9083
  585MPD2    N1 8734   1.365   4.276  17.534  0.2496 -0.8365  0.0816
  585MPD2    H7 8735   1.287   4.332  17.568  0.4312 -1.0718  0.8739
  586TMC3    C1 8736   1.778   3.762  17.487 -0.3526 -0.1560  0.0519
  586TMC3    C2 8737   1.917   3.761  17.494 -0.4225 -0.0647  0.0777
  586TMC3    C3 8738   1.993   3.687  17.410 -0.1049 -0.0115 -0.6264
  586TMC3    C4 8739   1.711   3.684  17.395 -0.5721 -0.2911  0.2940
  586TMC3    C5 8740   1.789   3.607  17.319  0.0886 -0.1931  0.5934
  586TMC3    C6 8741   1.929   3.620  17.315 -0.2984 -0.5918 -0.2728
  586TMC3     C 8742   1.704   3.868  17.556 -0.8546  0.5067 -0.6412
  586TMC3     O 8743   1.760   3.974  17.585 -0.2847 -0.0204 -0.4567
  586TMC3     H 8744   1.957   3.830  17.567  0.8333 -2.1074  1.3356
  586TMC3    H1 8745   1.604   3.682  17.373 -0.2861 -0.0095 -1.1531
  586TMC3    H2 8746   1.988   3.558  17.249 -0.4671  0.6714 -1.6029
  586TMC3    C7 8747   1.719   3.509  17.239  0.5574 -0.4029 -0.0889
  586TMC3    C8 8748   2.124   3.640  17.455  0.4517 -0.0888 -0.5323
  586TMC3    O1 8749   1.618   3.475  17.300  0.1843 -0.6058  0.6538
  586TMC3    O2 8750   2.171   3.546  17.386  0.1142 -0.1162 -0.1149
  587TMC3    C1 8751   3.767   2.985  16.470  0.2574 -0.1094 -0.4864
  587TMC3    C2 8752   3.888   3.032  16.483  0.2838  1.6216 -1.2847
  587TMC3    C3 8753   3.967   3.007  16.592 -0.2388 -0.1508  0.3070
  587TMC3    C4 8754   3.721   2.890  16.559  0.3208  0.3799 -0.2853
  587TMC3    C5 8755   3.800   2.854  16.664  0.4920  0.5273 -0.6467
  587TMC3    C6 8756   3.923   2.914  16.684 -0.1097 -0.2659 -0.2444
  587TMC3     C 8757   3.685   3.021  16.353  0.1453  0.6043 -0.3966
  587TMC3     O 8758   3.716   3.122  16.298 -0.5697  0.5961  0.3011
  587TMC3     H 8759   3.920   3.107  16.411  1.6049 -0.5887 -3.0220
  587TMC3    H1 8760   3.614   2.876  16.570  0.1045  1.6976 -0.7429
  587TMC3    H2 8761   3.974   2.918  16.779  1.2010  1.0664 -1.0011
  587TMC3    C7 8762   3.739   2.769  16.765  0.1344  0.2929 -0.1556
  587TMC3    C8 8763   4.038   3.122  16.649 -0.7740  0.7805  0.5263
  587TMC3    O1 8764   3.636   2.717  16.728  0.5202  0.8216 -0.5689
  587TMC3    O2 8765   4.129   3.101  16.724 -0.4734  0.2283  0.1291
  588TMC3    C1 8766   1.669   4.716   9.646  0.6493  0.3236  0.2701
  588TMC3    C2 8767   1.602   4.611   9.579  0.3608  0.1597  0.3721
  588TMC3    C3 8768   1.662   4.487   9.578  0.5262 -0.0594  0.1918
  588TMC3    C4 8769   1.797   4.709   9.692 -0.2809  0.4954  0.1267
  588TMC3    C5 8770   1.856   4.589   9.673 -0.0564  0.2741  0.5242
  588TMC3    C6 8771   1.791   4.479   9.619  0.6447  0.5045  0.5708
  588TMC3     C 8772   1.602   0.110   9.653 -0.2602 -0.7378 -0.1764
  588TMC3     O 8773   1.481   0.127   9.628 -0.4618 -0.5827  0.1073
  588TMC3     H 8774   1.496   4.619   9.558  0.7212  0.5455 -1.2768
  588TMC3    H1 8775   1.838   0.023   9.776 -1.3783  1.4386  0.0565
  588TMC3    H2 8776   1.843   4.387   9.594 -0.8581 -0.0873 -0.4160
  588TMC3    C7 8777   1.992   4.572   9.729 -1.2459 -0.0175 -0.6090
  588TMC3    C8 8778   1.576   4.385   9.632 -0.3590  0.2676 -0.2519
  588TMC3    O1 8779   2.025   4.461   9.768 -0.6360  0.4717  0.0699
  588TMC3    O2 8780   1.460   4.374   9.598 -0.4110 -0.6792 -0.3047
  589TMC3    C1 8781   0.808   2.029   1.115  0.3796  0.0922  0.1848
  589TMC3    C2 8782   0.925   2.073   1.177  0.1690  0.3957 -0.1252
  589TMC3    C3 8783   1.005   1.979   1.233 -0.2363 -0.8603  0.2568
  589TMC3    C4 8784   0.774   1.892   1.118  0.3934 -0.3495 -0.0608
  589TMC3    C5 8785   0.859   1.806   1.178  0.1871 -0.0809  0.2953
  589TMC3    C6 8786   0.973   1.847   1.242 -0.0073  0.2174 -0.6176
  589TMC3     C 8787   0.698   2.121   1.083  0.3404 -0.2195  0.0509
  589TMC3     O 8788   0.598   2.074   1.030  0.6083 -0.2733  0.2963
  589TMC3     H 8789   0.947   2.179   1.177  1.3163  0.1671  0.9061
  589TMC3    H1 8790   0.677   1.855   1.088  0.4772 -0.2776 -0.4267
  589TMC3    H2 8791   1.029   1.769   1.291 -1.1537 -0.4180 -0.3175
  589TMC3    C7 8792   0.834   1.659   1.164 -0.2708 -0.1953  0.2425
  589TMC3    C8 8793   1.134   2.025   1.280 -0.6822 -0.2917 -0.3761
  589TMC3    O1 8794   0.721   1.615   1.153  0.0356 -0.3063 -0.0515
  589TMC3    O2 8795   1.156   2.143   1.264 -0.3857  0.0472  0.1467
  590MPD2     C 8796   0.510   0.463  16.683 -0.2557 -0.6696 -0.0477
  590MPD2    C1 8797   0.484   0.567  16.596 -0.7314 -0.7275 -0.1335
  590MPD2    C2 8798   0.577   0.611  16.498  0.5698 -0.5263  0.7056
  590MPD2    C3 8799   0.699   0.549  16.481  0.6172 -0.0257 -0.0632
  590MPD2    C4 8800   0.730   0.443  16.565  0.2082 -0.5796 -0.0237
  590MPD2    C5 8801   0.635   0.407  16.665 -0.3007  0.2049  0.4976
  590MPD2     H 8802   0.544   0.684  16.425 -1.2143 -1.2007  0.8358
  590MPD2    H1 8803   0.816   0.378  16.553  0.0341 -1.1001  1.4544
  590MPD2    H2 8804   0.444   0.412  16.752 -1.1919 -0.6061 -0.9040
  590MPD2    H3 8805   0.653   0.322  16.729 -1.3210  0.8185  1.6017
  590MPD2     N 8806   0.786   0.601  16.384  0.1722 -0.4060 -0.3085
  590MPD2    H5 8807   0.758   0.689  16.340 -3.9238 -1.1725  0.7758
  590MPD2    N1 8808   0.354   0.614  16.579 -0.0000  0.0191  0.0437
  590MPD2    H7 8809   0.331   0.679  16.505 -1.9890 -1.4719 -0.6812
  591TMC3    C1 8810   0.973   0.634  16.258  0.4808 -0.3348  0.2538
  591TMC3    C2 8811   1.041   0.586  16.148  0.7663 -0.2709  0.0184
  591TMC3    C3 8812   1.062   0.677  16.048  0.6404  0.0385  0.0745
  591TMC3    C4 8813   0.946   0.763  16.286  0.1298 -0.1435 -0.4099
  591TMC3    C5 8814   0.989   0.855  16.183 -0.1828 -0.2656  0.6847
  591TMC3    C6 8815   1.044   0.813  16.063 -0.8362  0.0511 -0.5804
  591TMC3     C 8816   0.900   0.542  16.337  0.0235  0.1597  1.0363
  591TMC3     O 8817   0.927   0.424  16.343  0.9793  0.1309  0.0416
  591TMC3     H 8818   1.070   0.482  16.140 -2.1863 -0.9885 -1.0791
  591TMC3    H1 8819   0.911   0.798  16.383 -0.8463 -1.0108 -0.4518
  591TMC3    H2 8820   1.069   0.885  15.986  1.4130  0.5922  0.6573
  591TMC3    C7 8821   0.926   0.990  16.201  1.2883 -0.1969 -0.3967
  591TMC3    C8 8822   1.155   0.621  15.948 -0.1364  0.6847  0.5514
  591TMC3    O1 8823   0.849   1.002  16.295  0.3118 -0.4664  0.1192
  591TMC3    O2 8824   1.144   0.504  15.923  0.3463  0.3657 -0.1642
  592MPD2     C 8825   1.186   2.606  11.509  0.4343 -0.4945  0.2760
  592MPD2    C1 8826   1.196   2.650  11.636 -0.3177 -0.5102 -0.1204
  592MPD2    C2 8827   1.148   2.570  11.739  0.0788 -0.9704  0.1643
  592MPD2    C3 8828   1.090   2.442  11.717  0.0205  0.1081  0.3839
  592MPD2    C4 8829   1.101   2.396  11.589  0.4625 -0.7701  0.1622
  592MPD2    C5 8830   1.135   2.479  11.489 -0.4037 -0.3429 -0.1672
  592MPD2     H 8831   1.156   2.602  11.842  0.8311 -0.1800 -0.1327
  592MPD2    H1 8832   1.065   2.303  11.545  0.6156 -0.4995 -0.5190
  592MPD2    H2 8833   1.215   2.661  11.420 -0.8456 -0.4290 -0.1123
  592MPD2    H3 8834   1.148   2.435  11.391  0.1867 -1.8625  0.6012
  592MPD2     N 8835   1.042   2.361  11.822 -0.2284 -0.3231  0.1172
  592MPD2    H5 8836   1.044   2.402  11.915 -2.4923  0.5131 -0.2167
  592MPD2    N1 8837   1.247   2.783  11.657 -0.5366 -0.1207  0.5137
  592MPD2    H7 8838   1.270   2.835  11.572 -0.8798 -1.5940 -0.4841
  593TMC3    C1 8839   1.337   2.978  11.767 -0.1087  0.6356 -0.0249
  593TMC3    C2 8840   1.331   3.042  11.887 -0.9288 -0.7958  0.6266
  593TMC3    C3 8841   1.405   3.158  11.893  0.8651  0.8842 -0.4291
  593TMC3    C4 8842   1.396   3.023  11.655 -0.0247  0.2150 -0.1001
  593TMC3    C5 8843   1.448   3.146  11.664 -0.3302  0.0131  0.4087
  593TMC3    C6 8844   1.457   3.213  11.776 -0.4815  0.0345  0.0014
  593TMC3     C 8845   1.285   2.843  11.776 -0.3508 -0.7727 -0.0777
  593TMC3     O 8846   1.279   2.799  11.888  0.6372 -0.1192  0.0751
  593TMC3     H 8847   1.273   3.000  11.968  0.6259 -3.1068  0.5198
  593TMC3    H1 8848   1.389   2.973  11.559 -2.9164 -1.6644  1.1106
  593TMC3    H2 8849   1.514   3.305  11.780  0.3404 -0.4764  0.1787
  593TMC3    C7 8850   1.493   3.207  11.540  0.4379 -0.0526 -0.6045
  593TMC3    C8 8851   1.379   3.245  12.005 -0.0425  0.8026  0.7923
  593TMC3    O1 8852   1.580   3.291  11.545  0.1770  0.2146  0.1405
  593TMC3    O2 8853   1.263   3.245  12.045  0.4671  0.7991  0.4859
  594MPD2     C 8854   4.195   1.500  14.146 -0.6237  0.0380 -0.2256
  594MPD2    C1 8855   4.201   1.514  14.286  0.3863 -0.7946  0.5199
  594MPD2    C2 8856   4.317   1.564  14.354  0.4863 -0.0769  0.4333
  594MPD2    C3 8857   4.425   1.598  14.279 -0.8305  1.0844  0.3884
  594MPD2    C4 8858   4.423   1.580  14.135 -0.3765 -0.1244  0.4207
  594MPD2    C5 8859   4.310   1.538  14.073  0.1016 -1.1868 -0.1979
  594MPD2     H 8860   4.327   1.591  14.458 -2.6483  0.8602  0.4786
  594MPD2    H1 8861   4.506   1.606  14.070 -0.3618 -0.9212  0.1127
  594MPD2    H2 8862   4.100   1.481  14.096 -0.2174 -1.7133 -0.3551
  594MPD2    H3 8863   4.311   1.527  13.965  1.1568  2.6002 -0.5673
  594MPD2     N 8864   4.532   1.672  14.335  0.1792 -0.4285 -0.5523
  594MPD2    H5 8865   4.527   1.686  14.435 -1.8492 -1.4293 -0.5173
  594MPD2    N1 8866   4.074   1.495  14.356  0.1737 -0.0607  0.4485
  594MPD2    H7 8867   3.993   1.483  14.297 -0.0358 -2.2755  1.1913
  595TMC3    C1 8868   0.194   1.888  14.399  0.6146 -0.0474 -0.2523
  595TMC3    C2 8869   0.123   1.786  14.344 -0.2842 -0.3648 -0.1430
  595TMC3    C3 8870   4.724   1.785  14.367 -0.7655 -0.0129 -0.1968
  595TMC3    C4 8871   0.126   1.983  14.475  0.1047  0.4085 -0.4257
  595TMC3    C5 8872   4.733   1.974  14.504 -0.5452  0.4176 -0.3951
  595TMC3    C6 8873   4.658   1.875  14.454 -0.4358  0.1895 -0.1769
  595TMC3     C 8874   0.338   1.907  14.380  0.1462  0.0740  0.2251
  595TMC3     O 8875   0.380   2.015  14.409  0.2334  0.1529  0.2605
  595TMC3     H 8876   0.163   1.740  14.254  0.1285  0.5439 -0.4237
  595TMC3    H1 8877   0.183   2.055  14.533  0.9359 -1.0865  0.6071
  595TMC3    H2 8878   4.552   1.869  14.476 -1.0763  2.7323 -2.6563
  595TMC3    C7 8879   4.665   2.085  14.562 -0.1175  0.1688 -0.5607
  595TMC3    C8 8880   4.647   1.715  14.275 -0.0341  0.2066 -0.4592
  595TMC3    O1 8881   4.556   2.075  14.612  0.8097  0.1060  0.0915
  595TMC3    O2 8882   4.684   1.717  14.157 -0.3094  0.0458 -0.5092
  596MPD2     C 8883   3.150   0.023  16.572 -0.0304  1.1900 -0.4714
  596MPD2    C1 8884   3.180   0.133  16.493 -0.0053  0.5309 -0.8705
  596MPD2    C2 8885   3.185   0.122  16.359 -0.7228  0.7070 -0.8724
  596MPD2    C3 8886   3.171   4.738  16.293  0.1098 -0.1410  0.0897
  596MPD2    C4 8887   3.131   4.633  16.372 -0.4261 -0.0720 -0.0713
  596MPD2    C5 8888   3.123   4.642  16.509 -0.1200 -0.4603  0.5025
  596MPD2     H 8889   3.197   0.210  16.296 -1.1966  1.8813  0.6784
  596MPD2    H1 8890   3.112   4.536  16.328  1.2477 -0.1379 -0.6820
  596MPD2    H2 8891   3.134   0.016  16.679 -0.9849  2.8435 -0.5085
  596MPD2    H3 8892   3.106   4.555  16.571 -1.3231 -0.7705 -0.2597
  596MPD2     N 8893   3.169   4.729  16.153  0.4577 -0.0827 -0.0746
  596MPD2    H5 8894   3.115   4.658  16.105 -2.4950  1.8922  0.2930
  596MPD2    N1 8895   3.200   0.261  16.545  0.4064  0.5279  0.1274
  596MPD2    H7 8896   3.233   0.336  16.485 -1.7699  2.3485  1.1612
  597TMC3    C1 8897   3.212   0.432  16.690 -0.3610  0.3239 -0.3225
  597TMC3    C2 8898   3.283   0.508  16.591  0.2871  0.2272 -0.4386
  597TMC3    C3 8899   3.295   0.646  16.601  0.2304  0.1436 -0.2496
  597TMC3    C4 8900   3.164   0.499  16.797  0.6301 -0.5330  0.7235
  597TMC3    C5 8901   3.163   0.637  16.796  0.4484  0.4660 -0.6761
  597TMC3    C6 8902   3.221   0.713  16.698 -0.3974 -0.0996 -0.7082
  597TMC3     C 8903   3.169   0.302  16.670  1.2505  0.4849 -0.2639
  597TMC3     O 8904   3.121   0.244  16.765  0.4222 -0.4460  0.8306
  597TMC3     H 8905   3.325   0.455  16.507  0.4067  1.8891 -1.4318
  597TMC3    H1 8906   3.123   0.445  16.881 -0.3172 -0.2774  0.4238
  597TMC3    H2 8907   3.232   0.820  16.712 -2.9038 -0.0680  0.9365
  597TMC3    C7 8908   3.076   0.690  16.897  0.1882  0.0200  0.0423
  597TMC3    C8 8909   3.402   0.725  16.549  0.3405  0.7824 -0.4014
  597TMC3    O1 8910   3.021   0.609  16.965 -0.2365 -0.1059 -0.6748
  597TMC3    O2 8911   3.420   0.834  16.601  0.7099  0.3323  0.5204
  598TMC3    C1 8912   1.953   1.532  15.743  0.1621  0.3402  0.0212
  598TMC3    C2 8913   2.031   1.432  15.794  0.3037  0.5178  0.2876
  598TMC3    C3 8914   2.103   1.354  15.709 -0.0515  0.2106  0.5872
  598TMC3    C4 8915   1.935   1.554  15.606 -0.4153  0.4594 -0.5473
  598TMC3    C5 8916   2.015   1.473  15.531 -0.9848 -0.6693  0.1140
  598TMC3    C6 8917   2.105   1.377  15.577 -0.2644 -0.2839 -0.0720
  598TMC3     C 8918   1.874   1.611  15.839 -0.1709  0.1255 -0.1345
  598TMC3     O 8919   1.915   1.616  15.953 -0.4236 -0.4892  0.0523
  598TMC3     H 8920   2.038   1.417  15.901  0.1247  1.6053  0.4564
  598TMC3    H1 8921   1.865   1.626  15.566 -1.9793  0.2957  1.9154
  598TMC3    H2 8922   2.163   1.315  15.510 -0.3168 -0.8415  0.3901
  598TMC3    C7 8923   1.996   1.485  15.389  0.5022  0.7105 -0.2968
  598TMC3    C8 8924   2.147   1.221  15.758  0.1773  0.8968  0.3438
  598TMC3    O1 8925   2.000   1.387  15.320 -0.3364  0.4160  0.1040
  598TMC3    O2 8926   2.214   1.156  15.680 -0.1030 -0.4652 -0.4424
  599MPD2     C 8927   1.630   3.717  15.522 -0.0757  0.3628  0.5527
  599MPD2    C1 8928   1.591   3.587  15.547 -0.6392 -0.0107  0.9959
  599MPD2    C2 8929   1.489   3.566  15.635 -0.3606 -0.3461  0.1760
  599MPD2    C3 8930   1.426   3.675  15.688  0.6327  0.4329 -0.3915
  599MPD2    C4 8931   1.454   3.808  15.646  0.2004  0.1757 -0.6143
  599MPD2    C5 8932   1.566   3.826  15.570  0.0191 -0.5216  0.4178
  599MPD2     H 8933   1.444   3.470  15.658  0.3834 -0.9655 -0.9748
  599MPD2    H1 8934   1.408   3.899  15.683  0.8864  0.3807 -0.2618
  599MPD2    H2 8935   1.713   3.741  15.456 -0.0679 -0.7650  0.1472
  599MPD2    H3 8936   1.611   3.924  15.555 -3.0317  0.8263  0.0979
  599MPD2     N 8937   1.325   3.657  15.792  0.0898 -0.1220  0.5634
  599MPD2    H5 8938   1.277   3.743  15.818  3.9392  2.5069 -1.0534
  599MPD2    N1 8939   1.664   3.482  15.490  0.3423 -0.1202  0.0828
  599MPD2    H7 8940   1.752   3.507  15.446  1.2846  0.6855  2.4150
  600TMC3    C1 8941   1.256   3.586  15.995  0.0340 -0.5896  0.4284
  600TMC3    C2 8942   1.194   3.482  16.061 -0.2516 -0.2494  0.1568
  600TMC3    C3 8943   1.165   3.496  16.196 -0.6854 -1.0711 -1.1848
  600TMC3    C4 8944   1.289   3.707  16.055  0.0814  0.2006 -0.0219
  600TMC3    C5 8945   1.252   3.714  16.186 -0.1612 -0.1209  0.0183
  600TMC3    C6 8946   1.189   3.615  16.257 -0.0376 -0.1337 -0.5760
  600TMC3     C 8947   1.314   3.543  15.868 -0.4216  0.3609  0.1303
  600TMC3     O 8948   1.323   3.425  15.835  0.0949  0.0731 -0.5805
  600TMC3     H 8949   1.178   3.390  16.006 -0.5450  0.8134 -1.5415
  600TMC3    H1 8950   1.340   3.786  16.001 -0.5490  1.7257  1.6327
  600TMC3    H2 8951   1.157   3.642  16.357  0.8659  2.2153 -0.9372
  600TMC3    C7 8952   1.274   3.834  16.265  0.3395  0.8819  0.2499
  600TMC3    C8 8953   1.089   3.407  16.266 -0.1415 -0.3642 -0.6735
  600TMC3    O1 8954   1.200   3.855  16.358  0.3549  0.1278  0.1169
  600TMC3    O2 8955   1.077   3.429  16.384  0.1267  0.4939 -0.0649
  601MPD2     C 8956   3.764   2.762   0.130  0.4301  0.1770 -0.7767
  601MPD2    C1 8957   3.627   2.756   0.144 -0.7169  0.5503 -0.2294
  601MPD2    C2 8958   3.573   2.652   0.212  0.2375  0.6999 -0.6558
  601MPD2    C3 8959   3.653   2.565   0.284 -0.2699 -0.4517  0.0571
  601MPD2    C4 8960   3.788   2.568   0.274 -0.8961  0.2409  0.7055
  601MPD2    C5 8961   3.842   2.666   0.191  0.9914 -0.7226  0.1365
  601MPD2     H 8962   3.465   2.639   0.217  0.3032  0.4944  0.2589
  601MPD2    H1 8963   3.856   2.490   0.306 -0.5431 -0.0038 -0.6111
  601MPD2    H2 8964   3.807   2.847   0.078  1.6376 -0.6134 -1.0892
  601MPD2    H3 8965   3.950   2.672   0.183  0.8737  1.0393 -0.0803
  601MPD2     N 8966   3.602   2.466   0.373 -0.2685  0.0995 -0.0690
  601MPD2    H5 8967   3.671   2.394   0.394 -1.9687 -0.8228  2.3073
  601MPD2    N1 8968   3.541   2.849   0.078 -0.5675  0.4719 -0.6038
  601MPD2    H7 8969   3.442   2.841   0.095 -0.0114 -3.5792  0.8773
  602TMC3    C1 8970   3.478   3.024  17.676 -0.0216  0.1035 -0.9136
  602TMC3    C2 8971   3.512   3.144  17.610 -0.6368  0.5051 -0.4096
  602TMC3    C3 8972   3.414   3.200  17.530 -0.0711 -0.6833 -0.8536
  602TMC3    C4 8973   3.363   2.951  17.650  0.4520 -0.3379  0.3880
  602TMC3    C5 8974   3.272   3.021  17.575 -0.4605 -0.0326 -0.1215
  602TMC3    C6 8975   3.289   3.141  17.518  0.3592 -0.1348  0.0234
  602TMC3     C 8976   3.582   2.955  17.754  0.8845  0.0646 -0.3302
  602TMC3     O 8977   3.691   3.004  17.740  0.0430  0.1028  0.1165
  602TMC3     H 8978   3.608   3.191  17.630 -0.7366  0.9440 -0.9698
  602TMC3    H1 8979   3.341   2.859  17.703 -0.4341  1.1523  2.5946
  602TMC3    H2 8980   3.210   3.192  17.465  1.0564 -0.3203 -1.1970
  602TMC3    C7 8981   3.141   2.957  17.556  0.4236  0.0998 -1.0015
  602TMC3    C8 8982   3.456   3.274  17.414 -0.2522  0.4027 -0.4841
  602TMC3    O1 8983   3.121   2.848  17.608 -0.2527 -0.4321 -0.1169
  602TMC3    O2 8984   3.549   3.351  17.433  1.1305 -0.2942  0.3020
  603TMC3    C1 8985   1.615   2.254  11.498  0.2879  0.1881  0.0065
  603TMC3    C2 8986   1.674   2.177  11.600  0.0764  0.3799  0.0469
  603TMC3    C3 8987   1.800   2.227  11.641  0.1030  0.1165  0.4014
  603TMC3    C4 8988   1.672   2.357  11.437 -0.3006  0.3005  0.8636
  603TMC3    C5 8989   1.786   2.405  11.485 -0.5157  0.9454  0.2749
  603TMC3    C6 8990   1.847   2.347  11.591  0.3667 -0.4143  0.2268
  603TMC3     C 8991   1.549   2.173  11.399 -0.3471  0.1934  0.0400
  603TMC3     O 8992   1.599   2.171  11.283  0.0564  0.6621 -0.2872
  603TMC3     H 8993   1.629   2.082  11.627  2.1428  0.2627  3.0018
  603TMC3    H1 8994   1.630   2.402  11.348  3.0201 -0.7827 -1.2560
  603TMC3    H2 8995   1.951   2.366  11.614  0.6693 -2.7193  0.7937
  603TMC3    C7 8996   1.872   2.498  11.418 -0.0272  0.2432  0.4371
  603TMC3    C8 8997   1.896   2.131  11.698  0.2086 -0.0253 -0.1608
  603TMC3    O1 8998   1.986   2.524  11.462 -0.6689 -0.0047 -0.2829
  603TMC3    O2 8999   1.855   2.050  11.782  0.0324  0.2083  0.6373
  604MPD2     C 9000   2.797   1.647  16.547 -0.5052  0.5257  0.0114
  604MPD2    C1 9001   2.658   1.629  16.524  0.6258  0.5110  0.2812
  604MPD2    C2 9002   2.618   1.543  16.422  1.0693  0.2064 -0.5968
  604MPD2    C3 9003   2.721   1.484  16.339  0.0026  0.3744  0.1189
  604MPD2    C4 9004   2.855   1.497  16.370  0.6691  0.4753 -1.2039
  604MPD2    C5 9005   2.891   1.582  16.474 -0.5199 -0.1677  0.3745
  604MPD2     H 9006   2.513   1.539  16.395  1.0905 -2.2341 -0.3625
  604MPD2    H1 9007   2.928   1.453  16.303  0.5113 -0.7490 -0.5848
  604MPD2    H2 9008   2.836   1.705  16.630  2.2306  1.2471 -1.7950
  604MPD2    H3 9009   2.996   1.579  16.503  0.0302 -1.2884 -1.7759
  604MPD2     N 9010   2.679   1.410  16.222 -0.4267  0.3092  0.3422
  604MPD2    H5 9011   2.580   1.387  16.222 -0.4105  0.2269  3.5073
  604MPD2    N1 9012   2.572   1.713  16.591 -0.3328  0.3030  0.3648
  604MPD2    H7 9013   2.612   1.789  16.644 -3.4275  3.1784 -1.4418
  605TMC3    C1 9014   2.397   1.840  16.651 -0.0953 -0.6790 -0.5341
  605TMC3    C2 9015   2.486   1.877  16.747 -0.3799  0.3536  0.7894
  605TMC3    C3 9016   2.513   2.011  16.765 -0.5235  0.0780 -0.9130
  605TMC3    C4 9017   2.326   1.931  16.577 -0.9638 -0.4308 -0.0433
  605TMC3    C5 9018   2.358   2.063  16.593  0.3497 -0.5820  0.0880
  605TMC3    C6 9019   2.445   2.108  16.691  0.2197 -0.2257  0.1051
  605TMC3     C 9020   2.439   1.732  16.570 -0.1236  0.1340 -1.1207
  605TMC3     O 9021   2.352   1.672  16.512  0.2751 -0.5687  0.0197
  605TMC3     H 9022   2.528   1.800  16.811  1.5544  0.6744 -0.0823
  605TMC3    H1 9023   2.260   1.902  16.496 -0.1526 -2.4872  0.0451
  605TMC3    H2 9024   2.480   2.211  16.697  0.1958 -0.1259 -1.4112
  605TMC3    C7 9025   2.258   2.159  16.539  0.0746  0.3379  0.4966
  605TMC3    C8 9026   2.657   2.015  16.740  0.4572 -0.6857  0.3137
  605TMC3    O1 9027   2.150   2.116  16.500 -0.2529  0.0146 -0.9700
  605TMC3    O2 9028   2.715   1.916  16.701 -0.0901  0.0788 -0.7230
  606TMC3    C1 9029   3.520   0.191  16.810 -0.0155 -0.6633 -0.8848
  606TMC3    C2 9030   3.542   0.206  16.940  0.8026 -0.4526  0.2475
  606TMC3    C3 9031   3.483   0.122  17.030 -0.4215  0.0472  0.2377
  606TMC3    C4 9032   3.441   0.087  16.765 -0.2989  0.2991 -0.0176
  606TMC3    C5 9033   3.381   0.001  16.852  0.1011 -0.7683  0.0560
  606TMC3    C6 9034   3.397   0.020  16.989  0.8527 -0.8805  0.2874
  606TMC3     C 9035   3.613   0.262  16.722 -0.7221 -0.0189  0.0427
  606TMC3     O 9036   3.713   0.310  16.779 -0.1952  0.1928  0.4783
  606TMC3     H 9037   3.606   0.287  16.973  0.3539  0.0375 -0.1001
  606TMC3    H1 9038   3.428   0.070  16.658  0.2981 -2.5055  0.3784
  606TMC3    H2 9039   3.369   4.685  17.062  3.0328 -0.8553  1.1631
  606TMC3    C7 9040   3.357   4.604  16.805  0.0065  0.3808 -0.1249
  606TMC3    C8 9041   3.561   0.114  17.159 -0.4476 -0.4807 -0.2438
  606TMC3    O1 9042   3.415   4.581  16.699 -0.2665 -0.6584 -0.1117
  606TMC3    O2 9043   3.677   0.154  17.159 -0.0355 -0.3087 -0.4266
  607MPD2     C 9044   1.183   2.012  11.847 -0.1587  0.0590 -0.4558
  607MPD2    C1 9045   1.248   2.083  11.942  0.0440  0.1815  0.4128
  607MPD2    C2 9046   1.247   2.027  12.070  0.1118 -0.0057  0.3516
  607MPD2    C3 9047   1.190   1.912  12.107  0.3985 -0.3496  0.5165
  607MPD2    C4 9048   1.135   1.847  12.006  0.7013 -0.2641 -0.2915
  607MPD2    C5 9049   1.134   1.895  11.881 -0.0307 -0.2775  0.5977
  607MPD2     H 9050   1.298   2.098  12.135  0.1370 -0.9889  1.4121
  607MPD2    H1 9051   1.099   1.745  12.008 -1.5235  0.5390  0.7064
  607MPD2    H2 9052   1.169   2.051  11.746 -1.4187 -0.6348 -0.5474
  607MPD2    H3 9053   1.086   1.832  11.806 -1.8284  0.3403  1.2362
  607MPD2     N 9054   1.215   1.861  12.238 -0.1549 -0.2044 -0.0991
  607MPD2    H5 9055   1.254   1.930  12.302 -0.8636  1.0506 -1.0249
  607MPD2    N1 9056   1.314   2.203  11.913 -0.3353 -0.5898  0.2975
  607MPD2    H7 9057   1.357   2.252  11.990  0.6553 -0.4765 -0.3312
  608TMC3    C1 9058   1.471   2.348  11.812 -0.8074  0.0482 -0.1629
  608TMC3    C2 9059   1.550   2.346  11.924  0.3777  0.5912  0.3814
  608TMC3    C3 9060   1.636   2.442  11.952 -0.1724  0.0127 -0.3813
  608TMC3    C4 9061   1.467   2.457  11.732  0.2694 -0.0955  0.3093
  608TMC3    C5 9062   1.564   2.550  11.758 -0.7354 -0.4746 -0.0647
  608TMC3    C6 9063   1.660   2.534  11.859 -0.0975  0.5977 -0.7497
  608TMC3     C 9064   1.364   2.249  11.795  0.0127 -0.7478 -0.4846
  608TMC3     O 9065   1.339   2.216  11.682  0.0831  0.1853  0.5738
  608TMC3     H 9066   1.547   2.253  11.979  1.6930  1.6173  2.1724
  608TMC3    H1 9067   1.395   2.462  11.652  0.5191  0.7002  0.1332
  608TMC3    H2 9068   1.735   2.610  11.879  0.1776 -0.0779  0.8385
  608TMC3    C7 9069   1.593   2.645  11.650  0.1649 -0.2261 -0.0510
  608TMC3    C8 9070   1.712   2.445  12.074 -0.0671  0.1218  0.4443
  608TMC3    O1 9071   1.535   2.620  11.540 -0.1250 -0.1668 -0.2054
  608TMC3    O2 9072   1.804   2.524  12.080  0.2670 -0.4020 -0.1087
  609TMC3    C1 9073   3.885   1.339   9.379  0.3645  0.5410  0.5003
  609TMC3    C2 9074   3.838   1.319   9.252  0.3159  0.2621  0.3298
  609TMC3    C3 9075   3.912   1.249   9.164  0.5633  0.0727  0.3464
  609TMC3    C4 9076   4.000   1.279   9.416  0.1759 -0.1272 -0.4212
  609TMC3    C5 9077   4.066   1.202   9.323 -0.4429 -0.1463  0.1588
  609TMC3    C6 9078   4.024   1.179   9.196  0.6201 -0.4134  0.0451
  609TMC3     C 9079   3.856   1.466   9.442 -0.1419 -0.3819 -0.4864
  609TMC3     O 9080   3.744   1.508   9.440 -0.0180  0.0570  0.3075
  609TMC3     H 9081   3.759   1.378   9.207 -0.3560 -0.1088  1.0319
  609TMC3    H1 9082   4.031   1.274   9.520 -1.0032  0.3064 -0.0518
  609TMC3    H2 9083   4.087   1.127   9.125  1.3935  1.3247 -0.5520
  609TMC3    C7 9084   4.190   1.151   9.360 -0.2431  0.3120 -0.2607
  609TMC3    C8 9085   3.828   1.178   9.067  0.6236  0.0059 -0.1171
  609TMC3    O1 9086   4.249   1.206   9.449 -0.1845  0.2130 -0.1386
  609TMC3    O2 9087   3.897   1.093   9.001  0.2915  0.2200  0.1867
  610TMC3    C1 9088   1.930   1.697  12.602  0.6320 -0.0933  0.5645
  610TMC3    C2 9089   1.947   1.766  12.486 -0.3856 -0.0394 -0.4579
  610TMC3    C3 9090   2.041   1.708  12.404 -0.3716  0.7442  0.2787
  610TMC3    C4 9091   1.986   1.580  12.644  0.4990 -0.2812  0.0402
  610TMC3    C5 9092   2.064   1.521  12.543 -0.4683  0.4744  0.7560
  610TMC3    C6 9093   2.106   1.591  12.437 -0.5383 -0.3567 -0.2096
  610TMC3     C 9094   1.816   1.738  12.679  0.2608  0.3873 -0.5294
  610TMC3     O 9095   1.775   1.849  12.656 -0.4008 -0.4429  0.0297
  610TMC3     H 9096   1.906   1.865  12.468  0.9303  0.6930  0.6392
  610TMC3    H1 9097   1.961   1.518  12.728  0.4394 -0.4866 -0.1308
  610TMC3    H2 9098   2.186   1.551  12.375 -0.0179 -1.2705  1.0365
  610TMC3    C7 9099   2.115   1.390  12.561 -0.0565 -0.0394 -0.3670
  610TMC3    C8 9100   2.136   1.793  12.338  0.8480  0.1804  0.0599
  610TMC3    O1 9101   2.106   1.339  12.672 -0.4436 -0.0603 -0.4048
  610TMC3    O2 9102   2.251   1.757  12.348 -0.7789 -0.1822  0.0532
  611MPD2     C 9103   0.963   2.612  10.819  0.1198  1.0339  0.0529
  611MPD2    C1 9104   1.013   2.567  10.705 -0.2101  0.0930  0.0568
  611MPD2    C2 9105   1.124   2.623  10.648  0.5317 -0.0835 -0.2965
  611MPD2    C3 9106   1.194   2.713  10.725  0.8610  0.4003 -0.0468
  611MPD2    C4 9107   1.150   2.756  10.840  0.9366 -0.4410 -0.4719
  611MPD2    C5 9108   1.031   2.701  10.890  0.6083  0.6327 -0.4813
  611MPD2     H 9109   1.175   2.578  10.564  0.1417 -1.8630  0.4203
  611MPD2    H1 9110   1.207   2.829  10.897 -0.0170 -1.4993  1.8355
  611MPD2    H2 9111   0.868   2.578  10.858  0.1547  0.2614 -0.5249
  611MPD2    H3 9112   0.986   2.742  10.979  2.8104 -1.1879  1.4635
  611MPD2     N 9113   1.314   2.771  10.683  1.5318 -0.0109 -0.2382
  611MPD2    H5 9114   1.350   2.838  10.749  1.3314  1.5807 -1.7569
  611MPD2    N1 9115   0.949   2.444  10.655  0.1871  0.3695 -0.2181
  611MPD2    H7 9116   0.867   2.414  10.707  1.8939 -1.4120  1.4190
  612TMC3    C1 9117   1.495   2.840  10.581 -0.6364  0.3110 -0.0050
  612TMC3    C2 9118   1.593   2.784  10.658 -0.0438  0.1059 -0.3384
  612TMC3    C3 9119   1.719   2.837  10.648  0.5593  0.5301 -0.1724
  612TMC3    C4 9120   1.506   2.947  10.502 -0.0671 -0.1158 -0.3165
  612TMC3    C5 9121   1.634   2.999  10.489  0.0235 -0.1573 -0.5502
  612TMC3    C6 9122   1.739   2.943  10.564 -0.1752  0.1990  0.1110
  612TMC3     C 9123   1.378   2.760  10.570  0.2418 -0.6677  0.2736
  612TMC3     O 9124   1.347   2.699  10.468 -0.4622 -0.2887  0.6191
  612TMC3     H 9125   1.574   2.690  10.708 -0.1045  0.6426  0.6477
  612TMC3    H1 9126   1.419   2.980  10.446  1.0281  2.4483 -0.4949
  612TMC3    H2 9127   1.834   2.991  10.545 -0.7782  1.9353  1.5528
  612TMC3    C7 9128   1.666   3.132  10.433 -0.1555  0.4158 -0.9116
  612TMC3    C8 9129   1.810   2.829  10.757  0.3859  0.2354 -0.2389
  612TMC3    O1 9130   1.764   3.191  10.477  1.0573 -0.7780  0.1117
  612TMC3    O2 9131   1.910   2.895  10.737  0.3665 -0.4830 -0.5082
  613MPD2     C 9132   0.085   0.043  16.163 -0.3223 -0.3432  0.0553
  613MPD2    C1 9133   0.107   4.672  16.085  0.4573  0.7111 -0.3547
  613MPD2    C2 9134   0.021   4.568  16.101  0.5556  0.5735 -0.0462
  613MPD2    C3 9135   4.643   4.569  16.172  1.1423  0.2443  0.2480
  613MPD2    C4 9136   4.622   4.682  16.247 -0.4892 -0.1928  0.4535
  613MPD2    C5 9137   4.710   0.045  16.237 -0.5372 -0.4428 -0.8501
  613MPD2     H 9138   0.042   4.485  16.035  0.5466  0.3583  0.2224
  613MPD2    H1 9139   4.531   4.691  16.305 -0.2081 -1.5886  1.1352
  613MPD2    H2 9140   0.162   0.120  16.167  0.1843 -0.8984  1.0191
  613MPD2    H3 9141   4.678   0.133  16.292 -0.6182 -0.9419 -0.0951
  613MPD2     N 9142   4.548   4.458  16.184  0.0330  0.1716  0.6711
  613MPD2    H5 9143   4.469   4.476  16.244 -1.6318 -1.9100 -0.8816
  613MPD2    N1 9144   0.223   4.669  16.003  0.1197 -0.1502  0.2326
  613MPD2    H7 9145   0.284   0.008  16.014 -1.1269  0.4946  2.5033
  614TMC3    C1 9146   0.330   4.615  15.797  0.3723  0.2677 -0.1337
  614TMC3    C2 9147   0.347   4.504  15.723 -0.1846 -0.1587 -0.3641
  614TMC3    C3 9148   0.325   4.509  15.587  0.4168  0.4649  0.4557
  614TMC3    C4 9149   0.305   4.733  15.738  0.1261 -0.6471  0.7115
  614TMC3    C5 9150   0.286   0.012  15.604  0.1839 -0.2012  1.4044
  614TMC3    C6 9151   0.298   4.636  15.532  0.0488  0.3684  0.8783
  614TMC3     C 9152   0.236   4.585  15.895  0.2832  0.3285  0.1181
  614TMC3     O 9153   0.151   4.509  15.852  0.1290  0.4379 -0.9184
  614TMC3     H 9154   0.370   4.411  15.776 -1.7042  0.9084  2.1474
  614TMC3    H1 9155   0.274   0.073  15.805  0.6544  1.3183 -1.3950
  614TMC3    H2 9156   0.258   4.649  15.432 -0.5009  0.7723  1.1452
  614TMC3    C7 9157   0.204   0.123  15.558  0.3960  0.2795 -0.5113
  614TMC3    C8 9158   0.240   4.407  15.525 -0.3365  0.1207  0.3442
  614TMC3    O1 9159   0.126   0.109  15.464 -0.4055 -0.5076  0.1227
  614TMC3    O2 9160   0.224   4.405  15.401  0.1980 -0.1879  0.7511
  615MPD2     C 9161   4.317   1.002  15.685 -0.1190  0.1157 -0.2041
  615MPD2    C1 9162   4.249   1.104  15.749 -0.4559 -0.0746  0.4595
  615MPD2    C2 9163   4.177   1.189  15.664 -0.0097 -0.3063 -0.4361
  615MPD2    C3 9164   4.173   1.169  15.527 -0.0953  0.1839 -0.9812
  615MPD2    C4 9165   4.240   1.060  15.472  0.1980 -0.7652 -0.8364
  615MPD2    C5 9166   4.321   0.978  15.550  1.0930 -0.5178 -0.0468
  615MPD2     H 9167   4.128   1.272  15.713  0.3990  0.1706 -0.8508
  615MPD2    H1 9168   4.228   1.019  15.373 -2.2546 -1.9490 -0.0351
  615MPD2    H2 9169   4.367   0.923  15.741  0.2252  0.7518  0.3795
  615MPD2    H3 9170   4.378   0.896  15.509  1.5831  0.8308 -2.0506
  615MPD2     N 9171   4.072   1.238  15.447 -0.1088  0.4906 -0.0418
  615MPD2    H5 9172   4.083   1.224  15.347 -0.6093  0.7738 -0.1368
  615MPD2    N1 9173   4.270   1.139  15.889  0.6796  0.6392  0.0348
  615MPD2    H7 9174   4.222   1.224  15.917 -0.4585 -1.0892  3.4827
  616TMC3    C1 9175   4.364   1.144  16.104 -0.4602 -0.6165  0.2600
  616TMC3    C2 9176   4.464   1.101  16.186  0.3799  0.6267  0.6207
  616TMC3    C3 9177   4.499   1.187  16.283  0.2037  0.4625  0.4497
  616TMC3    C4 9178   4.298   1.269  16.120  0.1800 -0.8453  0.3253
  616TMC3    C5 9179   4.329   1.340  16.231 -0.5929 -0.4609 -0.1370
  616TMC3    C6 9180   4.430   1.300  16.318  0.0103  0.3631  0.5448
  616TMC3     C 9181   4.358   1.073  15.979 -0.1249  0.6949  0.6020
  616TMC3     O 9182   4.437   0.976  15.965 -0.2907 -0.1349  0.0836
  616TMC3     H 9183   4.525   1.012  16.170  1.4346  1.4957 -0.1679
  616TMC3    H1 9184   4.226   1.310  16.050  0.0872 -2.9273 -0.7904
  616TMC3    H2 9185   4.461   1.369  16.396 -1.0094  2.4261 -0.8560
  616TMC3    C7 9186   4.269   1.478  16.230  0.3810  0.1478  0.1792
  616TMC3    C8 9187   4.597   1.143  16.375  0.6252  0.3475 -1.4704
  616TMC3    O1 9188   4.197   1.506  16.136  0.1985 -0.1209  0.1189
  616TMC3    O2 9189   4.639   1.031  16.359 -0.1047 -0.0385  0.3632
  617MPD2     C 9190   2.275   4.176  12.931  0.0747 -0.2715 -0.0279
  617MPD2    C1 9191   2.307   4.102  13.047  0.1036 -0.2296 -0.3887
  617MPD2    C2 9192   2.209   4.051  13.121  0.2622 -0.3838 -0.4615
  617MPD2    C3 9193   2.074   4.087  13.098 -0.5031  0.2468  0.5558
  617MPD2    C4 9194   2.040   4.168  12.991 -0.4513 -0.1998 -0.3747
  617MPD2    C5 9195   2.140   4.203  12.905  0.1809 -0.0825 -0.3406
  617MPD2     H 9196   2.240   3.993  13.207  1.1519  0.3957 -0.2518
  617MPD2    H1 9197   1.937   4.194  12.970 -2.1724 -4.5669  2.7667
  617MPD2    H2 9198   2.355   4.222  12.875 -0.3794  1.5869  0.8268
  617MPD2    H3 9199   2.116   4.243  12.807  0.5104  2.5495  0.6555
  617MPD2     N 9200   1.968   4.041  13.178  0.3743  0.6108  0.3953
  617MPD2    H5 9201   1.871   4.059  13.151  0.3475 -0.8717 -0.4874
  617MPD2    N1 9202   2.441   4.072  13.077 -0.2754  0.3769 -0.0108
  617MPD2    H7 9203   2.455   4.008  13.154  2.2950  0.7325 -0.1821
  618TMC3    C1 9204   2.671   4.036  13.046  0.4517  0.2642 -0.0112
  618TMC3    C2 9205   2.690   4.034  13.181 -0.1138 -0.2754  0.2529
  618TMC3    C3 9206   2.792   3.957  13.226 -0.4390  0.8741 -0.3952
  618TMC3    C4 9207   2.751   3.969  12.955 -0.2260  0.2554  0.2233
  618TMC3    C5 9208   2.850   3.888  13.002  0.4637  0.1865  0.8817
  618TMC3    C6 9209   2.866   3.883  13.141  0.8692 -0.0191  0.3275
  618TMC3     C 9210   2.548   4.090  12.991 -0.8665  0.3209 -0.0349
  618TMC3     O 9211   2.556   4.126  12.871  0.5717 -0.1631  0.6680
  618TMC3     H 9212   2.629   4.097  13.244  0.1046  1.6071 -1.4383
  618TMC3    H1 9213   2.721   3.969  12.851  0.6047 -0.4063 -0.0092
  618TMC3    H2 9214   2.956   3.840  13.184  0.5687 -0.3891  0.5884
  618TMC3    C7 9215   2.860   3.758  12.929  0.5183 -0.4008  0.2489
  618TMC3    C8 9216   2.858   4.008  13.339  0.4933  0.1218  0.3724
  618TMC3    O1 9217   2.783   3.743  12.834 -0.2039  0.6566 -0.1475
  618TMC3    O2 9218   2.870   4.128  13.343  0.4595 -0.3636  0.3028
  619MPD2     C 9219   3.803   0.520  14.294 -0.6440 -0.5302  0.1424
  619MPD2    C1 9220   3.785   0.467  14.167 -0.2880  0.6437  0.5528
  619MPD2    C2 9221   3.662   0.426  14.121 -0.2139 -1.0376  0.0817
  619MPD2    C3 9222   3.545   0.446  14.198 -0.2311 -0.2704  1.0972
  619MPD2    C4 9223   3.568   0.503  14.326 -0.2413 -0.6516 -0.8052
  619MPD2    C5 9224   3.691   0.535  14.369 -0.0818 -0.0232 -0.2915
  619MPD2     H 9225   3.650   0.392  14.019  1.2543  1.1029 -0.7975
  619MPD2    H1 9226   3.485   0.525  14.392  0.0864 -1.8022 -0.0197
  619MPD2    H2 9227   3.898   0.554  14.332 -1.6090  1.6764  0.5458
  619MPD2    H3 9228   3.699   0.578  14.468  0.5611  1.0811 -0.8171
  619MPD2     N 9229   3.414   0.435  14.144 -0.1024  0.0048  0.1381
  619MPD2    H5 9230   3.340   0.482  14.195  0.2275  0.5998  0.0714
  619MPD2    N1 9231   3.887   0.459  14.067  0.1008  0.4005  0.5825
  619MPD2    H7 9232   3.869   0.423  13.974  1.5302  0.7541  0.1700
  620TMC3    C1 9233   4.071   0.496  13.941 -0.2558  0.1641 -0.0539
  620TMC3    C2 9234   4.013   0.396  13.864 -0.5166  0.5563  0.1782
  620TMC3    C3 9235   3.968   0.417  13.740 -0.5629  0.2722  0.0189
  620TMC3    C4 9236   4.069   0.619  13.885  0.0305 -0.4682 -0.1646
  620TMC3    C5 9237   4.019   0.645  13.760  0.4156  0.1065 -0.5424
  620TMC3    C6 9238   3.962   0.543  13.690 -0.4142  0.0578  0.1226
  620TMC3     C 9239   4.014   0.504  14.074  1.1343 -0.2698 -0.2115
  620TMC3     O 9240   4.075   0.579  14.151 -0.1736  0.6514  0.4608
  620TMC3     H 9241   4.014   0.291  13.893  1.2585  0.1749 -1.2591
  620TMC3    H1 9242   4.108   0.702  13.944 -1.1187  0.0502 -0.1316
  620TMC3    H2 9243   3.939   0.560  13.585  1.5276 -0.7156 -0.4311
  620TMC3    C7 9244   3.964   0.773  13.722 -0.1508 -0.0010  0.2102
  620TMC3    C8 9245   3.839   0.354  13.738  0.0123 -0.3976 -1.4787
  620TMC3    O1 9246   3.867   0.771  13.645 -0.4712 -1.2099 -0.0230
  620TMC3    O2 9247   3.803   0.311  13.844  0.6935 -0.7837  0.1663
  621MPD2     C 9248   4.510   1.629   9.704  0.1342  0.5988 -0.1016
  621MPD2    C1 9249   4.549   1.547   9.806  0.3861 -0.3204  0.1210
  621MPD2    C2 9250   4.671   1.565   9.866 -0.2344  0.1489  0.2634
  621MPD2    C3 9251   0.013   1.670   9.833  0.1637 -0.5232  1.1433
  621MPD2    C4 9252   4.714   1.754   9.727  0.8710 -0.5238 -0.0999
  621MPD2    C5 9253   4.591   1.733   9.671  0.0673  0.1173 -0.1716
  621MPD2     H 9254   4.689   1.497   9.948 -2.1256  0.2224  0.7461
  621MPD2    H1 9255   0.037   1.830   9.682 -2.2044  2.1849  0.1177
  621MPD2    H2 9256   4.419   1.622   9.645 -0.1645  0.7245  0.3406
  621MPD2    H3 9257   4.556   1.790   9.586 -1.5084  1.8542  1.6480
  621MPD2     N 9258   0.131   1.683   9.907  0.2534  0.5034  0.0887
  621MPD2    H5 9259   0.142   1.608   9.974 -2.4379  0.5288  0.5465
  621MPD2    N1 9260   4.458   1.452   9.852  0.7432 -0.1288  0.1061
  621MPD2    H7 9261   4.481   1.414   9.943 -1.0881  0.9763  1.0331
  622TMC3    C1 9262   4.269   1.317   9.869 -0.0813 -0.0768 -0.5085
  622TMC3    C2 9263   4.259   1.330  10.011 -0.4755  0.1782 -0.8395
  622TMC3    C3 9264   4.167   1.256  10.079  1.1723  0.0285  0.1010
  622TMC3    C4 9265   4.186   1.233   9.808  0.1592 -0.5549  0.5341
  622TMC3    C5 9266   4.087   1.164   9.878 -0.2090  0.9451  0.2893
  622TMC3    C6 9267   4.082   1.164  10.014 -0.2380  0.4888  0.1003
  622TMC3     C 9268   4.334   1.418   9.791 -0.0974  0.3524  0.0290
  622TMC3     O 9269   4.296   1.440   9.676 -0.3172 -0.3688 -0.1258
  622TMC3     H 9270   4.317   1.411  10.055 -1.6574  0.2198  0.6372
  622TMC3    H1 9271   4.179   1.243   9.701  3.2482 -0.5357  0.3332
  622TMC3    H2 9272   4.005   1.103  10.060  1.3756 -1.2128  0.5386
  622TMC3    C7 9273   3.957   1.164   9.822 -0.3791  0.2777 -0.0881
  622TMC3    C8 9274   4.104   1.331  10.189 -0.3326  1.0110  0.2882
  622TMC3    O1 9275   3.860   1.206   9.884  0.2668  0.2163  0.2554
  622TMC3    O2 9276   4.165   1.426  10.241  0.2633 -0.4533 -0.3462
  623MPD2     C 9277   2.884   1.639  15.618 -0.3846  0.4669  0.3540
  623MPD2    C1 9278   2.804   1.646  15.731  0.0126  0.0728 -0.7048
  623MPD2    C2 9279   2.860   1.661  15.857  0.3147  0.2729  0.5997
  623MPD2    C3 9280   2.998   1.671  15.875  0.3505  0.2360 -0.0608
  623MPD2    C4 9281   3.078   1.655  15.763  0.0285  0.0607 -0.3443
  623MPD2    C5 9282   3.020   1.648  15.639 -0.0730 -0.1128 -0.5599
  623MPD2     H 9283   2.790   1.666  15.939 -0.8918 -1.5231 -0.3075
  623MPD2    H1 9284   3.186   1.664  15.766  0.2661 -2.6885 -0.0120
  623MPD2    H2 9285   2.847   1.643  15.516 -0.5561  0.6250  0.4238
  623MPD2    H3 9286   3.091   1.644  15.556  0.6269 -1.6520  0.1024
  623MPD2     N 9287   3.049   1.691  16.005 -0.2287 -0.0834 -0.0331
  623MPD2    H5 9288   2.982   1.702  16.081 -1.1920 -0.4636 -0.8361
  623MPD2    N1 9289   2.659   1.639  15.736  0.1890  0.0110  0.7824
  623MPD2    H7 9290   2.618   1.632  15.828 -2.9744  1.1307 -0.5400
  624TMC3    C1 9291   3.339   1.768  16.349  0.4054 -0.3021 -0.3299
  624TMC3    C2 9292   3.249   1.846  16.414 -0.1329 -0.0883 -0.5605
  624TMC3    C3 9293   3.143   1.895  16.348  0.1098  0.3748  0.5113
  624TMC3    C4 9294   3.321   1.725  16.220 -1.2230 -0.1177 -0.3487
  624TMC3    C5 9295   3.199   1.761  16.167 -0.3690  0.0257  0.6459
  624TMC3    C6 9296   3.110   1.847  16.226  0.0381 -0.0453  0.7173
  624TMC3     C 9297   3.450   1.714  16.426 -0.3776 -0.0858 -0.0514
  624TMC3     O 9298   3.418   1.673  16.534  0.5316 -0.4199  0.3236
  624TMC3     H 9299   3.257   1.854  16.522 -0.9933  1.4286 -0.6091
  624TMC3    H1 9300   3.380   1.647  16.174 -1.5481  0.0106 -0.9821
  624TMC3    H2 9301   3.031   1.893  16.168 -1.2228 -3.0435  0.0463
  624TMC3    C7 9302   3.178   1.707  16.034 -0.1155  0.0727  0.2387
  624TMC3    C8 9303   3.053   1.991  16.403  0.2777 -0.1334  0.0313
  624TMC3    O1 9304   3.279   1.681  15.970 -0.0811 -0.5859 -0.0069
  624TMC3    O2 9305   2.936   1.995  16.357  0.4903  0.0294  0.0517
  625MPD2     C 9306   3.438   3.261   1.114  0.0858  0.6719 -0.3897
  625MPD2    C1 9307   3.441   3.381   1.041 -0.4081 -0.2131 -0.2266
  625MPD2    C2 9308   3.563   3.436   1.008  0.9111  0.1549  0.2098
  625MPD2    C3 9309   3.679   3.374   1.049  0.0564  0.4207  0.2576
  625MPD2    C4 9310   3.675   3.255   1.122  0.0312 -0.0035 -0.1609
  625MPD2    C5 9311   3.550   3.202   1.156  0.5051 -0.0030  0.1377
  625MPD2     H 9312   3.572   3.525   0.947 -2.0563 -0.2358 -0.8098
  625MPD2    H1 9313   3.766   3.206   1.153 -0.4436 -0.7402  0.0805
  625MPD2    H2 9314   3.348   3.209   1.145 -1.7249  3.3356 -1.0926
  625MPD2    H3 9315   3.544   3.106   1.206  2.2460  0.1140  0.5700
  625MPD2     N 9316   3.797   3.431   1.003 -0.1970 -0.2049 -0.0383
  625MPD2    H5 9317   3.788   3.513   0.945  2.8550  0.3092  0.2053
  625MPD2    N1 9318   3.323   3.432   0.976  0.3943 -0.6278 -0.1487
  625MPD2    H7 9319   3.238   3.378   0.985 -0.4673  0.6582 -0.7015
  626TMC3    C1 9320   3.197   3.548   0.828 -1.0880 -0.7677  0.2217
  626TMC3    C2 9321   3.180   3.606   0.707 -0.4171 -0.5129 -0.5406
  626TMC3    C3 9322   3.053   3.594   0.658  0.3380 -0.4140  0.5883
  626TMC3    C4 9323   3.090   3.518   0.911  0.8316  0.1357  0.3597
  626TMC3    C5 9324   2.971   3.518   0.853 -0.0037 -0.3124  0.2534
  626TMC3    C6 9325   2.946   3.542   0.723  0.6895 -0.4107  0.6845
  626TMC3     C 9326   3.327   3.532   0.882  0.2884  0.1862  0.3339
  626TMC3     O 9327   3.408   3.609   0.844  0.0424  0.2635 -0.0968
  626TMC3     H 9328   3.260   3.632   0.639  2.0042  1.9152  3.2484
  626TMC3    H1 9329   3.091   3.503   1.018  0.2782  1.3780  0.5364
  626TMC3    H2 9330   2.847   3.532   0.680  1.1339 -0.4617 -0.3370
  626TMC3    C7 9331   2.856   3.483   0.938  0.4971 -0.3807  0.0196
  626TMC3    C8 9332   3.008   3.647   0.525 -0.0160  0.2631  0.4471
  626TMC3    O1 9333   2.884   3.406   1.033 -0.1335  0.3955 -0.2938
  626TMC3    O2 9334   2.938   3.572   0.463  0.1964 -0.5695 -0.3239
  627MPD2     C 9335   1.300   3.068  14.083  0.0728  0.2392 -0.4182
  627MPD2    C1 9336   1.381   3.030  14.185 -0.0921  0.6420  0.4049
  627MPD2    C2 9337   1.397   2.897  14.219  0.4132  0.8069 -0.3773
  627MPD2    C3 9338   1.322   2.793  14.165  0.3875  0.2148  0.2366
  627MPD2    C4 9339   1.233   2.829  14.069  0.2899  0.3528 -0.6100
  627MPD2    C5 9340   1.223   2.967  14.028  0.5086 -0.1259 -0.2936
  627MPD2     H 9341   1.478   2.881  14.289 -1.2282  0.8400  1.5542
  627MPD2    H1 9342   1.165   2.756  14.028 -0.9670  2.0142 -1.4751
  627MPD2    H2 9343   1.272   3.170  14.058 -0.0967 -0.0111 -1.2735
  627MPD2    H3 9344   1.150   2.986  13.951 -0.2882  0.7659  0.6922
  627MPD2     N 9345   1.340   2.658  14.203  0.5539 -0.3523 -0.6319
  627MPD2    H5 9346   1.409   2.641  14.276 -1.1136 -3.1869  0.2924
  627MPD2    N1 9347   1.460   3.123  14.255  0.4989 -0.0153  0.2429
  627MPD2    H7 9348   1.535   3.086  14.312  0.7521 -0.3368 -0.2888
  628TMC3    C1 9349   1.553   3.337  14.330 -0.3760 -0.3280 -0.3587
  628TMC3    C2 9350   1.574   3.288  14.462 -0.2956 -0.3442  0.3163
  628TMC3    C3 9351   1.677   3.343  14.529 -0.9458  0.1969 -0.2667
  628TMC3    C4 9352   1.614   3.453  14.283 -0.0332  0.4190  0.4837
  628TMC3    C5 9353   1.715   3.503  14.364  0.3765  0.1440  0.2979
  628TMC3    C6 9354   1.762   3.440  14.480  0.6201 -1.1226 -0.5487
  628TMC3     C 9355   1.467   3.258  14.241  0.0754 -0.7422 -0.0462
  628TMC3     O 9356   1.433   3.333  14.151  0.0753 -0.3526 -0.3178
  628TMC3     H 9357   1.527   3.197  14.499  1.9936 -1.1693  1.2369
  628TMC3    H1 9358   1.597   3.485  14.181 -2.2427  0.4618  0.8546
  628TMC3    H2 9359   1.836   3.478  14.549  0.7443 -0.6615 -0.9344
  628TMC3    C7 9360   1.819   3.582  14.291  0.6150  0.1148 -0.0621
  628TMC3    C8 9361   1.722   3.278  14.644 -0.2372  0.3338  1.1759
  628TMC3    O1 9362   1.934   3.556  14.321 -0.0876 -0.1577  0.6196
  628TMC3    O2 9363   1.636   3.231  14.719  0.5593 -0.3902  0.0310
  629MPD2     C 9364   0.237   1.215  16.706  0.3370  0.0884 -0.2390
  629MPD2    C1 9365   0.206   1.335  16.650  0.3340 -0.4932 -0.4718
  629MPD2    C2 9366   0.096   1.351  16.569  0.4242  0.2356  0.9877
  629MPD2    C3 9367   0.021   1.241  16.531  0.2194  0.8186  0.1259
  629MPD2    C4 9368   0.051   1.125  16.591 -0.3702  0.3668 -0.2778
  629MPD2    C5 9369   0.152   1.107  16.680 -1.1185  0.1119 -0.0187
  629MPD2     H 9370   0.075   1.450  16.530 -1.4644 -0.9519 -1.0219
  629MPD2    H1 9371   4.730   1.038  16.572 -1.0535  0.5504  1.0215
  629MPD2    H2 9372   0.327   1.193  16.763 -0.0791  2.8135  1.4490
  629MPD2    H3 9373   0.168   1.005  16.715  2.0475  0.2383 -1.0242
  629MPD2     N 9374   4.647   1.249  16.447  0.7271  0.1612  0.5688
  629MPD2    H5 9375   4.619   1.345  16.433 -0.6938 -0.4483 -0.7614
  629MPD2    N1 9376   0.297   1.443  16.682  0.0356  0.2600 -0.2776
  629MPD2    H7 9377   0.360   1.428  16.760 -0.5644  1.2325  0.3836
  630TMC3    C1 9378   0.411   1.640  16.676 -0.1684 -0.6251 -0.5250
  630TMC3    C2 9379   0.450   1.747  16.593  0.0411 -0.1337 -0.6728
  630TMC3    C3 9380   0.521   1.855  16.656  0.7681  0.1560  0.4396
  630TMC3    C4 9381   0.436   1.631  16.810  0.9606 -0.1397  0.1898
  630TMC3    C5 9382   0.495   1.749  16.860  0.1572 -0.3142  0.1837
  630TMC3    C6 9383   0.551   1.853  16.786 -0.5175  0.4865 -0.3268
  630TMC3     C 9384   0.304   1.566  16.617  0.0399 -0.1034  0.4323
  630TMC3     O 9385   0.253   1.607  16.511 -0.2402 -0.3949  0.8546
  630TMC3     H 9386   0.422   1.755  16.489 -0.6642  0.8065 -0.4021
  630TMC3    H1 9387   0.382   1.558  16.870 -1.0170 -0.1020 -1.5682
  630TMC3    H2 9388   0.590   1.942  16.834  0.1708 -0.7168  1.3395
  630TMC3    C7 9389   0.533   1.749  16.998 -0.7193  0.1099 -0.6811
  630TMC3    C8 9390   0.574   1.969  16.584  0.3926  0.0998 -0.8739
  630TMC3    O1 9391   0.444   1.716  17.077 -0.6176 -0.3036 -0.4759
  630TMC3    O2 9392   0.645   2.045  16.647  0.5480 -0.2765  0.1189
  631MPD2     C 9393   3.288   1.997  15.371  0.0882 -0.0132  0.5584
  631MPD2    C1 9394   3.383   2.008  15.268  0.1787 -0.1272 -0.2555
  631MPD2    C2 9395   3.465   1.896  15.247  0.1956  0.2417  0.1219
  631MPD2    C3 9396   3.462   1.778  15.323  0.4355  0.1563 -0.4010
  631MPD2    C4 9397   3.376   1.781  15.437  0.5042  0.1020  0.4600
  631MPD2    C5 9398   3.286   1.887  15.451  0.0186 -0.7920 -0.0904
  631MPD2     H 9399   3.520   1.907  15.154 -1.7578 -1.4661 -1.2432
  631MPD2    H1 9400   3.354   1.692  15.496  1.4006 -1.1548 -1.0971
  631MPD2    H2 9401   3.224   2.080  15.399  0.9363  0.2617  1.6488
  631MPD2    H3 9402   3.209   1.894  15.527  0.7735 -1.6025  0.7406
  631MPD2     N 9403   3.556   1.683  15.302  0.0084  0.3998 -0.3484
  631MPD2    H5 9404   3.610   1.699  15.218  0.0139  1.3493 -0.1642
  631MPD2    N1 9405   3.387   2.129  15.192  0.2339  0.4576 -0.3875
  631MPD2    H7 9406   3.313   2.195  15.213  0.4221  0.0028  1.6275
  632TMC3    C1 9407   3.421   2.273  15.001 -0.0378  0.1150  0.7921
  632TMC3    C2 9408   3.304   2.334  15.031  0.5196  0.4739 -0.2472
  632TMC3    C3 9409   3.227   2.374  14.926  0.1017  0.3598 -0.2431
  632TMC3    C4 9410   3.469   2.262  14.872 -0.6197 -0.1118 -0.0707
  632TMC3    C5 9411   3.384   2.296  14.766 -0.5777  0.6512 -0.3894
  632TMC3    C6 9412   3.262   2.352  14.794 -0.1948 -0.2070 -0.2300
  632TMC3     C 9413   3.457   2.153  15.077  0.2136  0.5816  0.2037
  632TMC3     O 9414   3.499   2.073  14.992 -0.0204  0.0904 -0.7694
  632TMC3     H 9415   3.265   2.333  15.132  0.9601 -1.8752 -0.1053
  632TMC3    H1 9416   3.571   2.227  14.857  0.3520  2.5283  0.4197
  632TMC3    H2 9417   3.198   2.374  14.710  2.3534  2.6773 -1.4651
  632TMC3    C7 9418   3.388   2.202  14.659  0.6246  1.0524 -0.2152
  632TMC3    C8 9419   3.085   2.396  14.949 -0.5094 -0.9432  0.1989
  632TMC3    O1 9420   3.328   2.219  14.555  0.2234 -0.6172 -0.3740
  632TMC3    O2 9421   3.014   2.343  14.862 -0.0179  0.5137  0.0126
  633MPD2     C 9422   2.853   4.697  17.232  0.0361  0.1641  0.0987
  633MPD2    C1 9423   2.774   4.643  17.132  0.4830  0.4348 -0.0457
  633MPD2    C2 9424   2.724   4.517  17.152 -0.1621 -0.3485  0.0318
  633MPD2    C3 9425   2.737   4.454  17.274  0.0124  0.3857 -0.6942
  633MPD2    C4 9426   2.815   4.510  17.378 -1.2920 -0.1429 -0.2384
  633MPD2    C5 9427   2.872   4.633  17.355 -0.3008  0.9923  0.2476
  633MPD2     H 9428   2.670   4.482  17.065  0.7027 -0.7324 -0.3441
  633MPD2    H1 9429   2.845   4.463  17.471  2.9400 -0.3741 -1.7225
  633MPD2    H2 9430   2.910   0.048  17.220  0.1349 -0.2594 -2.4868
  633MPD2    H3 9431   2.928   4.686  17.430 -0.6418  0.7848  0.6475
  633MPD2     N 9432   2.691   4.319  17.288  0.1071  0.7143  0.4925
  633MPD2    H5 9433   2.739   4.259  17.354 -0.0163 -0.8979 -0.8871
  633MPD2    N1 9434   2.769   4.702  17.007 -0.1943  0.8446  0.9963
  633MPD2    H7 9435   2.724   4.645  16.937  0.6181 -1.6505  2.4994
  634TMC3    C1 9436   2.801   0.132  16.837 -0.3134  0.6973  0.4571
  634TMC3    C2 9437   2.811   0.041  16.732  0.5352  0.1635 -0.1154
  634TMC3    C3 9438   2.817   0.083  16.604  0.8037  0.3008  0.1232
  634TMC3    C4 9439   2.790   0.265  16.818  0.5295 -0.1325 -0.2322
  634TMC3    C5 9440   2.793   0.312  16.687  0.6467  0.0497 -0.3407
  634TMC3    C6 9441   2.814   0.222  16.580 -0.5260 -0.2808  0.0265
  634TMC3     C 9442   2.822   0.090  16.975  0.4881 -0.8522 -0.4067
  634TMC3     O 9443   2.851   0.186  17.042  0.0123 -0.1372  0.4697
  634TMC3     H 9444   2.817   4.677  16.762 -0.1033 -0.3419 -1.7556
  634TMC3    H1 9445   2.772   0.333  16.900  0.9832  0.4986 -0.6617
  634TMC3    H2 9446   2.814   0.257  16.477  4.1402 -0.4827 -0.0048
  634TMC3    C7 9447   2.774   0.449  16.651  0.2265 -0.7621  0.7147
  634TMC3    C8 9448   2.790   4.735  16.495 -0.0919 -0.3078 -0.4784
  634TMC3    O1 9449   2.804   0.486  16.540  0.1311 -1.0315 -0.0763
  634TMC3    O2 9450   2.819   0.029  16.383  0.3224 -0.2963 -0.1058
  635TMC3    C1 9451   2.785   2.017   1.151  1.3586 -0.1705  0.3227
  635TMC3    C2 9452   2.650   2.026   1.137 -0.6595  0.3054  0.2937
  635TMC3    C3 9453   2.581   2.020   1.251 -0.4544 -0.2354 -0.4731
  635TMC3    C4 9454   2.854   1.998   1.268 -0.3334 -0.2026  0.9636
  635TMC3    C5 9455   2.777   1.980   1.380  0.7518 -0.3696  0.1132
  635TMC3    C6 9456   2.640   1.993   1.372  0.4495 -0.0520 -0.1858
  635TMC3     C 9457   2.860   2.008   1.032  0.5756 -0.1514  0.2352
  635TMC3     O 9458   2.972   2.059   1.042  0.0002  0.2457 -0.1516
  635TMC3     H 9459   2.601   2.059   1.047  0.0553  0.2057 -0.1338
  635TMC3    H1 9460   2.962   1.987   1.269 -0.3446 -0.3706  0.4472
  635TMC3    H2 9461   2.584   1.966   1.461  3.4120 -1.1583  1.3395
  635TMC3    C7 9462   2.844   1.919   1.492  0.0939  0.9598  0.1043
  635TMC3    C8 9463   2.440   1.983   1.245  0.2299  0.4124  0.3121
  635TMC3    O1 9464   2.958   1.877   1.477  0.6309  0.4453  0.6052
  635TMC3    O2 9465   2.383   1.967   1.354 -0.2197  0.4339  0.5046
  636MPD2     C 9466   3.998   0.134  15.933  0.2087 -0.0420  0.3969
  636MPD2    C1 9467   4.115   0.133  16.008  0.9203 -0.2894  0.5130
  636MPD2    C2 9468   4.175   0.008  16.035 -0.4989 -1.0314  0.1398
  636MPD2    C3 9469   4.116   4.627  15.991  0.1267 -0.0054  0.4096
  636MPD2    C4 9470   4.005   4.632  15.905  0.4642  0.1289 -0.8834
  636MPD2    C5 9471   3.945   0.014  15.883  0.7588  0.0281 -0.3699
  636MPD2     H 9472   4.266   0.006  16.094 -0.5982 -0.3903  0.3066
  636MPD2    H1 9473   3.947   4.550  15.864  1.5129 -0.3587 -1.3936
  636MPD2    H2 9474   3.933   0.220  15.931  0.7656  0.3533 -0.7470
  636MPD2    H3 9475   3.847   0.025  15.838  0.8252  0.9176 -0.2987
  636MPD2     N 9476   4.171   4.507  16.042 -0.0809 -0.1841 -0.5990
  636MPD2    H5 9477   4.252   4.518  16.101 -1.3309  1.9789  0.6850
  636MPD2    N1 9478   4.166   0.248  16.070 -0.9070 -0.3930 -0.2820
  636MPD2    H7 9479   4.256   0.235  16.115  0.4444  1.6530 -2.3890
  637TMC3    C1 9480   4.228   4.282  16.057  0.3903 -0.0135 -0.1697
  637TMC3    C2 9481   4.330   4.320  16.144  0.7876 -0.3542  0.2901
  637TMC3    C3 9482   4.450   4.244  16.145 -0.3895  0.4392 -0.7092
  637TMC3    C4 9483   4.242   4.173  15.966 -0.1750 -0.4724 -0.2680
  637TMC3    C5 9484   4.359   4.101  15.974  0.5513  0.1316 -0.1757
  637TMC3    C6 9485   4.458   4.133  16.062  0.0782  0.2480  0.0364
  637TMC3     C 9486   4.130   4.377  16.014 -0.2279 -0.3645  1.1669
  637TMC3     O 9487   4.044   4.328  15.946  0.0245 -0.6147  0.7426
  637TMC3     H 9488   4.312   4.410  16.202  2.6230  0.1509  0.0849
  637TMC3    H1 9489   4.162   4.148  15.897  0.2817  0.4218 -1.1175
  637TMC3    H2 9490   4.542   4.068  16.083  0.1846  0.9320  1.7580
  637TMC3    C7 9491   4.416   4.056  15.849  0.0491  1.1908 -0.0314
  637TMC3    C8 9492   4.567   4.333  16.124  0.1509 -0.4157  0.0777
  637TMC3    O1 9493   4.346   4.004  15.764 -0.1279  0.0893 -0.4730
  637TMC3    O2 9494   4.649   4.288  16.044  0.1203  0.4371  0.1947
  638MPD2     C 9495   3.971   3.705  14.817  0.2823 -0.3932 -0.8049
  638MPD2    C1 9496   4.017   3.581  14.773 -0.1004 -0.0403  0.2910
  638MPD2    C2 9497   4.005   3.472  14.861  1.8422 -0.1131  0.8192
  638MPD2    C3 9498   3.961   3.487  14.988  0.2190  0.2205 -0.7133
  638MPD2    C4 9499   3.934   3.616  15.038 -0.2305 -0.0195 -0.1782
  638MPD2    C5 9500   3.929   3.722  14.947 -0.0726  0.4653 -0.1298
  638MPD2     H 9501   4.036   3.374  14.827 -0.4377 -0.1375 -1.1268
  638MPD2    H1 9502   3.913   3.639  15.142  0.5911  1.5510 -0.3584
  638MPD2    H2 9503   3.980   3.791  14.751 -0.5380 -1.4509 -2.2928
  638MPD2    H3 9504   3.896   3.820  14.981 -1.8143  0.3869 -1.5948
  638MPD2     N 9505   3.951   3.373  15.076  0.1722 -0.1093  1.2792
  638MPD2    H5 9506   3.999   3.289  15.048  1.2709  1.1469 -0.5935
  638MPD2    N1 9507   4.084   3.545  14.653 -0.4469 -0.1893  0.4523
  638MPD2    H7 9508   4.134   3.457  14.651  0.5294  0.3353  1.3291
  639TMC3    C1 9509   3.830   3.225  15.207  0.2585 -0.5924 -0.6572
  639TMC3    C2 9510   3.741   3.171  15.117  0.0830  0.7543  0.3059
  639TMC3    C3 9511   3.777   3.054  15.051  0.5423 -0.3822 -0.3882
  639TMC3    C4 9512   3.952   3.163  15.225 -0.6334  0.3437  0.9422
  639TMC3    C5 9513   3.992   3.062  15.141  0.4316 -0.7840 -0.5910
  639TMC3    C6 9514   3.903   2.998  15.060  0.1410 -0.4436  0.4997
  639TMC3     C 9515   3.857   3.366  15.179 -0.2193  0.2659  0.3199
  639TMC3     O 9516   3.771   3.450  15.191  0.0545 -0.1653  0.8694
  639TMC3     H 9517   3.637   3.201  15.122 -0.1952  0.2409 -2.3669
  639TMC3    H1 9518   4.029   3.214  15.282  1.4554  0.2307 -1.7738
  639TMC3    H2 9519   3.922   2.907  15.006 -0.0915 -0.7830  0.9846
  639TMC3    C7 9520   4.117   3.002  15.176  0.2016 -0.3250  0.7724
  639TMC3    C8 9521   3.699   2.995  14.952 -0.5619  0.4498  0.4272
  639TMC3    O1 9522   4.146   3.010  15.296  0.0643 -0.0427 -0.3637
  639TMC3    O2 9523   3.749   2.973  14.843  0.1864  0.3077 -0.0685
  640MPD2     C 9524   0.289   2.297   9.901 -0.6739 -0.1375  0.4870
  640MPD2    C1 9525   0.153   2.298   9.892 -0.3450  0.5977 -0.2330
  640MPD2    C2 9526   0.067   2.343   9.990 -0.3375  0.4291 -0.3193
  640MPD2    C3 9527   0.128   2.401  10.107  0.7257  0.8228  0.0487
  640MPD2    C4 9528   0.264   2.397  10.121 -0.3473 -0.2217 -0.0975
  640MPD2    C5 9529   0.339   2.341  10.021  0.1112 -0.2302 -0.6382
  640MPD2     H 9530   4.700   2.332   9.974 -0.2059 -2.6291  0.7508
  640MPD2    H1 9531   0.317   2.441  10.205 -0.3314  2.3724 -1.4418
  640MPD2    H2 9532   0.356   2.253   9.828 -0.7663  2.3764 -1.1006
  640MPD2    H3 9533   0.445   2.343  10.040  0.1966 -1.3092 -0.9802
  640MPD2     N 9534   0.067   2.477  10.204  0.5500  0.3209 -0.3320
  640MPD2    H5 9535   0.125   2.518  10.276 -0.8317 -1.3487  1.7466
  640MPD2    N1 9536   0.107   2.251   9.766 -0.9084  1.2033 -0.6670
  640MPD2    H7 9537   0.171   2.200   9.706 -1.4738 -1.5805  1.0969
  641TMC3    C1 9538   0.003   2.198   9.579 -0.2161  0.5174 -0.9507
  641TMC3    C2 9539   0.091   2.086   9.573  0.7511  0.5885 -0.5838
  641TMC3    C3 9540   0.113   2.023   9.448 -1.4691  0.6956  0.2179
  641TMC3    C4 9541   4.672   2.250   9.470 -0.5427 -0.0035  0.1655
  641TMC3    C5 9542   4.696   2.179   9.351  0.3233  0.6430  0.2366
  641TMC3    C6 9543   0.044   2.071   9.336 -0.7668  0.0914 -0.3479
  641TMC3     C 9544   4.729   2.267   9.704  0.1078 -0.2320 -0.3532
  641TMC3     O 9545   4.633   2.335   9.734 -0.5998 -0.2663 -0.0918
  641TMC3     H 9546   0.126   2.031   9.659  0.0039  1.3754  0.2228
  641TMC3    H1 9547   4.612   2.340   9.478  0.6027  0.9404 -1.8589
  641TMC3    H2 9548   0.045   2.016   9.243 -1.1372 -0.1117 -0.2337
  641TMC3    C7 9549   4.587   2.190   9.249 -0.1199  0.1363  0.4852
  641TMC3    C8 9550   0.153   1.883   9.449 -0.4467 -0.0925  0.9496
  641TMC3    O1 9551   4.623   2.146   9.137  0.2217  0.3674 -0.0430
  641TMC3    O2 9552   0.119   1.810   9.358 -0.1227 -0.4818 -0.3169
  642TMC3    C1 9553   1.013   3.170  12.538 -0.1048  0.3395  0.4988
  642TMC3    C2 9554   1.142   3.198  12.507 -0.6328  0.2773 -0.4619
  642TMC3    C3 9555   1.195   3.154  12.390 -0.1247 -0.2614  0.9127
  642TMC3    C4 9556   0.935   3.098  12.457  0.0892 -0.0319  0.8388
  642TMC3    C5 9557   0.994   3.040  12.347  0.1694  0.0283 -0.1138
  642TMC3    C6 9558   1.121   3.072  12.305  0.2651 -0.4401  0.1832
  642TMC3     C 9559   0.946   3.265  12.634 -0.0444 -0.9422  0.5621
  642TMC3     O 9560   1.025   3.345  12.685 -0.1836  0.6893 -0.4372
  642TMC3     H 9561   1.200   3.265  12.570  0.7770 -1.4837  0.0990
  642TMC3    H1 9562   0.835   3.067  12.482 -0.3623  0.6659 -0.0849
  642TMC3    H2 9563   1.164   3.035  12.213  0.8422 -2.3461  1.2120
  642TMC3    C7 9564   0.948   2.900  12.332  0.1236  0.7881 -0.1998
  642TMC3    C8 9565   1.342   3.145  12.376 -0.4503  0.6273  0.1436
  642TMC3    O1 9566   0.991   2.848  12.230 -0.2034  0.4855  0.1306
  642TMC3    O2 9567   1.379   3.033  12.338  0.1247  0.3067  0.0843
  643TMC3    C1 9568   4.672   2.644   0.132 -0.1106 -0.8110  0.1543
  643TMC3    C2 9569   4.560   2.656   0.060  0.6622 -0.0439 -0.5676
  643TMC3    C3 9570   4.550   2.581  17.704  0.0974  0.0082  0.7647
  643TMC3    C4 9571   0.049   2.594   0.079 -0.1038 -0.1233 -0.8736
  643TMC3    C5 9572   0.036   2.527  17.720  0.5766  0.5798  0.4935
  643TMC3    C6 9573   4.657   2.520  17.651  0.1978 -0.8424  0.0976
  643TMC3     C 9574   4.678   2.737   0.237  0.4602  0.2004 -0.2557
  643TMC3     O 9575   4.596   2.827   0.246  0.3576  0.2726  0.0978
  643TMC3     H 9576   4.476   2.704   0.110  0.1179 -1.9780  0.3752
  643TMC3    H1 9577   0.141   2.585   0.136 -1.7720  0.6706  1.9547
  643TMC3    H2 9578   4.650   2.478  17.552 -0.4110 -2.8801  1.0053
  643TMC3    C7 9579   0.142   2.530  17.621  0.2223 -0.8650  0.5832
  643TMC3    C8 9580   4.487   2.655  17.598 -0.2922 -0.7190 -0.5070
  643TMC3    O1 9581   0.113   2.513  17.504 -0.6677  0.3642 -0.0678
  643TMC3    O2 9582   4.445   2.592  17.501 -0.4932 -0.3473  0.2591
  644MPD2     C 9583   4.587   2.610   9.194  0.0957 -0.0989 -1.0375
  644MPD2    C1 9584   4.711   2.566   9.209  0.2326  0.0340  0.2497
  644MPD2    C2 9585   0.028   2.577   9.341  0.4213  0.1109 -0.5462
  644MPD2    C3 9586   4.702   2.620   9.447 -1.0376 -0.0416 -0.1543
  644MPD2    C4 9587   4.568   2.653   9.432  0.4166 -0.1188 -0.0593
  644MPD2    C5 9588   4.518   2.657   9.306 -0.4946  0.1839 -0.0213
  644MPD2     H 9589   0.131   2.546   9.358  1.3233  3.1564 -0.4269
  644MPD2    H1 9590   4.509   2.675   9.520  2.0017  1.8532  0.5275
  644MPD2    H2 9591   4.543   2.592   9.096 -1.5196  2.1085 -0.7057
  644MPD2    H3 9592   4.414   2.684   9.297 -1.3545 -3.4220 -1.1491
  644MPD2     N 9593   0.030   2.642   9.571  0.4310  0.1313 -0.2540
  644MPD2    H5 9594   0.131   2.636   9.576  0.3136 -1.3545  0.3682
  644MPD2    N1 9595   0.041   2.505   9.100 -0.1468  0.0255  1.2291
  644MPD2    H7 9596   4.740   2.495   9.008 -0.8416  1.0360  1.4343
  645TMC3    C1 9597   0.063   2.697   9.800  1.0032 -0.1412  0.3798
  645TMC3    C2 9598   0.028   2.792   9.896  0.5193 -0.0464 -0.3971
  645TMC3    C3 9599   0.123   2.819   9.992  0.2463 -0.6686 -0.1759
  645TMC3    C4 9600   0.190   2.638   9.792 -0.3850 -0.7559 -0.2524
  645TMC3    C5 9601   0.283   2.675   9.886 -0.4362 -0.0881 -0.5834
  645TMC3    C6 9602   0.255   2.774   9.986  0.1783  0.0427  0.4768
  645TMC3     C 9603   4.712   2.684   9.686  0.1992  0.3550 -0.1281
  645TMC3     O 9604   4.602   2.728   9.699  0.3003  0.5185  0.5583
  645TMC3     H 9605   4.670   2.838   9.892  1.5996  2.1434 -1.5942
  645TMC3    H1 9606   0.213   2.564   9.717  0.1619  0.1459 -0.9777
  645TMC3    H2 9607   0.329   2.802  10.061 -1.2861  0.3010  1.8108
  645TMC3    C7 9608   0.425   2.623   9.875 -0.2999  0.6454 -0.5999
  645TMC3    C8 9609   0.097   2.943  10.058  0.3861  0.6636  0.2863
  645TMC3    O1 9610   0.454   2.584   9.764 -0.3045 -0.3157  0.0577
  645TMC3    O2 9611   0.181   3.005  10.111 -0.2964 -0.0156  0.1952
  646MPD2     C 9612   4.232   2.009  14.591 -0.2770  0.0120 -0.0596
  646MPD2    C1 9613   4.163   2.081  14.680  0.6841 -0.7693 -0.3193
  646MPD2    C2 9614   4.053   2.152  14.630 -0.0176  0.6083 -0.1946
  646MPD2    C3 9615   4.015   2.158  14.501  0.6668 -0.4768 -0.2431
  646MPD2    C4 9616   4.096   2.092  14.408 -0.0119  0.1130 -0.3237
  646MPD2    C5 9617   4.200   2.017  14.451  0.0667 -0.1692 -0.1084
  646MPD2     H 9618   3.991   2.200  14.705 -1.6928  0.1399 -1.2852
  646MPD2    H1 9619   4.064   2.086  14.304  0.5698  0.9024 -0.5470
  646MPD2    H2 9620   4.322   1.950  14.604 -0.9060 -1.1306 -0.8478
  646MPD2    H3 9621   4.244   1.947  14.381 -1.6177 -0.6787 -0.6576
  646MPD2     N 9622   3.901   2.218  14.455  0.1430  0.2929  0.2283
  646MPD2    H5 9623   3.892   2.225  14.354  0.5281  1.6611  0.2888
  646MPD2    N1 9624   4.218   2.088  14.811 -0.3888 -0.4178  0.2327
  646MPD2    H7 9625   4.307   2.042  14.825  0.2925  1.3133  1.5004
  647TMC3    C1 9626   4.233   2.124  15.049  0.5470  0.1322 -0.4810
  647TMC3    C2 9627   4.171   2.076  15.158  0.1672  0.0353  0.2174
  647TMC3    C3 9628   4.236   2.050  15.277  0.1834 -0.0922 -0.1849
  647TMC3    C4 9629   4.366   2.137  15.047 -0.1190 -0.0635  0.5360
  647TMC3    C5 9630   4.428   2.125  15.162 -0.0701 -0.3689 -0.5712
  647TMC3    C6 9631   4.370   2.075  15.272  0.2173 -0.4589 -0.4877
  647TMC3     C 9632   4.154   2.131  14.924 -0.0042  0.9788 -0.6286
  647TMC3     O 9633   4.034   2.146  14.937 -0.1455  0.3696 -0.1395
  647TMC3     H 9634   4.065   2.056  15.150 -0.2033  2.3541 -0.7301
  647TMC3    H1 9635   4.421   2.168  14.959  1.5939 -1.9475  0.9417
  647TMC3    H2 9636   4.432   2.053  15.358 -0.1567  0.3751  0.0005
  647TMC3    C7 9637   4.561   2.067  15.155  0.4477 -0.1069 -0.1974
  647TMC3    C8 9638   4.233   1.913  15.308 -0.3295  0.2513  0.3889
  647TMC3    O1 9639   4.592   1.972  15.230 -0.2489 -0.2897  0.0893
  647TMC3    O2 9640   4.263   1.879  15.419 -0.4362  0.3062 -0.2020
  648TMC3    C1 9641   3.203   0.060  15.935  0.2665 -0.2533 -0.3481
  648TMC3    C2 9642   3.162   4.674  15.906  0.4500 -0.0361  0.3566
  648TMC3    C3 9643   3.079   4.667  15.795 -0.0716  0.0781  0.0697
  648TMC3    C4 9644   3.133   0.168  15.896  0.1803  0.6759  0.2953
  648TMC3    C5 9645   3.033   0.156  15.807 -0.3139 -0.3548  0.4805
  648TMC3    C6 9646   3.011   0.037  15.749 -0.2965 -0.0275  0.6907
  648TMC3     C 9647   3.240   0.072  16.074 -0.1933 -0.5351  0.8126
  648TMC3     O 9648   3.331   0.150  16.105 -0.1056  0.0420 -0.0342
  648TMC3     H 9649   3.213   4.581  15.928  2.0440  0.6206 -0.6270
  648TMC3    H1 9650   3.181   0.263  15.916 -0.3898  0.6707  1.6708
  648TMC3    H2 9651   2.958   0.035  15.654  1.0564  1.0852 -0.0912
  648TMC3    C7 9652   3.008   0.271  15.736 -0.4188  0.2804  0.5825
  648TMC3    C8 9653   3.066   4.552  15.711 -0.1705 -0.6916 -0.5294
  648TMC3    O1 9654   3.005   0.259  15.617 -0.3555 -0.2407 -0.4170
  648TMC3    O2 9655   2.965   4.546  15.645  0.3525 -0.1404 -0.8657
  649TMC3    C1 9656   2.655   0.571  13.078 -0.1677  0.4275  0.5073
  649TMC3    C2 9657   2.790   0.551  13.075  0.4744  0.1496  0.2677
  649TMC3    C3 9658   2.856   0.559  13.197  0.0152  0.0457  0.7245
  649TMC3    C4 9659   2.581   0.583  13.190  0.0619 -0.3127 -0.0447
  649TMC3    C5 9660   2.655   0.570  13.306 -0.0475 -0.0267  0.6066
  649TMC3    C6 9661   2.795   0.565  13.316 -0.7240 -0.3354 -0.1227
  649TMC3     C 9662   2.567   0.579  12.966 -0.2091 -1.4225  0.3385
  649TMC3     O 9663   2.450   0.610  12.988  0.3648 -0.1948  0.2670
  649TMC3     H 9664   2.844   0.532  12.983 -0.2606 -1.4790  0.1684
  649TMC3    H1 9665   2.475   0.561  13.194 -0.0198 -0.0411 -0.7427
  649TMC3    H2 9666   2.852   0.551  13.408 -1.5534  0.2494  0.4841
  649TMC3    C7 9667   2.572   0.535  13.423  0.2960  0.0384  0.5490
  649TMC3    C8 9668   2.994   0.513  13.194 -0.7909  0.0077 -0.1756
  649TMC3    O1 9669   2.475   0.608  13.443 -0.1656 -0.0132  0.5698
  649TMC3    O2 9670   3.036   0.457  13.301 -0.3688 -0.1612 -0.2121
  650TMC3    C1 9671   0.516   2.368  12.962  0.3908 -0.0687 -0.0108
  650TMC3    C2 9672   0.394   2.396  13.019 -0.9059 -0.2670  0.1804
  650TMC3    C3 9673   0.320   2.489  12.958 -0.6801  1.2371 -0.4682
  650TMC3    C4 9674   0.567   2.443  12.858  0.0736 -0.7758  0.1397
  650TMC3    C5 9675   0.485   2.545  12.816 -0.2174  0.0558  0.0638
  650TMC3    C6 9676   0.361   2.572  12.858 -0.0220 -0.3022 -0.8326
  650TMC3     C 9677   0.572   2.236  12.996 -0.4716  0.6001 -0.1508
  650TMC3     O 9678   0.508   2.165  13.070 -0.0320  0.0783 -0.2961
  650TMC3     H 9679   0.361   2.342  13.108  1.0798 -1.4306  0.1970
  650TMC3    H1 9680   0.656   2.417  12.802 -0.3682  1.5019 -1.6438
  650TMC3    H2 9681   0.311   2.663  12.827 -1.8911 -0.8092  0.6748
  650TMC3    C7 9682   0.527   2.599  12.688  0.2145  0.1003 -0.5679
  650TMC3    C8 9683   0.196   2.545  13.008  0.2799 -0.5090 -0.1932
  650TMC3    O1 9684   0.585   2.527  12.617 -0.2836 -0.1174 -0.2570
  650TMC3    O2 9685   0.206   2.647  13.077  0.1187  0.2067  0.4922
  651MPD2     C 9686   3.961   4.484  10.131 -0.6092  0.3986  0.0597
  651MPD2    C1 9687   3.927   4.621  10.141  0.2370  0.0301 -0.2207
  651MPD2    C2 9688   4.027   4.711  10.175  0.0178  0.3951  0.4089
  651MPD2    C3 9689   4.158   4.667  10.196 -0.7242 -0.2933  0.2244
  651MPD2    C4 9690   4.182   4.534  10.182  0.1131 -0.0310 -0.4397
  651MPD2    C5 9691   4.087   4.441  10.147  0.0004  0.1034 -0.4155
  651MPD2     H 9692   4.005   0.075  10.194 -2.8508  0.1290 -1.4193
  651MPD2    H1 9693   4.276   4.492  10.212  0.2003  1.3189  1.1493
  651MPD2    H2 9694   3.886   4.409  10.109 -1.6127  1.0165  1.3777
  651MPD2    H3 9695   4.108   4.335  10.138  0.0468  0.1142 -0.4388
  651MPD2     N 9696   4.254   0.016  10.245 -0.1763  0.9938 -0.4420
  651MPD2    H5 9697   4.222   0.111  10.234 -0.7173  0.6966 -1.3712
  651MPD2    N1 9698   3.795   4.668  10.129  0.2032 -0.5212  0.7609
  651MPD2    H7 9699   3.789   0.029  10.122 -3.2498 -0.8533 -1.4477
  652TMC3    C1 9700   4.667   0.198  10.365 -0.5197  0.5340 -0.2660
  652TMC3    C2 9701   4.583   0.098  10.372 -0.1273  0.1607  0.9444
  652TMC3    C3 9702   4.460   0.115  10.310  0.9831 -0.0878  0.5247
  652TMC3    C4 9703   4.639   0.318  10.305  0.7648 -0.4294  0.1825
  652TMC3    C5 9704   4.522   0.328  10.229  0.4386  0.4832 -0.0876
  652TMC3    C6 9705   4.438   0.227  10.233  0.5871 -0.5278 -0.1532
  652TMC3     C 9706   0.064   0.170  10.423  0.6767 -0.3866  0.7882
  652TMC3     O 9707   0.074   0.071  10.497 -0.3629 -0.1038  0.0863
  652TMC3     H 9708   4.617   0.015  10.433 -0.6534 -0.0523  0.9469
  652TMC3    H1 9709   4.721   0.386  10.287 -1.5637  2.0547 -1.0825
  652TMC3    H2 9710   4.341   0.234  10.184  0.2796  0.1689  0.5576
  652TMC3    C7 9711   4.458   0.448  10.181 -0.2582 -0.5180 -0.1342
  652TMC3    C8 9712   4.383   4.735  10.284 -0.8027 -0.6165 -0.5565
  652TMC3    O1 9713   4.375   0.438  10.092 -0.2070  0.1412  0.4867
  652TMC3    O2 9714   4.441   4.631  10.318 -0.4385 -0.1469  0.0200
  653MPD2     C 9715   2.752   0.277  17.691  0.3066 -0.2575 -0.6767
  653MPD2    C1 9716   2.727   0.345  17.577 -0.1583 -0.1388  0.2491
  653MPD2    C2 9717   2.673   0.278  17.466 -0.4969 -0.8447 -0.6922
  653MPD2    C3 9718   2.641   0.139  17.473 -0.4307 -0.3191  0.4608
  653MPD2    C4 9719   2.696   0.067  17.580  0.0954 -0.6740 -0.2965
  653MPD2    C5 9720   2.753   0.138  17.684 -0.3183  0.4479 -0.1631
  653MPD2     H 9721   2.640   0.335  17.380 -0.1498  2.2139  1.1650
  653MPD2    H1 9722   2.679   4.700  17.588 -0.6659 -0.3711  2.2111
  653MPD2    H2 9723   2.787   0.318   0.027  2.4573 -1.3237 -1.0078
  653MPD2    H3 9724   2.783   0.080   0.013  0.0624  0.6353 -0.1706
  653MPD2     N 9725   2.557   0.090  17.370 -0.2631  0.2942 -0.5312
  653MPD2    H5 9726   2.520   0.151  17.297  2.3143  1.8672 -0.5357
  653MPD2    N1 9727   2.730   0.484  17.570  0.2350  0.0240 -0.1321
  653MPD2    H7 9728   2.684   0.531  17.493  0.8193  1.9586  0.7083
  654TMC3    C1 9729   2.405   4.689  17.264  0.3900  0.5105  0.2034
  654TMC3    C2 9730   2.352   0.059  17.199 -0.0834  0.1035 -0.4660
  654TMC3    C3 9731   2.244   0.027  17.123 -1.3536  0.2050  0.2280
  654TMC3    C4 9732   2.342   4.565  17.270  0.3008 -0.3490  0.1753
  654TMC3    C5 9733   2.222   4.547  17.205 -0.1943  0.4278 -0.0317
  654TMC3    C6 9734   2.184   4.647  17.120  0.2283  0.2931  0.2087
  654TMC3     C 9735   2.499   4.706  17.369 -0.1446  0.2280 -0.0820
  654TMC3     O 9736   2.518   4.613  17.449  0.0168 -0.1962  0.0997
  654TMC3     H 9737   2.391   0.159  17.206 -0.1296  0.2497 -2.1114
  654TMC3    H1 9738   2.383   4.494  17.342  0.1809  0.7994  1.3706
  654TMC3    H2 9739   2.110   4.615  17.047 -2.9862  0.6645  3.2779
  654TMC3    C7 9740   2.152   4.423  17.215 -0.2411 -0.2388 -1.2074
  654TMC3    C8 9741   2.178   0.131  17.038 -0.8493 -0.1328  0.6603
  654TMC3    O1 9742   2.065   4.402  17.135  0.2078  0.0650 -0.6623
  654TMC3    O2 9743   2.125   0.090  16.938 -0.3691 -0.6447  0.2326
  655MPD2     C 9744   3.834   0.284  15.613 -0.1922 -0.3222  0.5418
  655MPD2    C1 9745   3.739   0.348  15.533  0.4919  0.1618 -0.8902
  655MPD2    C2 9746   3.700   0.292  15.412 -0.3247  0.3598  0.1354
  655MPD2    C3 9747   3.756   0.174  15.366 -0.0164 -0.1639  0.1298
  655MPD2    C4 9748   3.858   0.120  15.433 -0.4078 -0.3351  0.0539
  655MPD2    C5 9749   3.893   0.171  15.560 -0.3220 -0.5988  0.1397
  655MPD2     H 9750   3.631   0.357  15.358  0.9894  3.0465  1.6817
  655MPD2    H1 9751   3.904   0.033  15.388 -0.3862  0.6252 -1.8031
  655MPD2    H2 9752   3.869   0.327  15.707  0.9285  1.5572 -0.7354
  655MPD2    H3 9753   3.975   0.118  15.607 -0.9415 -0.2282  1.6076
  655MPD2     N 9754   3.716   0.111  15.246 -0.6826  0.2187  0.3883
  655MPD2    H5 9755   3.776   0.039  15.207  2.1323  1.8877  1.6604
  655MPD2    N1 9756   3.670   0.466  15.567  0.0846 -0.8478 -0.9769
  655MPD2    H7 9757   3.589   0.496  15.513 -1.8423 -2.2640  1.1309
  656TMC3    C1 9758   3.598   0.648  15.718  0.2230  0.6047 -0.4404
  656TMC3    C2 9759   3.563   0.656  15.845  0.0067  0.3303 -0.0255
  656TMC3    C3 9760   3.453   0.727  15.884 -0.3006  0.6392  0.3068
  656TMC3    C4 9761   3.526   0.714  15.613  0.8453  0.4688  0.5382
  656TMC3    C5 9762   3.424   0.795  15.655  0.0808 -0.3828 -0.5767
  656TMC3    C6 9763   3.379   0.793  15.790 -0.0246  0.5843  0.2000
  656TMC3     C 9764   3.688   0.535  15.687 -0.2080 -0.7782 -0.5389
  656TMC3     O 9765   3.778   0.520  15.768  0.3995  0.6681 -0.0033
  656TMC3     H 9766   3.614   0.589  15.914 -1.8184  1.5422  2.5211
  656TMC3    H1 9767   3.552   0.708  15.508 -0.6020 -0.7325  0.2630
  656TMC3    H2 9768   3.281   0.834  15.812 -0.0597  0.8637 -0.4623
  656TMC3    C7 9769   3.354   0.869  15.549 -0.3157  0.3200 -0.6690
  656TMC3    C8 9770   3.377   0.661  15.995  0.2431 -1.1595  0.0833
  656TMC3    O1 9771   3.402   0.853  15.435 -0.1192  0.5553  0.2073
  656TMC3    O2 9772   3.383   0.541  16.011 -0.0883  0.4033  0.7112
  657TMC3    C1 9773   2.834   3.895  14.224  0.4429 -0.3017  0.1621
  657TMC3    C2 9774   2.812   3.980  14.327 -0.0690  0.4422  0.9919
  657TMC3    C3 9775   2.712   4.064  14.319 -0.0651  0.0844  0.0920
  657TMC3    C4 9776   2.750   3.890  14.112 -0.0041  0.1436  0.7490
  657TMC3    C5 9777   2.647   3.981  14.109  0.2196 -0.1616 -0.2859
  657TMC3    C6 9778   2.628   4.070  14.210 -0.7092  0.6040 -0.2141
  657TMC3     C 9779   2.930   3.782  14.236 -0.2215 -0.6399 -0.8859
  657TMC3     O 9780   2.892   3.674  14.193 -0.6342  0.3250  0.3841
  657TMC3     H 9781   2.870   3.974  14.419  3.1358  2.1770 -0.9262
  657TMC3    H1 9782   2.759   3.806  14.044  3.5864  0.8490  0.3295
  657TMC3    H2 9783   2.540   4.133  14.206 -0.4022  1.2457  2.9783
  657TMC3    C7 9784   2.551   3.998  14.001 -0.8353  0.2690  0.3742
  657TMC3    C8 9785   2.672   4.151  14.438 -0.2077  0.5505 -0.0049
  657TMC3    O1 9786   2.435   4.043  14.025 -0.3055 -0.8248 -0.6970
  657TMC3    O2 9787   2.600   4.245  14.407 -0.3468  0.0132 -0.0526
  658MPD2     C 9788   4.195   4.620  14.886 -0.1623 -0.5407 -0.1546
  658MPD2    C1 9789   4.073   4.590  14.827 -0.0546 -0.4457 -0.3970
  658MPD2    C2 9790   4.076   4.505  14.719  0.4756 -0.1107  0.8950
  658MPD2    C3 9791   4.199   4.468  14.671 -0.8040  0.1585  0.3257
  658MPD2    C4 9792   4.320   4.498  14.729  0.1787  0.4893 -0.5864
  658MPD2    C5 9793   4.317   4.569  14.845  0.1203  0.5838  0.8083
  658MPD2     H 9794   3.984   4.451  14.700  0.1055  1.3288 -1.3892
  658MPD2    H1 9795   4.419   4.458  14.710 -0.5549 -0.6040 -2.1099
  658MPD2    H2 9796   4.192   4.676  14.979 -2.4224  0.8889 -1.0752
  658MPD2    H3 9797   4.408   4.596  14.898 -0.0323 -0.9881  1.8608
  658MPD2     N 9798   4.204   4.400  14.545  0.4549  1.2275 -0.1419
  658MPD2    H5 9799   4.297   4.379  14.510  0.3814 -0.8312  0.9070
  658MPD2    N1 9800   3.951   4.633  14.885  0.4877 -0.2537  0.2597
  658MPD2    H7 9801   3.945   4.680  14.974  0.0408 -0.1021  0.1466
  659TMC3    C1 9802   3.713   4.697  14.881 -0.8614  0.7145  0.4531
  659TMC3    C2 9803   3.720   0.045  14.994 -0.5378  0.6326 -0.5428
  659TMC3    C3 9804   3.607   0.101  15.042 -0.6024 -0.3491  0.3849
  659TMC3    C4 9805   3.599   4.680  14.816  0.9106  0.7313 -0.3483
  659TMC3    C5 9806   3.491   4.737  14.878 -0.2966  0.4315 -0.6228
  659TMC3    C6 9807   3.487   0.074  14.983 -0.2435 -0.2903  0.0314
  659TMC3     C 9808   3.830   4.636  14.817 -0.2387  0.0394 -0.1333
  659TMC3     O 9809   3.808   4.586  14.709  0.0876  0.2155 -0.1132
  659TMC3     H 9810   3.821   0.071  15.024 -1.2732  1.0332  1.5718
  659TMC3    H1 9811   3.600   4.625  14.722  2.0383 -2.7739  1.7320
  659TMC3    H2 9812   3.393   0.108  15.024  0.6376  2.2081 -0.0027
  659TMC3    C7 9813   3.358   4.723  14.815 -0.8186  0.8004  0.4661
  659TMC3    C8 9814   3.609   0.158  15.169  0.0408  0.1265  0.1948
  659TMC3    O1 9815   3.267   0.060  14.837 -0.3890 -0.1556 -0.5431
  659TMC3    O2 9816   3.524   0.243  15.198  0.0321 -0.2420 -0.0881
  660MPD2     C 9817   2.337   3.363  12.379  0.0752  0.3018  0.1380
  660MPD2    C1 9818   2.209   3.416  12.407 -0.5215 -0.5457  0.2454
  660MPD2    C2 9819   2.119   3.329  12.468  0.2994  0.3546 -0.2096
  660MPD2    C3 9820   2.152   3.195  12.512 -0.0531 -0.0842 -0.0794
  660MPD2    C4 9821   2.274   3.153  12.477  0.1081 -0.0461 -0.5325
  660MPD2    C5 9822   2.369   3.233  12.423  0.0656  0.3409 -0.3113
  660MPD2     H 9823   2.021   3.372  12.485  0.0307 -0.2842 -0.1336
  660MPD2    H1 9824   2.309   3.054  12.503  0.1947  0.6436  2.0162
  660MPD2    H2 9825   2.412   3.427  12.334 -1.5654 -1.3679 -5.0062
  660MPD2    H3 9826   2.466   3.194  12.396  0.1109 -1.5212  2.6157
  660MPD2     N 9827   2.062   3.108  12.579 -0.2206  0.5505 -0.0638
  660MPD2    H5 9828   2.077   3.007  12.575  0.7979  0.7277 -0.8313
  660MPD2    N1 9829   2.170   3.543  12.350 -0.3590 -0.4485  0.0593
  660MPD2    H7 9830   2.233   3.570  12.275 -0.2770 -2.4163 -0.5904
  661TMC3    C1 9831   2.054   3.758  12.320 -0.1380 -0.6516  0.0471
  661TMC3    C2 9832   2.143   3.803  12.229  0.3006  0.0721  0.3220
  661TMC3    C3 9833   2.100   3.858  12.113 -0.3658  0.6008  0.1722
  661TMC3    C4 9834   1.925   3.802  12.326 -0.2291  0.2912  0.2324
  661TMC3    C5 9835   1.885   3.868  12.216  0.3396  0.9632 -0.0320
  661TMC3    C6 9836   1.967   3.881  12.106 -0.4802  0.0619 -0.1697
  661TMC3     C 9837   2.067   3.629  12.384 -0.8210  0.0011 -0.7092
  661TMC3     O 9838   1.979   3.603  12.466  0.3009 -0.4367 -0.0259
  661TMC3     H 9839   2.247   3.774  12.234 -0.3585 -2.3443  0.2535
  661TMC3    H1 9840   1.855   3.752  12.391 -1.9764  1.3573 -0.8557
  661TMC3    H2 9841   1.919   3.906  12.013 -1.5281 -0.7161  0.1549
  661TMC3    C7 9842   1.745   3.837  12.211  0.3087  0.0440  0.1856
  661TMC3    C8 9843   2.177   3.851  11.997 -0.4062 -0.3071 -0.4529
  661TMC3    O1 9844   1.664   3.922  12.256 -0.3191 -0.1525 -0.2068
  661TMC3    O2 9845   2.285   3.794  11.997 -0.2260  0.5307 -0.4831
  662MPD2     C 9846   2.440   3.520   0.092  0.0197 -0.0417 -0.1576
  662MPD2    C1 9847   2.400   3.446  17.736  0.7779 -0.5265  0.0501
  662MPD2    C2 9848   2.322   3.509  17.638  0.2732  1.0263 -0.0018
  662MPD2    C3 9849   2.272   3.635  17.659 -0.3333 -0.1102 -0.0191
  662MPD2    C4 9850   2.323   3.711   0.003  0.2171  1.0086 -0.5530
  662MPD2    C5 9851   2.414   3.655   0.090  0.6402 -0.3578  0.0367
  662MPD2     H 9852   2.279   3.454  17.555  1.3372 -0.2104  0.2539
  662MPD2    H1 9853   2.298   3.815   0.014  0.0524  1.0624 -1.4989
  662MPD2    H2 9854   2.480   3.471   0.180  0.3935  1.2740  0.4073
  662MPD2    H3 9855   2.437   3.723   0.171 -2.6803  0.9351 -0.1214
  662MPD2     N 9856   2.174   3.698  17.572  0.4670 -0.6314  0.0172
  662MPD2    H5 9857   2.137   3.785  17.608  1.8792 -0.8457  1.9796
  662MPD2    N1 9858   2.410   3.309  17.730 -0.6618  0.0844 -0.4969
  662MPD2    H7 9859   2.352   3.259  17.663 -0.2176 -0.4156 -0.5089
  663TMC3    C1 9860   2.423   3.096   0.053  1.4196 -0.0720 -0.3465
  663TMC3    C2 9861   2.339   3.063  17.707  0.1695 -0.4374 -0.0732
  663TMC3    C3 9862   2.284   2.939  17.706  0.0186 -0.6409 -0.7092
  663TMC3    C4 9863   2.446   3.010   0.159 -0.4859  0.1577  0.0879
  663TMC3    C5 9864   2.373   2.893   0.163  0.0151 -0.1893 -0.3419
  663TMC3    C6 9865   2.277   2.863   0.067  0.3033 -0.1836  0.2020
  663TMC3     C 9866   2.466   3.232   0.070 -0.9481  0.5291  0.0283
  663TMC3     O 9867   2.560   3.251   0.146 -0.6914  0.5625  0.0833
  663TMC3     H 9868   2.323   3.118  17.615 -0.6543 -1.0639 -0.3015
  663TMC3    H1 9869   2.517   3.048   0.232 -0.3251 -0.3523  0.1958
  663TMC3    H2 9870   2.255   2.758   0.053  0.1724 -0.0929 -0.2701
  663TMC3    C7 9871   2.389   2.818   0.282 -0.2069  0.1718  0.2436
  663TMC3    C8 9872   2.162   2.933  17.634  0.5650 -0.5035  0.3278
  663TMC3    O1 9873   2.475   2.856   0.362  0.4883  0.2697 -0.1817
  663TMC3    O2 9874   2.169   2.979  17.517  0.0401  0.1193 -0.2646
  664MPD2     C 9875   4.427   1.807  17.656 -0.2363 -0.4508  0.4070
  664MPD2    C1 9876   4.544   1.838  17.731  0.2429  0.1097  0.9376
  664MPD2    C2 9877   4.537   1.831   0.110  0.7352 -0.4366 -0.1268
  664MPD2    C3 9878   4.420   1.800   0.170  0.0193  0.3628 -0.2953
  664MPD2    C4 9879   4.301   1.794   0.100 -0.3345  0.0972  0.0596
  664MPD2    C5 9880   4.305   1.789  17.722  0.0728 -0.4873  0.1962
  664MPD2     H 9881   4.624   1.837   0.174  0.3971 -0.1203  0.3024
  664MPD2    H1 9882   4.208   1.772   0.149 -0.3613  1.1155  0.4790
  664MPD2    H2 9883   4.422   1.810  17.547 -0.2133  0.3915  0.4287
  664MPD2    H3 9884   4.216   1.763  17.666 -0.9584  0.1183  1.5769
  664MPD2     N 9885   4.429   1.779   0.310 -0.1096 -0.2337  0.1904
  664MPD2    H5 9886   4.524   1.783   0.346  0.7970 -1.5709 -2.0441
  664MPD2    N1 9887   4.657   1.865  17.663  0.1305  0.1640  0.0988
  664MPD2    H7 9888   4.654   1.867  17.562 -3.1039  0.8754  0.2283
  665TMC3    C1 9889   4.362   1.717   0.530  0.4117  0.0347  0.0534
  665TMC3    C2 9890   4.255   1.685   0.609 -0.1836  0.5279  0.0167
  665TMC3    C3 9891   4.273   1.689   0.742  0.1664 -0.3535  0.1098
  665TMC3    C4 9892   4.487   1.724   0.577  0.1012  0.1240 -0.7477
  665TMC3    C5 9893   4.505   1.716   0.714 -0.4014  0.1082 -0.5844
  665TMC3    C6 9894   4.397   1.704   0.800 -0.4730 -1.0114  0.0946
  665TMC3     C 9895   4.324   1.739   0.393 -0.7048 -0.0197  0.0100
  665TMC3     O 9896   4.209   1.708   0.366 -0.2014  0.4579  0.4580
  665TMC3     H 9897   4.154   1.675   0.571 -0.6292  1.7062  0.8981
  665TMC3    H1 9898   4.577   1.731   0.517  1.5359 -0.7305  1.3051
  665TMC3    H2 9899   4.422   1.712   0.905  0.7736  0.6253 -0.3267
  665TMC3    C7 9900   4.640   1.738   0.767  0.1112  0.0661  0.0628
  665TMC3    C8 9901   4.158   1.668   0.825 -0.0967 -0.5877  0.8090
  665TMC3    O1 9902   4.644   1.729   0.886 -0.8601  0.5118  0.1159
  665TMC3    O2 9903   4.188   1.625   0.935  0.0731  0.4242 -0.1053
  666TMC3    C1 9904   0.322   1.772   9.987  0.7223  0.2197 -0.0291
  666TMC3    C2 9905   0.371   1.647  10.013 -0.2896 -0.8424 -0.7579
  666TMC3    C3 9906   0.479   1.649  10.094  0.2062 -0.0950 -0.3290
  666TMC3    C4 9907   0.382   1.885  10.039 -0.1558 -0.8182  0.3993
  666TMC3    C5 9908   0.495   1.882  10.116  0.0419 -0.7657 -0.8499
  666TMC3    C6 9909   0.548   1.759  10.139 -0.7959  0.8043 -0.2318
  666TMC3     C 9910   0.208   1.797   9.907  0.4726  0.1044 -0.4231
  666TMC3     O 9911   0.183   1.908   9.859 -0.4643 -0.0097 -0.2105
  666TMC3     H 9912   0.331   1.555   9.974 -0.7240 -0.7687 -0.4847
  666TMC3    H1 9913   0.332   1.979  10.017 -0.3756 -1.1413 -0.4650
  666TMC3    H2 9914   0.645   1.754  10.188 -0.4677  0.0337 -0.9455
  666TMC3    C7 9915   0.481   1.961  10.234  0.0628  0.2143 -0.6030
  666TMC3    C8 9916   0.482   1.539  10.190 -0.2386  1.0773 -0.3085
  666TMC3    O1 9917   0.486   1.901  10.341 -0.1426  0.1784 -0.6046
  666TMC3    O2 9918   0.412   1.442  10.165 -0.2678  0.2682 -0.7116
  667MPD2     C 9919   1.490   1.011  14.918 -0.2515  0.5038 -0.3966
  667MPD2    C1 9920   1.421   1.066  15.024  0.0127  0.3153 -0.4788
  667MPD2    C2 9921   1.335   0.991  15.093  0.0124 -0.1855  0.0578
  667MPD2    C3 9922   1.314   0.857  15.060 -0.0275  0.5454  0.1896
  667MPD2    C4 9923   1.382   0.795  14.958  0.0779  1.1627  0.2083
  667MPD2    C5 9924   1.466   0.877  14.885 -0.7252 -0.3755 -0.3073
  667MPD2     H 9925   1.267   1.040  15.162  0.2370  0.8698 -0.4732
  667MPD2    H1 9926   1.372   0.690  14.935 -1.6290  1.4784 -0.5501
  667MPD2    H2 9927   1.549   1.072  14.850 -0.0720  1.3638  0.5417
  667MPD2    H3 9928   1.512   0.841  14.795  0.3033 -0.3566  0.2158
  667MPD2     N 9929   1.222   0.778  15.141  0.5066 -0.4356  0.2575
  667MPD2    H5 9930   1.221   0.679  15.118 -1.2007 -0.5211  0.7156
  667MPD2    N1 9931   1.440   1.205  15.061  0.1682  0.1179 -0.6086
  667MPD2    H7 9932   1.385   1.238  15.139  1.3338 -2.7541  1.4454
  668TMC3    C1 9933   1.529   1.414  15.105  0.8908 -0.4174  0.6840
  668TMC3    C2 9934   1.561   1.544  15.058  0.4242  0.6843 -0.1264
  668TMC3    C3 9935   1.607   1.646  15.150 -0.2224 -0.1109 -0.4069
  668TMC3    C4 9936   1.560   1.380  15.235 -0.4835  0.5999 -0.2090
  668TMC3    C5 9937   1.605   1.482  15.318  0.0666  0.4521 -0.2483
  668TMC3    C6 9938   1.621   1.612  15.279 -0.4631 -0.1242  0.1614
  668TMC3     C 9939   1.523   1.302  15.008  0.5735 -0.9073 -0.5685
  668TMC3     O 9940   1.613   1.291  14.929  0.2681 -0.7150  0.2015
  668TMC3     H 9941   1.558   1.570  14.953 -0.2246 -2.2592 -0.8236
  668TMC3    H1 9942   1.533   1.281  15.271 -2.1011  0.2128 -2.4782
  668TMC3    H2 9943   1.628   1.696  15.347 -0.2807 -1.1220  1.3722
  668TMC3    C7 9944   1.631   1.463  15.460  0.8317  0.0977  0.2409
  668TMC3    C8 9945   1.571   1.788  15.141 -0.3529 -0.2828  0.0239
  668TMC3    O1 9946   1.651   1.559  15.533  0.1249  0.1149 -0.1280
  668TMC3    O2 9947   1.497   1.829  15.228  0.1931 -0.0675  0.2449
  669TMC3    C1 9948   3.767   1.457  14.707 -0.4467  0.1661  0.4359
  669TMC3    C2 9949   3.660   1.468  14.621 -0.6186 -0.2973  0.2817
  669TMC3    C3 9950   3.681   1.503  14.494  0.6284 -0.3154 -0.1223
  669TMC3    C4 9951   3.893   1.479  14.667 -0.2819  0.0904 -0.6407
  669TMC3    C5 9952   3.914   1.503  14.532 -0.0024  0.0760  0.1828
  669TMC3    C6 9953   3.809   1.521  14.447  0.0622 -0.2714  0.0547
  669TMC3     C 9954   3.741   1.381  14.836 -0.5322  0.8868  0.6883
  669TMC3     O 9955   3.649   1.414  14.910 -0.4909  0.4276  0.1092
  669TMC3     H 9956   3.561   1.439  14.653 -2.6769  1.9627 -4.0208
  669TMC3    H1 9957   3.973   1.489  14.739  0.0398  0.4884 -1.0534
  669TMC3    H2 9958   3.820   1.548  14.342 -0.5045  1.1999  0.3817
  669TMC3    C7 9959   4.056   1.491  14.490 -0.2580  0.0697 -0.2233
  669TMC3    C8 9960   3.572   1.472  14.403 -0.2554  0.3247  0.5049
  669TMC3    O1 9961   4.145   1.487  14.576  0.2209 -0.2731 -0.1819
  669TMC3    O2 9962   3.499   1.390  14.457 -0.1268  0.2741  0.1160
  670MPD2     C 9963   2.053   3.513  13.094  0.0096 -0.4325  0.5341
  670MPD2    C1 9964   2.106   3.395  13.137  0.0479  0.1121 -0.3463
  670MPD2    C2 9965   2.075   3.350  13.266  0.2666 -0.2943  0.4638
  670MPD2    C3 9966   1.997   3.425  13.357 -0.4622  0.2945  0.5747
  670MPD2    C4 9967   1.935   3.535  13.308 -0.4465  0.2180  0.3078
  670MPD2    C5 9968   1.961   3.577  13.175  0.4390 -0.4012  0.2369
  670MPD2     H 9969   2.115   3.257  13.304 -0.0897 -0.6514 -0.0296
  670MPD2    H1 9970   1.888   3.607  13.375  0.9027  0.2542  1.2156
  670MPD2    H2 9971   2.073   3.559  12.998  0.6679  0.1219  0.9356
  670MPD2    H3 9972   1.914   3.668  13.142 -0.3726  0.2522  3.1968
  670MPD2     N 9973   1.994   3.381  13.490 -0.0051 -0.1940 -0.8404
  670MPD2    H5 9974   2.056   3.306  13.518  0.1737  0.0234 -0.6544
  670MPD2    N1 9975   2.176   3.304  13.051  0.0219 -0.1298 -0.4372
  670MPD2    H7 9976   2.236   3.237  13.098 -0.0474  0.5484  0.6112
  671TMC3    C1 9977   1.973   3.420  13.730 -0.1708  0.5034 -0.4216
  671TMC3    C2 9978   2.095   3.350  13.752 -0.0114  0.2501  0.0603
  671TMC3    C3 9979   2.109   3.282  13.866 -0.0598 -0.1649 -0.6205
  671TMC3    C4 9980   1.868   3.398  13.819 -0.6998 -0.5760  0.3111
  671TMC3    C5 9981   1.890   3.322  13.934 -0.6674  0.1494 -0.3333
  671TMC3    C6 9982   2.008   3.260  13.960 -0.0928  0.4894 -0.7809
  671TMC3     C 9983   1.931   3.448  13.590 -0.1158  0.1339 -0.7497
  671TMC3     O 9984   1.831   3.513  13.563 -0.6522  0.4011 -0.1594
  671TMC3     H 9985   2.184   3.374  13.695  0.9902  0.2304  1.6175
  671TMC3    H1 9986   1.767   3.429  13.797 -0.1590 -1.1940 -3.0615
  671TMC3    H2 9987   2.022   3.186  14.039  1.6774  0.4588 -1.1176
  671TMC3    C7 9988   1.782   3.275  14.018 -0.6418  0.2764 -0.0081
  671TMC3    C8 9989   2.239   3.226  13.888 -0.7846  0.2343  0.5314
  671TMC3    O1 9990   1.810   3.272  14.138 -0.4624 -0.8756 -0.4958
  671TMC3    O2 9991   2.316   3.219  13.798 -0.6177 -0.2439  0.6022
  672MPD2     C 9992   2.704   0.156   0.535  0.8660  0.0794  0.4065
  672MPD2    C1 9993   2.725   0.067   0.640 -0.3975  0.4218 -0.2160
  672MPD2    C2 9994   2.838   0.089   0.726  0.5937  0.4384 -0.4860
  672MPD2    C3 9995   2.914   0.203   0.722  0.1122  0.6706 -0.0271
  672MPD2    C4 9996   2.886   0.287   0.618  0.6939 -0.9306  0.1838
  672MPD2    C5 9997   2.789   0.263   0.528  0.5807  0.0077 -0.1233
  672MPD2     H 9998   2.856   0.015   0.803 -0.4883  1.0786  0.3790
  672MPD2    H1 9999   2.932   0.385   0.609  0.0597 -0.7298 -0.8763
  672MPD2    H210000   2.620   0.143   0.467 -0.6711 -0.2263  2.3732
  672MPD2    H310001   2.758   0.347   0.467  1.0699  0.9185  0.8836
  672MPD2     N10002   3.016   0.239   0.807 -0.8138 -0.0755 -0.2465
  672MPD2    H510003   3.058   0.325   0.774 -0.5407 -0.1846 -0.1814
  672MPD2    N110004   2.649   4.686   0.670  0.5962 -0.1304 -0.4398
  672MPD2    H710005   2.688   4.619   0.735  1.0251  0.3458 -0.2094
  673TMC3    C110006   2.474   4.516   0.637  0.2382  0.1110 -0.3698
  673TMC3    C210007   2.544   4.411   0.690  0.0075  0.5947  0.8264
  673TMC3    C310008   2.505   4.280   0.654 -0.3175  0.0340 -0.2973
  673TMC3    C410009   2.347   4.493   0.590 -0.5477  0.2752  0.3972
  673TMC3    C510010   2.313   4.366   0.556 -0.2596  0.0967  0.5753
  673TMC3    C610011   2.383   4.254   0.598  0.0249 -0.5422  0.1838
  673TMC3     C10012   2.526   4.648   0.618 -1.4475  0.0881  0.8335
  673TMC3     O10013   2.453   4.717   0.548 -0.5944  0.1643  0.0232
  673TMC3     H10014   2.647   4.417   0.725  0.1914  1.4110  0.1274
  673TMC3    H110015   2.284   4.580   0.576  0.3231  0.9146  0.5253
  673TMC3    H210016   2.353   4.152   0.580  0.6267 -0.7387  0.2722
  673TMC3    C710017   2.187   4.345   0.490  0.2729  0.0884 -0.3391
  673TMC3    C810018   2.555   4.166   0.729  0.6318 -0.9679 -0.0521
  673TMC3    O110019   2.131   4.239   0.501  0.4513  0.2514 -0.2270
  673TMC3    O210020   2.480   4.070   0.743 -0.1264  0.3411 -0.2182
  674MPD2     C10021   2.139   0.081  17.457  0.4759 -0.9987  0.6105
  674MPD2    C110022   2.104   4.702  17.518  0.1423  0.2924 -0.3456
  674MPD2    C210023   1.973   4.659  17.506 -0.3219  0.5949 -0.3269
  674MPD2    C310024   1.888   4.736  17.428 -0.0096 -0.1441  0.7349
  674MPD2    C410025   1.923   0.115  17.368 -0.2829 -0.1462  1.3628
  674MPD2    C510026   2.050   0.156  17.382 -1.2114 -0.1520  0.1634
  674MPD2     H10027   1.949   4.565  17.554 -0.7458  1.1025  0.4567
  674MPD2    H110028   1.859   0.178  17.307  0.5304 -0.6269  0.0136
  674MPD2    H210029   2.237   0.126  17.465  0.3440 -0.8979  1.7202
  674MPD2    H310030   2.078   0.253  17.343 -0.5127 -0.1484  0.6643
  674MPD2     N10031   1.758   4.679  17.410 -0.0470 -0.1534  0.4373
  674MPD2    H510032   1.743   4.584  17.442 -0.9179 -0.6278 -1.3601
  674MPD2    N110033   2.199   4.649  17.607  0.3685  0.1483 -0.0573
  674MPD2    H710034   2.287   4.700  17.615  0.8095 -0.2508 -2.2668
  675TMC3    C110035   2.285   4.542   0.042 -0.5241  0.0232 -0.7723
  675TMC3    C210036   2.337   4.430   0.088 -0.2446  0.1870  0.2099
  675TMC3    C310037   2.441   4.449   0.182  0.2697 -0.2342  0.6649
  675TMC3    C410038   2.323   4.669   0.084  0.3848  0.7672  0.4104
  675TMC3    C510039   2.415   4.678   0.182 -0.4886  0.3532 -0.0389
  675TMC3    C610040   2.465   4.568   0.237 -0.1370 -0.2294  0.3858
  675TMC3     C10041   2.191   4.539  17.687 -0.1428 -0.1977  0.1444
  675TMC3     O10042   2.111   4.446  17.679  0.2535 -0.6000 -0.0720
  675TMC3     H10043   2.329   4.349   0.016  0.1747  0.6402 -0.3420
  675TMC3    H110044   2.276   0.019   0.047  1.5752  0.7826 -1.0599
  675TMC3    H210045   2.532   4.569   0.322 -1.9506 -2.0657  1.8306
  675TMC3    C710046   2.479   0.058   0.211  1.0835 -0.7324 -0.2809
  675TMC3    C810047   2.516   4.330   0.215 -0.3184  0.3122  0.9023
  675TMC3    O110048   2.597   0.052   0.243  0.3402 -0.3639  0.6089
  675TMC3    O210049   2.624   4.359   0.265 -0.2925 -0.5161  0.0321
  676MPD2     C10050   0.999   2.385  11.122  0.0024  0.0806  0.3343
  676MPD2    C110051   0.916   2.302  11.188  0.5568 -0.2247 -0.2095
  676MPD2    C210052   0.900   2.168  11.147  0.1987 -0.8341 -0.3352
  676MPD2    C310053   0.957   2.117  11.034  0.7136 -0.3682  0.3400
  676MPD2    C410054   1.040   2.204  10.970  0.1336 -0.1901  0.1035
  676MPD2    C510055   1.053   2.336  11.008 -0.0910 -1.1206  0.5967
  676MPD2     H10056   0.853   2.103  11.219 -0.1264 -1.0423 -0.7355
  676MPD2    H110057   1.085   2.176  10.875 -1.3810 -0.7048 -0.4770
  676MPD2    H210058   1.015   2.489  11.150  1.5570  0.3987 -1.6789
  676MPD2    H310059   1.114   2.398  10.944 -0.1778 -1.4763  0.1676
  676MPD2     N10060   0.943   1.978  10.994  0.5761 -0.4658  0.0154
  676MPD2    H510061   0.975   1.959  10.899 -0.6388 -2.9489  0.1112
  676MPD2    N110062   0.840   2.340  11.299  0.6858 -0.1599 -0.0061
  676MPD2    H710063   0.797   2.268  11.356 -0.7342  1.4165  0.9272
  677TMC3    C110064   0.754   2.475  11.459  0.1792 -0.4107  0.5709
  677TMC3    C210065   0.662   2.385  11.508 -0.7014  0.4615  0.4978
  677TMC3    C310066   0.613   2.402  11.639 -0.3440 -0.0676  0.2852
  677TMC3    C410067   0.797   2.576  11.541 -0.3073 -0.3241  0.0062
  677TMC3    C510068   0.749   2.584  11.671 -0.3692  0.2732  0.1707
  677TMC3    C610069   0.659   2.498  11.719  0.5884  0.7440 -0.4062
  677TMC3     C10070   0.813   2.468  11.330 -0.3253  0.3360  0.2295
  677TMC3     O10071   0.854   2.575  11.287  0.5246  0.2962  0.1000
  677TMC3     H10072   0.634   2.293  11.458 -0.5339  1.1549 -0.8713
  677TMC3    H110073   0.859   2.658  11.506  3.0720 -2.6337  0.6332
  677TMC3    H210074   0.620   2.509  11.820 -0.7579 -0.6611 -0.7818
  677TMC3    C710075   0.816   2.677  11.763 -0.0501  0.8221  0.1640
  677TMC3    C810076   0.569   2.286  11.716  0.2817  0.5237  0.2947
  677TMC3    O110077   0.815   2.645  11.884  0.3274  0.0798 -0.7677
  677TMC3    O210078   0.593   2.178  11.660  0.2060 -0.0218  0.1801
  678MPD2     C10079   1.619   1.970   1.453  0.1220  0.3493 -0.5386
  678MPD2    C110080   1.564   2.055   1.360  0.0771  0.4190 -0.4794
  678MPD2    C210081   1.431   2.052   1.334 -0.7876  0.1260  0.5077
  678MPD2    C310082   1.348   1.951   1.383 -0.1826 -0.3259 -0.2167
  678MPD2    C410083   1.406   1.868   1.475 -0.3884  0.2303  0.4013
  678MPD2    C510084   1.535   1.875   1.505 -0.4801  0.1411  0.0411
  678MPD2     H10085   1.380   2.123   1.269  1.3540  0.2790 -1.0177
  678MPD2    H110086   1.339   1.799   1.525  1.4157 -1.6614  0.1750
  678MPD2    H210087   1.725   1.970   1.477  0.1554 -0.9255 -0.7101
  678MPD2    H310088   1.582   1.807   1.575  1.9137 -0.9916 -2.6425
  678MPD2     N10089   1.209   1.936   1.355 -0.0148 -0.4727 -0.4651
  678MPD2    H510090   1.156   1.863   1.401 -0.5995  0.5846  0.5322
  678MPD2    N110091   1.628   2.153   1.281  0.7153  0.3454  0.2529
  678MPD2    H710092   1.572   2.200   1.211  0.9565  1.0244  0.5211
  679TMC3    C110093   1.977   2.285   1.007 -0.4238 -0.1864 -0.4666
  679TMC3    C210094   1.932   2.234   1.122  0.0564  0.6713  0.3610
  679TMC3    C310095   1.798   2.220   1.144  0.4745  0.5423 -0.0679
  679TMC3    C410096   1.889   2.297   0.906  0.5937 -0.6250  0.0681
  679TMC3    C510097   1.760   2.279   0.931  0.6742  0.0350  0.1127
  679TMC3    C610098   1.708   2.246   1.048 -0.5975  0.3315 -0.3841
  679TMC3     C10099   2.114   2.315   0.980 -0.0025 -0.1923  0.6407
  679TMC3     O10100   2.138   2.335   0.860 -0.4804  0.2910  0.6605
  679TMC3     H10101   2.002   2.212   1.202  2.0472  5.4679 -0.0742
  679TMC3    H110102   1.912   2.343   0.811 -1.3861  0.8982  0.3271
  679TMC3    H210103   1.600   2.235   1.052 -0.7279  2.0636  0.5289
  679TMC3    C710104   1.678   2.268   0.810  0.6768 -0.3085 -0.0045
  679TMC3    C810105   1.765   2.171   1.273  0.0722  0.2618  0.6997
  679TMC3    O110106   1.725   2.310   0.711  0.1027  0.0860 -0.6741
  679TMC3    O210107   1.846   2.143   1.364  0.5889  0.5429 -0.3656
  680MPD2     C10108   1.867   0.958  13.743  0.1695  0.5650  0.0016
  680MPD2    C110109   1.964   0.907  13.822 -0.5003  0.5065 -0.2193
  680MPD2    C210110   2.077   0.992  13.834  0.2536  0.0864 -0.1197
  680MPD2    C310111   2.077   1.126  13.797  0.0706  0.3127  0.4438
  680MPD2    C410112   1.967   1.176  13.724 -0.0570 -0.4491 -0.7694
  680MPD2    C510113   1.874   1.087  13.685  0.0713 -0.1882 -0.4971
  680MPD2     H10114   2.161   0.957  13.894  0.9416 -0.5609 -1.4609
  680MPD2    H110115   1.975   1.276  13.683  1.0611 -0.3980 -0.4379
  680MPD2    H210116   1.784   0.894  13.718  2.9279 -1.6780 -3.5621
  680MPD2    H310117   1.812   1.111  13.599  0.3239  0.8177 -0.4016
  680MPD2     N10118   2.181   1.216  13.834 -0.1484 -0.0261  0.0130
  680MPD2    H510119   2.177   1.312  13.802 -1.4826  0.5103  1.8195
  680MPD2    N110120   1.970   0.773  13.876  0.1434 -0.6212 -0.8553
  680MPD2    H710121   2.052   0.749  13.931 -1.3322 -2.3901  0.5688
  681TMC3    C110122   1.909   0.560  13.933  0.4309  0.6445 -0.1655
  681TMC3    C210123   1.843   0.538  14.052  1.0763  0.0592 -0.1780
  681TMC3    C310124   1.923   0.475  14.144  0.5593  0.0450 -0.2440
  681TMC3    C410125   2.027   0.510  13.896 -0.5102  0.2068  0.2238
  681TMC3    C510126   2.103   0.446  13.993  0.4077 -0.7717  0.2714
  681TMC3    C610127   2.044   0.420  14.115 -0.0151 -0.0497 -0.2187
  681TMC3     C10128   1.866   0.679  13.864 -0.1645  0.1865  0.3662
  681TMC3     O10129   1.749   0.702  13.838  0.1337 -0.3182  0.9057
  681TMC3     H10130   1.746   0.581  14.074  2.9156  4.2081 -0.1781
  681TMC3    H110131   2.063   0.531  13.796  1.2195 -1.2908  0.5267
  681TMC3    H210132   2.106   0.384  14.197 -0.0837 -1.1926 -0.6629
  681TMC3    C710133   2.250   0.416  13.975 -0.2476 -0.0644 -0.1197
  681TMC3    C810134   1.888   0.505  14.283  0.1165 -0.2896  0.1083
  681TMC3    O110135   2.321   0.396  14.074  0.0231 -0.7478  0.1721
  681TMC3    O210136   1.782   0.468  14.325  0.3286 -0.1194 -0.2778
  682MPD2     C10137   4.645   2.646  11.265 -0.3123  0.2473  0.3855
  682MPD2    C110138   4.672   2.513  11.291  0.0213 -0.4061 -0.7705
  682MPD2    C210139   4.589   2.447  11.380 -0.0310  0.7573  0.2252
  682MPD2    C310140   4.502   2.517  11.466  0.1707 -0.3341  0.1209
  682MPD2    C410141   4.505   2.656  11.454 -0.3607  0.3046 -0.2933
  682MPD2    C510142   4.564   2.715  11.350 -0.2198 -0.0415 -1.0321
  682MPD2     H10143   4.588   2.339  11.382  0.0452  0.7883  1.7826
  682MPD2    H110144   4.445   2.718  11.520  0.1718 -1.8684  2.2224
  682MPD2    H210145   4.699   2.711  11.197 -0.9315  0.7802  0.4059
  682MPD2    H310146   4.551   2.821  11.333  0.3317  0.3318  0.8697
  682MPD2     N10147   4.432   2.458  11.574  0.3303  0.2070 -0.2288
  682MPD2    H510148   4.391   2.519  11.644 -0.6856  1.3895 -1.8432
  682MPD2    N110149   0.012   2.430  11.211  0.6575 -0.4161  0.1634
  682MPD2    H710150   4.716   2.335  11.216 -2.6076  0.6776 -2.4033
  683TMC3    C110151   4.254   2.278  11.893 -0.4557  0.2204 -0.1830
  683TMC3    C210152   4.201   2.150  11.885  0.6053  0.1305 -0.0148
  683TMC3    C310153   4.238   2.086  11.770 -0.1393 -0.1707 -0.3377
  683TMC3    C410154   4.336   2.331  11.805  0.2193 -0.0753  0.5886
  683TMC3    C510155   4.354   2.266  11.687 -0.5767 -0.5024  0.0914
  683TMC3    C610156   4.314   2.141  11.669 -0.5285 -0.7614 -0.0534
  683TMC3     C10157   4.237   2.340  12.029  0.3764  0.5676 -0.2341
  683TMC3     O10158   4.315   2.424  12.073 -0.5372 -0.0969  0.2181
  683TMC3     H10159   4.155   2.087  11.961 -0.3728 -0.1115 -0.8008
  683TMC3    H110160   4.370   2.433  11.814  3.0960 -1.0215  0.2905
  683TMC3    H210161   4.322   2.084  11.577  1.6815  1.3612 -1.1540
  683TMC3    C710162   4.406   2.322  11.570 -0.4284  0.2417  0.4852
  683TMC3    C810163   4.131   1.982  11.734  0.3593  0.4132  0.1509
  683TMC3    O110164   4.407   2.253  11.471 -0.7239 -0.0273  0.2453
  683TMC3    O210165   4.038   1.976  11.811 -0.2325  0.3750 -0.0607
  684MPD2     C10166   2.581   1.817  16.208 -0.3193  0.3471  0.2224
  684MPD2    C110167   2.467   1.856  16.140 -0.3792  0.9129  0.6451
  684MPD2    C210168   2.424   1.980  16.177 -0.3766  0.1404  0.0019
  684MPD2    C310169   2.499   2.073  16.240 -0.7212 -0.2963  0.4222
  684MPD2    C410170   2.629   2.034  16.286  0.8196 -0.3221  0.2845
  684MPD2    C510171   2.662   1.905  16.268  0.1235  0.2219 -0.1019
  684MPD2     H10172   2.323   2.000  16.143 -0.8244 -0.5232  0.9205
  684MPD2    H110173   2.710   2.097  16.320 -1.9673  2.5720  1.5534
  684MPD2    H210174   2.608   1.713  16.215 -0.7490  0.1093 -1.7164
  684MPD2    H310175   2.749   1.873  16.323 -0.7276 -0.3272  0.9198
  684MPD2     N10176   2.466   2.211  16.250  0.6536 -0.4019 -0.2534
  684MPD2    H510177   2.527   2.276  16.299  0.2707  1.2212 -1.9386
  684MPD2    N110178   2.379   1.771  16.064 -0.0812 -0.1040  1.1116
  684MPD2    H710179   2.292   1.817  16.038 -0.8975 -0.3564  3.3947
  685TMC3    C110180   2.349   1.628  15.879  0.1381  0.2342  0.0788
  685TMC3    C210181   2.264   1.724  15.840  0.6046 -0.1898 -0.0249
  685TMC3    C310182   2.269   1.774  15.706 -0.5435 -0.2142 -0.0462
  685TMC3    C410183   2.430   1.571  15.786 -0.2202 -0.3800 -0.1056
  685TMC3    C510184   2.447   1.625  15.661  0.2074 -0.1898 -0.5794
  685TMC3    C610185   2.370   1.732  15.620 -0.2384  0.4157 -0.3129
  685TMC3     C10186   2.426   1.657  16.002  0.1004 -0.1001 -0.7644
  685TMC3     O10187   2.536   1.611  16.006  0.1619  0.5839  0.4192
  685TMC3     H10188   2.166   1.737  15.884  0.1910  0.6238 -1.1842
  685TMC3    H110189   2.493   1.491  15.823  1.4509  0.2356 -1.6341
  685TMC3    H210190   2.372   1.778  15.521  1.3909  1.2122  0.0900
  685TMC3    C710191   2.583   1.633  15.622  0.4983 -0.1570 -0.5526
  685TMC3    C810192   2.146   1.832  15.637  0.9410 -0.1618  0.5991
  685TMC3    O110193   2.618   1.624  15.506 -0.0792 -0.0685 -0.4552
  685TMC3    O210194   2.121   1.791  15.527 -0.6069  0.0283 -0.0395
  686MPD2     C10195   3.778   1.996  15.250 -0.3995 -0.4301  0.2361
  686MPD2    C110196   3.835   1.886  15.311  0.0982  0.3667 -0.3512
  686MPD2    C210197   3.892   1.780  15.235 -0.5174 -0.7499  0.1512
  686MPD2    C310198   3.871   1.773  15.103 -0.5440  0.3613 -0.3550
  686MPD2    C410199   3.826   1.884  15.038 -0.1133 -0.4142  0.5969
  686MPD2    C510200   3.785   1.993  15.111 -0.1323  0.5240 -0.4210
  686MPD2     H10201   3.947   1.699  15.283 -2.3582  0.3131  4.0808
  686MPD2    H110202   3.825   1.877  14.930 -0.8186 -0.2999  0.5978
  686MPD2    H210203   3.724   2.077  15.298 -1.1033 -1.0215  0.4531
  686MPD2    H310204   3.738   2.073  15.055  1.4579  2.8396  1.5258
  686MPD2     N10205   3.906   1.667  15.025  0.8405 -0.8889 -0.5798
  686MPD2    H510206   3.957   1.698  14.944 -0.4926 -0.5752 -1.3013
  686MPD2    N110207   3.820   1.886  15.447  0.3061  0.3983  0.4951
  686MPD2    H710208   3.779   1.966  15.495  2.8652  1.9377  0.0796
  687TMC3    C110209   3.870   1.473  15.177  0.5067  0.4431 -0.2490
  687TMC3    C210210   3.743   1.515  15.208  0.2189 -0.6308 -0.8059
  687TMC3    C310211   3.695   1.498  15.337  0.5436 -0.2424  0.2147
  687TMC3    C410212   3.945   1.403  15.268 -0.2600  0.5339 -0.0361
  687TMC3    C510213   3.893   1.375  15.387 -0.5416  0.0275  0.8207
  687TMC3    C610214   3.777   1.434  15.428  0.5180 -0.2552  0.1978
  687TMC3     C10215   3.947   1.541  15.068 -0.3434  0.1209  0.2824
  687TMC3     O10216   4.024   1.466  15.008  0.3930  0.2931 -0.1145
  687TMC3     H10217   3.684   1.556  15.126  0.1015  1.8110  0.5101
  687TMC3    H110218   4.041   1.366  15.235  0.1287  1.6704 -0.2005
  687TMC3    H210219   3.744   1.433  15.531 -0.5319 -1.2200 -0.1571
  687TMC3    C710220   3.961   1.305  15.494  0.1442 -0.0268 -0.9265
  687TMC3    C810221   3.587   1.581  15.388  0.9127 -0.3057 -0.1020
  687TMC3    O110222   3.922   1.320  15.611  0.1000  0.2013  0.1242
  687TMC3    O210223   3.540   1.552  15.501 -0.1330  0.2312 -0.2123
  688MPD2     C10224   2.781   1.054  17.104 -0.5356  0.0353 -0.3235
  688MPD2    C110225   2.814   0.924  17.149  0.4058  0.8856 -0.1270
  688MPD2    C210226   2.896   0.855  17.069  0.1633 -0.1313 -0.5565
  688MPD2    C310227   2.950   0.896  16.947  0.4177 -0.6762  0.0289
  688MPD2    C410228   2.919   1.027  16.914 -0.2804  0.0996 -0.4227
  688MPD2    C510229   2.835   1.104  16.987 -0.3655 -0.3230  0.6492
  688MPD2     H10230   2.919   0.754  17.102  0.7782  0.0856 -0.3191
  688MPD2    H110231   2.937   1.068  16.815  1.3911  0.2310 -0.0578
  688MPD2    H210232   2.712   1.117  17.159  0.6743 -0.6342  1.9778
  688MPD2    H310233   2.804   1.204  16.959  0.3348  0.1609  1.5896
  688MPD2     N10234   3.045   0.823  16.872  0.6106  0.2974  0.4985
  688MPD2    H510235   3.081   0.864  16.786 -0.4840  1.3961  0.5758
  688MPD2    N110236   2.794   0.877  17.277  0.4004  0.9179 -0.3255
  688MPD2    H710237   2.832   0.789  17.308  0.3657  0.9781 -0.1116
  689TMC3    C110238   2.761   0.900  17.508 -0.3640  0.6385 -0.3453
  689TMC3    C210239   2.799   0.983  17.615  0.1537 -0.0643 -0.1976
  689TMC3    C310240   2.804   0.920  17.737 -0.4398 -0.0987 -0.0112
  689TMC3    C410241   2.727   0.772  17.523  0.4080  0.2663 -0.1113
  689TMC3    C510242   2.735   0.711  17.650 -0.1210 -0.6315 -0.0842
  689TMC3    C610243   2.773   0.788  17.753 -0.4819 -0.3556  0.1314
  689TMC3     C10244   2.749   0.958  17.375 -0.9052  0.0087  0.4377
  689TMC3     O10245   2.715   1.077  17.383  0.0648  0.1822 -0.6479
  689TMC3     H10246   2.804   1.091  17.605 -0.8535 -0.0061 -0.0259
  689TMC3    H110247   2.700   0.709  17.439 -2.6596 -2.1045  2.6546
  689TMC3    H210248   2.783   0.744   0.094 -3.2272  0.0084  0.5553
  689TMC3    C710249   2.767   0.572  17.673  0.1961  0.3123  0.1835
  689TMC3    C810250   2.859   0.992   0.093 -0.2678  0.2180 -0.0401
  689TMC3    O110251   2.800   0.527   0.025  0.1414  0.1971  0.3414
  689TMC3    O210252   2.829   0.948   0.205  0.3160 -0.1879  0.8763
  690MPD2     C10253   0.686   2.150  15.647  0.0543 -0.1263  0.5429
  690MPD2    C110254   0.610   2.234  15.570 -0.2908  0.2142  0.0243
  690MPD2    C210255   0.661   2.286  15.454 -0.1362  0.3377 -0.2468
  690MPD2    C310256   0.793   2.269  15.420  0.3264  0.5327 -0.1135
  690MPD2    C410257   0.880   2.204  15.507  0.3406 -0.9164 -0.0971
  690MPD2    C510258   0.819   2.142  15.616  0.3404 -0.0594  0.3540
  690MPD2     H10259   0.597   2.341  15.385 -0.5291 -0.5540 -0.5859
  690MPD2    H110260   0.987   2.193  15.493  0.2898 -2.4145  0.7101
  690MPD2    H210261   0.646   2.084  15.723  0.7038 -2.0231 -0.7437
  690MPD2    H310262   0.882   2.080  15.679  0.2513 -0.6914 -0.1778
  690MPD2     N10263   0.829   2.328  15.296 -0.1461 -0.3517 -1.4041
  690MPD2    H510264   0.750   2.378  15.257 -1.2080 -0.5046  0.5410
  690MPD2    N110265   0.472   2.254  15.592 -0.2412 -0.3722 -0.0871
  690MPD2    H710266   0.421   2.312  15.526  1.0719  0.0578 -0.7259
  691TMC3    C110267   0.269   2.264  15.708 -0.1313  0.2567 -0.5145
  691TMC3    C210268   0.250   2.389  15.668 -0.2115  0.9160  0.3760
  691TMC3    C310269   0.125   2.445  15.692  0.4786  0.3551  0.5906
  691TMC3    C410270   0.177   2.189  15.766 -0.7705  0.0065  0.2126
  691TMC3    C510271   0.051   2.245  15.786  0.0092  0.1793 -0.2375
  691TMC3    C610272   0.022   2.378  15.745  0.6393 -0.2501 -0.2435
  691TMC3     C10273   0.401   2.214  15.704 -0.3193 -0.0973 -0.0415
  691TMC3     O10274   0.432   2.123  15.785  0.5494  0.4159  0.2455
  691TMC3     H10275   0.338   2.426  15.617  1.0477 -0.6870  1.3773
  691TMC3    H110276   0.205   2.091  15.804  0.4319 -0.9077 -3.0245
  691TMC3    H210277   4.666   2.423  15.764  0.8059  0.1570 -0.3635
  691TMC3    C710278   4.697   2.172  15.863 -0.6002  0.5081  0.6200
  691TMC3    C810279   0.096   2.558  15.608  0.9393 -0.1809 -0.8399
  691TMC3    O110280   4.619   2.219  15.940 -0.1946  0.1736  0.4366
  691TMC3    O210281   0.174   2.568  15.514 -0.0098  0.3807 -0.0657
  692TMC3    C110282   1.741   3.268  15.462  0.1348  0.2996  0.1979
  692TMC3    C210283   1.872   3.317  15.487 -0.0678 -0.5825 -0.2650
  692TMC3    C310284   1.981   3.237  15.500  0.1022 -0.3410  0.5530
  692TMC3    C410285   1.731   3.134  15.468  0.4634 -0.7680  1.0075
  692TMC3    C510286   1.841   3.052  15.482  0.5181 -1.1557  0.2454
  692TMC3    C610287   1.965   3.102  15.502 -0.2169  0.0274  0.3583
  692TMC3     C10288   1.634   3.351  15.504 -1.1302  0.7954  0.5924
  692TMC3     O10289   1.521   3.305  15.526 -0.1038 -0.4201  0.0255
  692TMC3     H10290   1.876   3.408  15.547 -1.4523 -1.0428  0.5359
  692TMC3    H110291   1.635   3.085  15.458  0.1109  0.1731 -0.2904
  692TMC3    H210292   2.055   3.045  15.522 -1.0424 -0.8222  1.5713
  692TMC3    C710293   1.815   2.916  15.510 -0.8477  0.3204 -0.0627
  692TMC3    C810294   2.099   3.290  15.565 -0.3632  0.5205 -0.7075
  692TMC3    O110295   1.718   2.864  15.461 -0.5030  0.1536  0.2946
  692TMC3    O210296   2.182   3.212  15.610 -0.4217  0.0622  0.1995
  693MPD2     C10297   1.875   0.947  10.523 -0.3459 -0.1677  0.4733
  693MPD2    C110298   1.801   0.847  10.580  0.2911 -0.3143 -0.2453
  693MPD2    C210299   1.869   0.732  10.625 -0.1553 -0.5877 -0.0892
  693MPD2    C310300   2.007   0.715  10.617 -1.0862  0.6489  0.1297
  693MPD2    C410301   2.078   0.823  10.578 -0.2318 -0.1774 -0.1181
  693MPD2    C510302   2.010   0.934  10.533  0.2547 -0.0671  0.4354
  693MPD2     H10303   1.817   0.651  10.675 -1.5421  1.4755  1.8397
  693MPD2    H110304   2.186   0.816  10.576 -0.2280  0.3603 -1.7340
  693MPD2    H210305   1.831   1.044  10.505  1.0258  0.4315  0.3439
  693MPD2    H310306   2.076   1.015  10.504  0.4423  0.0919  1.2975
  693MPD2     N10307   2.082   0.613  10.687 -0.1611  0.1401 -0.3683
  693MPD2    H510308   2.182   0.628  10.686 -0.0834 -0.4982 -1.9170
  693MPD2    N110309   1.662   0.855  10.596 -0.2732  0.2505 -0.5082
  693MPD2    H710310   1.609   0.779  10.639 -0.6602  1.2227  0.7162
  694TMC3    C110311   1.449   0.938  10.608  0.0906  0.3412 -0.2641
  694TMC3    C210312   1.333   0.940  10.529 -0.1234  0.0598 -0.2593
  694TMC3    C310313   1.219   0.882  10.588  0.5823 -0.3208 -0.2326
  694TMC3    C410314   1.448   0.895  10.739 -0.3574 -0.0654  0.4387
  694TMC3    C510315   1.330   0.849  10.790  0.4476 -0.5590  0.4614
  694TMC3    C610316   1.211   0.836  10.719 -0.2298  0.4666  0.0959
  694TMC3     C10317   1.579   0.947  10.545  0.1197 -0.0002  0.7239
  694TMC3     O10318   1.599   1.030  10.455  0.1412 -0.1080 -0.5661
  694TMC3     H10319   1.351   0.985  10.433  1.8639 -0.0464  0.0712
  694TMC3    H110320   1.537   0.885  10.801 -0.0247 -2.0191 -0.3313
  694TMC3    H210321   1.117   0.809  10.766  0.6801  0.4864  1.9420
  694TMC3    C710322   1.335   0.838  10.943  0.0694 -0.2815 -0.4519
  694TMC3    C810323   1.101   0.878  10.510 -0.9038 -0.3483 -1.0843
  694TMC3    O110324   1.432   0.878  11.002 -0.1918  0.2333  0.1017
  694TMC3    O210325   1.011   0.802  10.537 -0.7421  0.0104 -0.1576
  695MPD2     C10326   2.590   2.722  13.240 -0.4850  0.3908 -0.4446
  695MPD2    C110327   2.556   2.805  13.345 -1.0307  0.1319 -0.0177
  695MPD2    C210328   2.426   2.853  13.351  0.1510  0.5783  0.0568
  695MPD2    C310329   2.330   2.819  13.259  0.2746 -0.2697 -0.2112
  695MPD2    C410330   2.364   2.735  13.153 -0.3336 -0.6712 -0.2257
  695MPD2    C510331   2.493   2.685  13.142 -0.3563  1.0502 -0.4569
  695MPD2     H10332   2.404   2.921  13.432  1.2131  1.2394 -0.2209
  695MPD2    H110333   2.284   2.691  13.094  2.3383 -1.2568 -3.3823
  695MPD2    H210334   2.686   2.673  13.225  0.0064  1.0758  0.4156
  695MPD2    H310335   2.519   2.612  13.066 -0.7665  1.1615 -0.7038
  695MPD2     N10336   2.201   2.876  13.266  0.0821  0.3841  0.3148
  695MPD2    H510337   2.176   2.929  13.349  3.3622  1.3872  0.6712
  695MPD2    N110338   2.643   2.845  13.452  0.0532 -0.1913 -0.2563
  695MPD2    H710339   2.624   2.920  13.518  1.0270 -0.7828  0.6920
  696TMC3    C110340   1.983   2.949  13.206 -0.2436 -0.3611 -0.2394
  696TMC3    C210341   1.939   2.943  13.331  0.1099 -0.0848  0.4936
  696TMC3    C310342   1.832   3.019  13.370  0.2441  0.0821 -0.3488
  696TMC3    C410343   1.892   3.012  13.111 -0.3291 -0.4415 -0.3383
  696TMC3    C510344   1.776   3.075  13.147 -0.3868 -0.8697  0.2095
  696TMC3    C610345   1.752   3.090  13.280 -0.6659 -0.3352  1.1866
  696TMC3     C10346   2.101   2.869  13.165 -0.0224  0.3013 -0.2722
  696TMC3     O10347   2.124   2.865  13.046  0.0124 -0.0002 -0.0144
  696TMC3     H10348   1.995   2.888  13.406  1.9610 -0.0210 -0.8346
  696TMC3    H110349   1.904   2.986  13.007 -1.2778 -2.8154  0.1320
  696TMC3    H210350   1.671   3.147  13.325 -0.5039  0.4174  0.5088
  696TMC3    C710351   1.686   3.140  13.059  0.0291  0.0312 -0.5602
  696TMC3    C810352   1.799   3.038  13.506  0.2090  0.6078 -0.1545
  696TMC3    O110353   1.669   3.104  12.939 -0.2060  0.5800  0.0302
  696TMC3    O210354   1.892   3.064  13.582  0.2120 -0.4978  0.3546
  697MPD2     C10355   1.688   0.246  15.585 -0.9655 -0.8622  0.3558
  697MPD2    C110356   1.704   0.189  15.459  0.4010  0.2800  0.4925
  697MPD2    C210357   1.769   0.259  15.365  0.4367 -0.1143  0.8070
  697MPD2    C310358   1.817   0.384  15.378 -0.6089 -0.0753 -0.0261
  697MPD2    C410359   1.789   0.451  15.499 -0.3778 -0.2605 -0.6871
  697MPD2    C510360   1.726   0.378  15.593  0.0687 -0.1235 -0.1001
  697MPD2     H10361   1.801   0.213  15.273 -1.0812  0.3789  0.0401
  697MPD2    H110362   1.810   0.557  15.514  0.9310 -0.3978 -1.5139
  697MPD2    H210363   1.662   0.201  15.680  1.6419 -0.4068  1.2829
  697MPD2    H310364   1.703   0.427  15.686  1.9601 -1.8644  1.2957
  697MPD2     N10365   1.885   0.446  15.272  0.3690  0.7379  0.2045
  697MPD2    H510366   1.887   0.395  15.184 -0.5917  0.5029  0.3154
  697MPD2    N110367   1.663   0.059  15.426 -0.0052 -0.4534 -0.4096
  697MPD2    H710368   1.670   0.039  15.326 -3.0553 -1.1821 -0.4709
  698TMC3    C110369   2.018   0.584  15.150  0.1112 -0.5142 -0.4889
  698TMC3    C210370   2.141   0.638  15.157 -0.5620  0.0651 -0.7472
  698TMC3    C310371   2.219   0.608  15.048  0.1966  0.6736  0.1847
  698TMC3    C410372   1.974   0.513  15.043 -0.1572  0.1853  0.6688
  698TMC3    C510373   2.051   0.489  14.934  0.1356 -0.1352 -0.1511
  698TMC3    C610374   2.179   0.530  14.937  0.4032 -0.3997 -0.4295
  698TMC3     C10375   1.958   0.560  15.279  0.0549 -0.5020  0.9327
  698TMC3     O10376   1.980   0.642  15.368 -0.1660  0.4280  0.0508
  698TMC3     H10377   2.173   0.674  15.254 -0.2205 -0.5842 -0.6202
  698TMC3    H110378   1.867   0.497  15.034 -0.3602  2.4936 -0.9342
  698TMC3    H210379   2.246   0.535  14.852  0.6668  2.3214 -0.0508
  698TMC3    C710380   1.999   0.407  14.831 -0.1929  0.2406  0.2504
  698TMC3    C810381   2.345   0.666  15.033 -0.0275 -0.4431  0.5873
  698TMC3    O110382   1.878   0.388  14.839  0.1202  0.6363 -0.4378
  698TMC3    O210383   2.436   0.596  14.984 -0.5263 -0.1084 -0.0118
  699TMC3    C110384   1.868   3.033  12.689 -0.0172  0.1624 -0.3062
  699TMC3    C210385   1.929   2.911  12.702  0.0595 -0.8723 -0.3104
  699TMC3    C310386   1.847   2.796  12.711 -0.0145  0.0888 -0.0844
  699TMC3    C410387   1.730   3.042  12.675  0.0963 -0.2044  0.9596
  699TMC3    C510388   1.661   2.926  12.681 -0.3854  0.0792 -0.7181
  699TMC3    C610389   1.710   2.802  12.696 -0.5889 -0.2885  0.0995
  699TMC3     C10390   1.936   3.143  12.624 -0.7752  0.3939 -1.1901
  699TMC3     O10391   1.884   3.251  12.626 -0.1971 -0.2063  0.2355
  699TMC3     H10392   2.037   2.901  12.705 -0.0151 -1.4443  0.4308
  699TMC3    H110393   1.683   3.139  12.659 -2.2663 -1.5335 -0.1229
  699TMC3    H210394   1.647   2.714  12.702  0.0046 -0.6424  1.2491
  699TMC3    C710395   1.518   2.931  12.675  0.3584  0.0179  0.3988
  699TMC3    C810396   1.886   2.686  12.800 -0.9221  0.0284 -0.3143
  699TMC3    O110397   1.462   2.852  12.597 -0.0322  0.5639  0.0348
  699TMC3    O210398   1.800   2.610  12.837  0.3275 -0.2696  0.0245
  700TMC3    C110399   0.752   1.005  17.191  0.0482 -0.0397  0.4201
  700TMC3    C210400   0.776   0.880  17.139 -0.4677  0.2553  0.3464
  700TMC3    C310401   0.847   0.790  17.214 -0.7887  0.1198  0.3487
  700TMC3    C410402   0.786   1.033  17.321 -0.1567 -0.0608  1.2338
  700TMC3    C510403   0.844   0.933  17.395  0.0075 -0.2245 -0.1528
  700TMC3    C610404   0.874   0.810  17.346  0.4764 -0.2236 -0.1629
  700TMC3     C10405   0.745   1.108  17.098  0.8099 -0.5503 -0.3826
  700TMC3     O10406   0.705   1.081  16.987 -0.1350  0.5380  0.4828
  700TMC3     H10407   0.754   0.861  17.035  3.2726 -0.5873 -0.2870
  700TMC3    H110408   0.761   1.128  17.367  0.8791  2.3408 -3.1195
  700TMC3    H210409   0.926   0.730  17.398 -0.7258  0.2871  1.8236
  700TMC3    C710410   0.890   0.976  17.523 -0.1929 -0.5664  0.0142
  700TMC3    C810411   0.928   0.686  17.148  0.4052 -0.0944  0.8551
  700TMC3    O110412   0.824   1.063  17.575 -0.5635  0.2987 -0.0203
  700TMC3    O210413   1.030   0.655  17.204 -0.0921  0.1334  0.3794
  701TMC3    C110414   0.636   4.203  15.457  0.4511  0.1583  0.4032
  701TMC3    C210415   0.591   4.175  15.330 -0.0871  0.3249  0.1778
  701TMC3    C310416   0.670   4.223  15.224 -0.0255  0.1879  0.6362
  701TMC3    C410417   0.742   4.280  15.485  0.7524 -0.3740 -0.1439
  701TMC3    C510418   0.814   4.319  15.373  0.1775  0.1454 -0.2239
  701TMC3    C610419   0.777   4.299  15.247 -0.4015  0.5489  0.3864
  701TMC3     C10420   0.539   4.193  15.565 -0.3662  0.1530  0.0193
  701TMC3     O10421   0.564   4.260  15.664  0.3743  0.2046  0.0313
  701TMC3     H10422   0.491   4.142  15.304 -0.5840  0.3029  2.1276
  701TMC3    H110423   0.775   4.295  15.587 -0.1849 -1.4684  0.3283
  701TMC3    H210424   0.828   4.337  15.160 -1.4437 -0.2702 -0.5950
  701TMC3    C710425   0.917   4.413  15.384  0.1684 -0.4192 -0.1746
  701TMC3    C810426   0.593   4.282  15.108  0.1823 -0.8180 -0.2466
  701TMC3    O110427   0.952   4.478  15.287 -0.0575  0.2803 -0.1603
  701TMC3    O210428   0.518   4.376  15.136  0.0082 -0.8560  0.2023
  702MPD2     C10429   0.959   1.551  10.387  0.1033 -0.3282  0.1592
  702MPD2    C110430   0.953   1.671  10.460 -0.0518 -0.2867 -0.6597
  702MPD2    C210431   0.955   1.790  10.389  0.3288 -0.2665  0.2795
  702MPD2    C310432   0.923   1.798  10.253 -0.4721  0.4896  0.1757
  702MPD2    C410433   0.924   1.680  10.184  0.0028  0.1298  0.1291
  702MPD2    C510434   0.956   1.565  10.255 -0.4252 -0.4377 -0.5161
  702MPD2     H10435   0.973   1.879  10.447 -0.1399 -0.7454  1.1477
  702MPD2    H110436   0.911   1.669  10.077  0.1009  0.6160  0.0650
  702MPD2    H210437   0.983   1.455  10.432  2.3931  0.4937  0.7140
  702MPD2    H310438   0.969   1.474  10.196  2.6505  0.5216 -1.3044
  702MPD2     N10439   0.897   1.914  10.171 -0.5864 -1.1871  0.0451
  702MPD2    H510440   0.889   1.894  10.071 -0.4716  0.8342 -0.3734
  702MPD2    N110441   0.945   1.686  10.604  0.2277 -0.4847 -0.5042
  702MPD2    H710442   0.949   1.780  10.642 -3.6886 -0.2393 -0.6185
  703TMC3    C110443   0.866   2.093  10.337  0.0452 -0.8180 -0.0211
  703TMC3    C210444   0.786   2.031  10.425  0.9464  0.5748  0.1147
  703TMC3    C310445   0.791   2.066  10.558  0.4435  0.2802 -0.7481
  703TMC3    C410446   0.911   2.222  10.364 -0.2643  0.0971  0.7111
  703TMC3    C510447   0.909   2.266  10.494  0.5724  0.2781 -0.0225
  703TMC3    C610448   0.853   2.187  10.594 -0.0916  0.4899  0.0135
  703TMC3     C10449   0.878   2.048  10.204  0.0203 -0.4773 -0.3318
  703TMC3     O10450   0.893   2.140  10.122  0.2634  0.8467  0.0200
  703TMC3     H10451   0.736   1.939  10.396  0.3567  0.8342  0.3175
  703TMC3    H110452   0.947   2.289  10.286 -1.4582 -0.2525 -0.1400
  703TMC3    H210453   0.862   2.203  10.701  1.1992  3.6910 -0.5696
  703TMC3    C710454   0.970   2.390  10.528 -0.0636  0.1671 -0.4576
  703TMC3    C810455   0.709   1.996  10.647  0.0361  0.0826 -0.1692
  703TMC3    O110456   1.047   2.442  10.445 -0.1617 -0.2918 -0.6506
  703TMC3    O210457   0.676   1.880  10.620 -0.3761  1.0058  0.7680
  704TMC3    C110458   2.924   4.365  12.107 -0.1467  1.1503  0.0230
  704TMC3    C210459   2.934   4.284  11.996  0.5875 -0.9246 -0.0548
  704TMC3    C310460   3.046   4.206  11.982 -0.0036 -0.4762  0.2855
  704TMC3    C410461   3.021   4.371  12.204  0.1599  0.7289  0.6863
  704TMC3    C510462   3.136   4.298  12.181 -0.3320  0.3416 -0.8718
  704TMC3    C610463   3.153   4.221  12.066 -0.1355 -0.1228 -0.2190
  704TMC3     C10464   2.819   4.466  12.109 -0.4017  0.2865  0.1846
  704TMC3     O10465   2.817   4.541  12.208 -0.0127 -0.0099  0.0594
  704TMC3     H10466   2.852   4.249  11.934 -1.8712 -0.5739  3.0085
  704TMC3    H110467   3.006   4.435  12.290  0.0157  1.5974  0.0162
  704TMC3    H210468   3.237   4.154  12.050  2.2120  2.6319  0.6226
  704TMC3    C710469   3.181   4.213  12.292  0.7476 -0.4749 -0.3300
  704TMC3    C810470   2.994   4.070  11.966 -0.2351 -0.9299  0.3103
  704TMC3    O110471   3.234   4.104  12.262  0.0255 -0.2170 -0.5571
  704TMC3    O210472   2.905   4.051  11.882  0.7275  0.3961 -0.1516
  705MPD2     C10473   2.357   2.984  16.042 -0.0140 -0.8589 -0.0080
  705MPD2    C110474   2.352   3.119  16.011  0.1845  0.3756 -0.2567
  705MPD2    C210475   2.238   3.192  16.044 -0.3800 -0.6170  0.0890
  705MPD2    C310476   2.133   3.128  16.112 -0.5950  0.6391 -0.8520
  705MPD2    C410477   2.130   2.992  16.115  0.3136  0.6902 -0.2237
  705MPD2    C510478   2.237   2.918  16.068  0.2348 -0.2273  0.8710
  705MPD2     H10479   2.243   3.297  16.018 -0.0491 -0.3729  1.1471
  705MPD2    H110480   2.046   2.947  16.166 -0.5809 -0.6619 -2.8666
  705MPD2    H210481   2.451   2.933  16.028  0.5041  0.2654 -0.5736
  705MPD2    H310482   2.243   2.810  16.078 -1.1402 -0.5884 -2.0366
  705MPD2     N10483   2.012   3.191  16.152 -0.2292  0.8748  0.7015
  705MPD2    H510484   1.936   3.130  16.180 -0.1899  1.2296  1.5925
  705MPD2    N110485   2.462   3.189  15.953  0.0474 -0.3992  0.1060
  705MPD2    H710486   2.449   3.290  15.955  1.2215 -0.2532  0.8357
  706TMC3    C110487   2.784   3.226  15.609 -0.4862 -0.1290  0.3731
  706TMC3    C210488   2.731   3.344  15.569 -0.6447  0.3085  0.2999
  706TMC3    C310489   2.651   3.407  15.666  0.6099  0.0325  0.2326
  706TMC3    C410490   2.733   3.158  15.715 -0.0285 -0.3594 -0.3849
  706TMC3    C510491   2.650   3.218  15.801 -0.3683 -0.5246 -0.1519
  706TMC3    C610492   2.612   3.344  15.781 -0.2142 -0.1705 -0.0447
  706TMC3     C10493   2.853   3.146  15.507 -0.0240  0.4729  0.1179
  706TMC3     O10494   2.893   3.039  15.544 -0.5854 -0.2463  0.4549
  706TMC3     H10495   2.767   3.407  15.489 -1.3209 -0.3233 -0.4926
  706TMC3    H110496   2.759   3.057  15.745 -0.4369  0.2529  1.9907
  706TMC3    H210497   2.534   3.391  15.840  0.5329 -1.0742  1.6540
  706TMC3    C710498   2.568   3.131  15.886  0.0059  0.4907  0.0238
  706TMC3    C810499   2.605   3.536  15.627  0.6934 -0.5198  0.0280
  706TMC3    O110500   2.590   3.014  15.868 -0.4191  0.2536  0.5827
  706TMC3    O210501   2.597   3.555  15.503  0.2188  0.7934 -0.0652
  707TMC3    C110502   3.501   2.540   1.627 -0.2453  0.2699  0.6207
  707TMC3    C210503   3.512   2.440   1.724  0.1117 -0.5758  0.5211
  707TMC3    C310504   3.409   2.418   1.809  0.0037 -0.6776 -0.4117
  707TMC3    C410505   3.387   2.608   1.600  0.2820  0.3493  0.1435
  707TMC3    C510506   3.292   2.593   1.688  0.7345 -1.0356  0.4982
  707TMC3    C610507   3.300   2.502   1.798  0.3641 -0.0532 -0.5582
  707TMC3     C10508   3.593   2.509   1.518 -0.1099  1.1229  0.2110
  707TMC3     O10509   3.699   2.457   1.553 -0.6825 -0.0117  1.2163
  707TMC3     H10510   3.609   2.404   1.757 -0.2681 -0.3828  1.8675
  707TMC3    H110511   3.379   2.683   1.523  0.7359 -1.7860 -1.9664
  707TMC3    H210512   3.219   2.485   1.869 -0.6763 -0.5912 -1.8825
  707TMC3    C710513   3.171   2.682   1.692  0.3301 -0.6166 -0.2350
  707TMC3    C810514   3.417   2.304   1.896  0.4858  0.4827 -0.4988
  707TMC3    O110515   3.117   2.691   1.801  0.3013 -0.5861  0.9662
  707TMC3    O210516   3.357   2.314   2.001  0.2140  0.4140  0.0013
  708MPD2     C10517   1.020   0.982  14.058  0.0353  0.1315 -0.2722
  708MPD2    C110518   0.937   0.986  14.171  0.0931 -0.5765 -0.2761
  708MPD2    C210519   0.999   0.985  14.297  0.3885 -0.1511 -0.1719
  708MPD2    C310520   1.139   0.986  14.311  0.9090  0.2547 -0.3129
  708MPD2    C410521   1.220   0.986  14.199  0.4769  0.0679  0.4480
  708MPD2    C510522   1.163   0.980  14.077 -0.6402 -0.5978  0.2494
  708MPD2     H10523   0.942   0.976  14.389 -0.1035  0.2695 -0.4438
  708MPD2    H110524   1.327   0.988  14.217  0.3974 -1.1153  1.0474
  708MPD2    H210525   0.981   0.955  13.961 -0.1176 -0.8216  0.0526
  708MPD2    H310526   1.221   0.962  13.987  0.1817  1.1292  0.4242
  708MPD2     N10527   1.193   1.003  14.437  0.3548  0.3522 -0.3995
  708MPD2    H510528   1.123   0.999  14.510  1.2449 -1.4738  0.3712
  708MPD2    N110529   0.798   0.986  14.142  0.1772 -0.0797  0.3079
  708MPD2    H710530   0.771   0.981  14.045 -0.4846  1.0351  0.4373
  709TMC3    C110531   0.575   1.030  14.203  0.4156  0.3841  0.1018
  709TMC3    C210532   0.581   1.129  14.113  0.2004  0.3224 -0.2562
  709TMC3    C310533   0.483   1.230  14.132  0.4457  0.1970 -0.0845
  709TMC3    C410534   0.493   1.033  14.310 -0.3112 -0.1469  0.2653
  709TMC3    C510535   0.411   1.143  14.339  0.7266 -0.7845 -0.2383
  709TMC3    C610536   0.393   1.236  14.237 -0.4119  0.3948  0.4855
  709TMC3     C10537   0.705   0.992  14.243  0.0359  0.4474 -0.6189
  709TMC3     O10538   0.717   0.986  14.361  0.3727 -0.1153 -0.3475
  709TMC3     H10539   0.655   1.138  14.034 -1.3012  0.0915 -1.6839
  709TMC3    H110540   0.500   0.949  14.378  1.8780 -1.9864 -2.2592
  709TMC3    H210541   0.315   1.310  14.247 -0.3750  0.2840  1.6286
  709TMC3    C710542   0.432   1.186  14.478  0.8151  0.0622  0.2930
  709TMC3    C810543   0.412   1.276  14.010  0.2638 -0.3548  0.2816
  709TMC3    O110544   0.358   1.273  14.522 -0.0632  0.4697  0.6321
  709TMC3    O210545   0.293   1.289  14.026 -0.3530  0.1205 -0.6128
  710TMC3    C110546   1.292   2.531   0.142 -0.0573  0.0837  0.2985
  710TMC3    C210547   1.394   2.611   0.091 -0.1926 -0.1591 -0.1888
  710TMC3    C310548   1.516   2.557   0.096 -0.0157  0.7868 -0.0066
  710TMC3    C410549   1.310   2.404   0.196  0.8327  0.6185  0.5782
  710TMC3    C510550   1.440   2.363   0.202 -0.2051 -0.0695  0.1662
  710TMC3    C610551   1.538   2.436   0.149 -0.2519 -0.0792 -0.4304
  710TMC3     C10552   1.180   2.587   0.208 -0.0091 -0.7037  0.2452
  710TMC3     O10553   1.076   2.523   0.223 -0.0476 -0.3526  0.2294
  710TMC3     H10554   1.378   2.715   0.064  2.7425  0.7703  1.6452
  710TMC3    H110555   1.226   2.362   0.251 -2.0948  0.1032 -4.2655
  710TMC3    H210556   1.639   2.396   0.149  0.3052  1.3336 -0.4552
  710TMC3    C710557   1.489   2.293   0.321 -0.5131 -0.2041 -0.5654
  710TMC3    C810558   1.630   2.640   0.065 -0.1559 -0.3946 -0.2889
  710TMC3    O110559   1.585   2.354   0.373  0.0045 -0.2809 -1.0111
  710TMC3    O210560   1.742   2.604   0.104 -0.2509 -0.1642  0.1540
  711TMC3    C110561   1.308   3.672  14.519 -0.4391 -0.5468 -0.0538
  711TMC3    C210562   1.261   3.721  14.634 -0.0185 -0.4177 -0.4118
  711TMC3    C310563   1.304   3.851  14.669 -0.0831  0.1400 -0.1515
  711TMC3    C410564   1.396   3.742  14.438 -0.5988  0.8418  0.8167
  711TMC3    C510565   1.440   3.870  14.471 -0.1606 -0.3397 -0.2588
  711TMC3    C610566   1.401   3.917  14.595 -0.2109 -0.0705 -0.3695
  711TMC3     C10567   1.265   3.540  14.472  0.1403  0.2977 -0.6833
  711TMC3     O10568   1.287   3.517  14.353 -0.1243  0.3755  0.2050
  711TMC3     H10569   1.192   3.676  14.705  1.8725 -1.3934  0.7818
  711TMC3    H110570   1.424   3.704  14.340 -2.0420 -2.0828  1.5478
  711TMC3    H210571   1.433   4.020  14.609 -0.5882  0.4689 -3.5150
  711TMC3    C710572   1.581   3.899  14.450  0.5206 -0.1928 -0.2479
  711TMC3    C810573   1.322   3.868  14.812 -0.4725  0.6585 -0.2660
  711TMC3    O110574   1.627   3.954  14.354  0.8358 -0.5044  0.0231
  711TMC3    O210575   1.249   3.808  14.892 -0.3937  0.0159  0.6852
  712MPD2     C10576   2.993   4.304  13.851 -0.4348  0.3429 -0.3479
  712MPD2    C110577   2.906   4.399  13.820 -0.1761  0.4587 -0.4769
  712MPD2    C210578   2.941   4.533  13.827  0.0596 -0.9423 -0.1007
  712MPD2    C310579   3.069   4.574  13.857 -0.4186 -0.1008  0.3574
  712MPD2    C410580   3.165   4.475  13.868  0.7213  0.0838 -0.0805
  712MPD2    C510581   3.123   4.345  13.871 -0.1121  0.0737  0.2539
  712MPD2     H10582   2.882   4.617  13.792 -0.7908 -0.6657  1.9943
  712MPD2    H110583   3.265   4.492  13.905  0.1343 -0.3053  1.6965
  712MPD2    H210584   2.977   4.197  13.844 -1.4576  0.4741 -0.0400
  712MPD2    H310585   3.193   4.265  13.894 -1.3477 -1.2532 -0.5888
  712MPD2     N10586   3.117   4.709  13.866  0.0818 -0.2116 -0.4546
  712MPD2    H510587   3.217   4.723  13.870  0.3343 -2.2827  0.3074
  712MPD2    N110588   2.774   4.379  13.787 -0.2480  0.5514  0.3054
  712MPD2    H710589   2.716   4.462  13.781 -1.9612 -0.6227  0.5272
  713TMC3    C110590   3.094   0.213  13.872 -0.1332  0.1675 -0.4038
  713TMC3    C210591   3.201   0.217  13.955  0.1820 -0.0815 -0.0579
  713TMC3    C310592   3.245   0.337  14.003  0.0954  0.3717  0.1806
  713TMC3    C410593   3.038   0.329  13.830 -0.8684  0.1489 -0.3152
  713TMC3    C510594   3.083   0.448  13.879  0.0137 -0.3483 -0.2426
  713TMC3    C610595   3.189   0.454  13.963 -0.1168 -0.2030 -0.0578
  713TMC3     C10596   3.037   0.085  13.842  0.6827  0.1934  0.7452
  713TMC3     O10597   2.921   0.094  13.800  0.2226 -0.1108  0.4649
  713TMC3     H10598   3.252   0.129  13.993  1.0115  0.7526  0.7618
  713TMC3    H110599   2.943   0.337  13.779 -0.6788  0.1563 -0.6726
  713TMC3    H210600   3.229   0.547  14.000 -2.4277  0.8976 -0.3512
  713TMC3    C710601   3.048   0.570  13.806 -0.0137  1.0848 -0.5324
  713TMC3    C810602   3.386   0.340  14.045  0.4312 -0.0779  0.7167
  713TMC3    O110603   3.138   0.658  13.794  0.5157 -0.9198 -0.0615
  713TMC3    O210604   3.452   0.244  14.003  0.0860  0.4862  0.2181
  714MPD2     C10605   0.434   4.040   1.326 -0.1197 -0.0280  0.3598
  714MPD2    C110606   0.403   3.952   1.228  0.7330 -0.3348  0.2217
  714MPD2    C210607   0.288   3.959   1.162 -0.0608 -0.4382  0.5670
  714MPD2    C310608   0.201   4.064   1.188 -0.4608  0.0780 -0.2179
  714MPD2    C410609   0.223   4.153   1.292 -0.2082 -0.4633  0.2658
  714MPD2    C510610   0.339   4.131   1.359 -0.3551 -0.1338  0.4982
  714MPD2     H10611   0.269   3.886   1.084  0.2816  1.6928 -1.5054
  714MPD2    H110612   0.158   4.234   1.323 -1.1013 -1.2319  0.3913
  714MPD2    H210613   0.530   4.033   1.374 -0.1709 -2.1540  0.1611
  714MPD2    H310614   0.366   4.203   1.435 -1.0416  1.6070 -0.9262
  714MPD2     N10615   0.089   4.078   1.107  0.2982  0.1429  0.0662
  714MPD2    H510616   0.082   4.003   1.038  0.3635 -0.3364  0.5828
  714MPD2    N110617   0.501   3.856   1.195 -0.2881  0.1305  0.2654
  714MPD2    H710618   0.584   3.844   1.252 -1.5872 -0.6117  2.0264
  715TMC3    C110619   0.622   3.688   1.092 -0.3335 -0.6337  0.5590
  715TMC3    C210620   0.632   3.563   1.036 -0.5612  0.2049 -0.1052
  715TMC3    C310621   0.756   3.506   1.029  0.5068 -0.2297  0.0777
  715TMC3    C410622   0.731   3.755   1.131 -0.2521 -0.1639  0.5279
  715TMC3    C510623   0.855   3.693   1.133 -0.4285  0.0263  0.6727
  715TMC3    C610624   0.865   3.572   1.077  0.4818 -0.4899  0.6220
  715TMC3     C10625   0.497   3.756   1.097  0.6560 -0.3844  0.1563
  715TMC3     O10626   0.399   3.703   1.042  0.0198  0.3761  0.1026
  715TMC3     H10627   0.557   3.501   0.988 -0.2889 -0.3163  0.1447
  715TMC3    H110628   0.729   3.862   1.147  1.0116 -0.0586  0.0090
  715TMC3    H210629   0.966   3.533   1.082  0.0918 -1.2773  2.3274
  715TMC3    C710630   0.973   3.760   1.184  0.1224  0.1629 -0.0234
  715TMC3    C810631   0.778   3.369   0.982  0.3466 -0.0171 -0.4653
  715TMC3    O110632   1.084   3.740   1.135 -0.1061  0.2004 -0.2834
  715TMC3    O210633   0.712   3.329   0.887  0.2492 -0.1245  0.1935
  716MPD2     C10634   0.450   1.780   9.628 -0.3645 -0.3056  0.2605
  716MPD2    C110635   0.333   1.754   9.566 -0.2858  0.3376  0.0626
  716MPD2    C210636   0.291   1.628   9.545  0.2350  0.3629  0.3476
  716MPD2    C310637   0.368   1.519   9.594  0.1719 -0.1120  0.4478
  716MPD2    C410638   0.483   1.549   9.658 -0.4770  0.4717  0.1044
  716MPD2    C510639   0.522   1.679   9.683 -0.4031 -0.0082 -0.1325
  716MPD2     H10640   0.203   1.606   9.485  0.9707 -4.1271  0.9158
  716MPD2    H110641   0.554   1.474   9.691  0.0403 -0.2462 -2.5964
  716MPD2    H210642   0.483   1.881   9.649  0.6464 -0.4978 -0.4260
  716MPD2    H310643   0.616   1.687   9.736 -0.9425 -0.2725  0.8654
  716MPD2     N10644   0.308   1.390   9.586  0.0837  0.0498 -0.0509
  716MPD2    H510645   0.222   1.387   9.533  0.1134  0.3744 -0.1188
  716MPD2    N110646   0.255   1.869   9.534 -0.4112  0.2421  0.3182
  716MPD2    H710647   0.301   1.957   9.556  0.5495  0.2605 -1.7861
  717TMC3    C110648   0.270   1.158   9.638  0.0862 -0.3594 -0.0313
  717TMC3    C210649   0.164   1.157   9.563 -0.1464  0.2391 -0.0867
  717TMC3    C310650   0.101   1.035   9.537 -0.1508  0.5813 -0.2917
  717TMC3    C410651   0.321   1.044   9.695 -0.4953  0.7166 -0.2931
  717TMC3    C510652   0.252   0.933   9.681  0.4594 -0.1956 -0.1570
  717TMC3    C610653   0.143   0.925   9.597  0.4243  0.5146 -0.4013
  717TMC3     C10654   0.346   1.273   9.652 -0.2188 -0.5152  0.0428
  717TMC3     O10655   0.435   1.270   9.735 -0.1597  0.5454  0.1724
  717TMC3     H10656   0.128   1.245   9.513  3.6870  1.3050 -1.0040
  717TMC3    H110657   0.411   1.034   9.753  0.0620 -0.2412 -1.3352
  717TMC3    H210658   0.082   0.836   9.603  1.2694  0.0700  1.3784
  717TMC3    C710659   0.295   0.810   9.751  0.0463 -0.0651  0.8497
  717TMC3    C810660   4.714   1.036   9.464  0.4630 -0.0867  0.4340
  717TMC3    O110661   0.215   0.720   9.729 -1.1035 -0.4952  0.2956
  717TMC3    O210662   4.658   1.148   9.458  0.1224  0.0809 -0.5714
  718MPD2     C10663   4.398   0.639  12.683 -0.2725  0.1736 -0.0117
  718MPD2    C110664   4.346   0.532  12.612 -0.6547 -0.2127 -0.0422
  718MPD2    C210665   4.265   0.441  12.680 -0.3749  0.0997 -0.5873
  718MPD2    C310666   4.257   0.447  12.826 -0.0253  0.2848  0.2117
  718MPD2    C410667   4.329   0.542  12.893  0.5508  0.0773  0.5668
  718MPD2    C510668   4.394   0.638  12.818 -0.1152  0.6908 -0.0248
  718MPD2     H10669   4.209   0.366  12.626  0.3328  0.1325 -1.3671
  718MPD2    H110670   4.336   0.553  13.000 -2.2080 -0.0596  0.7462
  718MPD2    H210671   4.456   0.718  12.636 -3.2928  1.2326 -1.9815
  718MPD2    H310672   4.451   0.715  12.868 -0.8479  0.4749  1.1368
  718MPD2     N10673   4.177   0.350  12.879  0.1805  0.8354 -0.2728
  718MPD2    H510674   4.136   0.282  12.815 -0.2363  0.0950  0.7742
  718MPD2    N110675   4.381   0.521  12.478 -0.3575  0.4249 -0.1216
  718MPD2    H710676   4.451   0.586  12.443  1.1808  0.4464  2.9209
  719TMC3    C110677   4.411   0.413  12.268  0.0319 -0.3982  0.3863
  719TMC3    C210678   4.355   0.307  12.196 -0.7137 -0.0936  0.1056
  719TMC3    C310679   4.428   0.211  12.138  1.0222 -0.1016 -0.0763
  719TMC3    C410680   4.547   0.433  12.276 -0.4484 -0.2992  0.4433
  719TMC3    C510681   4.622   0.340  12.211 -0.0267  0.4774 -0.3254
  719TMC3    C610682   4.568   0.223  12.155 -0.2637 -0.1157 -0.6256
  719TMC3     C10683   4.339   0.425  12.396 -0.1089  0.7701  0.1073
  719TMC3     O10684   4.236   0.357  12.412 -0.3983 -0.1495  0.4931
  719TMC3     H10685   4.248   0.285  12.197 -0.6604 -0.2956  2.2299
  719TMC3    H110686   4.597   0.514  12.328  3.0815 -0.8552 -2.0492
  719TMC3    H210687   4.630   0.143  12.115  0.7145  0.7389 -0.8036
  719TMC3    C710688   0.026   0.337  12.223  0.4036  0.1722  0.1866
  719TMC3    C810689   4.387   0.077  12.180  0.5217  0.9828  0.5481
  719TMC3    O110690   0.090   0.422  12.161  0.0020 -0.0638 -0.1218
  719TMC3    O210691   4.444   4.726  12.128 -0.6798 -0.7481  0.5483
  720MPD2     C10692   3.011   1.724  13.519 -0.4876  0.5882  0.1387
  720MPD2    C110693   3.091   1.788  13.430 -0.5266  0.6652  0.5281
  720MPD2    C210694   3.202   1.843  13.487  0.1603 -0.1303 -0.3695
  720MPD2    C310695   3.240   1.825  13.622  0.0381  0.3019 -0.3364
  720MPD2    C410696   3.156   1.759  13.707 -0.1699 -0.6176  0.1680
  720MPD2    C510697   3.047   1.707  13.648 -0.0517  0.2137  0.0170
  720MPD2     H10698   3.264   1.913  13.432 -0.2750  1.1779  0.8046
  720MPD2    H110699   3.184   1.750  13.812 -0.1000 -3.0124 -0.0783
  720MPD2    H210700   2.923   1.671  13.484 -0.5526  0.4209  0.5599
  720MPD2    H310701   2.978   1.649  13.709 -0.4373 -0.8465 -1.4095
  720MPD2     N10702   3.354   1.893  13.660  0.0352 -0.0194 -0.6407
  720MPD2    H510703   3.413   1.931  13.587 -0.1157  1.3418 -0.0393
  720MPD2    N110704   3.065   1.809  13.291 -0.7828 -0.0377  0.6847
  720MPD2    H710705   3.134   1.860  13.237 -0.7629 -0.1868  0.5686
  721TMC3    C110706   3.531   1.932  13.821  0.3096  0.2265 -0.2075
  721TMC3    C210707   3.560   1.942  13.953  0.0927 -0.1203  0.3445
  721TMC3    C310708   3.670   1.881  14.005 -0.0417 -0.0528 -0.1887
  721TMC3    C410709   3.620   1.873  13.734 -0.2577  0.5374  0.0929
  721TMC3    C510710   3.724   1.801  13.790 -0.9783  0.9029  0.5257
  721TMC3    C610711   3.751   1.814  13.924  0.0235  0.2620 -0.4178
  721TMC3     C10712   3.389   1.903  13.792  0.5319  0.1244 -0.0651
  721TMC3     O10713   3.315   1.893  13.891  0.2540  0.5968 -0.2863
  721TMC3     H10714   3.486   1.974  14.026 -1.2111 -1.3873 -0.4179
  721TMC3    H110715   3.600   1.860  13.628 -1.4656 -1.8684  0.6090
  721TMC3    H210716   3.834   1.753  13.961 -0.0613  0.2314 -0.2774
  721TMC3    C710717   3.847   1.829  13.725 -0.2266 -0.0432  1.3317
  721TMC3    C810718   3.678   1.852  14.149  0.7226 -0.3980  0.2771
  721TMC3    O110719   3.892   1.944  13.731  0.3534 -0.6802 -0.1533
  721TMC3    O210720   3.731   1.747  14.180 -0.0672  0.0274 -0.0738
  722MPD2     C10721   1.930   0.424  13.521 -0.0765 -0.0437  0.4959
  722MPD2    C110722   1.882   0.554  13.504 -0.0282 -0.5215  0.1682
  722MPD2    C210723   1.745   0.576  13.484 -0.6068  0.0912  0.4338
  722MPD2    C310724   1.658   0.465  13.467  0.7726  0.2594  0.0719
  722MPD2    C410725   1.714   0.342  13.465 -0.8635 -1.2340 -0.2661
  722MPD2    C510726   1.846   0.322  13.485  0.1608 -0.5618 -0.6447
  722MPD2     H10727   1.713   0.679  13.477 -0.6027 -0.1193 -2.6852
  722MPD2    H110728   1.655   0.256  13.433 -0.3789 -1.3086 -0.9584
  722MPD2    H210729   2.033   0.396  13.543  0.0921  1.2670  1.3734
  722MPD2    H310730   1.883   0.220  13.484  0.0558 -0.6093  0.0940
  722MPD2     N10731   1.522   0.491  13.461  0.1713 -0.6063 -0.4922
  722MPD2    H510732   1.492   0.587  13.452  2.1786 -0.1287 -2.0581
  722MPD2    N110733   1.969   0.663  13.518  0.1846  0.4824  0.5120
  722MPD2    H710734   1.925   0.754  13.509 -3.0418 -1.2566 -1.1899
  723TMC3    C110735   1.294   0.466  13.444 -0.1567  0.4141 -0.6936
  723TMC3    C210736   1.189   0.385  13.402  0.3828  0.0745 -0.8778
  723TMC3    C310737   1.058   0.434  13.405  0.3807 -0.2766 -0.1695
  723TMC3    C410738   1.268   0.586  13.502 -0.1614  0.0290  0.3334
  723TMC3    C510739   1.139   0.625  13.512  0.3012  0.3279  0.0250
  723TMC3    C610740   1.033   0.557  13.461 -0.2031 -0.4654 -0.2289
  723TMC3     C10741   1.420   0.396  13.451 -0.6455 -0.2360 -0.7781
  723TMC3     O10742   1.435   0.272  13.436  0.3724  0.3454  0.1546
  723TMC3     H10743   1.211   0.292  13.351 -2.2141 -0.5175 -0.9524
  723TMC3    H110744   1.344   0.645  13.551 -0.2419 -0.7315  1.3731
  723TMC3    H210745   0.932   0.596  13.456 -0.2640 -0.4291  1.1619
  723TMC3    C710746   1.109   0.749  13.579 -0.0823  0.1180 -0.7277
  723TMC3    C810747   0.943   0.360  13.354 -0.3479 -0.1860  0.2726
  723TMC3    O110748   1.193   0.834  13.566  0.0513 -0.4213  0.5334
  723TMC3    O210749   0.845   0.429  13.326 -0.5182 -0.2145 -0.2073
  724TMC3    C110750   2.000   3.052  10.255 -0.4812 -0.1152  0.7644
  724TMC3    C210751   1.984   3.159  10.169  0.1736  0.0234  0.5622
  724TMC3    C310752   2.053   3.276  10.201  0.2632  0.0694 -0.1947
  724TMC3    C410753   2.086   3.056  10.357 -0.6373 -0.1879  0.8826
  724TMC3    C510754   2.154   3.172  10.379  0.0060  0.3488 -0.3422
  724TMC3    C610755   2.136   3.284  10.305 -0.5565  0.6444 -0.9593
  724TMC3     C10756   1.903   2.942  10.243 -0.2770 -0.2653 -0.4795
  724TMC3     O10757   1.812   2.961  10.161 -0.2469 -0.0604 -0.2961
  724TMC3     H10758   1.940   3.141  10.072 -0.1757 -0.1527  0.7532
  724TMC3    H110759   2.100   2.975  10.428  0.7257 -1.7637 -1.1666
  724TMC3    H210760   2.176   3.381  10.333 -1.1842  0.4467  0.6218
  724TMC3    C710761   2.261   3.181  10.471  0.0130 -0.6646 -1.1613
  724TMC3    C810762   2.057   3.373  10.095  0.2358 -0.8364 -0.5281
  724TMC3    O110763   2.350   3.259  10.448 -0.2579  0.2630  0.6697
  724TMC3    O210764   1.963   3.368  10.018 -0.5855  0.3179 -0.5396
  725TMC3    C110765   4.037   2.197  13.040  0.0813 -0.2860  0.2087
  725TMC3    C210766   3.934   2.253  12.973  0.0088 -0.2578  0.4826
  725TMC3    C310767   3.835   2.164  12.924  0.3968 -0.0477 -0.3014
  725TMC3    C410768   4.035   2.064  13.079 -0.6528  0.5508 -0.0619
  725TMC3    C510769   3.942   1.977  13.027  0.2705  0.3436 -0.0355
  725TMC3    C610770   3.844   2.028  12.950  0.3282 -0.1659  0.2738
  725TMC3     C10771   4.141   2.280  13.083 -0.3477  0.1556  0.3115
  725TMC3     O10772   4.113   2.399  13.102 -0.4063 -0.1723  0.2599
  725TMC3     H10773   3.932   2.360  12.953  2.0442 -0.1503  0.8572
  725TMC3    H110774   4.106   2.017  13.146 -1.4729  0.1177  0.5109
  725TMC3    H210775   3.773   1.963  12.900  0.9369  0.4706 -1.4112
  725TMC3    C710776   3.971   1.835  13.020  0.2284  0.1051  0.2563
  725TMC3    C810777   3.720   2.211  12.843  0.0583  0.2550 -0.1197
  725TMC3    O110778   4.090   1.803  13.013  0.4209  0.1127  0.2374
  725TMC3    O210779   3.615   2.148  12.851 -0.1082 -0.3269  0.7814
  726MPD2     C10780   1.489   3.946  10.233  0.7144 -1.0590  0.2031
  726MPD2    C110781   1.362   3.993  10.195  0.1400  0.6308 -0.3017
  726MPD2    C210782   1.250   3.948  10.268  0.4258 -0.4944 -0.1802
  726MPD2    C310783   1.264   3.851  10.369 -0.4852  0.1612 -0.1804
  726MPD2    C410784   1.387   3.807  10.402  0.2257 -0.0116  0.1015
  726MPD2    C510785   1.499   3.855  10.332 -0.3346 -0.3616 -0.0893
  726MPD2     H10786   1.153   3.988  10.241  2.9470  4.0212 -2.4633
  726MPD2    H110787   1.404   3.732  10.479 -0.5887  1.2110  1.4748
  726MPD2    H210788   1.579   3.987  10.188  1.4282  1.1326  3.6329
  726MPD2    H310789   1.595   3.819  10.367  0.1629 -0.0874 -1.1460
  726MPD2     N10790   1.158   3.805  10.451  0.0495  0.5737  0.7843
  726MPD2    H510791   1.178   3.746  10.531 -2.1327 -1.5676 -0.2482
  726MPD2    N110792   1.356   4.099  10.107  0.3603 -0.4578 -0.2223
  726MPD2    H710793   1.443   4.138  10.071 -0.9351  0.6148 -2.2148
  727TMC3    C110794   1.255   4.237   9.933  0.4706 -0.6681  0.0376
  727TMC3    C210795   1.369   4.311   9.948 -0.3102  0.6044 -0.9975
  727TMC3    C310796   1.373   4.441   9.911  0.3152  0.3115  0.5826
  727TMC3    C410797   1.140   4.291   9.883 -0.0367 -0.5189 -0.8374
  727TMC3    C510798   1.145   4.423   9.856 -0.3524 -1.0704 -0.0308
  727TMC3    C610799   1.260   4.496   9.867  0.0945 -0.2267  0.1631
  727TMC3     C10800   1.242   4.127  10.028 -0.1614 -0.3286  0.1898
  727TMC3     O10801   1.135   4.065  10.026  0.2373 -0.3451  0.1394
  727TMC3     H10802   1.457   4.262   9.987 -1.5955  0.2287  1.4545
  727TMC3    H110803   1.046   4.244   9.909 -0.8351  0.8335 -1.3120
  727TMC3    H210804   1.248   4.601   9.844 -0.5944 -0.3077  0.1357
  727TMC3    C710805   1.036   4.470   9.765  0.8197 -0.0251  0.7256
  727TMC3    C810806   1.481   4.524   9.966  0.0975  0.3652  0.6430
  727TMC3    O110807   0.964   4.378   9.721 -0.0448 -0.0311 -0.0041
  727TMC3    O210808   1.586   4.466   9.992  0.3040  0.3502 -0.2336
  728TMC3    C110809   0.977   2.395  15.108 -0.2300 -0.1565 -0.1910
  728TMC3    C210810   1.106   2.437  15.074 -0.0213  0.2252 -0.8922
  728TMC3    C310811   1.130   2.481  14.947 -0.6634  0.7051  0.0631
  728TMC3    C410812   0.878   2.412  15.017 -0.1143  0.3117 -0.9547
  728TMC3    C510813   0.905   2.451  14.890  0.3686  0.5767 -0.0306
  728TMC3    C610814   1.034   2.480  14.847  0.1022  0.1885  0.0857
  728TMC3     C10815   0.956   2.324  15.237 -0.0297 -0.4599  0.1493
  728TMC3     O10816   1.059   2.286  15.290  0.7323  0.1779 -0.3336
  728TMC3     H10817   1.190   2.425  15.140  0.5171  1.9806 -1.2694
  728TMC3    H110818   0.776   2.388  15.045 -0.6707  0.3557 -2.9396
  728TMC3    H210819   1.055   2.521  14.749  0.8108  0.9004  0.5349
  728TMC3    C710820   0.802   2.444  14.792 -0.1070 -0.1115  0.1976
  728TMC3    C810821   1.254   2.557  14.927 -0.0984 -0.5003  0.7847
  728TMC3    O110822   0.717   2.360  14.819 -0.5304  0.2965 -0.6334
  728TMC3    O210823   1.294   2.600  15.035  0.2589  0.2308 -0.2792
  729MPD2     C10824   2.478   4.056  16.386  0.7123  0.2702 -0.1947
  729MPD2    C110825   2.604   4.021  16.418 -0.2350  0.6547  0.2336
  729MPD2    C210826   2.635   4.009  16.552 -0.7977  0.1903  0.1947
  729MPD2    C310827   2.543   4.036  16.648 -0.5559  0.3020 -0.6485
  729MPD2    C410828   2.417   4.081  16.613  0.2846  0.3900 -0.8560
  729MPD2    C510829   2.382   4.089  16.482  0.8462  0.1343  0.1165
  729MPD2     H10830   2.734   3.980  16.586 -1.6725 -2.2063  0.7168
  729MPD2    H110831   2.341   4.096  16.688  0.4935 -2.5403 -0.0358
  729MPD2    H210832   2.456   4.075  16.282  1.8579  0.8908 -0.3328
  729MPD2    H310833   2.281   4.118  16.456  0.7270 -0.5062 -0.1420
  729MPD2     N10834   2.584   4.016  16.779  0.6792  0.0175 -0.1688
  729MPD2    H510835   2.682   4.007  16.803  0.9915  0.0979 -1.4345
  729MPD2    N110836   2.690   4.008  16.302  0.3447  0.0398  0.5499
  729MPD2    H710837   2.650   4.023  16.209  0.1799  0.3453  0.6706
  730TMC3    C110838   2.568   3.973  17.016 -0.1380  0.5460  0.0722
  730TMC3    C210839   2.696   3.946  16.994  0.2482  0.1489 -0.0642
  730TMC3    C310840   2.802   4.010  17.056  0.3507  0.9976 -0.4521
  730TMC3    C410841   2.532   4.061  17.102  0.1101 -0.5731  0.0045
  730TMC3    C510842   2.637   4.128  17.165 -0.5497 -0.2421  0.0822
  730TMC3    C610843   2.771   4.101  17.149  0.2062  0.1228  0.5351
  730TMC3     C10844   2.500   4.004  16.889 -0.4904  0.2190  0.3867
  730TMC3     O10845   2.379   4.013  16.892  0.1054 -0.4655 -0.1902
  730TMC3     H10846   2.716   3.873  16.916  2.4073  1.5243 -0.8015
  730TMC3    H110847   2.427   4.085  17.111  0.4042  0.4976  0.5970
  730TMC3    H210848   2.844   4.171  17.190 -0.0983  0.7066  0.0856
  730TMC3    C710849   2.602   4.262  17.193  0.0174 -0.0613  0.6679
  730TMC3    C810850   2.908   4.044  16.959 -0.2424 -0.1541  0.2066
  730TMC3    O110851   2.510   4.322  17.141 -0.5339  0.5393  0.7063
  730TMC3    O210852   2.906   3.975  16.858  0.0804 -0.1009  0.3960
  731MPD2     C10853   3.745   0.787  12.257 -0.4289  0.1954 -0.6220
  731MPD2    C110854   3.730   0.924  12.256 -0.4299  0.1939  0.3337
  731MPD2    C210855   3.636   0.979  12.343 -0.2935  0.1101 -0.5864
  731MPD2    C310856   3.574   0.897  12.435  0.0922  0.3017  0.6685
  731MPD2    C410857   3.596   0.758  12.446 -0.1705 -0.9104  0.5740
  731MPD2    C510858   3.689   0.705  12.356  0.4416  0.2579 -0.7044
  731MPD2     H10859   3.619   1.086  12.336  1.2110  0.3690 -0.2782
  731MPD2    H110860   3.548   0.699  12.523  1.2749  0.2743  2.3832
  731MPD2    H210861   3.804   0.733  12.183  0.3410  1.4151 -0.8887
  731MPD2    H310862   3.711   0.599  12.360  0.1405  0.1732 -1.3761
  731MPD2     N10863   3.497   0.967  12.533 -0.5164 -0.1039 -0.0498
  731MPD2    H510864   3.489   1.068  12.527 -3.3990 -0.3172 -0.0183
  731MPD2    N110865   3.797   1.002  12.159 -0.3673  0.4629 -0.2706
  731MPD2    H710866   3.835   0.945  12.084  0.4844  0.1738  0.3903
  732TMC3    C110867   3.930   1.177  12.068 -0.5043 -0.1592 -0.0270
  732TMC3    C210868   3.888   1.149  11.947  0.5857 -0.0710 -0.2965
  732TMC3    C310869   3.907   1.241  11.851  0.7690 -0.9014 -0.0031
  732TMC3    C410870   4.002   1.290  12.096  0.1521 -1.1424  0.0323
  732TMC3    C510871   4.030   1.377  11.995  0.1306 -0.1661  0.0903
  732TMC3    C610872   3.976   1.357  11.866 -0.1668  0.7068 -0.1396
  732TMC3     C10873   3.849   1.128  12.174 -0.4765 -0.0727  0.0859
  732TMC3     O10874   3.821   1.208  12.262  0.0322  0.3639 -0.2152
  732TMC3     H10875   3.814   1.070  11.938 -0.0263  0.4218  0.4198
  732TMC3    H110876   4.016   1.317  12.200  1.6228 -2.0841  0.0752
  732TMC3    H210877   3.999   1.428  11.788 -0.2091  1.2119  0.3057
  732TMC3    C710878   4.130   1.479  12.029  0.1116  0.2881  0.6384
  732TMC3    C810879   3.821   1.234  11.743  0.0715 -0.4235  0.0181
  732TMC3    O110880   4.133   1.584  11.965 -0.0374 -0.6175  0.2234
  732TMC3    O210881   3.866   1.267  11.635  0.0307  0.2511  0.1547
  733TMC3    C110882   4.047   4.737  13.161 -0.2587  0.8813  0.3826
  733TMC3    C210883   4.057   0.133  13.133  0.1293 -0.5592 -0.0144
  733TMC3    C310884   4.129   0.181  13.029  0.0093  0.0552 -0.1132
  733TMC3    C410885   4.118   4.649  13.078 -0.1409  0.2401  0.4507
  733TMC3    C510886   4.191   4.695  12.970 -0.0973 -0.6870  0.3653
  733TMC3    C610887   4.193   0.094  12.942 -0.3048  0.1172 -0.5586
  733TMC3     C10888   3.927   4.697  13.227  0.0265  0.3333  0.2767
  733TMC3     O10889   3.826   0.009  13.185  0.0561  0.4428 -0.7584
  733TMC3     H10890   3.997   0.207  13.184 -4.1916 -3.4920 -0.8168
  733TMC3    H110891   4.100   4.542  13.083  1.1145 -0.0422 -1.0616
  733TMC3    H210892   4.278   0.132  12.885 -0.2181  3.0453  1.5355
  733TMC3    C710893   4.208   4.610  12.853  0.2138 -0.1396 -0.1798
  733TMC3    C810894   4.144   0.327  13.017 -0.1480 -0.0418  0.1818
  733TMC3    O110895   4.198   4.488  12.863 -0.7475 -0.1962  0.1548
  733TMC3    O210896   4.153   0.396  13.120  0.2080  0.2679 -0.8545
  734MPD2     C10897   1.812   2.131  12.474 -0.2640 -0.0918  0.0027
  734MPD2    C110898   1.678   2.111  12.439 -0.0451  0.3811 -0.6110
  734MPD2    C210899   1.624   2.190  12.338 -0.2480 -0.0912  0.0137
  734MPD2    C310900   1.701   2.287  12.281  1.0226 -0.1056 -0.0559
  734MPD2    C410901   1.831   2.300  12.312  0.4274 -0.2028 -0.2827
  734MPD2    C510902   1.889   2.223  12.410  0.6423 -0.1868 -0.0960
  734MPD2     H10903   1.521   2.183  12.307 -1.2660  3.0571  2.6517
  734MPD2    H110904   1.899   2.363  12.256  1.5106 -1.4338 -0.3424
  734MPD2    H210905   1.864   2.079  12.554  1.1788  2.7808  0.9534
  734MPD2    H310906   1.991   2.240  12.442  1.2542 -1.2699 -1.4807
  734MPD2     N10907   1.648   2.369  12.175 -0.6683  0.1708 -0.2151
  734MPD2    H510908   1.548   2.351  12.171 -0.4124 -1.5652  1.3508
  734MPD2    N110909   1.603   2.003  12.490  0.4396 -0.5932 -0.5060
  734MPD2    H710910   1.654   1.936  12.548 -0.9707 -1.1736  0.0605
  735TMC3    C110911   1.441   1.834  12.492 -0.1008  0.4427  0.6565
  735TMC3    C210912   1.311   1.814  12.460 -0.5800 -0.1633  0.0100
  735TMC3    C310913   1.275   1.700  12.398 -0.0157 -0.8543 -0.3375
  735TMC3    C410914   1.533   1.740  12.471  0.4575 -0.3131 -0.1359
  735TMC3    C510915   1.491   1.623  12.412  0.3391 -0.0293 -0.6640
  735TMC3    C610916   1.361   1.600  12.372 -0.3166  0.1443 -0.0391
  735TMC3     C10917   1.475   1.971  12.460  0.2152  0.5618 -0.0281
  735TMC3     O10918   1.378   2.039  12.433  0.7405  0.1160 -0.2858
  735TMC3     H10919   1.230   1.879  12.490 -0.6626 -0.3659  0.2232
  735TMC3    H110920   1.638   1.746  12.494  0.4284  2.5632 -0.6490
  735TMC3    H210921   1.330   1.517  12.310 -2.9275  1.9163 -1.0490
  735TMC3    C710922   1.604   1.541  12.360 -0.2871 -0.6831  0.0260
  735TMC3    C810923   1.204   1.734  12.274  0.5184 -0.4442 -0.1977
  735TMC3    O110924   1.713   1.592  12.344 -0.3032 -0.2040  0.1698
  735TMC3    O210925   1.155   1.636  12.212 -0.1829  0.4698  0.0384
  736MPD2     C10926   1.589   1.182  12.272 -0.3896 -0.4753  0.0023
  736MPD2    C110927   1.649   1.307  12.289 -0.0574  0.6509 -0.5923
  736MPD2    C210928   1.770   1.330  12.225 -0.3719 -0.1761 -0.1442
  736MPD2    C310929   1.824   1.232  12.146  0.5741  0.5052 -0.3595
  736MPD2    C410930   1.763   1.109  12.125 -0.1507 -0.1876  0.3294
  736MPD2    C510931   1.646   1.089  12.190  0.1621  0.6458  0.4466
  736MPD2     H10932   1.817   1.426  12.240  1.7149 -1.2720  0.3520
  736MPD2    H110933   1.793   1.039  12.047 -0.3264  1.8935 -1.6013
  736MPD2    H210934   1.492   1.171  12.319  0.7489 -1.3699  2.1963
  736MPD2    H310935   1.592   1.001  12.157 -1.4726  0.7895  2.7557
  736MPD2     N10936   1.941   1.261  12.072 -0.0517 -0.3196  1.1566
  736MPD2    H510937   1.955   1.212  11.985  3.9904  2.5171  0.1667
  736MPD2    N110938   1.570   1.407  12.353 -0.3033 -0.0104  1.2930
  736MPD2    H710939   1.481   1.376  12.390 -0.5261 -1.4735 -0.4752
  737TMC3    C110940   2.108   1.382  11.972  0.2479  0.7872  0.5533
  737TMC3    C210941   2.155   1.501  11.932  0.1116  0.1339  0.3307
  737TMC3    C310942   2.266   1.504  11.851 -0.0047 -0.5971  0.2281
  737TMC3    C410943   2.171   1.263  11.933 -0.4777 -0.5069  0.2541
  737TMC3    C510944   2.285   1.270  11.860  0.2523  0.0422 -0.4614
  737TMC3    C610945   2.332   1.392  11.813 -0.5009  0.2267 -0.2665
  737TMC3     C10946   2.014   1.376  12.084  0.2008  0.1651 -0.6523
  737TMC3     O10947   2.022   1.463  12.168  0.4992 -0.2294  0.0949
  737TMC3     H10948   2.115   1.593  11.973  0.1116  1.1885 -2.0398
  737TMC3    H110949   2.133   1.169  11.969  1.9357 -0.4475  2.9516
  737TMC3    H210950   2.426   1.405  11.760  2.5660 -2.1549  4.5773
  737TMC3    C710951   2.349   1.145  11.832 -0.1227  0.1029 -0.5947
  737TMC3    C810952   2.312   1.626  11.798 -1.0424  0.3240 -0.1407
  737TMC3    O110953   2.283   1.040  11.853  0.2782 -0.9893 -0.1269
  737TMC3    O210954   2.421   1.617  11.743  0.0332  0.2410 -0.6215
  738MPD2     C10955   2.575   0.842  15.117  0.4644 -0.3220  0.2351
  738MPD2    C110956   2.447   0.889  15.103 -0.5134 -1.0962  0.2795
  738MPD2    C210957   2.426   1.025  15.114  0.2111 -0.4279 -0.2142
  738MPD2    C310958   2.539   1.108  15.130  0.2090 -0.1561 -0.2427
  738MPD2    C410959   2.667   1.057  15.148 -0.3106 -0.2420  0.4179
  738MPD2    C510960   2.684   0.921  15.149  0.2641 -0.0809 -0.2061
  738MPD2     H10961   2.330   1.074  15.107  1.1306  1.5557  1.2527
  738MPD2    H110962   2.754   1.120  15.163 -1.2385  0.4659  2.7607
  738MPD2    H210963   2.595   0.736  15.104  0.1715 -0.5275  1.5024
  738MPD2    H310964   2.784   0.880  15.152  0.1585 -0.2324  0.9810
  738MPD2     N10965   2.521   1.251  15.114 -0.4725  0.9999  0.5817
  738MPD2    H510966   2.427   1.282  15.089 -0.6282  0.5373  0.5969
  738MPD2    N110967   2.339   0.798  15.079 -0.5141 -0.2547 -0.3545
  738MPD2    H710968   2.246   0.836  15.093 -0.8013 -0.9370 -0.4195
  739TMC3    C110969   2.576   1.478  15.089 -0.3713  0.6254 -0.4979
  739TMC3    C210970   2.559   1.472  14.959  0.1742  0.5049 -0.1575
  739TMC3    C310971   2.592   1.576  14.874 -0.7973  0.1416  0.0915
  739TMC3    C410972   2.634   1.583  15.148  0.1201 -0.4358 -0.0093
  739TMC3    C510973   2.640   1.700  15.073 -0.6342 -0.0617  0.3941
  739TMC3    C610974   2.630   1.696  14.934 -0.4642 -0.2925  0.3500
  739TMC3     C10975   2.617   1.346  15.150  0.7072 -0.2745 -0.0825
  739TMC3     O10976   2.728   1.338  15.205 -0.1400 -0.3094 -0.3587
  739TMC3     H10977   2.516   1.382  14.918  1.7109 -0.5870  0.6196
  739TMC3    H110978   2.654   1.579  15.255 -0.9141  1.2387  0.2505
  739TMC3    H210979   2.627   1.788  14.877 -0.5992  0.3064  1.3284
  739TMC3    C710980   2.693   1.820  15.133 -0.2639  0.7510 -0.1489
  739TMC3    C810981   2.632   1.541  14.740 -0.4103 -0.4827 -0.2909
  739TMC3    O110982   2.739   1.891  15.045 -1.0359 -0.5973  0.0515
  739TMC3    O210983   2.614   1.429  14.701  0.1384 -0.1618  0.4410
  740TMC3    C110984   2.381   2.703  14.113  0.2894 -0.2331 -0.0795
  740TMC3    C210985   2.484   2.732  14.200 -0.1902  0.2027  0.1954
  740TMC3    C310986   2.613   2.736  14.156  0.0045 -0.2879 -0.0247
  740TMC3    C410987   2.413   2.677  13.983 -0.4017  0.2322  0.1507
  740TMC3    C510988   2.543   2.667  13.941 -0.7207  0.8086  0.6057
  740TMC3    C610989   2.649   2.700  14.027  0.2800 -0.1161 -0.3734
  740TMC3     C10990   2.245   2.717  14.154  0.4677  0.1929  0.1571
  740TMC3     O10991   2.156   2.755  14.076 -0.6602 -0.4291  0.0189
  740TMC3     H10992   2.466   2.751  14.305  1.8025  0.6638  0.4608
  740TMC3    H110993   2.329   2.650  13.920 -0.2487  0.7911 -0.2975
  740TMC3    H210994   2.752   2.677  14.003  0.2957  0.8866 -1.2652
  740TMC3    C710995   2.575   2.609  13.814 -0.1464 -0.2270  1.2438
  740TMC3    C810996   2.710   2.773  14.260  0.0088 -0.1927  0.9908
  740TMC3    O110997   2.694   2.586  13.796 -0.4570 -0.0124 -0.1075
  740TMC3    O210998   2.818   2.826  14.237  0.2587 -0.0695 -0.4251
  741TMC3    C110999   2.586   1.893  13.885  0.1509 -0.1460 -0.3860
  741TMC3    C211000   2.470   1.812  13.905  0.3567 -0.8164 -0.0873
  741TMC3    C311001   2.420   1.799  14.029  0.4176 -0.0044 -0.0725
  741TMC3    C411002   2.644   1.954  13.992  0.4283 -0.4519  0.5221
  741TMC3    C511003   2.596   1.928  14.117  0.7069 -0.0057  0.5630
  741TMC3    C611004   2.482   1.863  14.139  0.4285 -0.9889 -0.4258
  741TMC3     C11005   2.626   1.917  13.753  0.4097  0.0106 -0.0782
  741TMC3     O11006   2.551   1.884  13.662  0.1086  0.5049 -0.8121
  741TMC3     H11007   2.435   1.753  13.820 -3.1278 -1.0540  1.5155
  741TMC3    H111008   2.741   2.001  13.977  0.3020 -1.2697 -2.8431
  741TMC3    H211009   2.431   1.859  14.235  1.2376  0.9950  0.0856
  741TMC3    C711010   2.658   2.009  14.221 -0.0968  0.5694 -0.1979
  741TMC3    C811011   2.325   1.694  14.048  0.1829 -0.0747  0.2193
  741TMC3    O111012   2.728   2.102  14.188 -0.6484 -0.0886 -0.2106
  741TMC3    O211013   2.268   1.650  13.950 -0.1681  0.4550 -0.5315
  742TMC3    C111014   2.053   4.711  15.257  0.2229 -0.7210 -0.8313
  742TMC3    C211015   1.982   4.686  15.140  0.0459 -0.1928  0.1749
  742TMC3    C311016   2.009   0.032  15.041 -0.5402  0.3490 -0.0482
  742TMC3    C411017   2.127   0.083  15.271 -0.3209 -0.8330  0.5711
  742TMC3    C511018   2.147   0.174  15.170 -0.8244 -0.7315  0.3934
  742TMC3    C611019   2.086   0.148  15.049  0.6329 -0.2041  0.3453
  742TMC3     C11020   2.012   4.641  15.378 -0.5987 -0.0089 -0.5592
  742TMC3     O11021   2.068   4.676  15.477  0.0680  0.4249 -0.1715
  742TMC3     H11022   1.921   4.598  15.122 -0.6259  0.0909  1.0914
  742TMC3    H111023   2.177   0.097  15.366  3.1383 -1.5269 -1.1395
  742TMC3    H211024   2.100   0.216  14.966  0.2718 -0.6173 -0.0560
  742TMC3    C711025   2.283   0.242  15.170  0.2979 -0.0344 -0.3425
  742TMC3    C811026   1.948   0.004  14.910  0.4460  0.5710 -0.4238
  742TMC3    O111027   2.331   0.274  15.064  0.2220  0.6243 -0.1459
  742TMC3    O211028   2.017   0.004  14.810  0.2131 -0.1273  0.3926
  743MPD2     C11029   3.869   1.227   1.987  1.1678 -0.1296  0.1803
  743MPD2    C111030   3.946   1.251   1.872  0.0893 -0.3722  0.1103
  743MPD2    C211031   4.068   1.185   1.870  0.4795 -0.1333 -0.2070
  743MPD2    C311032   4.109   1.098   1.970  0.4740  0.3476  0.8460
  743MPD2    C411033   4.024   1.071   2.080  0.0629  0.0480  0.7871
  743MPD2    C511034   3.902   1.136   2.078  0.2796 -0.3237  0.1467
  743MPD2     H11035   4.147   1.229   1.811  1.1614  0.3281  1.0520
  743MPD2    H111036   4.042   0.998   2.159 -0.0985 -0.5327  0.2865
  743MPD2    H211037   3.773   1.274   2.009  1.4268 -0.0108  1.0498
  743MPD2    H311038   3.835   1.113   2.159 -0.4343  0.0597 -0.3362
  743MPD2     N11039   4.240   1.050   1.954  0.1230  0.3740 -0.2470
  743MPD2    H511040   4.281   1.036   1.862 -0.1818  0.2385 -0.3617
  743MPD2    N111041   3.901   1.345   1.776  0.3633 -0.4583 -0.0522
  743MPD2    H711042   3.811   1.385   1.799  1.1527  1.4448 -0.2738
  744TMC3    C111043   3.879   1.478   1.585  0.4064  0.0372 -0.1372
  744TMC3    C211044   3.782   1.559   1.647 -1.0021 -0.4124  0.1847
  744TMC3    C311045   3.703   1.648   1.570 -0.6099 -0.4847 -0.1412
  744TMC3    C411046   3.891   1.473   1.450  0.5749  0.1819  0.0228
  744TMC3    C511047   3.814   1.565   1.386  0.5647  0.2567 -0.3182
  744TMC3    C611048   3.722   1.653   1.438  0.7964 -0.0100  0.8578
  744TMC3     C11049   3.967   1.399   1.672 -0.2524 -0.0204  0.2390
  744TMC3     O11050   4.075   1.374   1.622  0.0111 -0.1591 -0.5705
  744TMC3     H11051   3.776   1.559   1.755 -0.3607  0.7477  0.2198
  744TMC3    H111052   3.959   1.405   1.400 -2.2484 -1.6968 -1.2495
  744TMC3    H211053   3.681   1.736   1.382  1.7773 -0.3271 -0.3248
  744TMC3    C711054   3.847   1.573   1.247 -0.3453  0.0582  0.2089
  744TMC3    C811055   3.654   1.768   1.631 -0.4293 -0.3670  0.6649
  744TMC3    O111056   3.951   1.518   1.212 -0.0588  0.0759 -0.4383
  744TMC3    O211057   3.644   1.860   1.555 -0.3321  0.0931  0.0286
  745TMC3    C111058   2.587   4.262  13.705 -0.2742 -0.1458  0.2609
  745TMC3    C211059   2.497   4.335  13.773 -0.3153 -0.0211  0.2737
  745TMC3    C311060   2.367   4.355  13.725  0.1092 -0.1873  0.0658
  745TMC3    C411061   2.558   4.231  13.577 -0.1606  0.0160  0.3823
  745TMC3    C511062   2.429   4.251  13.532 -0.4603  0.3204  0.5072
  745TMC3    C611063   2.330   4.310  13.606 -0.4272 -0.3485  0.0500
  745TMC3     C11064   2.728   4.260  13.744  0.4790  0.7813  0.4574
  745TMC3     O11065   2.783   4.154  13.730 -0.2460  0.0222 -0.1446
  745TMC3     H11066   2.523   4.362  13.875 -0.0573  0.6902  0.0247
  745TMC3    H111067   2.637   4.184  13.518 -0.9919 -0.9595  0.0531
  745TMC3    H211068   2.229   4.321  13.570  1.1405  0.7790 -4.0559
  745TMC3    C711069   2.409   4.285  13.389  0.4543  0.3254 -0.0313
  745TMC3    C811070   2.279   4.455  13.791 -1.1911 -0.1166 -0.2310
  745TMC3    O111071   2.304   4.331  13.345  0.2195  0.3900 -0.3471
  745TMC3    O211072   2.168   4.460  13.748  0.4070 -0.6264  0.2178
  746TMC3    C111073   0.884   1.753  11.005 -0.3494 -0.1592  0.0532
  746TMC3    C211074   0.928   1.725  10.881 -0.2238 -0.5163  0.4985
  746TMC3    C311075   0.912   1.598  10.830  0.1958 -0.1930 -0.2634
  746TMC3    C411076   0.817   1.659  11.076  0.3895 -0.5006  0.4994
  746TMC3    C511077   0.782   1.540  11.012 -0.2018  0.7042 -0.2029
  746TMC3    C611078   0.844   1.501  10.897 -0.0679  0.0756 -0.0234
  746TMC3     C11079   0.885   1.879  11.073 -0.0516  0.1138 -0.1917
  746TMC3     O11080   0.849   1.887  11.191 -0.2917 -0.8334  0.4822
  746TMC3     H11081   0.990   1.798  10.829 -0.5268 -0.8882 -0.3870
  746TMC3    H111082   0.768   1.684  11.169 -0.1558 -2.8446  0.8631
  746TMC3    H211083   0.809   1.409  10.850 -2.2026  0.5107  0.7103
  746TMC3    C711084   0.674   1.463  11.064  0.7089  0.8722  0.4769
  746TMC3    C811085   0.942   1.579  10.686  1.2480 -0.4866  0.2754
  746TMC3    O111086   0.626   1.373  11.005 -0.1554  0.1358 -0.2711
  746TMC3    O211087   0.952   1.464  10.652 -0.1442  0.5748 -0.4521
  747TMC3    C111088   2.982   1.282  11.006 -0.1142 -0.1056  0.8364
  747TMC3    C211089   2.892   1.182  11.052 -0.2611  0.2559  0.2894
  747TMC3    C311090   2.903   1.147  11.179 -0.0627 -1.0699 -0.1515
  747TMC3    C411091   3.060   1.346  11.092 -0.3485 -0.3857 -0.3090
  747TMC3    C511092   3.067   1.300  11.221  0.0522  0.3131 -0.0184
  747TMC3    C611093   2.988   1.199  11.269 -0.2088 -0.2465  0.0525
  747TMC3     C11094   2.977   1.328  10.864 -0.3910  0.7904 -0.1876
  747TMC3     O11095   3.022   1.439  10.840 -0.0106 -0.8121  0.4622
  747TMC3     H11096   2.821   1.142  10.981  0.4690  0.0724 -0.3356
  747TMC3    H111097   3.131   1.419  11.053  0.9848 -1.4416  0.1101
  747TMC3    H211098   2.991   1.156  11.369 -0.0010 -0.3872 -0.0150
  747TMC3    C711099   3.137   1.380  11.317 -0.3278  0.2772 -0.2773
  747TMC3    C811100   2.780   1.083  11.231 -0.5217 -0.3735 -0.0435
  747TMC3    O111101   3.237   1.441  11.282  0.4851 -0.8415 -0.3410
  747TMC3    O211102   2.730   0.989  11.162 -0.5138  0.0943  0.1258
  748MPD2     C11103   3.801   2.869   0.974  1.0069  0.6670 -0.5904
  748MPD2    C111104   3.838   2.977   0.890  0.7143  0.2419 -0.4446
  748MPD2    C211105   3.969   2.995   0.863 -0.0015 -0.3392 -0.2343
  748MPD2    C311106   4.062   2.915   0.921  0.3189  1.0566  0.3006
  748MPD2    C411107   4.023   2.808   1.003  0.6969  0.0883  0.0833
  748MPD2    C511108   3.895   2.780   1.025 -0.4647  0.0562  0.4615
  748MPD2     H11109   4.013   3.066   0.794  0.0889 -0.7540 -0.6099
  748MPD2    H111110   4.090   2.742   1.056 -1.1558 -1.0484  1.0206
  748MPD2    H211111   3.705   2.843   1.017  1.6121 -2.9343 -1.3725
  748MPD2    H311112   3.875   2.714   1.109 -0.0485 -0.5124  0.1149
  748MPD2     N11113   4.200   2.949   0.901 -0.4237 -0.0335  0.3882
  748MPD2    H511114   4.225   3.040   0.864  4.0689 -2.6443 -3.0055
  748MPD2    N111115   3.732   3.068   0.846  0.2434  1.2824 -0.6927
  748MPD2    H711116   3.640   3.054   0.887  1.9731 -2.0366  2.0627
  749TMC3    C111117   4.432   2.960   0.939 -0.6034  0.3318  0.0906
  749TMC3    C211118   4.518   2.947   1.050  0.2688 -0.2607 -0.2777
  749TMC3    C311119   4.622   3.025   1.045  0.2139  0.3974 -0.1418
  749TMC3    C411120   4.461   3.035   0.825 -0.1114 -0.2329  0.1406
  749TMC3    C511121   4.580   3.106   0.829 -0.3227 -0.1125 -0.6732
  749TMC3    C611122   4.663   3.105   0.940  0.1796 -0.3791 -0.9027
  749TMC3     C11123   4.311   2.878   0.942  0.3116 -0.7057 -0.2618
  749TMC3     O11124   4.317   2.763   0.987 -0.1412 -0.2154 -0.3859
  749TMC3     H11125   4.486   2.886   1.134 -1.7084 -0.2942 -1.0637
  749TMC3    H111126   4.400   3.020   0.736 -2.3125  1.7042  1.3287
  749TMC3    H211127   0.011   3.168   0.949  0.4975 -1.2839  2.4278
  749TMC3    C711128   4.632   3.186   0.719 -0.2755  0.1105 -0.2032
  749TMC3    C811129   4.719   3.017   1.157 -0.1679 -0.6938 -0.6693
  749TMC3    O111130   4.721   3.263   0.744  0.5234 -0.1398  0.0934
  749TMC3    O211131   0.051   3.118   1.160  0.5371 -0.1621  0.1427
  750MPD2     C11132   0.181   3.824  11.196 -0.0023  0.3656 -0.4537
  750MPD2    C111133   0.187   3.744  11.308  0.0370 -0.2640 -0.2200
  750MPD2    C211134   0.292   3.657  11.331 -0.5439  0.2037 -0.3225
  750MPD2    C311135   0.401   3.665  11.249 -0.4733  0.1611  0.7709
  750MPD2    C411136   0.396   3.742  11.139  0.1245  0.6268 -0.2044
  750MPD2    C511137   0.293   3.828  11.116  0.1166 -0.7072 -0.2839
  750MPD2     H11138   0.290   3.590  11.417  2.3809 -0.7965 -1.0151
  750MPD2    H111139   0.482   3.754  11.074  0.3386  1.5689  0.2523
  750MPD2    H211140   0.093   3.885  11.177 -0.7855 -0.1555  1.5548
  750MPD2    H311141   0.291   3.888  11.026 -1.1515 -0.0518  0.1836
  750MPD2     N11142   0.519   3.584  11.271 -0.0366 -0.2521 -0.1038
  750MPD2    H511143   0.576   3.566  11.189  0.2199 -1.8249  0.4014
  750MPD2    N111144   0.082   3.761  11.405 -0.1725 -0.7166  0.2954
  750MPD2    H711145   0.019   3.840  11.402  1.1892  0.3591 -0.2757
  751TMC3    C111146   0.666   3.413  11.360 -0.2154 -0.0687 -0.3237
  751TMC3    C211147   0.711   3.343  11.478 -0.2999 -0.1376  0.0181
  751TMC3    C311148   0.786   3.230  11.457  0.5621 -0.1556  0.0599
  751TMC3    C411149   0.711   3.371  11.236 -0.1470 -0.5712 -0.3039
  751TMC3    C511150   0.792   3.267  11.224  0.2077 -0.0394 -0.5189
  751TMC3    C611151   0.837   3.203  11.332  0.0863  0.2408 -0.1767
  751TMC3     C11152   0.545   3.501  11.377 -0.7753  0.1623  0.2757
  751TMC3     O11153   0.492   3.509  11.486  0.0677 -0.3439  0.2000
  751TMC3     H11154   0.665   3.361  11.575  0.0903 -1.5623  0.4781
  751TMC3    H111155   0.669   3.417  11.148  1.3096 -1.4866 -1.4864
  751TMC3    H211156   0.910   3.123  11.319 -0.1693  0.0770 -0.6051
  751TMC3    C711157   0.778   3.186  11.103  1.0113 -0.1171  0.0131
  751TMC3    C811158   0.730   3.102  11.498  0.5816  1.2952 -0.3580
  751TMC3    O111159   0.763   3.246  10.997  0.2984  0.1662 -0.3705
  751TMC3    O211160   0.735   3.013  11.411  0.2506 -0.2014 -0.3310
  752TMC3    C111161   3.663   4.225  16.750  0.0915  0.5940  0.0552
  752TMC3    C211162   3.721   4.107  16.793  0.1204  0.1771  0.6219
  752TMC3    C311163   3.741   4.086  16.926 -0.0815  0.0653 -0.3143
  752TMC3    C411164   3.628   4.317  16.838 -0.0787 -0.2907 -0.8684
  752TMC3    C511165   3.658   4.303  16.965  0.2632  0.8251  0.0058
  752TMC3    C611166   3.720   4.183  17.018  0.7395 -0.4996  0.3682
  752TMC3     C11167   3.594   4.219  16.622 -0.2027  0.2307  0.5395
  752TMC3     O11168   3.558   4.113  16.576 -0.1644 -0.0068  0.4260
  752TMC3     H11169   3.743   4.025  16.725 -1.3063  1.0607 -0.8846
  752TMC3    H111170   3.569   4.404  16.810  1.5731  0.9485 -0.5307
  752TMC3    H211171   3.742   4.162  17.122 -2.8160  1.0925  1.4545
  752TMC3    C711172   3.562   4.367  17.051  0.1990 -0.2689 -0.1274
  752TMC3    C811173   3.767   3.950  16.972 -0.1568 -0.3170 -0.3652
  752TMC3    O111174   3.557   4.490  17.039 -0.8191  0.0564 -0.4832
  752TMC3    O211175   3.808   3.876  16.887  0.1937 -0.3883 -0.0382
  753TMC3    C111176   0.826   4.518  13.380  0.1044 -0.2393  0.3661
  753TMC3    C211177   0.944   4.529  13.448 -0.0469 -0.7171  0.1561
  753TMC3    C311178   1.021   4.417  13.428  0.4796  0.0663  0.6534
  753TMC3    C411179   0.786   4.415  13.299  0.7005  0.7176  0.6003
  753TMC3    C511180   0.867   4.309  13.281 -0.5332  0.7846 -1.1903
  753TMC3    C611181   0.988   4.306  13.344  0.0276 -0.5401  0.4762
  753TMC3     C11182   0.714   4.610  13.408  0.3844  0.0657 -0.0545
  753TMC3     O11183   0.622   4.613  13.323  0.0851  0.1584  0.7375
  753TMC3     H11184   0.964   4.623  13.498 -0.2991 -0.3300 -0.4639
  753TMC3    H111185   0.689   4.410  13.251  0.8679 -1.7657  0.4746
  753TMC3    H211186   1.040   4.211  13.341  0.0779 -0.6016  3.4680
  753TMC3    C711187   0.830   4.209  13.180 -0.2040  0.0012  0.1854
  753TMC3    C811188   1.146   4.400  13.496 -0.7899  0.3194 -0.1157
  753TMC3    O111189   0.728   4.232  13.116 -0.7682 -0.5758  0.1183
  753TMC3    O211190   1.217   4.310  13.457  0.1252  0.4035  0.0411
  754MPD2     C11191   0.342   3.416  13.200  0.9640  0.8011  0.1506
  754MPD2    C111192   0.345   3.280  13.180  0.2437 -0.7628  0.0074
  754MPD2    C211193   0.223   3.217  13.149 -0.3293 -0.8424 -0.9702
  754MPD2    C311194   0.100   3.284  13.163  0.3972 -0.1795 -0.0712
  754MPD2    C411195   0.107   3.424  13.195 -0.8122  0.1550 -0.2876
  754MPD2    C511196   0.223   3.492  13.216  0.2646  0.1865  0.0748
  754MPD2     H11197   0.223   3.111  13.127  0.6608 -1.7052  3.2679
  754MPD2    H111198   0.018   3.481  13.221 -0.1829  0.1184  1.8965
  754MPD2    H211199   0.438   3.458  13.228  1.4802 -0.0738 -0.3068
  754MPD2    H311200   0.229   3.595  13.250 -0.0825  0.4947 -0.7917
  754MPD2     N11201   4.714   3.212  13.165  0.2370  0.5314 -0.3995
  754MPD2    H511202   4.628   3.264  13.178  0.9131  2.2637 -2.7594
  754MPD2    N111203   0.469   3.219  13.188  0.3153 -0.4960  0.2537
  754MPD2    H711204   0.546   3.283  13.170  1.3077 -2.1238 -1.3810
  755MPD2     C11205   4.062   3.567  13.531 -0.3131  0.4169 -0.0390
  755MPD2    C111206   4.018   3.439  13.541  0.6360 -0.3437  0.3224
  755MPD2    C211207   4.103   3.337  13.505  0.0778  0.0848  0.9328
  755MPD2    C311208   4.232   3.367  13.460  0.1203 -0.1272  0.0280
  755MPD2    C411209   4.282   3.492  13.460  0.1896 -0.0698  0.7315
  755MPD2    C511210   4.195   3.592  13.499 -0.4042 -0.3279 -0.1837
  755MPD2     H11211   4.063   3.237  13.513  1.2227 -0.5864 -1.9496
  755MPD2    H111212   4.381   3.517  13.425 -0.0989 -0.7726 -0.5794
  755MPD2    H211213   4.009   3.657  13.561  0.3895  1.3634 -1.6518
  755MPD2    H311214   4.243   3.688  13.513 -2.6784  0.4671  2.0948
  755MPD2     N11215   4.317   3.266  13.417 -0.1842 -0.5771 -0.3027
  755MPD2    H511216   4.402   3.288  13.365 -0.7932 -0.6204 -1.3121
  755MPD2    N111217   3.883   3.411  13.571 -0.2059  0.1741  0.1000
  755MPD2    H711218   3.860   3.313  13.569 -0.2055  0.1763 -0.0210
  756MPD2     C11219   0.479   3.208   9.924  0.2182  0.5546 -1.2942
  756MPD2    C111220   0.364   3.286   9.908 -0.8012 -1.0952  0.1653
  756MPD2    C211221   0.268   3.236   9.822  0.2066 -0.2641 -1.3900
  756MPD2    C311222   0.285   3.109   9.757 -0.6854  0.2132 -0.3858
  756MPD2    C411223   0.398   3.035   9.781  0.3323  0.0952  0.1419
  756MPD2    C511224   0.486   3.083   9.880  0.1849 -0.8402  0.1623
  756MPD2     H11225   0.175   3.291   9.814  0.1704 -0.1721 -0.3642
  756MPD2    H111226   0.429   2.939   9.740 -0.2048 -0.4793  1.0761
  756MPD2    H211227   0.563   3.247   9.981  1.7437 -2.3568 -1.5469
  756MPD2    H311228   0.566   3.015   9.906  2.8952  2.6165  0.6860
  756MPD2     N11229   0.184   3.062   9.666 -0.4484 -0.2807 -0.2691
  756MPD2    H511230   0.106   3.125   9.651 -0.3670 -0.2024 -0.3698
  756MPD2    N111231   0.342   3.415   9.954  0.0443 -0.0036 -0.1636
  756MPD2    H711232   0.250   3.448   9.928  0.0797 -0.2038 -0.5576
  757MPD2     C11233   4.140   3.383   9.423 -0.8824  0.1348 -0.0415
  757MPD2    C111234   4.173   3.304   9.530 -0.2121  0.4538  0.1121
  757MPD2    C211235   4.283   3.228   9.528  0.1538 -0.3097  0.5750
  757MPD2    C311236   4.363   3.231   9.412  0.4434 -0.1361 -0.0884
  757MPD2    C411237   4.327   3.305   9.303  0.4525  0.4011  0.1617
  757MPD2    C511238   4.220   3.388   9.315 -0.2378  0.6103  0.3204
  757MPD2     H11239   4.320   3.179   9.617 -0.4302 -0.2489  0.8521
  757MPD2    H111240   4.397   3.317   9.221  0.5744 -1.1439  0.0490
  757MPD2    H211241   4.048   3.440   9.418 -0.7735 -0.0190 -3.5038
  757MPD2    H311242   4.195   3.451   9.230  1.3780  1.9524  0.8551
  757MPD2     N11243   4.471   3.142   9.416  0.4979  0.3890  0.1895
  757MPD2    H511244   4.487   3.086   9.499 -2.1976  3.1753  2.6407
  757MPD2    N111245   4.088   3.307   9.638 -0.5217  0.3418 -0.0072
  757MPD2    H711246   4.001   3.356   9.615  0.7899  3.2311  1.1582
  758MPD2     C11247   4.589   3.313  15.622 -0.1723 -0.3587  0.1735
  758MPD2    C111248   4.640   3.220  15.712  0.1245 -0.5944 -0.0609
  758MPD2    C211249   4.579   3.209  15.835 -0.4523  0.0275  0.3810
  758MPD2    C311250   4.469   3.285  15.873 -0.5329 -0.1379  0.4230
  758MPD2    C411251   4.424   3.381  15.775 -0.2365  0.2141  0.6684
  758MPD2    C511252   4.482   3.387  15.655 -0.1640 -0.7722 -0.0895
  758MPD2     H11253   4.619   3.129  15.896 -1.4025  0.7470  1.9334
  758MPD2    H111254   4.355   3.459  15.804  2.2831  2.4563  0.6914
  758MPD2    H211255   4.635   3.318  15.524 -1.5875  1.1850 -0.4140
  758MPD2    H311256   4.450   3.467  15.589 -1.1033 -0.9695  0.1161
  758MPD2     N11257   4.421   3.281  16.007 -0.1135  0.1751  0.5091
  758MPD2    H511258   4.343   3.341  16.029 -0.7497 -0.9171  1.2359
  758MPD2    N111259   0.018   3.148  15.698  0.1572  0.6520 -0.2545
  758MPD2    H711260   0.042   3.091  15.778  1.7695  0.7508 -0.6836
  759MPD2     C11261   3.031   1.618   9.899  0.2252 -0.3340 -0.7499
  759MPD2    C111262   3.160   1.596   9.945 -0.2135 -0.2356  0.1020
  759MPD2    C211263   3.254   1.696   9.936 -0.4474 -0.4020 -0.1937
  759MPD2    C311264   3.229   1.817   9.876  0.4603 -0.5902  0.2392
  759MPD2    C411265   3.106   1.830   9.823  0.0922  0.2064  0.5013
  759MPD2    C511266   3.007   1.734   9.833 -0.4071  0.8406 -0.5664
  759MPD2     H11267   3.353   1.674   9.974 -1.3813  1.1981  3.1758
  759MPD2    H111268   3.077   1.915   9.763  0.2065  0.7611  1.2437
  759MPD2    H211269   2.952   1.544   9.901  1.0913 -1.1257  3.3364
  759MPD2    H311270   2.905   1.749   9.800 -0.7621  1.3541  0.7527
  759MPD2     N11271   3.331   1.910   9.871 -0.0828  0.5439 -0.3114
  759MPD2    H511272   3.421   1.889   9.913 -1.5490 -1.2991  1.8375
  759MPD2    N111273   3.201   1.481  10.011  0.3894  0.1920  0.0871
  759MPD2    H711274   3.288   1.473  10.061  2.3569 -0.0897 -3.3985
  760MPD2     C11275   3.076   3.237  11.828 -0.3892  0.1253 -0.2308
  760MPD2    C111276   3.169   3.327  11.884  0.5481 -0.0936  0.5521
  760MPD2    C211277   3.279   3.278  11.964  0.2057 -0.3031 -0.2700
  760MPD2    C311278   3.293   3.143  12.000  0.2708  0.3819  0.6245
  760MPD2    C411279   3.194   3.057  11.946 -0.0413 -0.0689  0.7205
  760MPD2    C511280   3.094   3.101  11.865 -0.1259  0.0075  0.3124
  760MPD2     H11281   3.348   3.351  12.007 -1.9101  0.9784  0.9219
  760MPD2    H111282   3.199   2.951  11.967  0.2232 -0.0123  0.9456
  760MPD2    H211283   2.990   3.260  11.766 -1.2277 -2.1754  0.1065
  760MPD2    H311284   3.025   3.026  11.829  1.1563 -0.4242 -1.2212
  760MPD2     N11285   3.401   3.090  12.074 -0.0430  0.2119  0.3847
  760MPD2    H511286   3.396   2.992  12.098  1.6529  0.2203  0.7918
  760MPD2    N111287   3.183   3.463  11.843  0.2067  0.3868  0.5041
  760MPD2    H711288   3.267   3.510  11.875  0.9661 -0.8306  0.2921
  761MPD2     C11289   0.489   2.792  11.811  0.5059  0.0060  0.0890
  761MPD2    C111290   0.477   2.806  11.673  0.1119  0.2802  0.7301
  761MPD2    C211291   0.546   2.904  11.608  0.3394 -0.1535 -0.5305
  761MPD2    C311292   0.612   2.997  11.686  0.1107 -0.0248 -1.0940
  761MPD2    C411293   0.604   2.996  11.831  0.1774  0.4272 -0.1278
  761MPD2    C511294   0.540   2.890  11.893 -0.4346  0.2472  0.4513
  761MPD2     H11295   0.546   2.918  11.501  1.8262 -4.1320 -1.0317
  761MPD2    H111296   0.657   3.065  11.895 -0.4521  0.7461  0.0525
  761MPD2    H211297   0.460   2.708  11.872  1.6755 -1.1689 -0.9530
  761MPD2    H311298   0.549   2.885  12.001 -2.6815 -0.1108  0.6165
  761MPD2     N11299   0.677   3.106  11.625  0.0237 -0.4766 -0.3305
  761MPD2    H511300   0.701   3.185  11.684 -1.5732 -0.1191 -0.1407
  761MPD2    N111301   0.404   2.707  11.595  0.2478 -0.6398 -0.1875
  761MPD2    H711302   0.363   2.635  11.653  0.9346  0.3624  1.5554
  762MPD2     C11303   0.464   1.945  11.086 -0.4720 -0.2320  0.3927
  762MPD2    C111304   0.500   2.073  11.073 -0.4503 -0.2035 -0.2316
  762MPD2    C211305   0.569   2.120  10.962 -0.2963 -0.6611 -0.4027
  762MPD2    C311306   0.606   2.025  10.870 -0.2390  0.6966  0.2546
  762MPD2    C411307   0.568   1.894  10.882  0.8928  0.0320  0.4392
  762MPD2    C511308   0.493   1.855  10.989  0.3703 -0.4734  0.4696
  762MPD2     H11309   0.577   2.227  10.944 -0.1892 -0.0853  3.0915
  762MPD2    H111310   0.596   1.824  10.803 -1.1465  0.2009 -0.4339
  762MPD2    H211311   0.401   1.916  11.170 -0.3796  0.2403  0.6241
  762MPD2    H311312   0.469   1.750  11.002  0.7250 -1.0542 -3.5768
  762MPD2     N11313   0.686   2.071  10.757 -0.5019  0.0312  0.6009
  762MPD2    H511314   0.708   2.169  10.743 -4.6085  0.9666  0.7004
  762MPD2    N111315   0.458   2.158  11.178 -0.0807  0.2511 -0.2639
  762MPD2    H711316   0.420   2.111  11.260  0.3739 -1.2798 -0.9165
  763MPD2     C11317   1.829   3.243  15.849  0.5935  0.3999 -0.0450
  763MPD2    C111318   1.701   3.295  15.853  0.5259 -0.1052  0.4690
  763MPD2    C211319   1.675   3.431  15.872 -0.0213  0.7113 -0.0186
  763MPD2    C311320   1.788   3.510  15.890 -0.0341  0.1517  0.3026
  763MPD2    C411321   1.910   3.453  15.882 -0.1540 -0.2109  0.5353
  763MPD2    C511322   1.940   3.323  15.857  0.5060  0.2699 -0.6358
  763MPD2     H11323   1.575   3.467  15.893 -0.3307 -0.3061  0.2575
  763MPD2    H111324   1.996   3.516  15.898  0.6089 -0.6743 -1.7824
  763MPD2    H211325   1.847   3.137  15.837 -2.1242  0.2048 -2.3099
  763MPD2    H311326   2.044   3.292  15.858  0.2182 -0.7088 -1.4875
  763MPD2     N11327   1.788   3.654  15.900 -0.0345  0.0882 -0.3509
  763MPD2    H511328   1.874   3.704  15.877  1.1606 -1.2407  1.2142
  763MPD2    N111329   1.588   3.217  15.832 -0.1093 -0.6653 -0.4320
  763MPD2    H711330   1.495   3.258  15.843 -0.4849 -1.0973 -1.9960
  764MPD2     C11331   4.644   4.685  17.006 -1.2776 -0.1686  0.1606
  764MPD2    C111332   4.511   4.722  17.001 -0.4718 -0.0604  0.2201
  764MPD2    C211333   4.429   4.707  17.112 -0.5031 -0.3907 -0.2189
  764MPD2    C311334   4.480   4.674  17.234 -0.4690  0.5130  0.0054
  764MPD2    C411335   4.606   4.632  17.237  0.8578 -0.2013  0.3800
  764MPD2    C511336   4.685   4.635  17.126 -0.0252  0.6058  0.2588
  764MPD2     H11337   4.324   4.733  17.111 -0.9191 -2.0754 -1.0906
  764MPD2    H111338   4.646   4.588  17.328  1.5141 -1.6319 -0.5986
  764MPD2    H211339   4.707   4.678  16.917 -0.8810  0.3239  0.4010
  764MPD2    H311340   0.048   4.603  17.140 -0.2042  0.6135  1.5614
  764MPD2     N11341   4.375   4.657  17.335 -0.2438  0.1974 -0.2815
  764MPD2    H511342   4.279   4.680  17.311  0.0852 -0.1396 -1.9402
  764MPD2    N111343   4.444   0.028  16.888 -0.1174  0.2682  0.0328
  764MPD2    H711344   4.348   0.060  16.894  0.8522  2.9480  0.8467
  765MPD2     C11345   4.589   2.984  15.455  0.6150 -0.5058  0.2257
  765MPD2    C111346   4.520   2.927  15.555 -0.4934 -0.9141 -0.6867
  765MPD2    C211347   4.558   2.805  15.615  0.7739 -0.1029  0.3133
  765MPD2    C311348   4.671   2.742  15.569  0.6563 -0.2349  0.3694
  765MPD2    C411349   0.001   2.795  15.462 -0.2939  0.2156 -0.2141
  765MPD2    C511350   4.704   2.917  15.411 -0.3718 -0.2104  0.5555
  765MPD2     H11351   4.492   2.758  15.688  1.4969  1.6877  2.1298
  765MPD2    H111352   0.075   2.736  15.408 -1.4360 -0.7297 -0.7271
  765MPD2    H211353   4.555   3.071  15.402 -1.3036  0.0659  2.3929
  765MPD2    H311354   0.026   2.958  15.333 -0.2671 -0.7518  0.3526
  765MPD2     N11355   4.726   2.633  15.642 -0.0818  0.0644  0.3491
  765MPD2    H511356   4.679   2.612  15.730  0.8792 -2.6952  0.2007
  765MPD2    N111357   4.398   2.995  15.582 -0.0505 -0.3535 -0.5519
  765MPD2    H711358   4.377   3.079  15.528 -1.0925  0.8083  1.6414
  766MPD2     C11359   3.674   2.809  15.436  0.2747  0.2093 -0.1461
  766MPD2    C111360   3.813   2.817  15.428 -0.1819  0.7380  0.2172
  766MPD2    C211361   3.882   2.764  15.319  0.4717  0.0192  0.2221
  766MPD2    C311362   3.809   2.707  15.212 -0.5481 -0.9386  1.4055
  766MPD2    C411363   3.666   2.710  15.218 -0.1908 -0.5569 -0.3578
  766MPD2    C511364   3.606   2.762  15.328 -0.8209  0.2967  0.1696
  766MPD2     H11365   3.989   2.775  15.306  0.4465 -0.5403 -0.4580
  766MPD2    H111366   3.598   2.676  15.140 -0.2380 -1.4054  0.0524
  766MPD2    H211367   3.627   2.834  15.530  0.4104  0.0485 -0.0346
  766MPD2    H311368   3.498   2.768  15.337 -0.7327  2.4665  0.0129
  766MPD2     N11369   3.861   2.662  15.091 -0.2861  0.1487  0.6019
  766MPD2    H511370   3.794   2.631  15.021  0.1552 -2.5958  1.4105
  766MPD2    N111371   3.888   2.894  15.515  0.2275  0.2646 -0.1145
  766MPD2    H711372   3.988   2.905  15.498  0.1040  2.0160  0.3401
  767MPD2     C11373   3.350   2.869  14.970 -0.7173 -0.3031  0.4151
  767MPD2    C111374   3.483   2.887  14.923 -0.1419 -0.0541 -0.5293
  767MPD2    C211375   3.525   2.813  14.821 -0.2623 -0.9865  0.2885
  767MPD2    C311376   3.440   2.718  14.761 -0.2411  0.1826 -0.7293
  767MPD2    C411377   3.308   2.703  14.805 -0.3637  0.0021 -0.3651
  767MPD2    C511378   3.265   2.785  14.904  0.2052  0.6081  0.2226
  767MPD2     H11379   3.623   2.820  14.774 -1.0215  0.1749 -1.1228
  767MPD2    H111380   3.232   2.636  14.766 -1.0761  0.9318 -0.5734
  767MPD2    H211381   3.311   2.942  15.040  0.4578  2.4640 -1.8205
  767MPD2    H311382   3.165   2.764  14.939 -0.4247  1.6931 -0.9222
  767MPD2     N11383   3.498   2.635  14.664  0.2937  0.0205  1.1116
  767MPD2    H511384   3.599   2.631  14.654  0.0758  0.6401 -1.5411
  767MPD2    N111385   3.569   2.974  14.992  0.5658 -0.9322  0.5450
  767MPD2    H711386   3.539   2.999  15.086  2.9208  1.6741  0.6220
  768MPD2     C11387   0.274   1.099  10.817  0.2063 -0.5608  0.0854
  768MPD2    C111388   0.243   1.046  10.944 -0.1120  0.0832  0.3387
  768MPD2    C211389   0.337   1.028  11.034 -0.2316  0.3728  0.5148
  768MPD2    C311390   0.459   1.085  11.012  0.1369 -0.3725 -0.4420
  768MPD2    C411391   0.492   1.131  10.887  0.2143 -0.0772  0.0227
  768MPD2    C511392   0.395   1.149  10.793 -0.2232  0.3459 -0.1187
  768MPD2     H11393   0.317   0.980  11.129 -1.2668 -0.6327 -0.2089
  768MPD2    H111394   0.591   1.171  10.869 -0.1776  0.9604  0.1577
  768MPD2    H211395   0.200   1.111  10.738 -0.8280  0.4136  1.2165
  768MPD2    H311396   0.415   1.200  10.699 -1.6778 -1.2086 -1.2860
  768MPD2     N11397   0.569   1.079  11.103  0.3393 -0.5227  0.0516
  768MPD2    H511398   0.653   1.121  11.063  0.0764  0.1939  0.2431
  768MPD2    N111399   0.114   1.001  10.978 -0.1126 -0.0368 -0.2788
  768MPD2    H711400   0.102   0.948  11.063  1.2887 -1.6684 -1.1101
  769MPD2     C11401   0.481   4.307  14.616 -0.3285 -0.1322  0.1822
  769MPD2    C111402   0.545   4.190  14.636 -0.1300 -0.0190  0.6228
  769MPD2    C211403   0.604   4.169  14.761  0.0555  0.3770  0.0637
  769MPD2    C311404   0.573   4.250  14.866  0.3074  0.1948  1.2307
  769MPD2    C411405   0.517   4.369  14.838  1.3173  0.9950 -0.0063
  769MPD2    C511406   0.475   4.405  14.708  0.2896  0.0596  0.6898
  769MPD2     H11407   0.672   4.088  14.784 -0.8359 -0.2247  0.5706
  769MPD2    H111408   0.494   4.439  14.917 -0.5087  1.3003 -0.7983
  769MPD2    H211409   0.439   4.336  14.521  1.0118 -0.6585 -0.5625
  769MPD2    H311410   0.430   4.500  14.685  0.0513 -0.0102  0.8716
  769MPD2     N11411   0.624   4.214  14.996 -0.8152 -0.5880  0.0763
  769MPD2    H511412   0.680   4.129  14.997  1.9338  1.1735 -1.8188
  769MPD2    N111413   0.547   4.095  14.530 -0.7145 -0.1349  0.1045
  769MPD2    H711414   0.479   4.093  14.454  0.3158 -2.3537 -0.7818
  770MPD2     C11415   0.594   3.053  14.500 -0.0484  0.2559 -0.4353
  770MPD2    C111416   0.466   3.104  14.503 -0.2538 -0.3693 -0.3046
  770MPD2    C211417   0.447   3.228  14.450  0.0921  0.4234  0.2961
  770MPD2    C311418   0.552   3.303  14.408 -0.0857 -0.1739  0.1028
  770MPD2    C411419   0.676   3.249  14.412 -0.1257 -0.1530  0.3430
  770MPD2    C511420   0.703   3.125  14.457 -0.1234  0.4474  0.0248
  770MPD2     H11421   0.344   3.261  14.440 -0.2522 -0.5195  0.7008
  770MPD2    H111422   0.762   3.308  14.383  0.6794 -1.0437  0.9207
  770MPD2    H211423   0.604   2.948  14.527 -0.2949 -0.4274 -2.9738
  770MPD2    H311424   0.793   3.065  14.453  0.7154  1.8533 -1.9922
  770MPD2     N11425   0.526   3.439  14.367 -0.2505 -0.4008 -0.2819
  770MPD2    H511426   0.430   3.474  14.361 -0.6353 -1.8411 -2.5335
  770MPD2    N111427   0.364   3.013  14.546  0.7513 -0.1822  0.1124
  770MPD2    H711428   0.388   2.920  14.579 -0.6070 -0.0486  1.4983
  771MPD2     C11429   1.801   1.619  13.633 -0.0044  0.6324  0.5490
  771MPD2    C111430   1.712   1.711  13.601  0.5974  0.2467 -0.4653
  771MPD2    C211431   1.575   1.691  13.602 -0.1353 -0.0561  0.1598
  771MPD2    C311432   1.530   1.570  13.638  0.0496  0.2796  0.0464
  771MPD2    C411433   1.620   1.470  13.679  0.2130  0.0251 -0.5253
  771MPD2    C511434   1.752   1.500  13.677  0.2806 -0.2881  0.1400
  771MPD2     H11435   1.514   1.771  13.561  0.0111  0.2753  0.5856
  771MPD2    H111436   1.592   1.371  13.715 -0.5706  0.3844 -0.1640
  771MPD2    H211437   1.907   1.633  13.618  0.2844 -1.8825  0.3069
  771MPD2    H311438   1.820   1.422  13.707 -0.9599 -0.4621  2.4651
  771MPD2     N11439   1.388   1.560  13.640 -0.3442  0.2790  0.5191
  771MPD2    H511440   1.326   1.638  13.621 -1.7451 -1.0286 -0.2898
  771MPD2    N111441   1.744   1.840  13.552  0.3241  0.2826 -0.2171
  771MPD2    H711442   1.662   1.897  13.529 -0.5270 -0.7763  0.1812
  772MPD2     C11443   1.482   2.495  13.625 -0.0516  0.4692 -0.3555
  772MPD2    C111444   1.470   2.356  13.600 -0.1800 -0.5513 -0.5373
  772MPD2    C211445   1.354   2.294  13.639 -0.4526  0.7609 -0.1644
  772MPD2    C311446   1.254   2.364  13.701  0.5711 -0.2209 -0.1191
  772MPD2    C411447   1.273   2.493  13.728 -0.7809 -0.4796  0.1896
  772MPD2    C511448   1.384   2.565  13.688 -0.5733  0.2912 -0.1079
  772MPD2     H11449   1.335   2.189  13.620 -3.5266  1.8352 -2.9302
  772MPD2    H111450   1.201   2.554  13.781  0.8327  1.9724 -0.4448
  772MPD2    H211451   1.564   2.557  13.589 -1.0476  0.3777 -2.7717
  772MPD2    H311452   1.393   2.672  13.699 -0.7683  0.2223  0.6918
  772MPD2     N11453   1.140   2.300  13.751  0.5318 -0.0477 -0.4235
  772MPD2    H511454   1.090   2.362  13.813  4.3373  1.0518  1.5761
  772MPD2    N111455   1.570   2.271  13.544 -0.0678  0.1031 -0.0739
  772MPD2    H711456   1.542   2.174  13.541 -1.8777  0.6413 -0.5997
  773MPD2     C11457   0.261   3.362   0.221 -0.3260 -0.0918  0.3843
  773MPD2    C111458   0.338   3.339   0.113 -0.1167  0.2290  0.3743
  773MPD2    C211459   0.457   3.261   0.114 -0.1804  0.1836  0.0480
  773MPD2    C311460   0.490   3.191   0.227  0.5921 -0.9176  0.0778
  773MPD2    C411461   0.414   3.218   0.341 -1.0870 -1.1238  0.5295
  773MPD2    C511462   0.304   3.294   0.333 -0.5948 -0.0270 -0.5120
  773MPD2     H11463   0.502   3.246   0.016  1.8972 -0.9367  1.1765
  773MPD2    H111464   0.435   3.173   0.437  2.0827 -2.6941 -0.8954
  773MPD2    H211465   0.166   3.412   0.205  0.0798  0.1591 -1.2635
  773MPD2    H311466   0.250   3.300   0.426  0.4791 -0.6699  0.1514
  773MPD2     N11467   0.592   3.096   0.210  0.1063 -0.1824 -0.0897
  773MPD2    H511468   0.637   3.079   0.121  2.3220 -3.5517  1.6982
  773MPD2    N111469   0.286   3.401  17.754 -0.0195 -0.5192  0.0797
  773MPD2    H711470   0.192   3.440  17.755  0.1547 -0.1086  0.4247
  774MPD2     C11471   0.307   2.150  13.436 -1.0320 -0.5043 -0.4865
  774MPD2    C111472   0.197   2.219  13.466 -0.0576 -0.4990 -0.2301
  774MPD2    C211473   0.191   2.357  13.440 -0.2938 -0.2890 -0.2447
  774MPD2    C311474   0.304   2.417  13.392  0.2375 -0.4747 -0.5343
  774MPD2    C411475   0.414   2.344  13.354 -0.4943  0.2479 -0.5826
  774MPD2    C511476   0.417   2.207  13.370  0.0926  0.4892  0.5160
  774MPD2     H11477   0.102   2.412  13.468 -0.0658  0.5590 -1.2035
  774MPD2    H111478   0.497   2.385  13.298  0.0291 -1.8493 -1.3745
  774MPD2    H211479   0.325   2.048  13.467 -2.1744 -0.7370 -0.5973
  774MPD2    H311480   0.502   2.147  13.340  0.0374 -0.1030  1.5487
  774MPD2     N11481   0.299   2.558  13.371 -0.2017 -0.4062 -0.8209
  774MPD2    H511482   0.215   2.606  13.401 -0.0185  0.0627 -1.0565
  774MPD2    N111483   0.106   2.160  13.560 -0.3000 -0.0624  0.4173
  774MPD2    H711484   0.130   2.074  13.609 -3.1318 -1.8401 -1.2645
  775MPD2     C11485   0.994   3.929  15.510  0.5412 -0.9945  0.2845
  775MPD2    C111486   1.003   4.031  15.606  0.5132 -0.0202 -1.2916
  775MPD2    C211487   1.087   4.138  15.568  0.1334 -0.0906  0.0634
  775MPD2    C311488   1.170   4.135  15.451 -0.1380  0.2071 -0.0945
  775MPD2    C411489   1.150   4.034  15.361 -0.9332  0.6630  0.8412
  775MPD2    C511490   1.065   3.935  15.391  0.4121 -0.3882 -0.7780
  775MPD2     H11491   1.102   4.225  15.630  0.4468 -0.4715  0.5310
  775MPD2    H111492   1.213   4.023  15.273 -2.2791  3.5820 -0.4758
  775MPD2    H211493   0.927   3.846  15.525 -1.1990  0.0725 -1.5754
  775MPD2    H311494   1.044   3.865  15.311  1.7036 -1.8298  0.1402
  775MPD2     N11495   1.256   4.239  15.416  0.1021  0.0417 -0.2701
  775MPD2    H511496   1.291   4.232  15.321 -1.1221 -0.0573 -0.7193
  775MPD2    N111497   0.916   4.028  15.723  0.0552  0.1956  0.3286
  775MPD2    H711498   0.861   3.944  15.742  0.7745 -0.5944 -1.0853
  776MPD2     C11499   0.221   4.233  11.974 -0.6944  0.6270  0.2763
  776MPD2    C111500   0.132   4.222  11.866 -0.5774  0.9416  0.3906
  776MPD2    C211501   0.120   4.328  11.779 -0.4804  0.3486 -0.7400
  776MPD2    C311502   0.194   4.445  11.794  0.1277 -0.2978 -0.8977
  776MPD2    C411503   0.281   4.455  11.903 -0.0095  0.0114  0.1702
  776MPD2    C511504   0.295   4.349  11.988 -0.2202 -0.3463  0.8909
  776MPD2     H11505   0.052   4.325  11.695 -0.2977  0.9632 -0.9049
  776MPD2    H111506   0.336   4.548  11.913 -0.6838  0.7255 -2.7669
  776MPD2    H211507   0.248   4.153  12.042 -1.2869 -1.6564 -2.2347
  776MPD2    H311508   0.373   4.356  12.063 -0.3539 -2.8780  1.2511
  776MPD2     N11509   0.187   4.549  11.702  0.4897 -0.0464  0.9689
  776MPD2    H511510   0.250   4.627  11.716 -0.5735  0.2707  3.8573
  776MPD2    N111511   0.068   4.097  11.843  0.8386 -0.4781 -0.0597
  776MPD2    H711512   0.089   4.020  11.905 -1.5262 -2.5105 -1.7779
  777MPD2     C11513   0.382   1.886   0.764  0.0133  0.0955 -0.1351
  777MPD2    C111514   0.289   1.894   0.864  0.6413 -1.0226 -0.1927
  777MPD2    C211515   0.163   1.847   0.833  1.0072 -0.2435 -0.4042
  777MPD2    C311516   0.136   1.789   0.706  0.0055 -0.8808 -0.4042
  777MPD2    C411517   0.229   1.793   0.603  0.4761 -0.3787  0.0619
  777MPD2    C511518   0.362   1.828   0.639 -0.0487  0.3369 -0.4266
  777MPD2     H11519   0.086   1.847   0.909  0.8472  0.8415 -0.5700
  777MPD2    H111520   0.213   1.742   0.509  0.6425 -0.0253 -0.1625
  777MPD2    H211521   0.476   1.937   0.782  0.3697 -0.0544 -1.6067
  777MPD2    H311522   0.437   1.801   0.566  1.3075 -0.9420  1.4178
  777MPD2     N11523   0.004   1.742   0.673  0.1283  0.6503  0.1457
  777MPD2    H511524   4.727   1.732   0.573  0.5342 -2.0614  0.3695
  777MPD2    N111525   0.316   1.953   0.990 -0.1680 -0.0941  0.3929
  777MPD2    H711526   0.409   1.991   1.001  0.0553 -0.7249  0.6904
  778MPD2     C11527   1.502   2.065  15.056  0.2666  0.0332  0.0779
  778MPD2    C111528   1.595   1.991  14.990  0.5364  0.1377 -0.8486
  778MPD2    C211529   1.657   2.038  14.880 -0.6081 -0.4981 -0.2913
  778MPD2    C311530   1.642   2.174  14.839 -0.3040  0.5020 -0.1910
  778MPD2    C411531   1.555   2.249  14.909 -0.0147 -0.0049 -0.6298
  778MPD2    C511532   1.482   2.194  15.010  0.0823  0.5934 -0.2470
  778MPD2     H11533   1.723   1.967  14.832 -0.4379 -0.7550  0.3196
  778MPD2    H111534   1.526   2.351  14.888 -1.6323 -0.5464 -1.0479
  778MPD2    H211535   1.443   2.029  15.140  1.4514  0.7457  1.2195
  778MPD2    H311536   1.417   2.258  15.068 -0.8870  1.3365 -2.1496
  778MPD2     N11537   1.716   2.217  14.728  0.2882 -0.1977  0.1020
  778MPD2    H511538   1.777   2.147  14.688  0.1473  1.3835 -2.8461
  778MPD2    N111539   1.621   1.852  15.026 -0.1615  0.2296 -0.3244
  778MPD2    H711540   1.678   1.792  14.968  0.3655  0.1880  0.2411
  779MPD2     C11541   1.522   0.689  14.489 -0.6221  0.3555  0.5110
  779MPD2    C111542   1.483   0.643  14.365 -0.5943 -0.6123  0.5104
  779MPD2    C211543   1.506   0.727  14.250 -0.4808  1.0472  0.7449
  779MPD2    C311544   1.569   0.853  14.271  0.3966 -0.2088  0.2681
  779MPD2    C411545   1.620   0.884  14.398  0.9429 -0.0226  0.1860
  779MPD2    C511546   1.591   0.801  14.505 -0.1426 -0.4587  0.1231
  779MPD2     H11547   1.477   0.697  14.150  1.1690  0.7023  0.3759
  779MPD2    H111548   1.688   0.963  14.425 -0.3287  1.0144  0.3387
  779MPD2    H211549   1.509   0.625  14.576 -1.0323 -2.5319 -1.6884
  779MPD2    H311550   1.632   0.823  14.603  0.8779  1.5132 -0.7344
  779MPD2     N11551   1.586   0.945  14.166 -0.1423  0.3686 -0.0979
  779MPD2    H511552   1.547   0.915  14.078  0.2618 -0.5742  0.0465
  779MPD2    N111553   1.443   0.514  14.356  0.0152  0.9995 -0.8365
  779MPD2    H711554   1.430   0.461  14.442 -1.5787  3.1301  0.2470
  780MPD2     C11555   0.650   1.054   0.722 -0.2864  0.7767 -1.1284
  780MPD2    C111556   0.614   0.983   0.610 -0.6955 -0.6478  0.0870
  780MPD2    C211557   0.715   0.940   0.526  0.1179  0.2544 -0.0884
  780MPD2    C311558   0.849   0.973   0.550 -0.3967  0.1728 -0.4422
  780MPD2    C411559   0.883   1.059   0.653  0.2530  0.3416 -0.2624
  780MPD2    C511560   0.779   1.101   0.732  0.2484 -0.8819  0.2890
  780MPD2     H11561   0.698   0.872   0.444 -1.7947  1.8512 -0.9926
  780MPD2    H111562   0.980   1.106   0.670  0.9465 -0.9865 -0.5529
  780MPD2    H211563   0.581   1.087   0.799  1.1677 -0.3901  0.6822
  780MPD2    H311564   0.801   1.178   0.806  3.0443 -0.7572 -0.6697
  780MPD2     N11565   0.943   0.917   0.467  0.5744 -0.9772  0.1167
  780MPD2    H511566   0.903   0.871   0.386  0.4691 -1.0287  0.1970
  780MPD2    N111567   0.481   0.934   0.601 -0.3547  0.6596  0.0862
  780MPD2    H711568   0.422   0.943   0.683 -0.6453 -1.5988  0.1182
  781MPD2     C11569   3.069   2.099  11.604 -0.4051  0.0150  0.2029
  781MPD2    C111570   3.109   2.088  11.733 -0.1885 -0.1910 -0.3233
  781MPD2    C211571   3.244   2.057  11.754  0.4159  0.1779  0.2256
  781MPD2    C311572   3.328   2.029  11.646  0.2097  0.0976  0.3149
  781MPD2    C411573   3.290   2.055  11.519  0.2116 -0.1178 -0.5295
  781MPD2    C511574   3.160   2.083  11.501 -0.3726  0.5434  0.0500
  781MPD2     H11575   3.291   2.071  11.850 -2.8748 -1.0483  2.0202
  781MPD2    H111576   3.364   2.060  11.440 -0.3280  2.5125 -0.8652
  781MPD2    H211577   2.965   2.105  11.574 -0.3778  0.5343  0.2198
  781MPD2    H311578   3.133   2.084  11.396 -0.8375 -0.5647  0.1600
  781MPD2     N11579   3.457   1.980  11.656 -0.0122  0.0630 -0.5963
  781MPD2    H511580   3.500   1.948  11.571  1.0825 -1.3349  0.4931
  781MPD2    N111581   3.014   2.102  11.845  0.5127  0.6084  0.2103
  781MPD2    H711582   3.052   2.083  11.937  0.6237 -0.0992  0.0180
  782MPD2     C11583   0.342   3.297  10.355  0.7004  0.4799  0.4516
  782MPD2    C111584   0.478   3.273  10.347  0.2577  0.0236 -0.0688
  782MPD2    C211585   0.557   3.371  10.389 -0.0464  0.5430  0.1868
  782MPD2    C311586   0.503   3.490  10.431 -0.0883 -0.0334  0.1142
  782MPD2    C411587   0.366   3.522  10.424  0.2217 -0.4041  0.2606
  782MPD2    C511588   0.291   3.420  10.394 -0.2293  0.6213 -0.5829
  782MPD2     H11589   0.664   3.365  10.399  0.3811  4.9399 -1.8710
  782MPD2    H111590   0.320   3.614  10.456 -1.0166 -1.3843  1.2654
  782MPD2    H211591   0.274   3.216  10.332 -0.0627  1.4314 -0.6059
  782MPD2    H311592   0.184   3.424  10.381 -0.3666  4.5161  1.6237
  782MPD2     N11593   0.599   3.589  10.471  0.3966  0.2552 -0.7295
  782MPD2    H511594   0.693   3.571  10.437  1.0195  2.8417 -0.3470
  782MPD2    N111595   0.525   3.150  10.307  0.3984 -0.5213 -0.4023
  782MPD2    H711596   0.462   3.071  10.300 -0.7663  0.3990 -0.3522
  783MPD2     C11597   0.682   2.832  11.092 -0.3522 -0.6871 -0.3956
  783MPD2    C111598   0.729   2.953  11.044  0.0439  0.0838 -0.0089
  783MPD2    C211599   0.730   2.965  10.908 -0.1917 -0.4640  0.3124
  783MPD2    C311600   0.685   2.859  10.823  0.0684  0.0286  0.0074
  783MPD2    C411601   0.635   2.743  10.875 -0.5934 -0.5830 -0.3945
  783MPD2    C511602   0.630   2.728  11.011  0.1834  0.8652 -0.0252
  783MPD2     H11603   0.746   3.060  10.858  1.7438 -1.5787 -1.2298
  783MPD2    H111604   0.595   2.668  10.808  2.5410 -0.5885 -2.2563
  783MPD2    H211605   0.683   2.815  11.199  1.5626  1.6819 -0.0498
  783MPD2    H311606   0.593   2.636  11.054  1.4773  0.1094 -0.5504
  783MPD2     N11607   0.700   2.877  10.684  0.1987  0.1013 -0.2387
  783MPD2    H511608   0.728   2.971  10.655  1.2524  0.1767  1.0386
  783MPD2    N111609   0.756   3.058  11.138  0.2054 -0.0238  0.1893
  783MPD2    H711610   0.742   3.040  11.237 -0.8306  1.3577  0.2915
  784MPD2     C11611   2.864   3.873   1.028 -0.0264  0.6264  0.4975
  784MPD2    C111612   2.930   3.983   0.972 -0.2936 -0.3806  0.0853
  784MPD2    C211613   2.874   4.074   0.886 -0.5800  0.2411  0.4503
  784MPD2    C311614   2.738   4.075   0.867 -0.0533 -0.1650  0.1237
  784MPD2    C411615   2.670   3.973   0.933  0.2585 -0.6844  0.4290
  784MPD2    C511616   2.728   3.872   1.001  0.4631  0.0658  0.5338
  784MPD2     H11617   2.930   4.149   0.832  1.7658 -1.6461  0.2908
  784MPD2    H111618   2.562   3.975   0.935  0.2755  1.8916 -0.9666
  784MPD2    H211619   2.905   3.806   1.103  0.3550  1.4883  1.0597
  784MPD2    H311620   2.663   3.798   1.045 -0.3431  1.3442  1.4903
  784MPD2     N11621   2.683   4.174   0.781  0.3250 -1.2361  0.2499
  784MPD2    H511622   2.744   4.245   0.741  0.5884 -1.9455 -0.5897
  784MPD2    N111623   3.070   4.001   1.002 -0.1884 -0.1119 -0.3509
  784MPD2    H711624   3.108   4.090   0.971 -0.3929  0.5593  1.3729
  785MPD2     C11625   4.017   1.687  10.869 -0.1354 -0.5068  0.1796
  785MPD2    C111626   3.924   1.741  10.948  0.3337  0.1055 -0.2347
  785MPD2    C211627   3.821   1.663  10.986  0.5780 -1.0171 -0.4110
  785MPD2    C311628   3.804   1.534  10.943  0.0372  0.8458 -0.0588
  785MPD2    C411629   3.909   1.480  10.875 -1.8080 -0.2868 -0.2217
  785MPD2    C511630   4.017   1.552  10.840  0.0574  0.1901 -0.5798
  785MPD2     H11631   3.750   1.699  11.060  1.0774  2.8058 -1.8263
  785MPD2    H111632   3.915   1.374  10.853  0.6375 -0.2123  0.1364
  785MPD2    H211633   4.097   1.747  10.826 -1.4117 -0.1897 -1.7532
  785MPD2    H311634   4.095   1.496  10.789  1.0576  1.6212 -0.6091
  785MPD2     N11635   3.684   1.470  10.970 -0.0902  0.0967 -0.5679
  785MPD2    H511636   3.615   1.521  11.025  0.2021 -1.6235  1.4163
  785MPD2    N111637   3.922   1.874  10.988  0.8715  0.0330  0.3412
  785MPD2    H711638   3.850   1.897  11.056 -0.1217 -2.1767  0.0344
  786MPD2     C11639   1.538   4.607  14.617 -0.8607 -0.5049  0.7896
  786MPD2    C111640   1.674   4.602  14.600  0.5349 -0.6525 -0.2077
  786MPD2    C211641   1.762   4.644  14.702 -0.8573 -0.2279  0.6359
  786MPD2    C311642   1.722   4.683  14.822  0.5966 -0.1612  0.7380
  786MPD2    C411643   1.581   4.679  14.848 -0.4045 -0.6668  1.0837
  786MPD2    C511644   1.495   4.653  14.740  0.1365 -0.3794  0.5573
  786MPD2     H11645   1.867   4.643  14.675 -1.5651  0.4787 -2.1533
  786MPD2    H111646   1.534   4.729  14.932  0.2383  0.3621  0.8420
  786MPD2    H211647   1.468   4.582  14.539  0.1742 -1.6637  0.2273
  786MPD2    H311648   1.390   4.677  14.749  0.5296  0.8804  1.7201
  786MPD2     N11649   1.809   4.726  14.922 -0.4558  0.5979  0.3789
  786MPD2    H511650   1.777   0.010  15.015  0.0240  0.4564  0.5785
  786MPD2    N111651   1.733   4.541  14.486  0.6646 -0.1257 -0.3603
  786MPD2    H711652   1.834   4.535  14.489  0.5565 -2.1980 -1.2876
  787MPD2     C11653   2.225   4.268  14.618  0.6456  0.5387 -0.5327
  787MPD2    C111654   2.217   4.229  14.484 -0.4841  0.4894  1.0160
  787MPD2    C211655   2.277   4.112  14.437  0.0587 -0.1770 -0.7853
  787MPD2    C311656   2.357   4.044  14.527  0.0069  0.4730 -0.9639
  787MPD2    C411657   2.360   4.087  14.659 -0.1247 -0.6682  0.3452
  787MPD2    C511658   2.296   4.198  14.706  0.0687  0.7489  0.1278
  787MPD2     H11659   2.258   4.074  14.337 -2.1903 -1.5223  0.1587
  787MPD2    H111660   2.397   4.022  14.738  0.8886 -1.0512 -0.4592
  787MPD2    H211661   2.171   4.356  14.654 -0.8242 -1.4288  2.1320
  787MPD2    H311662   2.316   4.232  14.807 -0.2481  0.7113  0.2001
  787MPD2     N11663   2.404   3.911  14.489 -0.5969  0.3131  0.8382
  787MPD2    H511664   2.377   3.882  14.395  0.2732  2.1961 -0.0059
  787MPD2    N111665   2.127   4.307  14.403  0.2023 -0.8536  0.5156
  787MPD2    H711666   2.081   4.375  14.463 -1.8520 -1.4838 -0.3376
  788MPD2     C11667   4.165   3.996   0.689 -0.3001 -0.2312  0.6653
  788MPD2    C111668   4.120   3.913   0.592  1.1655 -0.2584 -0.6456
  788MPD2    C211669   4.132   3.955   0.456  0.5170  0.0145  0.2877
  788MPD2    C311670   4.164   4.086   0.427 -0.1915  0.3241 -0.1467
  788MPD2    C411671   4.197   4.174   0.529 -0.1394  0.3944 -0.9116
  788MPD2    C511672   4.199   4.124   0.656  0.7270  0.5518  0.1294
  788MPD2     H11673   4.113   3.884   0.377 -1.2473 -0.2043  0.9240
  788MPD2    H111674   4.224   4.276   0.503  0.9195 -0.2384 -2.3516
  788MPD2    H211675   4.184   3.961   0.790  3.9323 -1.8323 -0.6754
  788MPD2    H311676   4.237   4.183   0.739  1.3315 -0.2675  0.4399
  788MPD2     N11677   4.172   4.114   0.282  0.1638  0.4414  0.2394
  788MPD2    H511678   4.161   4.035   0.219 -1.1079 -0.3199  1.3925
  788MPD2    N111679   4.096   3.775   0.612 -0.2529  0.4552 -0.3713
  788MPD2    H711680   4.075   3.716   0.532  1.7941  2.4214 -2.3213
  789MPD2     C11681   4.077   3.385  16.801  0.4758 -0.1143 -0.6210
  789MPD2    C111682   3.998   3.364  16.688 -0.0996  0.6658 -0.7404
  789MPD2    C211683   3.900   3.461  16.660 -0.7502 -0.1153 -0.1909
  789MPD2    C311684   3.884   3.572  16.734 -0.1793  0.4075  0.6735
  789MPD2    C411685   3.970   3.589  16.838  0.3952  0.1578  0.6861
  789MPD2    C511686   4.065   3.494  16.882  0.7041  0.1743  0.1493
  789MPD2     H11687   3.835   3.433  16.578 -0.9250 -0.5099  0.0838
  789MPD2    H111688   3.954   3.681  16.893 -2.4324  0.6460 -0.9632
  789MPD2    H211689   4.131   3.305  16.851  1.5429 -0.6899 -2.6928
  789MPD2    H311690   4.115   3.505  16.978 -0.2162 -0.7809  0.7457
  789MPD2     N11691   3.778   3.662  16.717  0.0089 -0.7196  0.3315
  789MPD2    H511692   3.785   3.739  16.782 -0.2256  0.1041 -0.6093
  789MPD2    N111693   3.983   3.242  16.616 -0.5926  0.2457  0.2137
  789MPD2    H711694   3.924   3.250  16.534  0.2015 -1.0246 -0.4947
  790MPD2     C11695   0.094   0.025  13.321  0.3356 -0.6998  0.1153
  790MPD2    C111696   0.100   4.653  13.402  0.2689  0.6003  0.9368
  790MPD2    C211697   0.092   4.527  13.341 -0.2911 -0.7049  0.3086
  790MPD2    C311698   0.069   4.522  13.207  0.3597  0.7006  1.2438
  790MPD2    C411699   0.061   4.635  13.131  0.3085 -0.1119  0.0938
  790MPD2    C511700   0.066   0.014  13.192  0.6750  0.1659  0.2235
  790MPD2     H11701   0.096   4.436  13.401 -2.8570  0.1278  1.7241
  790MPD2    H111702   0.044   4.639  13.024  2.3025 -0.8554 -0.2407
  790MPD2    H211703   0.107   0.126  13.359 -0.5994 -0.9278  1.0518
  790MPD2    H311704   0.055   0.108  13.140 -0.1775  0.0111  0.1148
  790MPD2     N11705   0.053   4.396  13.152 -0.4598  0.4408 -0.7571
  790MPD2    H511706   0.083   4.320  13.213 -0.9258  1.4385  0.7121
  790MPD2    N111707   0.137   4.680  13.537  0.3022  0.2874 -0.6589
  790MPD2    H711708   0.166   0.032  13.567  1.5821 -1.0878  2.3098
  791MPD2     C11709   4.221   4.051  12.810  0.4692  0.1054 -0.0840
  791MPD2    C111710   4.319   3.972  12.860 -0.2290  1.0281  0.5503
  791MPD2    C211711   4.276   3.853  12.924 -0.0009  0.4332  0.0360
  791MPD2    C311712   4.142   3.819  12.928 -0.0147 -0.2137 -0.5539
  791MPD2    C411713   4.047   3.896  12.867  0.3676  0.2809 -0.2879
  791MPD2    C511714   4.088   4.009  12.807  0.6637  0.5374 -0.5041
  791MPD2     H11715   4.348   3.786  12.968 -1.6372 -1.2125  0.2291
  791MPD2    H111716   3.941   3.883  12.884  0.9486 -1.7924  1.8114
  791MPD2    H211717   4.252   4.155  12.800 -0.2449  0.3379  0.1025
  791MPD2    H311718   4.008   4.068  12.764 -0.5729 -0.0903  0.9470
  791MPD2     N11719   4.111   3.716  13.019 -0.6262  1.0001  0.3373
  791MPD2    H511720   4.187   3.671  13.069 -0.6256  1.0592  0.3892
  791MPD2    N111721   4.449   4.030  12.866  0.2161  0.2738  1.0578
  791MPD2    H711722   4.461   4.128  12.844  0.0433 -0.3020 -1.6312
  792MPD2     C11723   0.337   4.336  11.315  0.0078 -0.2844  0.6787
  792MPD2    C111724   0.319   4.337  11.175 -0.2688  0.0545 -0.1814
  792MPD2    C211725   0.203   4.279  11.123 -0.2981  0.2235  0.4509
  792MPD2    C311726   0.106   4.239  11.204 -0.0388  0.0751  0.1088
  792MPD2    C411727   0.120   4.236  11.338  0.3726  0.0320  0.4261
  792MPD2    C511728   0.239   4.277  11.392  0.1991  0.5180 -0.4960
  792MPD2     H11729   0.188   4.269  11.016 -0.2558 -2.2294  0.6681
  792MPD2    H111730   0.046   4.202  11.409  0.0380  5.6848  2.7935
  792MPD2    H211731   0.417   4.390  11.364  0.4558  0.9284 -1.4124
  792MPD2    H311732   0.232   4.293  11.499  4.4109  4.6434 -0.8638
  792MPD2     N11733   4.726   4.182  11.152 -0.2568  0.4095 -0.3775
  792MPD2    H511734   4.668   4.138  11.222  1.7838  0.5925  1.4458
  792MPD2    N111735   0.430   4.385  11.098 -0.0735 -0.1334 -0.0456
  792MPD2    H711736   0.515   4.406  11.150 -0.3219  1.2765 -0.2148
  793MPD2     C11737   4.504   3.773  10.289  1.3814 -0.5572  0.1991
  793MPD2    C111738   4.616   3.832  10.351  0.1556 -1.2019 -0.0613
  793MPD2    C211739   4.590   3.896  10.469 -0.3203 -0.3330  0.7526
  793MPD2    C311740   4.472   3.906  10.533  0.9906 -0.1271  0.0279
  793MPD2    C411741   4.362   3.853  10.469  0.2822  0.4260  0.4518
  793MPD2    C511742   4.375   3.783  10.351 -0.0078 -0.4038  0.1619
  793MPD2     H11743   4.674   3.944  10.519 -0.0764 -0.2088  0.2253
  793MPD2    H111744   4.260   3.857  10.505  0.2336  1.5495  0.1644
  793MPD2    H211745   4.511   3.708  10.202 -0.8594 -1.1355  0.4554
  793MPD2    H311746   4.293   3.726  10.310 -1.1518  0.9281  0.5941
  793MPD2     N11747   4.464   3.974  10.658  0.0813 -0.1860  0.3216
  793MPD2    H511748   4.547   4.008  10.706 -0.2251  2.1980 -0.8190
  793MPD2    N111749   0.006   3.822  10.298  0.1630  0.1291  0.1082
  793MPD2    H711750   0.075   3.850  10.367  0.9287 -1.8196  0.1272
  794MPD2     C11751   0.193   3.955  17.116 -0.6003  0.3669  1.0940
  794MPD2    C111752   0.133   3.839  17.085 -0.8084  0.3173  0.4107
  794MPD2    C211753   0.051   3.830  16.976  0.3969  0.5092  0.3057
  794MPD2    C311754   0.049   3.936  16.883 -0.2389  0.5798 -0.4661
  794MPD2    C411755   0.110   4.053  16.914  0.4178 -0.0230  0.5439
  794MPD2    C511756   0.180   4.064  17.032  0.0086 -0.4994 -0.8854
  794MPD2     H11757   4.725   3.746  16.957 -0.9211  1.5273  0.3905
  794MPD2    H111758   0.108   4.141  16.851  1.1240 -0.5427 -0.2110
  794MPD2    H211759   0.252   3.972  17.206  0.6091 -0.9297  0.5527
  794MPD2    H311760   0.226   4.157  17.062 -3.0414  0.5329  0.6785
  794MPD2     N11761   4.708   3.931  16.764 -0.3723  0.1310  0.0350
  794MPD2    H511762   4.695   4.013  16.706 -2.7249  0.2941  0.7901
  794MPD2    N111763   0.140   3.725  17.164  0.9603  0.0739 -0.4052
  794MPD2    H711764   0.092   3.641  17.131 -0.3011  0.7055 -0.1950
  795MPD2     C11765   2.746   0.874  13.562 -0.2853 -0.7296 -0.1642
  795MPD2    C111766   2.670   0.796  13.646 -0.4252 -0.3582 -0.4351
  795MPD2    C211767   2.729   0.686  13.711  0.8088  0.1054 -0.1367
  795MPD2    C311768   2.863   0.664  13.688  0.5122 -0.1217  0.7780
  795MPD2    C411769   2.939   0.739  13.600 -0.6505  0.0270  0.6086
  795MPD2    C511770   2.880   0.851  13.539  0.1765 -0.2133  0.6079
  795MPD2     H11771   2.688   0.628  13.793  0.0692  0.6316 -0.1363
  795MPD2    H111772   3.046   0.724  13.587 -0.8865 -0.0831 -1.2615
  795MPD2    H211773   2.702   0.960  13.513 -0.7165 -0.4403  0.7244
  795MPD2    H311774   2.945   0.917  13.483 -2.6744  0.0649 -2.3565
  795MPD2     N11775   2.925   0.558  13.752  0.2944  0.8138 -0.4235
  795MPD2    H511776   2.870   0.493  13.806  2.4009 -2.6896 -2.4918
  795MPD2    N111777   2.529   0.818  13.670 -0.6123 -0.3689  0.0228
  795MPD2    H711778   2.469   0.744  13.705  2.0607 -1.1614  2.9179
  796MPD2     C11779   1.987   2.472  15.702 -0.4816  0.7432  0.5398
  796MPD2    C111780   2.069   2.574  15.744 -0.0817  0.0501 -0.2873
  796MPD2    C211781   2.038   2.699  15.704  0.3912 -0.5589 -0.9465
  796MPD2    C311782   1.927   2.733  15.625  0.3432  0.1085 -1.0608
  796MPD2    C411783   1.844   2.631  15.584 -0.8192  1.0437 -0.3656
  796MPD2    C511784   1.881   2.500  15.620 -0.0651  0.4834 -0.3900
  796MPD2     H11785   2.101   2.774  15.749  0.7605 -0.3043 -1.8733
  796MPD2    H111786   1.748   2.651  15.537  0.6070 -0.1716 -3.8040
  796MPD2    H211787   2.003   2.368  15.728 -0.5498  0.2418 -1.3976
  796MPD2    H311788   1.811   2.420  15.602  1.4514 -0.9690  0.1443
  796MPD2     N11789   1.908   2.869  15.600  0.1777  0.2199 -0.0564
  796MPD2    H511790   1.972   2.934  15.647  0.3374  0.7344 -0.9908
  796MPD2    N111791   2.181   2.531  15.822  0.7926  0.1298 -0.0292
  796MPD2    H711792   2.189   2.431  15.840 -0.2565 -0.0606 -0.6560
  797MPD2     C11793   2.924   2.822  17.399 -0.0149  0.1363  1.0883
  797MPD2    C111794   2.983   2.938  17.371  0.6527 -0.2189 -0.0568
  797MPD2    C211795   2.966   3.000  17.244 -0.2747  0.2578 -0.1258
  797MPD2    C311796   2.882   2.940  17.152  0.7934 -0.2760 -0.1209
  797MPD2    C411797   2.824   2.819  17.184  0.0400  0.4268 -0.6819
  797MPD2    C511798   2.847   2.765  17.301  0.4554 -0.6271  0.1664
  797MPD2     H11799   3.025   3.084  17.211  1.9745 -1.4117 -0.3346
  797MPD2    H111800   2.755   2.770  17.115  0.0091  0.1110 -0.4269
  797MPD2    H211801   2.922   2.770  17.494 -2.1195 -4.3757 -1.4034
  797MPD2    H311802   2.792   2.674  17.323  1.6916 -0.8831  2.1841
  797MPD2     N11803   2.878   3.005  17.027 -0.6565  0.3396  0.3376
  797MPD2    H511804   2.921   3.097  17.018 -1.8623  0.9943  1.3704
  797MPD2    N111805   3.072   3.009  17.449 -0.6732 -0.0856  0.0303
  797MPD2    H711806   3.096   3.101  17.414 -0.4118  0.2669  1.1248
  798MPD2     C11807   3.411   3.430  16.923 -0.3848 -0.1622 -0.0583
  798MPD2    C111808   3.310   3.338  16.956  0.3806 -0.4041 -0.5849
  798MPD2    C211809   3.309   3.262  17.075  0.6718 -0.4677  0.0644
  798MPD2    C311810   3.403   3.299  17.171 -0.0856 -0.3034 -0.6944
  798MPD2    C411811   3.509   3.385  17.141 -0.0580  0.1855 -0.3794
  798MPD2    C511812   3.510   3.452  17.022 -0.2430 -0.0420 -0.6525
  798MPD2     H11813   3.234   3.193  17.109  0.4613 -0.2726 -0.0051
  798MPD2    H111814   3.591   3.407  17.208 -0.3881  0.8189 -0.1815
  798MPD2    H211815   3.407   3.479  16.827 -2.8897 -2.1250 -0.9566
  798MPD2    H311816   3.590   3.525  17.014 -1.3874  1.4041  1.0750
  798MPD2     N11817   3.390   3.241  17.300  0.7692 -0.6927  0.2255
  798MPD2    H511818   3.314   3.174  17.301  0.5845 -0.4552  2.3747
  798MPD2    N111819   3.199   3.336  16.865  0.4683  0.4819  0.0684
  798MPD2    H711820   3.222   3.384  16.778  1.8377 -1.2293 -0.5191
  799MPD2     C11821   1.967   3.805  14.153  0.2302  0.3802 -0.1558
  799MPD2    C111822   1.853   3.737  14.103  0.2287  0.3173  0.1019
  799MPD2    C211823   1.815   3.760  13.976  0.3641  0.2517 -0.3136
  799MPD2    C311824   1.888   3.843  13.887  0.9327 -0.1987 -0.8345
  799MPD2    C411825   2.006   3.896  13.934  0.2567 -0.3764  0.7375
  799MPD2    C511826   2.037   3.895  14.066 -0.2058 -0.0573 -0.0881
  799MPD2     H11827   1.725   3.712  13.940 -0.3178  0.6326  0.8909
  799MPD2    H111828   2.072   3.956  13.872 -0.7805 -0.8414 -0.8490
  799MPD2    H211829   2.002   3.791  14.254 -1.2970  0.5792  0.3973
  799MPD2    H311830   2.113   3.963  14.101 -2.5627  2.2788  0.4533
  799MPD2     N11831   1.854   3.868  13.751  0.5028  0.4051  0.2263
  799MPD2    H511832   1.910   3.931  13.694  2.8840 -1.7263  0.2675
  799MPD2    N111833   1.774   3.661  14.189  0.2645 -0.5659  0.3957
  799MPD2    H711834   1.676   3.644  14.168  0.2989 -1.4725  0.9734
  800MPD2     C11835   2.232   0.098  14.122  0.2642 -0.7744  0.0104
  800MPD2    C111836   2.363   0.054  14.116 -0.2646 -0.3047  0.2320
  800MPD2    C211837   2.391   4.680  14.042  0.6769 -0.0665 -0.1266
  800MPD2    C311838   2.296   4.627  13.967 -0.4887  0.0873  0.0983
  800MPD2    C411839   2.165   4.673  13.973 -0.1631  0.1632  0.3363
  800MPD2    C511840   2.136   0.048  14.049  0.0911 -0.1935 -0.4043
  800MPD2     H11841   2.491   4.641  14.025  1.0284  0.6160  0.3972
  800MPD2    H111842   2.089   4.627  13.909  1.4689  1.1554 -2.3192
  800MPD2    H211843   2.211   0.191  14.174  2.9697  0.2149 -0.7007
  800MPD2    H311844   2.036   0.085  14.068 -0.1056 -0.7889 -0.2714
  800MPD2     N11845   2.347   4.519  13.884  0.1819  0.1675  0.3677
  800MPD2    H511846   2.445   4.494  13.897 -0.0431  0.5772  3.0021
  800MPD2    N111847   2.467   0.126  14.174  0.3095 -0.6780 -0.2967
  800MPD2    H711848   2.439   0.214  14.217  1.3639 -0.3213 -0.3466
  801MPD2     C11849   2.694   0.812  14.028 -0.5039  0.3062 -0.4410
  801MPD2    C111850   2.635   0.752  14.132 -0.0955  0.3662  1.0043
  801MPD2    C211851   2.557   0.836  14.212 -0.5800  0.2045 -0.3211
  801MPD2    C311852   2.562   0.974  14.201  0.2215  0.1400 -0.6219
  801MPD2    C411853   2.640   1.033  14.110  0.0272 -0.7695  0.2503
  801MPD2    C511854   2.689   0.948  14.017 -0.2453 -0.1116 -0.3243
  801MPD2     H11855   2.500   0.794  14.294  0.7808  0.6500  0.8573
  801MPD2    H111856   2.665   1.138  14.096 -2.1172 -0.0975  1.3061
  801MPD2    H211857   2.753   0.757  13.956  0.8840  1.2375 -0.0141
  801MPD2    H311858   2.740   0.996  13.935 -1.9263  1.4627 -0.4400
  801MPD2     N11859   2.509   1.059  14.297 -0.1389  0.5189  0.1185
  801MPD2    H511860   2.538   1.156  14.306 -2.8809  1.4980 -1.7630
  801MPD2    N111861   2.646   0.614  14.155 -0.7700 -0.5870  0.0963
  801MPD2    H711862   2.613   0.581  14.246 -2.0489 -1.4452 -0.6682
  802MPD2     C11863   2.229   1.549  17.206 -0.0403  1.4339 -0.0879
  802MPD2    C111864   2.243   1.618  17.324  0.0124 -0.2898  0.5138
  802MPD2    C211865   2.338   1.717  17.328  0.6758  0.7026 -0.4269
  802MPD2    C311866   2.416   1.750  17.219  0.4571 -0.4937 -0.4778
  802MPD2    C411867   2.405   1.680  17.101 -0.4629 -0.4042  0.3239
  802MPD2    C511868   2.304   1.587  17.095 -1.3694 -0.1181 -0.2466
  802MPD2     H11869   2.341   1.781  17.416 -0.3957  0.9695 -0.5749
  802MPD2    H111870   2.454   1.710  17.009 -1.9718  0.2089 -0.2709
  802MPD2    H211871   2.172   1.457  17.196  0.4383  1.0699  0.5541
  802MPD2    H311872   2.292   1.528  17.005  1.9716 -1.1171 -0.0737
  802MPD2     N11873   2.497   1.868  17.233 -0.5048  0.3949  1.0183
  802MPD2    H511874   2.484   1.923  17.317  0.4038 -0.3515  1.6536
  802MPD2    N111875   2.172   1.583  17.440 -0.1771 -0.2768 -0.5368
  802MPD2    H711876   2.200   1.629  17.526  0.9069  0.0166 -1.0515
  803MPD2     C11877   2.607   2.983  12.269 -0.0066  0.0298  0.1611
  803MPD2    C111878   2.665   3.099  12.219 -0.0575 -0.6075  0.0212
  803MPD2    C211879   2.734   3.186  12.304 -0.0297 -0.5042  0.1529
  803MPD2    C311880   2.756   3.144  12.437  0.8128 -0.2424 -0.6597
  803MPD2    C411881   2.697   3.029  12.480 -0.1557 -0.0869 -0.8661
  803MPD2    C511882   2.627   2.946  12.399  0.8135 -0.0587  0.7530
  803MPD2     H11883   2.764   3.286  12.273  1.6059 -0.7919  0.7954
  803MPD2    H111884   2.709   2.987  12.579 -0.5462  2.6396  0.3317
  803MPD2    H211885   2.557   2.912  12.205 -3.1091  2.0010  0.4112
  803MPD2    H311886   2.596   2.851  12.441  0.5659 -1.0264 -1.6003
  803MPD2     N11887   2.843   3.220  12.518  0.5705  0.0932 -0.5218
  803MPD2    H511888   2.877   3.181  12.605 -0.8881  2.8568  1.2863
  803MPD2    N111889   2.634   3.159  12.094  0.3022 -0.0917  0.1532
  803MPD2    H711890   2.684   3.243  12.068  2.6747 -1.9312 -1.3068
  804MPD2     C11891   2.346   1.288  16.806  0.7286 -0.2475  0.0401
  804MPD2    C111892   2.385   1.243  16.931 -0.9040  0.6148 -0.4324
  804MPD2    C211893   2.486   1.309  16.995  1.0560 -0.4771  0.0454
  804MPD2    C311894   2.567   1.399  16.937  0.3013 -0.2275 -0.4473
  804MPD2    C411895   2.527   1.442  16.812 -0.5766  0.3204 -0.3651
  804MPD2    C511896   2.420   1.388  16.742 -0.0573  0.1470  0.1619
  804MPD2     H11897   2.506   1.283  17.099 -0.2081 -1.4764  0.0453
  804MPD2    H111898   2.579   1.525  16.767  0.2438  1.1241  2.0709
  804MPD2    H211899   2.268   1.238  16.749 -1.7852  1.0147  2.3925
  804MPD2    H311900   2.389   1.429  16.646  1.0741 -3.4287 -1.7483
  804MPD2     N11901   2.681   1.451  17.006 -0.1055  0.3303 -0.1878
  804MPD2    H511902   2.695   1.405  17.096 -2.6020 -0.0578  0.0112
  804MPD2    N111903   2.337   1.125  16.987  0.5233  0.0365  0.4059
  804MPD2    H711904   2.382   1.094  17.071  0.0182  0.1146  0.7079
  805MPD2     C11905   1.439   3.910  15.079  0.7242  0.2090 -0.1623
  805MPD2    C111906   1.506   3.945  14.965 -0.0215  0.4835 -0.2564
  805MPD2    C211907   1.637   3.977  14.977  0.1767 -0.7168  0.3570
  805MPD2    C311908   1.704   3.975  15.105 -0.3402 -0.5061  0.8425
  805MPD2    C411909   1.634   3.935  15.214 -0.2661 -0.3964 -0.4430
  805MPD2    C511910   1.503   3.906  15.196 -0.5410 -0.2242  0.3376
  805MPD2     H11911   1.701   3.989  14.890 -0.2878  2.4147  0.4664
  805MPD2    H111912   1.678   3.921  15.312 -0.6820 -0.6072 -0.2880
  805MPD2    H211913   1.334   3.886  15.075  0.3693  1.6832  0.7334
  805MPD2    H311914   1.447   3.860  15.277 -0.0273 -1.4122  0.0143
  805MPD2     N11915   1.839   3.998  15.113 -0.8235  0.3619  0.3049
  805MPD2    H511916   1.879   4.066  15.050 -0.4716 -0.8985 -0.8208
  805MPD2    N111917   1.443   3.929  14.839 -0.2452  0.6333  0.4731
  805MPD2    H711918   1.504   3.955  14.762  1.3602 -2.0063  0.8323
  806MPD2     C11919   2.518   3.863   0.446 -0.1318 -0.4523 -0.2884
  806MPD2    C111920   2.393   3.889   0.394 -0.6762 -0.2629 -0.7080
  806MPD2    C211921   2.364   4.005   0.326  0.0468 -0.6342  0.2909
  806MPD2    C311922   2.458   4.102   0.302  0.0200  0.5960  0.7244
  806MPD2    C411923   2.586   4.069   0.335 -0.1875 -0.6720 -0.5083
  806MPD2    C511924   2.612   3.956   0.412  0.0514 -0.6471  0.2797
  806MPD2     H11925   2.262   4.028   0.298  1.2795  0.7922 -3.1270
  806MPD2    H111926   2.660   4.144   0.311  0.2558 -1.0006 -0.1597
  806MPD2    H211927   2.545   3.773   0.501 -1.2564 -0.5917  0.0414
  806MPD2    H311928   2.714   3.945   0.447 -0.1401 -0.7876  0.7946
  806MPD2     N11929   2.432   4.226   0.232  0.1318 -0.6349 -0.1686
  806MPD2    H511930   2.338   4.239   0.195  0.2524  1.1431  0.1691
  806MPD2    N111931   2.298   3.785   0.412  0.1876  0.8113  0.2811
  806MPD2    H711932   2.328   3.705   0.467 -0.7834 -0.2284 -0.7144
  807MPD2     C11933   1.766   3.171   0.213  0.6133 -0.0951 -0.5653
  807MPD2    C111934   1.762   3.203   0.346 -0.1438 -0.2458  0.2027
  807MPD2    C211935   1.694   3.113   0.431 -0.5268 -0.7137  0.1510
  807MPD2    C311936   1.638   2.989   0.386 -0.0970 -0.0874 -0.2857
  807MPD2    C411937   1.638   2.969   0.244  0.0985 -0.2442  0.7782
  807MPD2    C511938   1.707   3.057   0.157  0.3941 -0.0636 -0.9957
  807MPD2     H11939   1.686   3.135   0.537  0.9408 -2.2014  0.5577
  807MPD2    H111940   1.585   2.889   0.193 -0.4592 -0.1437  1.2049
  807MPD2    H211941   1.814   3.236   0.141  0.2758 -0.2744 -0.9559
  807MPD2    H311942   1.700   3.044   0.050  1.6524 -1.8174 -0.8734
  807MPD2     N11943   1.585   2.900   0.479  0.2029 -0.6377  0.4883
  807MPD2    H511944   1.596   2.927   0.577 -1.2975  0.8208  0.2443
  807MPD2    N111945   1.819   3.313   0.406 -0.2224  0.7102  0.5487
  807MPD2    H711946   1.790   3.341   0.499  1.8314  1.8223  0.8556
  808MPD2     C11947   3.122   4.150   9.747  0.2439 -0.1306  0.2029
  808MPD2    C111948   3.052   4.233   9.832  0.6698  0.0083  0.0627
  808MPD2    C211949   3.062   4.372   9.825 -0.0396  0.1654 -0.2357
  808MPD2    C311950   3.127   4.438   9.721 -0.1909  0.2589 -0.9035
  808MPD2    C411951   3.202   4.351   9.636 -0.3603  0.4797  0.3840
  808MPD2    C511952   3.198   4.213   9.650 -0.2002  0.1143  0.1034
  808MPD2     H11953   3.001   4.436   9.888 -0.9736 -0.9478 -0.0156
  808MPD2    H111954   3.266   4.390   9.558 -0.5824  1.3005  0.6087
  808MPD2    H211955   3.122   4.041   9.750 -1.2092 -0.1129  1.2228
  808MPD2    H311956   3.256   4.146   9.587 -0.0481  1.0827 -0.7952
  808MPD2     N11957   3.112   4.581   9.692 -0.1137  0.2649  1.1129
  808MPD2    H511958   3.151   4.624   9.609 -1.3827 -1.6145 -0.4500
  808MPD2    N111959   2.968   4.179   9.929 -0.6063 -0.1167 -0.2218
  808MPD2    H711960   2.930   4.237  10.003  1.4058  0.5011  0.3349
  809MPD2     C11961   3.304   0.405   8.979  0.0433  0.1070 -0.1834
  809MPD2    C111962   3.350   0.483   9.086 -0.5023  0.3969  0.4299
  809MPD2    C211963   3.288   0.463   9.208 -0.7697 -0.0947 -0.6576
  809MPD2    C311964   3.198   0.357   9.224  0.1746 -0.0784  0.7134
  809MPD2    C411965   3.152   0.289   9.109 -0.2853 -0.2505 -0.0225
  809MPD2    C511966   3.209   0.309   8.988  0.9871 -0.5603  0.1379
  809MPD2     H11967   3.328   0.519   9.292  0.2451 -0.0633 -1.1684
  809MPD2    H111968   3.068   0.221   9.114  1.1276 -1.9077  1.2661
  809MPD2    H211969   3.333   0.420   8.875  1.2196 -1.1945 -0.0339
  809MPD2    H311970   3.189   0.243   8.904  0.3188 -1.7327  1.2190
  809MPD2     N11971   3.161   0.337   9.355 -0.0759 -0.1966  0.1061
  809MPD2    H511972   3.196   0.402   9.424 -0.5666 -0.9813  1.0977
  809MPD2    N111973   3.455   0.577   9.075  0.0986  0.0973 -0.6199
  809MPD2    H711974   3.481   0.628   9.159 -3.6285 -0.0506  0.5806
  810MPD2     C11975   2.392   4.201  10.567 -0.0999  0.3472 -1.0577
  810MPD2    C111976   2.343   4.211  10.438 -0.7421  0.4707 -0.2417
  810MPD2    C211977   2.324   4.337  10.387 -0.9740 -0.0574  0.2533
  810MPD2    C311978   2.342   4.446  10.466 -0.3532  0.3055  0.0180
  810MPD2    C411979   2.383   4.433  10.597 -0.0155 -0.3731 -0.0107
  810MPD2    C511980   2.400   4.309  10.649  0.1473 -0.4347  0.1213
  810MPD2     H11981   2.295   4.353  10.284  0.4347 -1.3364 -0.3371
  810MPD2    H111982   2.381   4.513  10.670 -0.9306  0.3571 -0.8391
  810MPD2    H211983   2.400   4.101  10.610 -1.3223  0.8077  0.2508
  810MPD2    H311984   2.424   4.291  10.754  1.4619  0.1666 -0.0877
  810MPD2     N11985   2.315   4.579  10.428 -0.2910 -0.5436  0.4102
  810MPD2    H511986   2.326   4.652  10.498 -0.2479 -1.6778  1.5895
  810MPD2    N111987   2.308   4.083  10.388 -0.0972 -0.6721 -0.7190
  810MPD2    H711988   2.316   4.001  10.446 -1.3510  0.2814  0.8196
  811MPD2     C11989   1.575   3.927   9.873  0.1709  0.1732 -0.4372
  811MPD2    C111990   1.688   3.999   9.911 -0.5890  0.0975  0.0973
  811MPD2    C211991   1.710   4.125   9.852 -0.6277  0.6118 -0.2266
  811MPD2    C311992   1.622   4.178   9.762  1.0482  0.7285 -0.3555
  811MPD2    C411993   1.509   4.102   9.728 -1.0552  0.0144 -1.2912
  811MPD2    C511994   1.492   3.978   9.781 -0.2590 -0.0128 -0.4366
  811MPD2     H11995   1.796   4.187   9.874 -0.5135  0.9013 -1.4826
  811MPD2    H111996   1.428   4.133   9.663 -0.8586  2.4383 -0.3647
  811MPD2    H211997   1.552   3.827   9.908 -3.1005  0.8042 -0.7421
  811MPD2    H311998   1.407   3.923   9.743 -0.4757 -0.2112  0.3390
  811MPD2     N11999   1.654   4.305   9.710 -0.0442  0.2022 -0.8074
  811MPD2    H512000   1.746   4.342   9.731 -0.6739  0.3285  1.7536
  811MPD2    N112001   1.779   3.933   9.994 -0.0652  0.6966  0.0331
  811MPD2    H712002   1.758   3.835  10.007  1.1404  0.2974 -0.9874
  812MPD2     C12003   1.265   4.277  12.064 -0.3059  0.1672  0.3825
  812MPD2    C112004   1.162   4.332  12.148  0.2113 -0.1966 -0.1011
  812MPD2    C212005   1.129   4.266  12.267  0.4374  0.2673  0.8648
  812MPD2    C312006   1.188   4.146  12.291  0.1467  0.2757 -0.0308
  812MPD2    C412007   1.288   4.096  12.209 -0.4040  0.2700  0.2335
  812MPD2    C512008   1.323   4.162  12.097 -0.6894  0.4144  0.3450
  812MPD2     H12009   1.049   4.293  12.334  0.1388  2.2618 -0.2810
  812MPD2    H112010   1.324   3.995  12.225 -0.3141  0.1969 -0.4448
  812MPD2    H212011   1.293   4.319  11.968  2.7008  1.3573  1.7997
  812MPD2    H312012   1.387   4.105  12.030 -1.9509  0.8229 -1.2048
  812MPD2     N12013   1.129   4.067  12.396  0.1671  0.5710 -0.0882
  812MPD2    H512014   1.052   4.106  12.448  0.8258  0.2005  1.1519
  812MPD2    N112015   1.090   4.435  12.096 -0.1518 -0.1588 -0.0288
  812MPD2    H712016   1.119   4.471  12.006  0.6779 -2.9648 -0.8901
  813MPD2     C12017   0.254   1.051  13.186 -0.1140 -0.2767 -0.1318
  813MPD2    C112018   0.267   1.190  13.182 -0.4709 -0.5468  0.0910
  813MPD2    C212019   0.162   1.269  13.213  0.0596 -0.7667  0.1947
  813MPD2    C312020   0.055   1.217  13.286  0.2068  1.1002 -0.7928
  813MPD2    C412021   0.041   1.074  13.292  0.3662  0.4443 -0.5977
  813MPD2    C512022   0.141   1.001  13.234  0.1889 -1.1254 -0.0880
  813MPD2     H12023   0.168   1.376  13.201  1.7398 -0.8774 -0.0204
  813MPD2    H112024   4.688   1.035  13.331 -0.8275  1.8104 -2.0518
  813MPD2    H212025   0.323   0.984  13.135  1.2144  1.5562 -0.7832
  813MPD2    H312026   0.125   0.894  13.224 -1.5284 -0.7189 -1.6803
  813MPD2     N12027   4.706   1.304  13.359  0.8274 -0.2200 -0.9597
  813MPD2    H512028   4.737   1.400  13.355 -0.7775  0.4080  1.6465
  813MPD2    N112029   0.394   1.238  13.142 -0.3075  0.1959  0.3372
  813MPD2    H712030   0.471   1.174  13.126 -0.4896  0.3417 -1.0783
  814MPD2     C12031   0.903   2.442  12.529  1.0895  0.4349 -0.6496
  814MPD2    C112032   0.888   2.479  12.394  0.7145  0.5446 -0.0938
  814MPD2    C212033   0.885   2.615  12.368  0.2979  0.5931 -0.2177
  814MPD2    C312034   0.893   2.707  12.472  1.4477 -0.1042  1.0361
  814MPD2    C412035   0.895   2.660  12.600  0.5639  0.4635 -0.3492
  814MPD2    C512036   0.901   2.529  12.628  0.5304 -0.3558 -0.0217
  814MPD2     H12037   0.873   2.639  12.263  1.8972  0.6551 -0.3865
  814MPD2    H112038   0.900   2.738  12.676  0.9976 -0.0256  0.1251
  814MPD2    H212039   0.908   2.337  12.555  0.5733  0.3426 -0.9213
  814MPD2    H312040   0.916   2.498  12.731 -0.2718  2.3318  0.9106
  814MPD2     N12041   0.911   2.844  12.450  0.3672  0.2189 -0.9106
  814MPD2    H512042   0.906   2.894  12.538  0.0424  0.5025 -1.0912
  814MPD2    N112043   0.894   2.381  12.286 -0.2421 -0.1331  0.1881
  814MPD2    H712044   0.919   2.427  12.199 -0.2383 -1.9173 -0.7480
  815MPD2     C12045   1.346   4.710  12.024  0.0403 -0.0537  0.2381
  815MPD2    C112046   1.304   0.072  11.942  0.4488  0.3715  0.4230
  815MPD2    C212047   1.227   0.177  11.994 -0.6057 -0.0197 -0.7779
  815MPD2    C312048   1.207   0.198  12.134  0.4220  0.3841  0.1365
  815MPD2    C412049   1.263   0.095  12.216  0.2488  0.1760  0.1533
  815MPD2    C512050   1.310   4.718  12.154  0.2906  0.1745 -0.4060
  815MPD2     H12051   1.190   0.256  11.930 -0.2705  1.6781  1.1593
  815MPD2    H112052   1.241   0.091  12.322 -0.6067 -0.5356 -0.0470
  815MPD2    H212053   1.394   4.619  11.989 -1.5350 -0.4609 -0.8707
  815MPD2    H312054   1.336   4.633  12.216 -1.0704 -0.0268 -0.1051
  815MPD2     N12055   1.122   0.305  12.184  0.3565  0.0677 -0.0258
  815MPD2    H512056   1.088   0.370  12.114 -0.8535 -1.5450 -0.9294
  815MPD2    N112057   1.332   0.055  11.806 -0.7791 -0.2912  0.0740
  815MPD2    H712058   1.412   4.737  11.783 -0.0136  1.1612 -0.8817
  816MPD2     C12059   0.866   0.410  16.916 -0.1946 -0.1462  0.0293
  816MPD2    C112060   0.940   0.516  16.969  0.2873  0.2463 -0.3125
  816MPD2    C212061   1.076   0.521  16.935  0.2690 -0.2609  0.5651
  816MPD2    C312062   1.140   0.420  16.863 -0.9958  0.0523  0.2056
  816MPD2    C412063   1.064   0.313  16.823 -0.3477 -0.5886  0.1725
  816MPD2    C512064   0.928   0.311  16.848  0.6569  0.1662  0.1303
  816MPD2     H12065   1.131   0.603  16.980  0.4442  0.2689 -0.6056
  816MPD2    H112066   1.108   0.240  16.756 -0.5759 -0.4532 -0.1247
  816MPD2    H212067   0.759   0.412  16.930 -0.3843 -0.3356 -1.3942
  816MPD2    H312068   0.861   0.235  16.809  0.1427 -0.7173  2.7493
  816MPD2     N12069   1.273   0.439  16.826  0.2202 -0.1360  0.4856
  816MPD2    H512070   1.323   0.525  16.844  1.6853 -0.5601 -1.4543
  816MPD2    N112071   0.872   0.615  17.044  0.1541  0.6230  0.2008
  816MPD2    H712072   0.770   0.610  17.036  0.0771  2.0233  0.4920
  817MPD2     C12073   0.742   1.800   9.007 -0.3776  0.1191  0.2002
  817MPD2    C112074   0.623   1.791   9.071 -0.1479  0.6603  0.2260
  817MPD2    C212075   0.524   1.880   9.033  0.1586  0.1611 -0.5867
  817MPD2    C312076   0.544   1.973   8.938  0.1809  0.5324  0.1571
  817MPD2    C412077   0.666   1.976   8.867  0.3884  0.6027  0.0942
  817MPD2    C512078   0.762   1.880   8.895  0.1498 -0.7762  0.1564
  817MPD2     H12079   0.433   1.881   9.092 -0.4092 -1.3893 -1.4449
  817MPD2    H112080   0.687   2.049   8.790  1.4713  0.0418 -0.1446
  817MPD2    H212081   0.820   1.726   9.022 -2.1929 -0.7875  5.0976
  817MPD2    H312082   0.859   1.889   8.847 -1.2992  0.1566 -2.6064
  817MPD2     N12083   0.439   2.067   8.919 -0.4922 -0.1090  0.2379
  817MPD2    H512084   0.353   2.055   8.972 -1.6663  0.3175 -1.5424
  817MPD2    N112085   0.598   1.700   9.176 -0.0103 -0.2935  0.4569
  817MPD2    H712086   0.501   1.679   9.199  0.1454 -2.7059 -1.1718
  818MPD2     C12087   0.556   2.392  10.502 -0.3640 -0.3637  0.0520
  818MPD2    C112088   0.474   2.282  10.531  0.0341 -0.2306 -0.2077
  818MPD2    C212089   0.463   2.182  10.434  0.0874 -0.1247  1.2571
  818MPD2    C312090   0.518   2.196  10.309  0.2081  0.1294  0.0002
  818MPD2    C412091   0.588   2.311  10.276  0.0690  0.0161 -0.1006
  818MPD2    C512092   0.613   2.404  10.374  0.0972  0.1292 -0.3482
  818MPD2     H12093   0.419   2.089  10.467  0.8370 -0.3578  1.5990
  818MPD2    H112094   0.633   2.326  10.179  1.3655 -0.7410  0.3769
  818MPD2    H212095   0.582   2.469  10.573 -0.5111 -0.3631  0.1043
  818MPD2    H312096   0.681   2.487  10.360  0.0659  0.0770 -0.8112
  818MPD2     N12097   0.518   2.094  10.210  0.4316 -0.4617  0.4709
  818MPD2    H512098   0.556   2.120  10.119 -1.3671  0.4583 -0.0251
  818MPD2    N112099   0.405   2.266  10.652  0.4913  0.0404  0.0795
  818MPD2    H712100   0.344   2.185  10.649 -0.0028  0.4604 -1.1927
  819MPD2     C12101   2.444   3.990  15.167 -0.0030 -1.3216 -0.5565
  819MPD2    C112102   2.447   3.869  15.227  0.5965 -0.6484  0.3834
  819MPD2    C212103   2.549   3.833  15.309 -0.0106  1.0097  0.2073
  819MPD2    C312104   2.640   3.932  15.355 -0.7754  0.0416  0.7450
  819MPD2    C412105   2.622   4.059  15.315 -0.0537  0.6643  0.0781
  819MPD2    C512106   2.524   4.086  15.227 -0.1555 -0.0019 -0.2789
  819MPD2     H12107   2.561   3.731  15.344  2.2695  1.0816 -0.3698
  819MPD2    H112108   2.696   4.137  15.331  0.3729  0.1753  0.4782
  819MPD2    H212109   2.368   4.008  15.092 -1.6308 -1.0693  1.1499
  819MPD2    H312110   2.519   4.188  15.193  0.6714  0.0163 -0.3423
  819MPD2     N12111   2.739   3.890  15.446 -0.0642 -0.5031 -0.0105
  819MPD2    H512112   2.741   3.793  15.474 -0.7871 -0.7457 -0.8053
  819MPD2    N112113   2.339   3.789  15.194 -0.4449 -0.0406 -0.1708
  819MPD2    H712114   2.287   3.816  15.111 -1.0032 -1.3331 -0.2563
  820MPD2     C12115   1.874   3.894  14.498  0.3640 -0.3996  0.5044
  820MPD2    C112116   1.783   3.833  14.586  0.5979 -0.0087  0.1945
  820MPD2    C212117   1.830   3.776  14.704 -0.0887 -0.1683  0.2319
  820MPD2    C312118   1.962   3.785  14.744  0.9234 -0.7333  0.0400
  820MPD2    C412119   2.049   3.845  14.657  0.7371  0.1342  0.5947
  820MPD2    C512120   2.005   3.897  14.536  0.0148 -0.3316 -0.3694
  820MPD2     H12121   1.761   3.740  14.780 -1.7462  0.3212 -1.0188
  820MPD2    H112122   2.157   3.845  14.673  0.9028  0.9976 -0.4930
  820MPD2    H212123   1.849   3.931  14.400  2.2698  0.1734  0.2210
  820MPD2    H312124   2.077   3.933  14.463 -0.2050 -1.1546 -0.9960
  820MPD2     N12125   2.011   3.721  14.857  0.1074  0.2660  0.2614
  820MPD2    H512126   2.111   3.727  14.868 -0.1293  1.4137  1.7894
  820MPD2    N112127   1.645   3.836  14.560 -0.3288 -0.5522  0.8529
  820MPD2    H712128   1.583   3.782  14.620 -0.4021 -2.4480 -0.9397
  821MPD2     C12129   2.471   4.389  13.105  0.4825  0.0209 -0.2111
  821MPD2    C112130   2.561   4.368  13.206  0.3844  0.3224 -0.1609
  821MPD2    C212131   2.696   4.405  13.182  0.8650  0.0513  0.1471
  821MPD2    C312132   2.743   4.456  13.061  0.0194  0.4543  0.3043
  821MPD2    C412133   2.649   4.462  12.962 -0.3442  0.3666 -0.1501
  821MPD2    C512134   2.515   4.438  12.981  0.0843  0.0455 -0.1663
  821MPD2     H12135   2.767   4.380  13.260  0.2559 -0.5489  0.5073
  821MPD2    H112136   2.669   4.490  12.859  1.5331  3.2354  0.9877
  821MPD2    H212137   2.364   4.371  13.111  0.1336  2.0776 -0.5700
  821MPD2    H312138   2.450   4.451  12.895 -0.2681  0.5226  0.1731
  821MPD2     N12139   2.872   4.484  13.025 -0.0979 -0.5563 -0.7677
  821MPD2    H512140   2.891   4.488  12.925  0.4670 -1.2146 -0.6830
  821MPD2    N112141   2.532   4.307  13.330  0.1547  0.0165  0.4152
  821MPD2    H712142   2.615   4.290  13.385  0.2402 -0.1703  0.2301
  822MPD2     C12143   2.982   0.551  15.652 -0.9662  0.1452 -0.3536
  822MPD2    C112144   2.966   0.506  15.780 -0.3397  0.4319  0.0991
  822MPD2    C212145   2.942   0.604  15.881 -0.5317 -0.1442  0.5883
  822MPD2    C312146   2.933   0.736  15.861 -0.1261  0.6991 -0.1025
  822MPD2    C412147   2.939   0.780  15.729  0.3228  0.1843 -0.2342
  822MPD2    C512148   2.965   0.684  15.621 -0.2307 -0.2824 -0.2618
  822MPD2     H12149   2.940   0.566  15.983  2.4862  0.8340  1.0235
  822MPD2    H112150   2.920   0.883  15.701  0.2170 -0.7437 -3.5373
  822MPD2    H212151   3.014   0.480  15.577 -1.5964 -1.5744  1.0033
  822MPD2    H312152   2.975   0.730  15.523 -1.5327 -0.8664 -0.6618
  822MPD2     N12153   2.893   0.828  15.961 -0.0972 -0.2981 -0.2005
  822MPD2    H512154   2.877   0.797  16.057  0.2143  1.8686  0.5708
  822MPD2    N112155   2.996   0.375  15.821 -0.0452 -0.4771 -0.2142
  822MPD2    H712156   3.004   0.351  15.919  0.0168  0.1116 -0.0754
  823MPD2     C12157   2.634   0.950  16.743 -0.8430 -0.2766 -1.3707
  823MPD2    C112158   2.689   0.889  16.636 -0.2590 -0.4387 -0.0570
  823MPD2    C212159   2.729   0.754  16.642  0.4876  0.1147 -0.0167
  823MPD2    C312160   2.694   0.675  16.747 -0.2894 -0.1479 -0.7583
  823MPD2    C412161   2.637   0.740  16.857 -0.2161 -0.1312  0.0253
  823MPD2    C512162   2.609   0.875  16.851 -0.0819 -0.3774  0.1889
  823MPD2     H12163   2.787   0.715  16.559  2.3955  0.3139  1.2248
  823MPD2    H112164   2.616   0.694  16.952 -0.2128  1.8449  0.9765
  823MPD2    H212165   2.612   1.056  16.746  0.2294 -0.1070  0.5719
  823MPD2    H312166   2.580   0.921  16.945  2.1309  0.0312  0.6740
  823MPD2     N12167   2.735   0.534  16.755 -0.1740  0.2484  0.5464
  823MPD2    H512168   2.732   0.481  16.841 -0.4279 -2.2244 -0.9708
  823MPD2    N112169   2.735   0.963  16.530  0.6505  0.6612 -0.0482
  823MPD2    H712170   2.732   1.064  16.542  1.3334  0.4506  1.9575
  824MPD2     C12171   3.131   4.341  15.504  0.5631  0.2273 -0.5059
  824MPD2    C112172   3.219   4.397  15.592  0.2797 -0.2324 -0.2594
  824MPD2    C212173   3.349   4.347  15.591 -0.3014  0.5104  0.1738
  824MPD2    C312174   3.396   4.259  15.504  0.0372 -0.2983  0.4179
  824MPD2    C412175   3.310   4.208  15.411  0.0128 -0.0325 -0.0635
  824MPD2    C512176   3.182   4.250  15.412 -0.2779  0.1515  0.1617
  824MPD2     H12177   3.414   4.393  15.664  0.6882  0.9069 -0.9655
  824MPD2    H112178   3.341   4.145  15.328 -1.7027 -1.3290  0.2817
  824MPD2    H212179   3.033   4.384  15.493  1.7255  2.3782 -2.4350
  824MPD2    H312180   3.116   4.205  15.339 -0.4977 -0.5933  0.8093
  824MPD2     N12181   3.537   4.227  15.504  0.0489 -0.9160  0.4627
  824MPD2    H512182   3.598   4.272  15.572  0.0565 -1.5405  0.8646
  824MPD2    N112183   3.186   4.492  15.694  0.0094 -0.9053 -0.1512
  824MPD2    H712184   3.267   4.533  15.740 -0.0262 -0.3467 -0.5729
  825MPD2     C12185   4.262   4.420  15.667  0.0242 -0.4711 -0.1999
  825MPD2    C112186   4.176   4.466  15.569  0.1750 -0.7148 -0.9563
  825MPD2    C212187   4.160   4.603  15.549  0.1574 -1.0405 -0.0953
  825MPD2    C312188   4.238   4.698  15.608  0.7667 -0.4197  0.1895
  825MPD2    C412189   4.324   4.651  15.709 -0.2451 -0.6791  0.2696
  825MPD2    C512190   4.327   4.520  15.736  0.4459  0.2781 -0.6472
  825MPD2     H12191   4.094   4.638  15.471 -0.2391  0.1256  0.7515
  825MPD2    H112192   4.392   4.714  15.765  0.0032 -0.2477 -0.5174
  825MPD2    H212193   4.288   4.316  15.685 -0.2940 -0.8057 -1.6995
  825MPD2    H312194   4.394   4.482  15.812  0.3194  2.4214  0.5476
  825MPD2     N12195   4.242   0.094  15.570  0.1540 -0.3841 -0.5984
  825MPD2    H512196   4.292   0.152  15.637 -0.6605 -0.4161  0.0333
  825MPD2    N112197   4.105   4.372  15.498  0.0433 -0.6312  0.2172
  825MPD2    H712198   4.130   4.276  15.517  1.3408 -0.0146  1.6173
  826MPD2     C12199   4.106   3.853  13.769 -0.5046 -0.0613  0.0733
  826MPD2    C112200   4.203   3.943  13.747 -0.0645  0.0674  0.9271
  826MPD2    C212201   4.165   4.077  13.747 -0.2729 -0.1646 -0.4449
  826MPD2    C312202   4.030   4.117  13.760  0.6190  0.8009 -0.1416
  826MPD2    C412203   3.930   4.018  13.771 -0.5929  0.1672 -0.1359
  826MPD2    C512204   3.976   3.887  13.778  0.0606 -0.6871 -0.0969
  826MPD2     H12205   4.240   4.156  13.737  1.0947 -1.2853  1.0661
  826MPD2    H112206   3.826   4.045  13.785 -0.6859  0.5389 -1.5283
  826MPD2    H212207   4.114   3.745  13.774 -0.4526 -0.0581  0.0630
  826MPD2    H312208   3.898   3.812  13.778  0.5263 -1.1712 -0.4146
  826MPD2     N12209   3.990   4.258  13.759  0.0897 -0.1465  0.3073
  826MPD2    H512210   3.890   4.279  13.763  0.3417  1.0680 -0.0321
  826MPD2    N112211   4.340   3.901  13.727  0.0815  0.1028 -0.0284
  826MPD2    H712212   4.366   3.802  13.729  0.1798  0.1350  0.2583
  827MPD2     C12213   4.696   1.104   9.900 -0.2794  0.1348  0.7815
  827MPD2    C112214   0.009   0.993   9.950 -0.2974  0.0915  0.6807
  827MPD2    C212215   4.692   0.873   9.910 -0.2973 -0.6361  0.3689
  827MPD2    C312216   4.600   0.865   9.808  0.4913  0.5773  1.2741
  827MPD2    C412217   4.550   0.982   9.751 -0.1740 -0.2732  0.1210
  827MPD2    C512218   4.606   1.101   9.795 -0.3774 -0.0802 -0.6133
  827MPD2     H12219   4.725   0.778   9.950  0.9010  0.3274  1.6733
  827MPD2    H112220   4.486   0.987   9.664  0.6541  0.2610 -0.4563
  827MPD2    H212221   4.738   1.199   9.930  1.1440 -0.5115  0.8627
  827MPD2    H312222   4.566   1.197   9.762  1.3175  0.8407  0.0139
  827MPD2     N12223   4.565   0.740   9.761  0.1105 -0.0857 -0.3860
  827MPD2    H512224   4.620   0.664   9.802  0.4135 -0.1369 -0.8829
  827MPD2    N112225   0.105   1.008  10.051  0.1573 -0.1866  0.1371
  827MPD2    H712226   0.125   1.101  10.085  0.7644 -1.1950  2.5515
  828MPD2     C12227   3.280   4.680  12.134  0.4358 -0.1563 -0.0380
  828MPD2    C112228   3.232   0.055  12.080  0.4963 -0.2834 -0.5251
  828MPD2    C212229   3.264   0.084  11.951  0.2179  0.8444  0.5882
  828MPD2    C312230   3.334   4.727  11.881 -0.3125 -0.1342 -0.1236
  828MPD2    C412231   3.371   4.610  11.937 -0.4511 -0.2339 -0.4402
  828MPD2    C512232   3.336   4.585  12.063  0.1772  0.1886 -0.0000
  828MPD2     H12233   3.242   0.183  11.913 -1.0433  0.3746  0.0793
  828MPD2    H112234   3.426   4.536  11.879  2.1559  1.0313  0.4566
  828MPD2    H212235   3.259   4.647  12.236 -0.0453 -0.4288 -0.2246
  828MPD2    H312236   3.355   4.486  12.104 -1.1942  0.0308  0.2288
  828MPD2     N12237   3.388   0.018  11.752  0.2812 -1.0008  0.4246
  828MPD2    H512238   3.459   4.696  11.713  1.0533  0.6218 -0.7581
  828MPD2    N112239   3.170   0.151  12.166  0.3532  0.0182 -0.1366
  828MPD2    H712240   3.143   0.241  12.127 -1.2974 -0.7238 -0.7393
  829MPD2     C12241   2.775   0.737  11.784 -0.1460  0.3467  0.2589
  829MPD2    C112242   2.696   0.719  11.895  0.4180  0.3116  1.1484
  829MPD2    C212243   2.749   0.658  12.009  0.2731 -0.5526 -0.8464
  829MPD2    C312244   2.882   0.608  12.009  0.0999  1.0175 -0.9429
  829MPD2    C412245   2.956   0.625  11.896 -0.3549  0.1690  0.5227
  829MPD2    C512246   2.901   0.690  11.788  0.4379  0.5511 -0.1280
  829MPD2     H12247   2.686   0.642  12.095 -1.0059  2.9361 -1.1310
  829MPD2    H112248   3.061   0.600  11.893 -0.6086 -0.8457  0.1902
  829MPD2    H212249   2.747   0.788  11.693 -1.8436 -0.2574  0.4365
  829MPD2    H312250   2.959   0.704  11.697 -0.5229 -2.1674 -1.1493
  829MPD2     N12251   2.939   0.540  12.127 -0.0426 -0.3107  0.5389
  829MPD2    H512252   3.030   0.499  12.112  0.6460  0.5125  2.4304
  829MPD2    N112253   2.558   0.741  11.878 -0.3915  0.2254  0.0429
  829MPD2    H712254   2.533   0.740  11.779 -2.0046 -0.9753  0.4663
  830MPD2     C12255   3.221   3.359  15.392 -0.0290  0.3250  0.2182
  830MPD2    C112256   3.223   3.494  15.375  0.0793  0.1562  0.0149
  830MPD2    C212257   3.305   3.557  15.289  0.2702  0.0734 -0.0325
  830MPD2    C312258   3.366   3.475  15.193  0.2448 -0.2624 -1.8537
  830MPD2    C412259   3.351   3.338  15.197  0.1420  0.5117 -0.2698
  830MPD2    C512260   3.277   3.281  15.296 -0.3652  0.2735  1.0724
  830MPD2     H12261   3.303   3.665  15.296 -1.1790 -0.0196  1.1137
  830MPD2    H112262   3.393   3.275  15.119  1.4128  2.0498 -0.8050
  830MPD2    H212263   3.150   3.319  15.463 -0.3309  1.4975  0.5765
  830MPD2    H312264   3.267   3.174  15.313 -1.4661  0.7374  3.3868
  830MPD2     N12265   3.443   3.538  15.091 -0.3733 -0.1025  0.1002
  830MPD2    H512266   3.465   3.487  15.007 -1.3310 -0.5192  0.1107
  830MPD2    N112267   3.140   3.585  15.445  0.0169  0.1717 -0.4377
  830MPD2    H712268   3.146   3.683  15.418  1.9884  0.8792  2.6783
  831MPD2     C12269   3.175   0.825  16.246  0.1798  0.7172 -0.0107
  831MPD2    C112270   3.216   0.722  16.169  0.0626 -0.5012 -0.3739
  831MPD2    C212271   3.157   0.605  16.186  0.7553 -0.3465 -0.3151
  831MPD2    C312272   3.057   0.589  16.281  0.0743  0.2656  0.1521
  831MPD2    C412273   3.024   0.691  16.364 -0.0626 -0.1451 -0.1711
  831MPD2    C512274   3.082   0.807  16.344  0.3054  0.0903 -0.3538
  831MPD2     H12275   3.173   0.527  16.111 -4.2940 -0.7580 -0.9326
  831MPD2    H112276   2.943   0.685  16.436 -0.2577  0.3631 -0.3481
  831MPD2    H212277   3.218   0.924  16.242  1.7827  0.0032 -0.2781
  831MPD2    H312278   3.056   0.888  16.412 -0.7956 -2.1811  1.9596
  831MPD2     N12279   2.967   0.476  16.278  0.3143  0.6366  0.3739
  831MPD2    H512280   2.897   0.476  16.352  0.8235  1.4871  0.8503
  831MPD2    N112281   3.303   0.754  16.068  0.1235  0.4146 -0.2054
  831MPD2    H712282   3.308   0.854  16.052  2.5428  0.3508  0.1945
  832MPD2     C12283   1.570   1.618   0.158 -0.5815  0.0126  0.3772
  832MPD2    C112284   1.583   1.751   0.130 -0.0619  0.4057  0.3588
  832MPD2    C212285   1.519   1.795   0.016 -0.5969 -0.0958  0.4039
  832MPD2    C312286   1.447   1.705  17.695 -0.1622  0.6440  0.3651
  832MPD2    C412287   1.457   1.569  17.719 -0.1829 -0.1708  0.5963
  832MPD2    C512288   1.513   1.524   0.072  0.5178  0.5494  0.3844
  832MPD2     H12289   1.549   1.892  17.737  0.6820 -0.1809  1.2296
  832MPD2    H112290   1.393   1.507  17.658  1.7198 -0.4563 -1.1179
  832MPD2    H212291   1.610   1.564   0.243  1.6514  0.5355 -0.3417
  832MPD2    H312292   1.512   1.419   0.098 -1.9689 -0.0811 -2.3465
  832MPD2     N12293   1.380   1.743  17.573 -0.1909 -0.2281 -0.2798
  832MPD2    H512294   1.320   1.678  17.525  0.3527  0.0682 -1.3602
  832MPD2    N112295   1.650   1.824   0.232 -0.3481 -0.6701 -0.4938
  832MPD2    H712296   1.694   1.770   0.306 -0.0033 -0.0959 -0.2756
  833MPD2     C12297   3.620   2.728  13.075 -0.0088 -0.5206 -0.0503
  833MPD2    C112298   3.705   2.831  13.051 -0.4420 -0.3632  0.2774
  833MPD2    C212299   3.843   2.806  13.057 -0.6897  0.5069  0.7400
  833MPD2    C312300   3.897   2.680  13.103 -0.2396  0.2114 -0.2639
  833MPD2    C412301   3.803   2.589  13.140  0.3930  0.0998 -0.0315
  833MPD2    C512302   3.670   2.604  13.118  0.2090 -0.0104  0.3073
  833MPD2     H12303   3.910   2.884  13.024  2.0325 -0.9321  2.8936
  833MPD2    H112304   3.836   2.491  13.174 -0.2802  0.1247  0.6737
  833MPD2    H212305   3.514   2.742  13.056  0.5584  0.2592 -2.7008
  833MPD2    H312306   3.607   2.516  13.128 -0.6973  0.5600 -0.3546
  833MPD2     N12307   4.030   2.648  13.077  0.7321 -0.1629 -0.1628
  833MPD2    H512308   4.044   2.547  13.080  1.0614 -0.0483  2.0698
  833MPD2    N112309   3.652   2.946  12.984  0.1539 -0.4775  0.1769
  833MPD2    H712310   3.554   2.935  12.960 -0.0192  0.7986  0.2570
  834MPD2     C12311   3.938   2.250  12.228 -0.6292  0.7202 -0.6456
  834MPD2    C112312   4.058   2.310  12.198 -0.1427  0.0913  0.3333
  834MPD2    C212313   4.121   2.386  12.304  0.3087 -0.5129 -0.3175
  834MPD2    C312314   4.056   2.398  12.431  0.3911  0.1951  0.6680
  834MPD2    C412315   3.928   2.347  12.448 -0.7886  0.3411  0.0202
  834MPD2    C512316   3.872   2.270  12.350  0.0992  0.5155  0.1220
  834MPD2     H12317   4.217   2.432  12.284 -0.5715 -0.4535 -4.3423
  834MPD2    H112318   3.856   2.370  12.525 -0.9200 -1.5733  0.4690
  834MPD2    H212319   3.900   2.192  12.146 -2.2974 -0.3776  0.9076
  834MPD2    H312320   3.774   2.227  12.372 -0.2617  1.0398 -0.4671
  834MPD2     N12321   4.111   2.487  12.529 -0.5370 -0.1634  0.0864
  834MPD2    H512322   4.191   2.547  12.509 -1.2354  0.6890 -0.1533
  834MPD2    N112323   4.115   2.292  12.074  0.7042 -0.1687 -0.2883
  834MPD2    H712324   4.072   2.220  12.017 -1.6507  0.7656  0.3124
  835MPD2     C12325   4.297   0.992  10.706 -0.1032 -0.3411 -0.4382
  835MPD2    C112326   4.178   0.935  10.742  1.3554 -0.2231  0.7227
  835MPD2    C212327   4.172   0.844  10.848 -0.4252 -0.1265  0.5090
  835MPD2    C312328   4.294   0.818  10.912 -0.2820  0.2018  0.8022
  835MPD2    C412329   4.414   0.865  10.862 -0.7188  0.4232 -0.3363
  835MPD2    C512330   4.411   0.948  10.758 -0.3381  0.0956  0.1568
  835MPD2     H12331   4.077   0.800  10.875 -1.5342  2.9630  1.6494
  835MPD2    H112332   4.507   0.835  10.910  0.7350  2.4879 -1.8939
  835MPD2    H212333   4.286   1.073  10.635 -2.1925  1.6555  2.1468
  835MPD2    H312334   4.505   0.987  10.719  0.3511 -0.7077  1.0251
  835MPD2     N12335   4.298   0.730  11.022 -0.2345  0.3367 -0.5701
  835MPD2    H512336   4.378   0.733  11.085 -2.5756 -0.2178  2.4461
  835MPD2    N112337   4.054   0.971  10.675  0.6914  0.4158 -0.1491
  835MPD2    H712338   3.971   0.929  10.716  1.6834 -0.9565  0.4574
  836MPD2     C12339   3.658   0.491  11.403  0.2911 -0.8453  0.2321
  836MPD2    C112340   3.769   0.450  11.473 -0.6626  0.4874  0.4508
  836MPD2    C212341   3.755   0.410  11.606 -0.0658  0.0225  0.6016
  836MPD2    C312342   3.628   0.407  11.663  0.3441  0.8037  0.2488
  836MPD2    C412343   3.522   0.458  11.592  0.0176 -0.1813  0.4404
  836MPD2    C512344   3.533   0.480  11.457  0.1197  0.1025 -0.6291
  836MPD2     H12345   3.844   0.380  11.659  0.1622  0.6212  0.5536
  836MPD2    H112346   3.423   0.456  11.636 -0.0330 -1.3505  0.2555
  836MPD2    H212347   3.671   0.509  11.297 -0.2185 -1.3474  0.0849
  836MPD2    H312348   3.447   0.514  11.400  1.3897  0.1777 -2.4739
  836MPD2     N12349   3.602   0.380  11.801 -0.0575  0.4130  0.3679
  836MPD2    H512350   3.509   0.400  11.838 -0.6996 -0.7202 -0.6061
  836MPD2    N112351   3.891   0.463  11.410  0.1814  0.7186 -0.4191
  836MPD2    H712352   3.886   0.512  11.322 -1.8840  1.5316  0.1468
  837MPD2     C12353   2.247   4.629   9.888 -0.2078  0.2892  0.6870
  837MPD2    C112354   2.171   4.722   9.811 -0.8052 -0.0248  0.4414
  837MPD2    C212355   2.201   0.113   9.819  0.4213 -1.0315  0.7208
  837MPD2    C312356   2.286   0.158   9.915 -0.0592 -0.3342  1.0048
  837MPD2    C412357   2.358   0.067   9.993  0.1170  0.4369 -0.8597
  837MPD2    C512358   2.337   4.673   9.979 -0.4976 -0.7846  0.5028
  837MPD2     H12359   2.148   0.186   9.759  2.2747 -0.1999  0.0865
  837MPD2    H112360   2.409   0.095  10.085  1.9078 -0.8910 -1.4280
  837MPD2    H212361   2.224   4.523   9.890 -2.3758  0.7703  1.0739
  837MPD2    H312362   2.381   4.610  10.055 -1.0324 -1.6378  0.0971
  837MPD2     N12363   2.290   0.295   9.927 -0.1306  0.2302  0.0530
  837MPD2    H512364   2.214   0.342   9.880 -1.2429 -0.4437  1.1842
  837MPD2    N112365   2.063   4.692   9.730 -0.1635  0.7639  0.0329
  837MPD2    H712366   2.019   0.029   9.680 -0.5325  0.6799  0.2300
  838MPD2     C12367   1.108   3.846  11.955  0.2591 -0.1929  0.2791
  838MPD2    C112368   1.077   3.716  11.932 -0.0220 -0.0075 -0.3194
  838MPD2    C212369   1.002   3.652  12.021 -0.1108 -0.1223  0.0825
  838MPD2    C312370   0.937   3.710  12.126 -0.6378  0.5072 -0.3313
  838MPD2    C412371   0.961   3.836  12.146 -0.3089  0.3246  0.0638
  838MPD2    C512372   1.057   3.900  12.068 -0.3587 -0.0804  0.0769
  838MPD2     H12373   0.978   3.549  11.997 -1.9265  0.7055 -1.6851
  838MPD2    H112374   0.911   3.897  12.220  3.0119  1.9114  0.9968
  838MPD2    H212375   1.180   3.901  11.896  2.8574 -1.8743  1.8948
  838MPD2    H312376   1.074   4.007  12.081 -0.4141  0.1453 -1.7334
  838MPD2     N12377   0.847   3.635  12.202  1.1753  0.2451 -0.8111
  838MPD2    H512378   0.848   3.534  12.192  4.6978  0.0322  1.5749
  838MPD2    N112379   1.125   3.641  11.827 -0.3366  0.4682 -0.8342
  838MPD2    H712380   1.079   3.551  11.818 -1.0805  0.9464 -1.7865
  839MPD2     C12381   0.917   2.908  11.901 -0.1959  0.1281  1.1883
  839MPD2    C112382   0.919   2.897  11.767 -0.9877  0.3821  0.5501
  839MPD2    C212383   0.971   2.999  11.688  0.3637 -0.5153  0.0802
  839MPD2    C312384   1.012   3.118  11.749  0.2434  0.1791  0.1904
  839MPD2    C412385   0.996   3.134  11.887 -0.0335  0.4601 -0.0181
  839MPD2    C512386   0.949   3.025  11.960  0.4763  0.4128  0.6446
  839MPD2     H12387   0.972   2.981  11.581 -0.4722  0.2884 -0.0668
  839MPD2    H112388   1.033   3.217  11.946 -0.3718  2.4003 -2.5647
  839MPD2    H212389   0.873   2.832  11.965 -0.7888 -0.2081  0.3781
  839MPD2    H312390   0.925   3.031  12.065  0.5510  0.4567  0.6590
  839MPD2     N12391   1.075   3.226  11.684 -0.1135  0.1578 -0.6662
  839MPD2    H512392   1.105   3.301  11.745 -0.1309  0.2712 -0.7961
  839MPD2    N112393   0.880   2.778  11.700  0.1285 -0.0114  0.2576
  839MPD2    H712394   0.882   2.775  11.599 -0.7648 -1.5731  0.2908
  840MPD2     C12395   0.788   1.137  10.188 -0.2877 -0.2591 -0.0129
  840MPD2    C112396   0.754   1.033  10.272 -0.1202 -0.7907  0.1535
  840MPD2    C212397   0.856   0.985  10.362  0.6892 -0.7910  0.0666
  840MPD2    C312398   0.985   1.033  10.346 -0.6881  0.3620  0.0808
  840MPD2    C412399   1.013   1.139  10.259  0.0376  0.0615 -0.0817
  840MPD2    C512400   0.921   1.187  10.177  0.0063  0.2441 -0.2638
  840MPD2     H12401   0.830   0.917  10.442 -2.0987  1.7264  1.2883
  840MPD2    H112402   1.112   1.181  10.247 -1.1738  3.0637  0.3267
  840MPD2    H212403   0.726   1.169  10.105  0.3511  0.2358 -0.2977
  840MPD2    H312404   0.951   1.261  10.104  0.6878 -0.3994 -0.6309
  840MPD2     N12405   1.101   0.981  10.418 -0.2435 -0.1206  0.1379
  840MPD2    H512406   1.190   1.029  10.406 -0.2659  0.3815  2.0517
  840MPD2    N112407   0.619   0.992  10.275  0.0990  0.2590 -0.0157
  840MPD2    H712408   0.548   1.037  10.219  0.2025  0.2357 -0.1668
  841MPD2     C12409   0.760   0.032  14.976 -0.3272 -0.9847 -0.0057
  841MPD2    C112410   0.729   0.162  14.929 -0.2476  0.3951  0.1261
  841MPD2    C212411   0.793   0.269  14.997 -0.6448  0.5065 -0.0875
  841MPD2    C312412   0.876   0.251  15.108  0.4443 -0.2361  0.3339
  841MPD2    C412413   0.894   0.125  15.152  0.2954 -0.5370  0.0086
  841MPD2    C512414   0.833   0.020  15.092  0.1302 -0.1728  0.0025
  841MPD2     H12415   0.772   0.368  14.960 -0.0481 -0.2019 -2.3225
  841MPD2    H112416   0.958   0.099  15.235  2.2687 -0.5428 -1.5304
  841MPD2    H212417   0.711   4.682  14.941  0.4508 -1.6880  0.7145
  841MPD2    H312418   0.848   4.661  15.134  2.9211 -0.3327 -1.3737
  841MPD2     N12419   0.919   0.362  15.175  1.1406 -0.1399  0.6142
  841MPD2    H512420   0.916   0.449  15.122 -0.8783 -0.7280 -0.2674
  841MPD2    N112421   0.648   0.195  14.816  0.0576  0.0236 -0.4716
  841MPD2    H712422   0.649   0.293  14.790  0.3503  0.0636 -0.3028
  842MPD2     C12423   0.801   1.960  17.149  0.3430  0.1400  1.1321
  842MPD2    C112424   0.697   1.870  17.150  0.1491  0.5150  1.1463
  842MPD2    C212425   0.635   1.842  17.266 -0.6327 -0.4363  0.1103
  842MPD2    C312426   0.674   1.903  17.386  0.5388  0.0025 -0.2332
  842MPD2    C412427   0.779   1.987  17.378  0.2383  0.6346 -0.1297
  842MPD2    C512428   0.845   2.017  17.262  0.0025 -0.1273 -0.0171
  842MPD2     H12429   0.548   1.778  17.261 -0.2541 -0.7343 -2.6657
  842MPD2    H112430   0.811   2.026  17.474  0.6460 -0.3211  0.1142
  842MPD2    H212431   0.843   2.001  17.058 -1.3806  0.6171  0.5475
  842MPD2    H312432   0.929   2.085  17.257  0.0434 -0.2206 -0.5581
  842MPD2     N12433   0.587   1.908  17.494  0.3039 -0.0815 -0.3908
  842MPD2    H512434   0.617   1.967  17.571  3.5742 -3.3188  0.8584
  842MPD2    N112435   0.651   1.818  17.021 -0.1861  0.5694 -0.1018
  842MPD2    H712436   0.714   1.841  16.945 -0.7471  1.5128 -0.2799
  843MPD2     C12437   2.963   3.412  17.261 -0.4026  0.5423 -0.2336
  843MPD2    C112438   2.922   3.388  17.396  0.3197 -0.2816 -0.0215
  843MPD2    C212439   3.014   3.423  17.496 -0.1524 -0.1219  0.5106
  843MPD2    C312440   3.131   3.491  17.466 -0.0711 -0.3472 -0.5114
  843MPD2    C412441   3.168   3.506  17.334 -0.1695 -0.5798 -0.0041
  843MPD2    C512442   3.083   3.473  17.235  0.0976  0.3839 -0.0332
  843MPD2     H12443   2.988   3.408  17.600  0.0879  0.1601  0.6108
  843MPD2    H112444   3.258   3.555  17.297  0.5194 -2.7651 -1.2176
  843MPD2    H212445   2.904   3.385  17.174  0.8348 -0.4529 -0.7681
  843MPD2    H312446   3.115   3.486  17.133  0.6447 -1.0176 -0.0371
  843MPD2     N12447   3.219   3.538  17.559 -0.2811 -0.4594  0.3678
  843MPD2    H512448   3.306   3.580  17.527 -0.4419 -0.6753 -0.3418
  843MPD2    N112449   2.818   3.291  17.428  0.6326  0.3602  0.1451
  843MPD2    H712450   2.778   3.233  17.355  1.2298 -1.2912  1.1177
  844MPD2     C12451   1.584   1.528  17.289 -1.0978  0.1170  0.2520
  844MPD2    C112452   1.579   1.645  17.215 -0.0476 -0.1144 -0.2460
  844MPD2    C212453   1.631   1.761  17.262 -0.6486  0.0434  1.0476
  844MPD2    C312454   1.688   1.761  17.394  0.1931  0.3823  0.1644
  844MPD2    C412455   1.693   1.647  17.463  0.3530  0.6772 -0.4550
  844MPD2    C512456   1.642   1.529  17.411 -0.1494 -0.0924  0.8666
  844MPD2     H12457   1.626   1.853  17.205 -0.0922  0.7844  2.1962
  844MPD2    H112458   1.739   1.639  17.561 -1.3557  0.6783  0.3497
  844MPD2    H212459   1.538   1.439  17.250 -1.2613  1.4320 -2.5714
  844MPD2    H312460   1.627   1.441  17.473 -1.7300 -0.3214  0.1490
  844MPD2     N12461   1.729   1.877  17.452  1.0409  0.3133  0.3341
  844MPD2    H512462   1.717   1.963  17.398 -1.6512  0.2841  0.8903
  844MPD2    N112463   1.521   1.644  17.082 -0.1730  0.6013  0.8497
  844MPD2    H712464   1.487   1.733  17.046 -2.2666 -1.0029 -1.1792
  845MPD2     C12465   1.273   2.645  17.520 -0.0315  0.5582  1.0140
  845MPD2    C112466   1.243   2.517  17.561  1.0676  0.2937 -0.9224
  845MPD2    C212467   1.332   2.414  17.552  0.4004  0.1670 -0.3413
  845MPD2    C312468   1.468   2.449  17.519  0.3154 -0.6309  0.1402
  845MPD2    C412469   1.496   2.576  17.479  0.0856  0.7788  0.6963
  845MPD2    C512470   1.397   2.673  17.474 -0.4319 -0.3614 -0.5041
  845MPD2     H12471   1.312   2.314  17.588 -0.0973 -0.4447 -2.3037
  845MPD2    H112472   1.600   2.597  17.456 -0.1218  1.6236  0.5174
  845MPD2    H212473   1.192   2.717  17.512  0.8539  1.3964 -0.3770
  845MPD2    H312474   1.428   2.762  17.421  0.5370  0.2911  1.1552
  845MPD2     N12475   1.568   2.356  17.543 -0.2659  0.6034  0.1717
  845MPD2    H512476   1.538   2.272  17.591  0.8594 -0.7141 -1.4107
  845MPD2    N112477   1.107   2.491  17.598 -0.3029  0.1558  0.5747
  845MPD2    H712478   1.045   2.571  17.600 -0.1427  0.2688  1.3165
  846MPD2     C12479   2.459   2.389  13.353 -0.1299  0.3693 -0.1747
  846MPD2    C112480   2.579   2.437  13.398  0.6173  0.1266 -0.1104
  846MPD2    C212481   2.582   2.502  13.525 -0.0854 -0.5885  0.0455
  846MPD2    C312482   2.469   2.525  13.604 -0.2835 -0.0023  0.2089
  846MPD2    C412483   2.349   2.472  13.553 -0.5832  0.5026  0.5477
  846MPD2    C512484   2.346   2.414  13.428  0.4563  0.1830 -0.6536
  846MPD2     H12485   2.671   2.542  13.573 -0.5462  0.0269  0.3819
  846MPD2    H112486   2.260   2.478  13.615 -0.8118 -0.2509  0.2890
  846MPD2    H212487   2.438   2.336  13.261  2.6634  0.8353 -1.0649
  846MPD2    H312488   2.249   2.386  13.389  0.3221  0.2294 -0.3520
  846MPD2     N12489   2.462   2.583  13.734  0.6017  0.6378 -0.3005
  846MPD2    H512490   2.369   2.598  13.771  0.3888  0.0693 -0.6075
  846MPD2    N112491   2.701   2.412  13.332 -0.1131  0.5647 -0.3572
  846MPD2    H712492   2.786   2.435  13.381  0.5624 -4.6293  0.9538
  847MPD2     C12493   3.127   3.033  14.286  0.2025  0.2711 -0.6739
  847MPD2    C112494   3.204   3.140  14.238 -0.6765  0.8643  0.2896
  847MPD2    C212495   3.326   3.157  14.289 -0.2098 -0.2605  0.4790
  847MPD2    C312496   3.380   3.078  14.390 -0.3567  0.3361  0.5777
  847MPD2    C412497   3.305   2.968  14.436 -0.1727  0.0426  0.1430
  847MPD2    C512498   3.178   2.947  14.378 -0.7719  0.3153 -0.0975
  847MPD2     H12499   3.383   3.238  14.245 -1.4742  0.0458 -0.5861
  847MPD2    H112500   3.350   2.884  14.489 -1.5017 -0.8604 -0.1440
  847MPD2    H212501   3.027   3.005  14.256 -0.7448  1.3655  1.5089
  847MPD2    H312502   3.105   2.871  14.407 -0.4208 -0.2381 -0.6619
  847MPD2     N12503   3.517   3.093  14.434  0.2043 -0.4417 -0.2700
  847MPD2    H512504   3.551   3.017  14.492 -0.7622 -0.6644 -0.0056
  847MPD2    N112505   3.161   3.230  14.139  0.2833  0.1189  0.5473
  847MPD2    H712506   3.227   3.302  14.112  0.8700 -0.6798 -0.1319
  848MPD2     C12507   1.457   2.102  16.796 -0.3741  0.6694  0.2470
  848MPD2    C112508   1.327   2.110  16.843  0.0709 -0.5692  0.0059
  848MPD2    C212509   1.250   2.204  16.789  0.2921 -0.6895  0.2096
  848MPD2    C312510   1.294   2.294  16.692  0.5506 -0.0826 -0.1603
  848MPD2    C412511   1.420   2.282  16.637 -0.4076 -0.2863  0.0265
  848MPD2    C512512   1.497   2.174  16.685 -0.3390  0.7110  0.7299
  848MPD2     H12513   1.149   2.219  16.824 -0.2330  0.1598 -1.6405
  848MPD2    H112514   1.464   2.343  16.559 -0.3485 -1.2996 -0.7348
  848MPD2    H212515   1.522   2.017  16.813 -2.1250 -0.5432  0.9180
  848MPD2    H312516   1.598   2.154  16.650 -0.1488  0.0260  1.6732
  848MPD2     N12517   1.199   2.394  16.660 -0.6552 -0.1837 -0.2877
  848MPD2    H512518   1.111   2.380  16.709 -0.1829 -0.7711  0.3838
  848MPD2    N112519   1.278   2.035  16.953 -0.3373 -0.2850  0.0909
  848MPD2    H712520   1.183   2.061  16.976 -0.2964  1.2961 -1.5597
  849MPD2     C12521   0.538   1.245  14.746 -0.0998  0.6930  0.5054
  849MPD2    C112522   0.604   1.173  14.650 -0.5140 -0.1803 -0.4411
  849MPD2    C212523   0.736   1.135  14.672 -0.4641  0.0339 -0.5006
  849MPD2    C312524   0.801   1.154  14.796 -0.0307  0.2313 -0.0787
  849MPD2    C412525   0.734   1.230  14.890 -0.6380 -0.8694  0.0990
  849MPD2    C512526   0.601   1.270  14.865  0.6225  0.2285 -0.4496
  849MPD2     H12527   0.789   1.078  14.597 -1.4702 -0.7414 -0.6256
  849MPD2    H112528   0.786   1.251  14.982 -0.5455  1.2448 -0.4336
  849MPD2    H212529   0.435   1.277  14.737 -0.0841  0.3383 -0.9095
  849MPD2    H312530   0.558   1.342  14.933 -1.7774  1.9182 -3.7320
  849MPD2     N12531   0.940   1.124  14.819 -0.3545 -0.6340  0.0856
  849MPD2    H512532   0.983   1.152  14.907  2.8290 -1.7939 -1.1056
  849MPD2    N112533   0.550   1.143  14.527 -0.3796 -0.3593  0.4695
  849MPD2    H712534   0.618   1.101  14.465  0.6926  1.6367  0.2995
  850MPD2     C12535   3.032   4.453  14.524  0.8640 -0.1161  0.4033
  850MPD2    C112536   3.010   4.553  14.621 -0.4465 -0.3576  0.7194
  850MPD2    C212537   3.120   4.608  14.686  0.2187 -0.2921 -0.1378
  850MPD2    C312538   3.245   4.568  14.658 -0.0884  0.4457  0.4167
  850MPD2    C412539   3.264   4.470  14.567  0.4142 -0.4672 -1.0871
  850MPD2    C512540   3.162   4.402  14.507 -0.0378  0.1025 -0.4177
  850MPD2     H12541   3.102   4.696  14.747 -0.7354 -0.1871 -0.5660
  850MPD2    H112542   3.364   4.429  14.556 -0.4830 -3.8475  3.4204
  850MPD2    H212543   2.952   4.397  14.476 -0.9691  1.3032  1.7727
  850MPD2    H312544   3.185   4.317  14.444 -0.0753 -1.6479  1.9216
  850MPD2     N12545   3.353   4.612  14.729  0.0840  0.7367 -0.4298
  850MPD2    H512546   3.438   4.565  14.701 -2.1455 -2.8464 -1.1936
  850MPD2    N112547   2.877   4.593  14.633  0.0424  0.1401 -0.0631
  850MPD2    H712548   2.819   4.564  14.555 -1.4055  2.6640  0.0533
  851MPD2     C12549   3.453   4.486  15.190  0.1757  0.2849  0.0775
  851MPD2    C112550   3.356   4.431  15.108 -0.3622  0.3749  0.6456
  851MPD2    C212551   3.391   4.313  15.038 -0.1562 -0.1481 -0.0770
  851MPD2    C312552   3.512   4.250  15.059  0.4471 -0.0292 -0.5188
  851MPD2    C412553   3.610   4.307  15.135  0.0404 -0.0095 -0.4405
  851MPD2    C512554   3.577   4.427  15.197  0.5297  0.0487  0.2257
  851MPD2     H12555   3.328   4.268  14.962  2.1791 -0.3622 -1.8401
  851MPD2    H112556   3.711   4.270  15.139  0.0017 -0.2282 -1.4830
  851MPD2    H212557   3.436   4.578  15.243  1.0550  0.4501  0.0827
  851MPD2    H312558   3.648   4.470  15.267  2.3589 -0.2277 -1.4489
  851MPD2     N12559   3.552   4.139  14.974  0.6026  0.4558 -0.4810
  851MPD2    H512560   3.476   4.105  14.917 -0.4950  0.3742  1.0076
  851MPD2    N112561   3.230   4.491  15.101  0.3633  0.1093  0.1327
  851MPD2    H712562   3.221   4.578  15.152 -0.7602  0.1273 -0.0887
  852MPD2     C12563   3.171   1.587  10.374  0.1634  0.2677 -0.3995
  852MPD2    C112564   3.244   1.660  10.462  0.1131  0.7652 -0.7810
  852MPD2    C212565   3.275   1.796  10.437 -0.1536  0.0013  1.1965
  852MPD2    C312566   3.213   1.864  10.338  0.1625 -0.1995  0.4947
  852MPD2    C412567   3.121   1.792  10.262 -0.1550 -0.1318  0.0533
  852MPD2    C512568   3.101   1.657  10.276 -0.0825 -0.3700 -0.6015
  852MPD2     H12569   3.342   1.850  10.504  0.5747 -1.6551  1.8054
  852MPD2    H112570   3.079   1.840  10.175 -0.2987  1.7072  1.1247
  852MPD2    H212571   3.154   1.481  10.387  0.8405  0.0748 -1.1108
  852MPD2    H312572   3.038   1.605  10.205 -1.4264  1.8524 -1.0189
  852MPD2     N12573   3.223   2.007  10.327 -0.6913 -0.1316 -0.1853
  852MPD2    H512574   3.295   2.051  10.383 -0.3507 -1.3048  0.3037
  852MPD2    N112575   3.302   1.611  10.576 -0.4411  0.4565 -0.1678
  852MPD2    H712576   3.335   1.680  10.643 -0.1955 -1.5689  1.7964
  853MPD2     C12577   0.731   1.591  12.727 -0.2002 -0.3252  0.4788
  853MPD2    C112578   0.641   1.679  12.667  0.5053  0.3980 -0.2495
  853MPD2    C212579   0.612   1.648  12.532 -0.9330 -0.8445 -0.2667
  853MPD2    C312580   0.670   1.546  12.461  0.1352  0.7083 -0.8691
  853MPD2    C412581   0.764   1.468  12.518 -0.4388  0.5289  0.1794
  853MPD2    C512582   0.794   1.492  12.651  0.3121  0.0466  0.4038
  853MPD2     H12583   0.541   1.718  12.488  0.2435  1.4944  1.5549
  853MPD2    H112584   0.811   1.386  12.465 -0.3158  1.9967 -2.0226
  853MPD2    H212585   0.767   1.603  12.829  1.1565 -1.6033  0.1470
  853MPD2    H312586   0.885   1.447  12.689  1.3301  0.7649 -1.1958
  853MPD2     N12587   0.632   1.519  12.330  0.3044  0.3783 -0.6794
  853MPD2    H512588   0.674   1.434  12.295 -0.3316  0.4461 -1.5953
  853MPD2    N112589   0.587   1.796  12.734 -0.3490 -0.2133 -0.3869
  853MPD2    H712590   0.596   1.808  12.834 -0.3762  1.7346 -0.6197
  854MPD2     C12591   2.255   1.157  12.315 -0.1196  0.3063  0.4205
  854MPD2    C112592   2.239   1.213  12.437  0.3882  0.2436  0.0474
  854MPD2    C212593   2.305   1.162  12.548 -0.7644 -0.1788 -0.8706
  854MPD2    C312594   2.385   1.050  12.533  0.3926  0.7040  0.0469
  854MPD2    C412595   2.394   1.002  12.407 -0.4022  0.9857 -0.4882
  854MPD2    C512596   2.341   1.057  12.298 -0.0964 -0.3219 -0.7768
  854MPD2     H12597   2.306   1.219  12.640 -0.4157  2.6933 -2.6475
  854MPD2    H112598   2.455   0.913  12.399 -0.6907  0.5447  2.4039
  854MPD2    H212599   2.205   1.203  12.231  0.4951  1.8980  0.9300
  854MPD2    H312600   2.355   1.012  12.200  0.9914  1.1204 -1.2836
  854MPD2     N12601   2.460   0.985  12.631 -0.5523  0.1560 -0.1284
  854MPD2    H512602   2.529   0.915  12.605 -0.4310  0.3473 -0.3194
  854MPD2    N112603   2.162   1.335  12.448 -0.2038 -0.0480  0.3029
  854MPD2    H712604   2.113   1.376  12.370  0.3588  0.7012  0.3450
  855MPD2     C12605   2.848   1.372  13.489 -0.8990 -0.5687  0.2412
  855MPD2    C112606   2.740   1.288  13.510 -0.0155 -0.3366 -0.3256
  855MPD2    C212607   2.704   1.195  13.414 -0.8414 -0.0722 -0.9784
  855MPD2    C312608   2.790   1.184  13.302 -0.3476  0.2574 -0.4591
  855MPD2    C412609   2.901   1.267  13.287  0.6362 -0.4901 -0.2403
  855MPD2    C512610   2.933   1.357  13.382 -0.3360  0.4557 -0.6178
  855MPD2     H12611   2.612   1.142  13.435  1.2629 -3.3466 -0.0070
  855MPD2    H112612   2.965   1.275  13.200  2.7386 -0.1046  1.3502
  855MPD2    H212613   2.874   1.444  13.566 -3.3619 -0.9167  1.3950
  855MPD2    H312614   3.025   1.415  13.374  1.2896 -1.9826  0.7013
  855MPD2     N12615   2.756   1.100  13.196  0.4444  0.9266 -0.1963
  855MPD2    H512616   2.798   1.114  13.105  1.0120 -1.0868 -0.2416
  855MPD2    N112617   2.669   1.289  13.629 -0.0213 -1.0468  0.5754
  855MPD2    H712618   2.593   1.225  13.649  1.8010 -3.0205  1.1723
  856MPD2     C12619   4.326   1.940  14.102  0.2016  0.2361 -0.5394
  856MPD2    C112620   4.310   2.078  14.132  0.3888 -0.3080 -0.7574
  856MPD2    C212621   4.184   2.135  14.105 -0.9097  0.9497  0.3266
  856MPD2    C312622   4.079   2.068  14.042  0.2169  0.1371  0.2364
  856MPD2    C412623   4.104   1.933  14.005 -0.0019  0.2884 -0.1947
  856MPD2    C512624   4.217   1.876  14.040  0.7929  0.1629  1.3942
  856MPD2     H12625   4.167   2.242  14.117  2.4645  1.5084  0.2103
  856MPD2    H112626   4.034   1.871  13.950 -0.7003  1.5777 -0.7515
  856MPD2    H212627   4.414   1.879  14.123 -1.1914 -0.7326  2.4600
  856MPD2    H312628   4.240   1.773  14.015 -3.0924 -0.2656 -0.3173
  856MPD2     N12629   3.962   2.134  14.002  0.0633 -0.5875  0.1625
  856MPD2    H512630   3.905   2.092  13.929  0.5254  2.0919 -1.7974
  856MPD2    N112631   4.409   2.174  14.162  0.5151 -0.3138  0.0033
  856MPD2    H712632   4.384   2.272  14.169 -1.1392 -0.7472  0.1786
  857MPD2     C12633   0.744   4.734  13.057  1.4426 -0.0040 -0.0253
  857MPD2    C112634   0.876   4.705  13.088  0.0339  0.5218 -0.7653
  857MPD2    C212635   0.951   0.040  13.174 -0.6817  0.5286 -0.1770
  857MPD2    C312636   0.898   0.144  13.239 -0.4650 -0.8532 -0.7211
  857MPD2    C412637   0.768   0.174  13.213  1.2928  0.3449  1.0028
  857MPD2    C512638   0.691   0.106  13.121 -0.0120  0.1011  0.1146
  857MPD2     H12639   1.058   0.027  13.184 -0.2507  1.4590 -3.5621
  857MPD2    H112640   0.715   0.250  13.269  0.6948  1.2444 -0.7806
  857MPD2    H212641   0.694   4.682  12.976  2.8614  1.0191 -1.5507
  857MPD2    H312642   0.595   0.148  13.093 -1.0582 -2.9423 -0.8290
  857MPD2     N12643   0.986   0.233  13.305 -0.7014 -0.3620 -0.7391
  857MPD2    H512644   1.085   0.216  13.318 -1.3145 -1.2481  2.7444
  857MPD2    N112645   0.937   4.609  13.006 -0.1029  0.2953 -0.1080
  857MPD2    H712646   0.881   4.558  12.939 -1.3557  2.8280 -1.0086
  858MPD2     C12647   2.059   4.418  16.220  0.2398  0.1449  0.0563
  858MPD2    C112648   2.022   4.292  16.258 -0.0589 -0.2205  0.0073
  858MPD2    C212649   1.989   4.269  16.392 -0.3387 -0.8269 -0.9343
  858MPD2    C312650   1.996   4.371  16.488 -0.2202  0.2668  0.3094
  858MPD2    C412651   2.048   4.497  16.443 -0.0594 -0.3231  0.2496
  858MPD2    C512652   2.064   4.516  16.309 -0.4463 -0.5924 -0.3060
  858MPD2     H12653   1.968   4.168  16.425  3.9602 -0.7068  2.0769
  858MPD2    H112654   2.067   4.581  16.508 -0.1499 -0.8685  0.9790
  858MPD2    H212655   2.078   4.438  16.115  0.4679  0.8063  0.2249
  858MPD2    H312656   2.101   4.615  16.283 -2.2637  0.1526 -0.0293
  858MPD2     N12657   1.968   4.356  16.628  0.3471 -0.0072 -0.6749
  858MPD2    H512658   1.970   4.441  16.683  1.5193  0.0786 -0.8498
  858MPD2    N112659   2.002   4.196  16.159 -0.4042 -0.1141 -0.0737
  858MPD2    H712660   2.038   4.228  16.069 -0.3860 -1.8517 -0.6851
  859MPD2     C12661   0.294   1.772  15.716 -0.3923 -0.3860  0.0071
  859MPD2    C112662   0.363   1.659  15.672  0.3698 -0.0572  0.0023
  859MPD2    C212663   0.382   1.557  15.768 -0.1921 -0.7361 -0.1906
  859MPD2    C312664   0.337   1.569  15.898 -0.6385 -0.0214 -0.2900
  859MPD2    C412665   0.285   1.691  15.944  0.0053 -0.1601 -0.0288
  859MPD2    C512666   0.251   1.785  15.850  0.4505  0.2963 -0.1189
  859MPD2     H12667   0.440   1.470  15.739 -0.5474 -1.3205  0.8280
  859MPD2    H112668   0.265   1.707  16.049 -2.1430 -1.9954 -0.1544
  859MPD2    H212669   0.266   1.855  15.652 -0.3840  1.1124  1.9241
  859MPD2    H312670   0.203   1.875  15.886 -0.8710 -0.1505 -0.7732
  859MPD2     N12671   0.361   1.465  16.001  0.1009 -0.1126 -0.3134
  859MPD2    H512672   0.330   1.482  16.096 -4.2504 -0.8182 -1.5931
  859MPD2    N112673   0.408   1.647  15.538  0.5733  0.1388  0.1429
  859MPD2    H712674   0.413   1.736  15.488  0.9662  0.4289  0.7044
  860MPD2     C12675   3.596   1.212  11.550  0.5153  0.6108  0.2095
  860MPD2    C112676   3.585   1.193  11.682 -0.2332  0.2833  0.0634
  860MPD2    C212677   3.473   1.146  11.737  0.1720 -0.4312  0.7148
  860MPD2    C312678   3.364   1.113  11.662 -0.2215  0.1080 -0.2447
  860MPD2    C412679   3.363   1.153  11.527  0.4521 -0.4788 -0.1316
  860MPD2    C512680   3.480   1.209  11.477 -0.0280 -0.3256  0.6087
  860MPD2     H12681   3.473   1.121  11.843 -0.9992  2.3146  1.3563
  860MPD2    H112682   3.282   1.137  11.456 -0.0105  3.6709 -0.5715
  860MPD2    H212683   3.683   1.253  11.500 -0.2268  0.3123 -1.3442
  860MPD2    H312684   3.485   1.251  11.377  0.8873  0.0760  0.8224
  860MPD2     N12685   3.245   1.067  11.723  0.0215  0.2252 -0.0288
  860MPD2    H512686   3.254   1.062  11.824 -0.7523 -0.8343 -0.0238
  860MPD2    N112687   3.689   1.201  11.767 -0.7300  0.2462 -0.1377
  860MPD2    H712688   3.655   1.209  11.863 -0.5028 -1.9224  0.1363
  861MPD2     C12689   1.928   4.492  10.528 -0.1669 -0.1182 -0.3681
  861MPD2    C112690   1.832   4.476  10.629 -0.4030 -0.6281 -0.4679
  861MPD2    C212691   1.699   4.510  10.602 -0.2251  0.0566  0.4227
  861MPD2    C312692   1.663   4.570  10.483  0.0108  0.2947 -0.0987
  861MPD2    C412693   1.768   4.597  10.396  0.4841  0.6204 -0.3697
  861MPD2    C512694   1.896   4.560  10.417  0.1392  0.6392  0.8474
  861MPD2     H12695   1.631   4.480  10.681 -2.2846 -0.6053 -1.6140
  861MPD2    H112696   1.752   4.643  10.299  0.1207 -0.9637 -1.0702
  861MPD2    H212697   2.032   4.462  10.530 -0.5736 -1.3156  3.2205
  861MPD2    H312698   1.965   4.569  10.334 -0.3672  0.1874  0.3706
  861MPD2     N12699   1.537   4.622  10.446 -0.4181 -0.4587 -1.0553
  861MPD2    H512700   1.526   4.663  10.354 -0.9093  0.5078 -0.5710
  861MPD2    N112701   1.865   4.415  10.751  0.2051 -0.1188 -0.4135
  861MPD2    H712702   1.787   4.374  10.801  1.3508 -0.5400  1.0338
  862MPD2     C12703   0.896   0.030  10.107  0.1471  0.2225 -0.0611
  862MPD2    C112704   1.035   0.040  10.131  0.0333 -1.2012  0.0264
  862MPD2    C212705   1.111   4.663  10.147  0.1860 -0.2749 -1.0797
  862MPD2    C312706   1.044   4.541  10.144 -0.3718 -0.2818  0.2328
  862MPD2    C412707   0.915   4.535  10.102  0.0407  0.5887  1.2665
  862MPD2    C512708   0.836   4.647  10.095  0.0131  0.2428  0.2108
  862MPD2     H12709   1.216   4.675  10.169 -0.3780  1.5296  0.5996
  862MPD2    H112710   0.882   4.432  10.104 -1.5381  1.1281  3.4660
  862MPD2    H212711   0.844   0.121  10.135  1.5476  1.3411 -1.0973
  862MPD2    H312712   0.729   4.630  10.103 -0.2693  0.6350 -2.9917
  862MPD2     N12713   1.107   4.424  10.192 -0.2826 -0.0815  0.2910
  862MPD2    H512714   1.050   4.344  10.216 -0.3437 -0.2072 -0.2714
  862MPD2    N112715   1.091   0.171  10.150  0.3214  0.4620 -0.5264
  862MPD2    H712716   1.037   0.252  10.117  2.3246  1.5240 -1.2070
  863MPD2     C12717   4.568   2.746  16.564 -0.5570  0.3478 -0.4228
  863MPD2    C112718   4.585   2.880  16.585 -0.1571  0.1794  0.8480
  863MPD2    C212719   4.703   2.917  16.651  0.4364 -0.4436 -0.3848
  863MPD2    C312720   0.060   2.821  16.684  0.9142  0.0937 -0.0104
  863MPD2    C412721   0.031   2.692  16.670  0.2810 -0.5873  0.7209
  863MPD2    C512722   4.655   2.656  16.604  0.0272  0.5912 -0.8005
  863MPD2     H12723   4.714   3.022  16.672  0.1030 -0.8353  1.8081
  863MPD2    H112724   0.107   2.621  16.701 -1.0096 -1.8725  0.9738
  863MPD2    H212725   4.488   2.705  16.503 -1.8136 -0.7832  1.9972
  863MPD2    H312726   4.615   2.557  16.589 -1.1838  0.7851  1.1824
  863MPD2     N12727   0.170   2.846  16.762 -0.4783 -0.2662 -0.3522
  863MPD2    H512728   0.225   2.770  16.800 -0.9292  0.4823  1.7631
  863MPD2    N112729   4.484   2.968  16.536 -0.0864 -0.0826  0.0158
  863MPD2    H712730   4.421   2.915  16.476 -1.4355  0.6194  0.8171
  864MPD2     C12731   0.841   3.799  16.661 -0.1769  0.0266  0.1994
  864MPD2    C112732   0.766   3.887  16.736  0.1974  0.0152 -0.5535
  864MPD2    C212733   0.800   4.022  16.746  0.1790 -0.1617  0.3901
  864MPD2    C312734   0.917   4.059  16.682 -0.9673  0.4843  0.0639
  864MPD2    C412735   0.985   3.971  16.596 -0.0302  0.6391 -0.5491
  864MPD2    C512736   0.939   3.840  16.583  0.4785 -0.0603  0.2427
  864MPD2     H12737   0.747   4.095  16.805  3.1101  1.2884  1.2191
  864MPD2    H112738   1.072   4.003  16.540  1.0315 -1.0272  0.1551
  864MPD2    H212739   0.817   3.694  16.649  0.5553 -0.0872 -0.2230
  864MPD2    H312740   0.996   3.775  16.518  0.9493  1.1363 -0.5448
  864MPD2     N12741   0.978   4.188  16.692 -0.1320  0.2870  0.4233
  864MPD2    H512742   1.056   4.205  16.630  0.3122 -2.1900  0.2975
  864MPD2    N112743   0.650   3.838  16.804  0.1431 -0.3297 -0.2924
  864MPD2    H712744   0.637   3.738  16.799 -0.3008 -0.3785  1.7248
  865MPD2     C12745   0.733   4.727  16.022  0.9809  0.1073  0.2415
  865MPD2    C112746   0.720   4.617  16.103  0.7194  1.0632 -0.0155
  865MPD2    C212747   0.759   4.633  16.236  0.3514  0.0068  0.6297
  865MPD2    C312748   0.823   0.005  16.284 -0.5761  0.1595  0.4118
  865MPD2    C412749   0.839   0.116  16.200 -0.7139 -0.5344  0.2623
  865MPD2    C512750   0.791   0.101  16.071 -0.0675  0.4074  0.5362
  865MPD2     H12751   0.758   4.548  16.303 -0.0865  0.1381  0.7915
  865MPD2    H112752   0.891   0.203  16.238 -0.4548 -0.8987  0.7359
  865MPD2    H212753   0.719   4.720  15.915  0.2669  0.9564  0.2782
  865MPD2    H312754   0.826   0.177  16.003 -2.3620  0.4716 -0.5859
  865MPD2     N12755   0.873   0.013  16.416 -0.2335 -0.2292 -0.6320
  865MPD2    H512756   0.935   0.092  16.431 -0.1045 -0.5959  0.7999
  865MPD2    N112757   0.683   4.490  16.054  0.4912  0.1173 -0.6154
  865MPD2    H712758   0.683   4.491  15.953 -0.1199  2.2254 -0.6101
  866MPD2     C12759   2.459   4.639  11.013 -0.3947 -0.0911 -0.0387
  866MPD2    C112760   2.446   4.673  10.881 -0.1209 -0.0183 -0.5845
  866MPD2    C212761   2.316   4.708  10.833 -0.2439 -0.3024 -0.5809
  866MPD2    C312762   2.203   4.681  10.909 -0.1325 -0.6982  0.4553
  866MPD2    C412763   2.221   4.626  11.039 -0.6340  0.1192 -0.2277
  866MPD2    C512764   2.349   4.597  11.081 -0.3708  0.4144 -0.5968
  866MPD2     H12765   2.306   0.005  10.732  2.6510  2.9644  0.3147
  866MPD2    H112766   2.133   4.610  11.100 -1.2777 -1.0701 -1.4536
  866MPD2    H212767   2.551   4.611  11.063 -0.0084  2.4685  0.6826
  866MPD2    H312768   2.355   4.567  11.185 -0.2481  1.0160 -0.4271
  866MPD2     N12769   2.079   4.716  10.872 -0.1487 -0.1814  0.0062
  866MPD2    H512770   2.008   4.695  10.942 -1.7551  2.7202 -0.7392
  866MPD2    N112771   2.560   4.668  10.801  0.2157  0.2397 -0.2470
  866MPD2    H712772   2.643   4.627  10.843 -0.3150 -0.6476 -0.0491
  867MPD2     C12773   3.995   4.199  16.380  0.3576 -0.0170 -0.5474
  867MPD2    C112774   4.122   4.223  16.429 -0.1759  0.0264  0.2624
  867MPD2    C212775   4.160   4.355  16.436 -0.3675 -0.4621  0.0850
  867MPD2    C312776   4.077   4.463  16.402 -0.0470 -0.5777  0.1040
  867MPD2    C412777   3.948   4.437  16.365 -0.1213  0.3305  0.7027
  867MPD2    C512778   3.902   4.304  16.364 -0.0243  0.0573 -0.0346
  867MPD2     H12779   4.263   4.374  16.465 -0.5393  1.4707 -0.5680
  867MPD2    H112780   3.875   4.513  16.339  0.8774  0.8559 -0.5524
  867MPD2    H212781   3.958   4.100  16.355 -2.6958  0.8798  0.4370
  867MPD2    H312782   3.811   4.277  16.312  1.0062 -1.4646 -1.0405
  867MPD2     N12783   4.125   4.595  16.419  0.1673 -0.3229  0.3948
  867MPD2    H512784   4.057   4.670  16.423  2.1400  1.4427  0.7316
  867MPD2    N112785   4.207   4.112  16.458  0.3251  0.5695 -0.8258
  867MPD2    H712786   4.163   4.020  16.456 -0.2191  0.8376 -0.9818
  868MPD2     C12787   1.223   2.947  12.748 -0.5603 -0.2753  0.2320
  868MPD2    C112788   1.319   3.020  12.809  0.4927 -0.0300 -0.5191
  868MPD2    C212789   1.303   3.085  12.930 -0.5882 -0.1187  0.2460
  868MPD2    C312790   1.183   3.076  12.987 -0.8473 -0.6650  0.1489
  868MPD2    C412791   1.083   3.014  12.921  0.3239 -0.7133  0.1613
  868MPD2    C512792   1.101   2.945  12.808 -0.0368 -0.0148  0.5254
  868MPD2     H12793   1.386   3.121  12.990  0.9556  0.0854 -2.0176
  868MPD2    H112794   0.983   3.020  12.964  0.6318  1.8145  0.5486
  868MPD2    H212795   1.241   2.894  12.655  0.6027 -1.9989  1.4449
  868MPD2    H312796   1.012   2.900  12.764 -0.0709  1.7672 -1.2264
  868MPD2     N12797   1.167   3.126  13.117  0.8007 -0.3651  0.3033
  868MPD2    H512798   1.249   3.168  13.158  1.5364 -0.8700 -0.6642
  868MPD2    N112799   1.458   3.017  12.767  0.2551 -0.4753 -0.2827
  868MPD2    H712800   1.528   3.072  12.815 -0.4481 -1.2375  1.5961
  869MPD2     C12801   2.972   1.694  17.740  0.4805 -0.1330 -0.1881
  869MPD2    C112802   2.857   1.668   0.062  0.0608 -0.6680 -0.4647
  869MPD2    C212803   2.823   1.754   0.166 -0.0772  0.3321  0.2463
  869MPD2    C312804   2.900   1.869   0.184  0.1909 -0.6526  0.1616
  869MPD2    C412805   3.011   1.892   0.103 -0.0961  0.1769  0.5194
  869MPD2    C512806   3.051   1.800   0.005 -0.2541 -0.1900  0.1397
  869MPD2     H12807   2.750   1.724   0.240 -0.4897  2.3534  0.6466
  869MPD2    H112808   3.070   1.982   0.117 -0.4523  0.3110  1.1662
  869MPD2    H212809   3.008   1.636  17.656 -3.9435 -0.1838 -2.0524
  869MPD2    H312810   3.130   1.820  17.691  0.0651 -0.1197  0.5122
  869MPD2     N12811   2.854   1.967   0.277 -0.0471  0.2519 -0.2547
  869MPD2    H512812   2.910   2.052   0.268 -2.6480  2.1328  1.2415
  869MPD2    N112813   2.785   1.553   0.027  0.0848  0.2939 -0.2005
  869MPD2    H712814   2.805   1.511  17.695 -1.8505  2.0314 -1.4392
  870MPD2     C12815   2.298   0.646   1.268  0.3489 -1.2813  0.1594
  870MPD2    C112816   2.265   0.586   1.150 -0.4214  0.3523 -0.2809
  870MPD2    C212817   2.153   0.636   1.082  0.3243 -0.0718  0.1963
  870MPD2    C312818   2.085   0.755   1.126  0.1199 -0.6201  0.1637
  870MPD2    C412819   2.119   0.808   1.252  0.8559  0.1106 -0.0167
  870MPD2    C512820   2.230   0.755   1.321 -0.3410  0.3558 -0.5373
  870MPD2     H12821   2.134   0.593   0.984  1.8146  1.2977 -0.6852
  870MPD2    H112822   2.064   0.889   1.300  1.3945 -0.2028  1.1287
  870MPD2    H212823   2.381   0.611   1.327  0.4373 -0.7741  0.3353
  870MPD2    H312824   2.250   0.786   1.422  1.5603 -0.6794 -0.5904
  870MPD2     N12825   1.974   0.798   1.052  0.2082 -0.0845  0.0761
  870MPD2    H512826   1.957   0.742   0.969  0.9046  3.4050 -2.4298
  870MPD2    N112827   2.330   0.470   1.113  0.5395 -0.4349  0.0333
  870MPD2    H712828   2.413   0.452   1.168  1.2013  0.2724 -0.7441
  871MPD2     C12829   2.492   4.513  16.470 -0.3791  0.0932 -0.5034
  871MPD2    C112830   2.624   4.558  16.432  0.2681 -0.1835  0.3964
  871MPD2    C212831   2.682   4.520  16.319 -0.7822 -0.2720 -0.7066
  871MPD2    C312832   2.624   4.421  16.243 -0.0868 -0.4947  0.3172
  871MPD2    C412833   2.490   4.381  16.266  0.1329  0.3850  0.8462
  871MPD2    C512834   2.429   4.418  16.381 -1.1537 -0.0949 -0.3779
  871MPD2     H12835   2.784   4.550  16.297 -0.8148  1.0596  0.9473
  871MPD2    H112836   2.447   4.307  16.199  0.6079  0.5188  0.3910
  871MPD2    H212837   2.434   4.535  16.559  0.4663 -0.0611  0.0847
  871MPD2    H312838   2.327   4.391  16.407 -1.3981  0.5886 -0.6355
  871MPD2     N12839   2.708   4.370  16.141  0.1395 -0.0885  0.4237
  871MPD2    H512840   2.807   4.395  16.142 -0.2680  1.6323 -1.0196
  871MPD2    N112841   2.694   4.643  16.524 -0.2684 -0.0843 -0.0107
  871MPD2    H712842   2.649   4.646  16.615  0.2711 -2.5990  0.3414
  872MPD2     C12843   4.323   1.631  13.700  0.1111 -1.2047  0.1652
  872MPD2    C112844   4.288   1.766  13.707 -0.2106  0.1472  0.0043
  872MPD2    C212845   4.152   1.798  13.706 -0.0661 -0.2827  0.6458
  872MPD2    C312846   4.060   1.691  13.695 -0.1585 -0.1372 -0.4377
  872MPD2    C412847   4.098   1.562  13.684 -0.1701 -0.2828 -0.2818
  872MPD2    C512848   4.231   1.535  13.674 -0.7458  0.9411 -0.4916
  872MPD2     H12849   4.118   1.899  13.722 -0.8783 -0.0561 -2.5871
  872MPD2    H112850   4.023   1.483  13.684 -0.3753 -0.0826 -3.1729
  872MPD2    H212851   4.426   1.597  13.695  0.0337 -1.6051  1.1919
  872MPD2    H312852   4.264   1.432  13.673 -2.1506  0.4948 -1.9946
  872MPD2     N12853   3.919   1.710  13.714 -0.3425 -0.2978 -0.6264
  872MPD2    H512854   3.867   1.622  13.720  0.3530 -0.4493  3.1242
  872MPD2    N112855   4.391   1.865  13.716 -0.3114 -0.0065  0.3648
  872MPD2    H712856   4.362   1.962  13.706 -0.2644 -0.1989 -1.6449
  873MPD2     C12857   1.113   1.429   1.122 -0.2682  0.1635  0.2112
  873MPD2    C112858   0.978   1.459   1.142 -0.0498 -0.1142 -0.0933
  873MPD2    C212859   0.880   1.366   1.132 -0.2395 -0.1148 -0.8354
  873MPD2    C312860   0.920   1.233   1.117  0.3537 -0.3762  0.3349
  873MPD2    C412861   1.058   1.203   1.095 -0.5965  1.0255 -0.0746
  873MPD2    C512862   1.148   1.302   1.099  0.2264 -0.3710  0.5087
  873MPD2     H12863   0.774   1.389   1.142 -0.1445 -0.9942  2.3891
  873MPD2    H112864   1.105   1.106   1.089 -0.9353  0.9195 -1.0806
  873MPD2    H212865   1.188   1.507   1.121 -0.7302  0.6080  0.2313
  873MPD2    H312866   1.250   1.274   1.077  0.7361  1.3664  0.6865
  873MPD2     N12867   0.835   1.118   1.125  0.3997  0.3350 -0.7761
  873MPD2    H512868   0.860   1.026   1.089 -2.7525 -1.0749  0.6508
  873MPD2    N112869   0.953   1.596   1.157 -0.4640 -0.1180 -0.0268
  873MPD2    H712870   1.032   1.658   1.148 -0.1814 -0.2664  1.5736
  874MPD2     C12871   0.657   2.002  16.233 -0.2876 -0.4957  0.0736
  874MPD2    C112872   0.627   2.040  16.362  0.4386 -0.1959 -0.6321
  874MPD2    C212873   0.669   2.168  16.397  0.6404  0.0629 -0.0485
  874MPD2    C312874   0.736   2.250  16.319  0.4072 -0.0514 -0.1539
  874MPD2    C412875   0.780   2.207  16.202  0.1128  0.5039  0.8451
  874MPD2    C512876   0.732   2.083  16.159  0.1603 -0.4153  0.6841
  874MPD2     H12877   0.646   2.215  16.492  2.3158 -1.0248  0.9153
  874MPD2    H112878   0.847   2.266  16.141  0.9170 -1.7498 -0.4657
  874MPD2    H212879   0.638   1.900  16.201  1.9247 -1.0410  0.5035
  874MPD2    H312880   0.754   2.046  16.059  0.7617 -0.6664  0.9088
  874MPD2     N12881   0.765   2.378  16.363  0.3554 -0.0327  0.8672
  874MPD2    H512882   0.734   2.405  16.456 -0.9437  2.0609 -0.1906
  874MPD2    N112883   0.560   1.956  16.452 -0.1761 -0.2390 -0.2421
  874MPD2    H712884   0.514   1.871  16.422  0.0124 -1.1035  1.9078
  875MPD2     C12885   2.021   0.133  14.397 -0.1520 -0.2958 -0.1186
  875MPD2    C112886   1.915   0.197  14.458 -0.1701 -0.5170  0.4187
  875MPD2    C212887   1.937   0.266  14.569 -1.5065  0.2052 -0.0745
  875MPD2    C312888   2.059   0.269  14.635  0.4159 -0.0323 -0.3036
  875MPD2    C412889   2.161   0.200  14.580  0.0785  0.4239 -0.2150
  875MPD2    C512890   2.141   0.149  14.457  0.3374 -0.7109 -0.0663
  875MPD2     H12891   1.853   0.320  14.611 -1.3782  1.3605 -1.3025
  875MPD2    H112892   2.262   0.206  14.620  0.1627  1.3042 -0.5596
  875MPD2    H212893   2.000   0.084  14.302 -1.9539  0.0751  0.0891
  875MPD2    H312894   2.225   0.095  14.415  0.0045 -0.7599 -0.6773
  875MPD2     N12895   2.092   0.354  14.744 -0.0191  0.4921 -0.0283
  875MPD2    H512896   2.191   0.358  14.766 -0.1592 -2.7317  1.1894
  875MPD2    N112897   1.785   0.180  14.417 -0.2121  0.1747  0.0364
  875MPD2    H712898   1.716   0.232  14.470 -0.3621 -0.1735  0.1818
  876MPD2     C12899   0.906   1.482  16.074  0.1453 -0.6943  0.2048
  876MPD2    C112900   0.966   1.410  15.972 -0.9135 -0.1923 -0.2462
  876MPD2    C212901   0.975   1.273  15.978  0.3924 -0.3820 -0.5266
  876MPD2    C312902   0.938   1.207  16.093 -0.0319  0.4412  0.0302
  876MPD2    C412903   0.875   1.284  16.193  0.2616 -0.3286  0.4647
  876MPD2    C512904   0.848   1.415  16.177 -0.4435  0.1459  0.1893
  876MPD2     H12905   1.007   1.216  15.891 -0.3417 -2.2205  0.4142
  876MPD2    H112906   0.852   1.236  16.288 -1.8477  4.2458  2.2923
  876MPD2    H212907   0.894   1.590  16.070  0.8073 -0.6696 -1.1848
  876MPD2    H312908   0.810   1.472  16.262  0.0084 -0.5818  0.8821
  876MPD2     N12909   0.972   1.075  16.107  0.3431 -1.1056  0.4942
  876MPD2    H512910   1.018   1.039  16.023  0.8412 -0.9681  0.7081
  876MPD2    N112911   1.028   1.486  15.876 -0.1017 -0.2214  0.0896
  876MPD2    H712912   1.021   1.586  15.888 -0.7184 -0.1331 -1.1111
  877MPD2     C12913   0.770   1.906  15.340 -0.1406 -0.2361  0.2499
  877MPD2    C112914   0.900   1.902  15.304  0.1299  0.7476  0.1597
  877MPD2    C212915   0.947   1.934  15.176 -0.1583 -0.6668  0.4709
  877MPD2    C312916   0.856   1.986  15.087  0.0545  0.3339 -0.4301
  877MPD2    C412917   0.721   1.977  15.116  0.7823 -0.5417  0.3209
  877MPD2    C512918   0.683   1.938  15.243 -0.4949  0.0125  0.7651
  877MPD2     H12919   1.052   1.922  15.155  0.1912 -0.2391  1.9780
  877MPD2    H112920   0.649   2.014  15.044  0.1866 -2.7195 -0.2019
  877MPD2    H212921   0.721   1.880  15.433  1.5526 -0.3746  1.0924
  877MPD2    H312922   0.579   1.936  15.271 -0.2523  0.9537  1.7468
  877MPD2     N12923   0.886   2.040  14.960 -0.2423  0.7202  0.5781
  877MPD2    H512924   0.816   2.054  14.888 -0.8437 -0.5777  0.9089
  877MPD2    N112925   1.000   1.865  15.398 -0.3261  0.5206 -0.0620
  877MPD2    H712926   1.094   1.872  15.362 -0.2013  1.2896  0.4173
  878MPD2     C12927   0.328   1.354  13.506 -0.4776 -0.4980  0.7907
  878MPD2    C112928   0.459   1.375  13.525 -1.0753  0.2147 -0.4334
  878MPD2    C212929   0.514   1.355  13.653  0.1528 -0.3899  0.1364
  878MPD2    C312930   0.435   1.312  13.759  0.2413  0.4846 -0.6605
  878MPD2    C412931   0.301   1.289  13.733 -0.1470 -0.2487 -0.3718
  878MPD2    C512932   0.254   1.301  13.605 -0.1500  0.1627  0.1111
  878MPD2     H12933   0.617   1.385  13.671 -0.3416 -0.0112  2.2767
  878MPD2    H112934   0.230   1.245  13.803 -0.6031  0.5524 -0.3297
  878MPD2    H212935   0.279   1.371  13.411 -0.1328  1.7675  1.0231
  878MPD2    H312936   0.153   1.265  13.592  0.2156  0.3140 -3.0490
  878MPD2     N12937   0.487   1.300  13.892  0.6747  0.4170 -0.4302
  878MPD2    H512938   0.587   1.316  13.886  0.6067  0.9371 -0.2300
  878MPD2    N112939   0.534   1.410  13.411  0.1451 -0.3339  0.5795
  878MPD2    H712940   0.490   1.430  13.322  0.6630 -1.3381  0.0926
  879MPD2     C12941   0.685   3.062  16.628 -0.1461 -0.7228 -0.3125
  879MPD2    C112942   0.718   2.962  16.713  0.0441  0.8227  0.0764
  879MPD2    C212943   0.629   2.853  16.718  0.4059 -0.1795 -0.3280
  879MPD2    C312944   0.524   2.837  16.628 -0.0717  0.4967 -0.1171
  879MPD2    C412945   0.499   2.942  16.541  0.3550  0.4991 -0.9440
  879MPD2    C512946   0.576   3.054  16.544 -0.0913 -0.5155 -0.2638
  879MPD2     H12947   0.653   2.776  16.790 -0.7790 -2.5535 -2.4540
  879MPD2    H112948   0.423   2.942  16.464  0.0177  0.4224 -0.6116
  879MPD2    H212949   0.730   3.161  16.623  1.7832 -1.5198  1.2812
  879MPD2    H312950   0.556   3.137  16.477  0.4000  0.7594  1.1909
  879MPD2     N12951   0.446   2.720  16.607  0.2896  0.2376 -0.8945
  879MPD2    H512952   0.405   2.706  16.515  0.4826 -1.0891 -0.7694
  879MPD2    N112953   0.837   2.980  16.789 -0.3966  0.0085 -0.1575
  879MPD2    H712954   0.885   3.069  16.781 -0.6588  0.1713  0.0732
  880MPD2     C12955   1.820   4.560   0.194  0.3007  0.2062  0.2199
  880MPD2    C112956   1.932   4.642   0.199  0.1959 -0.0135 -0.5115
  880MPD2    C212957   2.050   4.605   0.270  0.7475 -0.5514 -0.2172
  880MPD2    C312958   2.052   4.483   0.334 -0.7862 -0.2261  0.5089
  880MPD2    C412959   1.943   4.406   0.337 -0.1422  0.2595 -0.7701
  880MPD2    C512960   1.828   4.445   0.269 -0.0200  0.0620 -0.0436
  880MPD2     H12961   2.133   4.674   0.283  1.5156 -0.9985 -2.7011
  880MPD2    H112962   1.937   4.316   0.397 -0.5389  1.1680  0.5451
  880MPD2    H212963   1.728   4.582   0.141  1.5520 -0.5929 -2.2755
  880MPD2    H312964   1.738   4.384   0.276 -1.3657  2.3450  2.7602
  880MPD2     N12965   2.163   4.451   0.409  0.1494 -0.4157  0.0188
  880MPD2    H512966   2.242   4.515   0.406 -0.5032  0.5457  3.5843
  880MPD2    N112967   1.924   0.021   0.120  0.4030 -0.3159  0.5172
  880MPD2    H712968   1.839   0.030   0.064  1.0352  1.2046 -0.1841
  881MPD2     C12969   2.427   0.937  17.567 -0.7261 -0.1122 -0.1925
  881MPD2    C112970   2.387   0.834  17.495 -0.0206  0.2449  0.4127
  881MPD2    C212971   2.323   0.736  17.567 -0.5539 -0.7917 -0.6117
  881MPD2    C312972   2.322   0.723  17.707 -0.1544  0.9264  0.6607
  881MPD2    C412973   2.384   0.826   0.018  0.9436 -0.1204  0.2427
  881MPD2    C512974   2.443   0.928  17.705 -0.5235 -0.1543  0.1886
  881MPD2     H12975   2.264   0.665  17.511 -2.0453  1.0880 -1.4303
  881MPD2    H112976   2.391   0.824   0.126 -0.8105  1.5414  0.3822
  881MPD2    H212977   2.477   1.021  17.521  0.4576 -2.2421 -2.7597
  881MPD2    H312978   2.488   1.014  17.753  2.3824 -2.7766  2.1629
  881MPD2     N12979   2.254   0.621   0.017  0.4224  0.0496 -0.2459
  881MPD2    H512980   2.242   0.629   0.118 -0.3605  0.7677 -0.4016
  881MPD2    N112981   2.381   0.841  17.356  0.3568 -0.3046  0.3494
  881MPD2    H712982   2.387   0.930  17.308  1.8704  0.1583  1.4220
  882MPD2     C12983   0.795   1.700  14.332 -0.1150 -0.7232  0.0514
  882MPD2    C112984   0.764   1.822  14.384  0.2355  0.3045 -0.0692
  882MPD2    C212985   0.631   1.851  14.387  0.2951  0.6387  0.8166
  882MPD2    C312986   0.536   1.765  14.335 -0.0434 -0.3907  0.6240
  882MPD2    C412987   0.571   1.643  14.286  0.6602 -0.0747  0.6157
  882MPD2    C512988   0.704   1.613  14.279 -0.4659  0.4756  0.0881
  882MPD2     H12989   0.603   1.948  14.428 -1.1675  0.4978  0.1390
  882MPD2    H112990   0.505   1.561  14.260  1.6698 -0.0396 -2.0507
  882MPD2    H212991   0.897   1.664  14.335  1.1173  2.5143 -2.5344
  882MPD2    H312992   0.728   1.510  14.253 -2.1319  0.5603 -1.7675
  882MPD2     N12993   0.399   1.791  14.339  0.3620  0.3502  0.1875
  882MPD2    H512994   0.339   1.711  14.323  0.0715  0.8929 -1.4603
  882MPD2    N112995   0.866   1.898  14.434 -0.2558  0.1163 -0.0685
  882MPD2    H712996   0.960   1.862  14.425  0.0011  1.0875 -1.3246
  883MPD2     C12997   2.445   2.135  15.722  0.1378  0.1001  0.5469
  883MPD2    C112998   2.532   2.191  15.633 -0.7575  0.1590  0.6049
  883MPD2    C212999   2.641   2.252  15.679  0.3462 -0.4027  0.0882
  883MPD2    C313000   2.663   2.271  15.816  0.3224  0.3732  0.2601
  883MPD2    C413001   2.562   2.228  15.901 -0.1842  0.1075 -0.0018
  883MPD2    C513002   2.450   2.159  15.853  0.0379 -0.2688  0.4496
  883MPD2     H13003   2.716   2.295  15.614  0.8726  0.9668  1.5897
  883MPD2    H113004   2.575   2.246  16.007 -3.0457  1.3135  0.1456
  883MPD2    H213005   2.368   2.066  15.690  0.9049 -0.9195  0.9149
  883MPD2    H313006   2.373   2.110  15.913 -1.7004  1.2601 -0.5204
  883MPD2     N13007   2.783   2.338  15.850  0.7312 -0.3736  0.0837
  883MPD2    H513008   2.835   2.387  15.777  1.5968  0.3801  1.2026
  883MPD2    N113009   2.524   2.181  15.487 -0.0177  0.2804 -0.1654
  883MPD2    H713010   2.592   2.233  15.433  3.3769 -2.0774  1.8343
  884MPD2     C13011   4.537   2.734  15.108  0.6595  0.3832 -0.1749
  884MPD2    C113012   4.520   2.815  14.998 -0.3720 -0.3203  0.6167
  884MPD2    C213013   4.405   2.894  14.994  0.9913  0.4121  0.4023
  884MPD2    C313014   4.311   2.888  15.091  0.1201 -0.3671 -0.1284
  884MPD2    C413015   4.335   2.806  15.204 -0.3086  0.1915 -0.1895
  884MPD2    C513016   4.453   2.739  15.212  0.6748  0.5608  0.4702
  884MPD2     H13017   4.381   2.957  14.909  0.0833 -0.3705  0.0770
  884MPD2    H113018   4.255   2.786  15.275  0.2381  0.8168  0.5939
  884MPD2    H213019   4.622   2.667  15.119  1.1001  1.1148  0.8679
  884MPD2    H313020   4.480   2.680  15.298  0.7364 -1.5167 -0.9666
  884MPD2     N13021   4.185   2.947  15.068  0.4712  0.1949  0.2651
  884MPD2    H513022   4.163   2.971  14.972 -0.7194 -0.8984  0.2545
  884MPD2    N113023   4.612   2.819  14.886 -0.3581  0.0927 -0.1106
  884MPD2    H713024   4.593   2.883  14.809 -1.3153  0.4736  0.4440
  885MPD2     C13025   3.005   3.994   0.410  1.1164 -0.3583  0.4004
  885MPD2    C113026   2.987   3.861   0.398 -0.1822  0.5908 -0.6617
  885MPD2    C213027   2.936   3.812   0.284  0.6795  0.0648  0.2381
  885MPD2    C313028   2.904   3.892   0.179  0.0767 -0.6709 -0.5479
  885MPD2    C413029   2.925   4.026   0.190 -0.0098 -0.1946  0.8638
  885MPD2    C513030   2.980   4.076   0.304  0.6379 -0.1355  0.5648
  885MPD2     H13031   2.908   3.709   0.271  0.8287  0.5145 -3.6937
  885MPD2    H113032   2.893   4.096   0.114  0.6099 -1.4266 -0.5281
  885MPD2    H213033   3.058   4.034   0.496  1.4886  0.4851 -0.2170
  885MPD2    H313034   2.997   4.183   0.306  0.2182 -0.0680  0.2663
  885MPD2     N13035   2.847   3.829   0.062  0.5018 -0.4249 -0.3120
  885MPD2    H513036   2.838   3.728   0.056 -2.1347 -0.2074 -0.1036
  885MPD2    N113037   3.022   3.784   0.511  0.0344  0.5956 -0.5649
  885MPD2    H713038   3.066   3.830   0.589  0.8638 -0.9543 -0.1127
  886MPD2     C13039   4.439   1.476  15.170  0.2791 -1.0150  0.3412
  886MPD2    C113040   4.385   1.508  15.290  0.0995  0.2801  0.0522
  886MPD2    C213041   4.312   1.628  15.293 -0.2401  0.0793  0.3074
  886MPD2    C313042   4.293   1.715  15.185  0.5934  0.0953  0.1057
  886MPD2    C413043   4.340   1.672  15.064  0.3434  0.0381 -0.1716
  886MPD2    C513044   4.404   1.553  15.058  0.2760  0.1454  0.7728
  886MPD2     H13045   4.265   1.653  15.387 -2.6852 -0.0701 -0.8737
  886MPD2    H113046   4.305   1.723  14.974 -0.2066  0.6586  0.3897
  886MPD2    H213047   4.493   1.385  15.144  1.6347  0.0677 -0.6395
  886MPD2    H313048   4.427   1.523  14.956 -1.4945  0.3355  0.3267
  886MPD2     N13049   4.239   1.842  15.195  0.9340 -0.2793  0.4651
  886MPD2    H513050   4.234   1.901  15.113  1.2318 -0.6765  0.1591
  886MPD2    N113051   4.397   1.432  15.408 -0.2271 -0.1844  0.0740
  886MPD2    H713052   4.368   1.479  15.492  3.4456  1.9504  0.1478
  887MPD2     C13053   4.555   1.708  16.033  0.0759  0.7190  0.3664
  887MPD2    C113054   4.605   1.692  15.907  0.4138  0.1908  1.0684
  887MPD2    C213055   4.654   1.806  15.842  0.7309  0.2740 -0.5977
  887MPD2    C313056   4.662   1.929  15.905  0.2037 -0.0525 -0.7723
  887MPD2    C413057   4.612   1.944  16.030  0.0885  0.4073  0.2877
  887MPD2    C513058   4.557   1.837  16.088 -0.1511  0.0631 -0.0050
  887MPD2     H13059   4.689   1.795  15.740  0.2788  0.9242 -0.8265
  887MPD2    H113060   4.611   2.041  16.080 -0.9684  0.6781 -0.2501
  887MPD2    H213061   4.499   1.633  16.088 -0.8355  0.1584 -1.3248
  887MPD2    H313062   4.517   1.856  16.187 -2.8886 -0.1792 -1.0753
  887MPD2     N13063   4.714   2.039  15.838 -0.1722  0.2334  0.4077
  887MPD2    H513064   0.009   2.026  15.743 -0.4061  0.3307  0.3088
  887MPD2    N113065   4.583   1.570  15.832  0.8260 -0.0139 -0.4087
  887MPD2    H713066   4.580   1.573  15.730  0.1667  0.5548 -0.3767
  888MPD2     C13067   1.957   1.580  15.119  0.0898  0.9096  0.8260
  888MPD2    C113068   1.971   1.672  15.223  0.4021  0.0268 -0.1087
  888MPD2    C213069   1.984   1.807  15.203  0.1581  0.0027 -0.5527
  888MPD2    C313070   1.970   1.856  15.073 -0.5001 -0.2237  0.0940
  888MPD2    C413071   1.962   1.763  14.969  0.3315  0.4295  0.0851
  888MPD2    C513072   1.952   1.636  14.991  0.3613 -0.2073 -0.1222
  888MPD2     H13073   2.003   1.870  15.289 -3.1138  0.7727 -0.3958
  888MPD2    H113074   1.976   1.783  14.864  3.3842 -1.3189  0.1504
  888MPD2    H213075   1.943   1.473  15.116 -1.5022  1.1438 -0.5029
  888MPD2    H313076   1.962   1.574  14.903  1.5451  1.0043 -0.8332
  888MPD2     N13077   1.983   1.995  15.057 -0.6499 -0.3344  0.1389
  888MPD2    H513078   2.000   2.046  15.143  3.0193 -2.2436  0.5261
  888MPD2    N113079   1.992   1.620  15.355 -0.2229 -0.1421  0.5428
  888MPD2    H713080   1.997   1.683  15.434 -0.3101  0.0999  0.3539
  889MPD2     C13081   0.764   0.828  13.683 -0.1471  0.2034  0.2521
  889MPD2    C113082   0.902   0.842  13.691 -0.1926 -0.1088  0.3637
  889MPD2    C213083   0.955   0.972  13.702 -0.1246  0.3875 -0.1308
  889MPD2    C313084   0.873   1.074  13.737 -0.8438 -0.2327  0.3261
  889MPD2    C413085   0.737   1.056  13.753 -0.0067  0.0556 -0.3617
  889MPD2    C513086   0.690   0.936  13.708 -0.2631 -0.0678  0.1801
  889MPD2     H13087   1.060   0.997  13.703  0.4307 -1.8790 -0.7604
  889MPD2    H113088   0.664   1.135  13.770 -0.2230 -0.4353  0.9970
  889MPD2    H213089   0.728   0.740  13.632  0.6052 -0.3784  0.7236
  889MPD2    H313090   0.584   0.928  13.686  0.0753 -0.7830 -1.1941
  889MPD2     N13091   0.936   1.201  13.756 -0.4023  0.2343 -0.4451
  889MPD2    H513092   1.036   1.203  13.739 -0.1859 -2.0402  0.5326
  889MPD2    N113093   0.980   0.743  13.624 -0.7154  0.1156 -0.4783
  889MPD2    H713094   0.929   0.657  13.609  1.4834 -0.8440 -2.4052
  890MPD2     C13095   0.572   2.535  14.343  0.3329  0.0516 -0.7281
  890MPD2    C113096   0.665   2.633  14.376  0.6216  0.0297  0.1408
  890MPD2    C213097   0.738   2.629  14.492 -0.7273 -0.0890  0.4364
  890MPD2    C313098   0.730   2.521  14.575 -0.7447 -0.6968  0.1874
  890MPD2    C413099   0.635   2.420  14.548  0.3815 -0.2436 -0.4348
  890MPD2    C513100   0.564   2.431  14.436  0.2367 -0.4287 -0.1455
  890MPD2     H13101   0.795   2.719  14.512  0.3354 -0.7596  0.4005
  890MPD2    H113102   0.627   2.335  14.613  1.2796 -0.5853 -0.7704
  890MPD2    H213103   0.520   2.529  14.248 -1.8252 -0.4690  0.4864
  890MPD2    H313104   0.493   2.351  14.418 -0.6931  0.2707  0.3986
  890MPD2     N13105   0.820   2.529  14.683 -0.1979 -0.0502  0.2648
  890MPD2    H513106   0.894   2.598  14.676  1.1565 -1.4080  1.3659
  890MPD2    N113107   0.684   2.736  14.279 -0.1483 -0.1715 -0.4081
  890MPD2    H713108   0.620   2.724  14.201  0.0357 -1.3634 -0.3794
  891MPD2     C13109   3.774   1.614  16.267 -0.9028  0.0255 -0.2416
  891MPD2    C113110   3.683   1.622  16.372 -0.3178 -0.2390  0.1821
  891MPD2    C213111   3.720   1.561  16.494 -0.4767  0.2416  0.2992
  891MPD2    C313112   3.851   1.503  16.515 -0.1095  0.0560 -0.9189
  891MPD2    C413113   3.934   1.502  16.413 -0.6280 -0.6401 -0.0249
  891MPD2    C513114   3.893   1.547  16.289 -0.5073 -0.5849 -0.0794
  891MPD2     H13115   3.652   1.576  16.578 -1.3567  0.2783 -0.4209
  891MPD2    H113116   4.040   1.491  16.432 -0.5247 -0.8537 -0.6987
  891MPD2    H213117   3.762   1.635  16.161 -1.9394 -1.2037 -0.3827
  891MPD2    H313118   3.971   1.549  16.214 -0.0847 -1.4163  0.3424
  891MPD2     N13119   3.877   1.467  16.654  0.3600  0.9099  0.0468
  891MPD2    H513120   3.808   1.478  16.727 -0.6300  0.8121 -0.8833
  891MPD2    N113121   3.562   1.689  16.343  0.1664  0.6451  0.1470
  891MPD2    H713122   3.564   1.735  16.253 -1.7719 -0.2189 -0.3463
  892MPD2     C13123   4.567   2.581  14.538  1.0194 -0.5008  0.2892
  892MPD2    C113124   4.504   2.489  14.616  0.0711 -0.2474 -0.2301
  892MPD2    C213125   4.551   2.364  14.613  0.3171  0.2380 -0.2555
  892MPD2    C313126   4.672   2.329  14.553 -0.0991 -0.5811  0.0172
  892MPD2    C413127   0.008   2.434  14.506  0.1165 -0.3175 -0.7056
  892MPD2    C513128   4.687   2.555  14.492  0.5702  0.4485  0.5703
  892MPD2     H13129   4.498   2.285  14.665 -0.0825  0.3768 -0.4490
  892MPD2    H113130   0.107   2.416  14.466  0.2147  0.2497 -0.7176
  892MPD2    H213131   4.529   2.680  14.515  0.3598 -0.9200 -0.4495
  892MPD2    H313132   4.737   2.634  14.438 -0.7070  1.1430  0.4100
  892MPD2     N13133   4.735   2.201  14.538  0.2074  0.3915 -0.8372
  892MPD2    H513134   0.087   2.184  14.499  1.0903 -1.7254  2.1844
  892MPD2    N113135   4.382   2.528  14.681  0.2531 -0.5152  0.4012
  892MPD2    H713136   4.345   2.616  14.645 -0.2364 -2.2635 -3.3581
  893MPD2     C13137   1.660   1.522   1.381  0.7711 -0.4093  0.1585
  893MPD2    C113138   1.698   1.418   1.298 -0.3173  0.6837  0.3847
  893MPD2    C213139   1.648   1.287   1.317 -0.6146 -0.6426  0.0541
  893MPD2    C313140   1.539   1.276   1.399  0.2439  0.0756  0.1429
  893MPD2    C413141   1.487   1.389   1.461  0.7430 -0.4366  0.6688
  893MPD2    C513142   1.552   1.507   1.463  0.0976 -0.6024 -0.1516
  893MPD2     H13143   1.697   1.201   1.273  1.1484  0.0865  0.5941
  893MPD2    H113144   1.399   1.367   1.521  0.0564 -1.8198 -0.8219
  893MPD2    H213145   1.706   1.620   1.386  0.8714 -0.4374 -0.2240
  893MPD2    H313146   1.506   1.591   1.514 -0.5631 -0.3649 -1.1492
  893MPD2     N13147   1.471   1.153   1.419 -0.4409 -0.2034 -0.2486
  893MPD2    H513148   1.384   1.152   1.471 -0.7293 -0.3896 -0.7421
  893MPD2    N113149   1.806   1.448   1.212  0.4373  0.2613  0.4942
  893MPD2    H713150   1.848   1.540   1.220 -0.2549  0.7254 -1.1180
  894MPD2     C13151   4.389   3.450   0.860  0.5929  0.0654 -0.1760
  894MPD2    C113152   4.356   3.518   0.981 -0.0826  0.3035  0.2392
  894MPD2    C213153   4.384   3.657   0.984  0.5974 -0.0607  0.1960
  894MPD2    C313154   4.437   3.724   0.871 -0.7802  0.3773  0.1676
  894MPD2    C413155   4.466   3.653   0.754 -0.3336 -0.1927 -0.1135
  894MPD2    C513156   4.436   3.520   0.749 -0.3069 -0.5734 -0.0473
  894MPD2     H13157   4.365   3.719   1.071  0.2138 -0.9207  0.7217
  894MPD2    H113158   4.504   3.700   0.664 -1.7522 -1.7038 -1.4938
  894MPD2    H213159   4.383   3.343   0.850  0.6245  0.3007 -2.8350
  894MPD2    H313160   4.456   3.468   0.656  0.2164 -0.1056 -0.1933
  894MPD2     N13161   4.465   3.859   0.876 -0.1064 -0.4850 -0.0265
  894MPD2    H513162   4.473   3.891   0.972  0.9367 -0.4074 -0.1382
  894MPD2    N113163   4.303   3.458   1.099  0.1107  0.5202  0.7848
  894MPD2    H713164   4.282   3.509   1.184 -1.0378 -0.3304  0.9978
  895MPD2     C13165   3.932   1.276  13.847 -0.7934 -0.3907  0.9280
  895MPD2    C113166   3.863   1.198  13.756  0.1759  0.1785  0.0643
  895MPD2    C213167   3.886   1.059  13.747  0.5207  0.2722  0.1339
  895MPD2    C313168   4.000   1.005  13.807  0.8284  0.1626  0.2727
  895MPD2    C413169   4.075   1.082  13.892  1.3971  0.4320  0.2839
  895MPD2    C513170   4.039   1.216  13.910 -0.4209  0.3587  0.2998
  895MPD2     H13171   3.829   1.008  13.671 -0.1294 -0.6199  1.2102
  895MPD2    H113172   4.158   1.044  13.951  0.9769 -0.6239  0.1971
  895MPD2    H213173   3.910   1.381  13.864  2.7347  0.6294 -0.7966
  895MPD2    H313174   4.089   1.274  13.987  1.1662 -0.5599 -0.0423
  895MPD2     N13175   4.038   0.873  13.789 -0.5297  1.4527 -0.0161
  895MPD2    H513176   4.121   0.840  13.837 -0.8249  0.7467  0.0141
  895MPD2    N113177   3.746   1.256  13.684 -0.5289  0.2199  0.2557
  895MPD2    H713178   3.694   1.189  13.628  0.9280 -0.1611 -0.6345
  896MPD2     C13179   1.365   4.651   1.136  0.1065 -0.1081  0.0812
  896MPD2    C113180   1.303   4.602   1.023 -0.2430  0.1240  0.1591
  896MPD2    C213181   1.180   4.538   1.027  0.7740  0.3793  0.0146
  896MPD2    C313182   1.118   4.517   1.147  0.7590  0.3712  0.6775
  896MPD2    C413183   1.173   4.582   1.262  0.4851 -0.7180 -0.8256
  896MPD2    C513184   1.294   4.642   1.252  0.5239 -0.6392 -0.0125
  896MPD2     H13185   1.123   4.509   0.940  1.8432 -0.9388 -0.2379
  896MPD2    H113186   1.122   4.587   1.357  1.5908  0.5086 -0.3106
  896MPD2    H213187   1.463   4.697   1.140 -0.1053  0.3501  0.1141
  896MPD2    H313188   1.336   4.687   1.341 -0.8797 -2.5007  1.6025
  896MPD2     N13189   1.000   4.449   1.145 -0.2276  0.3188  0.2771
  896MPD2    H513190   0.973   4.410   1.055  1.1089 -0.6932  0.3170
  896MPD2    N113191   1.374   4.622   0.897  0.3628  0.6493 -0.3658
  896MPD2    H713192   1.470   4.653   0.901  0.2247  1.1874 -1.2478
  897MPD2     C13193   2.896   0.551  10.716 -0.0125  0.2307  0.2804
  897MPD2    C113194   2.810   0.516  10.617  0.3528  0.0532 -0.1496
  897MPD2    C213195   2.695   0.440  10.634  0.2413  0.1482  1.1394
  897MPD2    C313196   2.657   0.420  10.768 -0.7655  0.0013 -0.5287
  897MPD2    C413197   2.738   0.461  10.869  0.1214  0.0753 -0.1838
  897MPD2    C513198   2.860   0.523  10.843  0.8915  0.3186  0.7440
  897MPD2     H13199   2.622   0.424  10.556  1.0565 -0.3065  0.4733
  897MPD2    H113200   2.708   0.464  10.973 -1.2966  2.1616 -0.6452
  897MPD2    H213201   2.983   0.613  10.697  2.1083 -3.0419 -0.7917
  897MPD2    H313202   2.929   0.550  10.922 -0.0114  1.0366  1.2863
  897MPD2     N13203   2.523   0.385  10.791  0.2347  0.1529  0.3066
  897MPD2    H513204   2.472   0.373  10.704  0.8053  1.0166 -0.1447
  897MPD2    N113205   2.846   0.568  10.493 -0.0512  0.1782  0.3589
  897MPD2    H713206   2.922   0.635  10.490 -1.8262  2.2452  1.0693
  898MPD2     C13207   3.718   2.341  17.756  0.1914 -0.0648  0.2950
  898MPD2    C113208   3.840   2.405  17.711 -0.3871 -0.3773 -0.1008
  898MPD2    C213209   3.829   2.529  17.649 -0.0367  0.6646 -0.5440
  898MPD2    C313210   3.704   2.585  17.619  0.0900  0.1695  0.3935
  898MPD2    C413211   3.589   2.527  17.664  0.8563 -0.8475  0.5871
  898MPD2    C513212   3.598   2.410  17.741  0.1759 -0.6335 -0.3752
  898MPD2     H13213   3.913   2.578  17.602  0.2285  1.4973  0.8069
  898MPD2    H113214   3.497   2.578  17.640  1.2361  0.2453  1.4347
  898MPD2    H213215   3.708   2.247   0.050 -1.7288  0.1189  0.2344
  898MPD2    H313216   3.506   2.366   0.021 -0.0780 -0.5842 -0.9352
  898MPD2     N13217   3.699   2.713  17.550  0.0417 -0.3538 -0.0766
  898MPD2    H513218   3.787   2.758  17.529  0.4719 -0.7112  0.9404
  898MPD2    N113219   3.962   2.345  17.721  0.5394 -0.4868  0.1860
  898MPD2    H713220   4.043   2.393  17.685 -0.2004  1.2521  0.8460
  899MPD2     C13221   0.583   2.773  17.480  0.3305  0.7286  0.0843
  899MPD2    C113222   0.486   2.726  17.403 -0.4254  0.4696 -0.0738
  899MPD2    C213223   0.375   2.655  17.460 -0.6338 -0.2968 -0.2685
  899MPD2    C313224   0.372   2.647  17.599  0.7456  0.5044 -1.1885
  899MPD2    C413225   0.463   2.709  17.681  0.1315 -0.8282 -0.1509
  899MPD2    C513226   0.569   2.766  17.613 -0.0059 -0.6119 -0.1991
  899MPD2     H13227   0.300   2.610  17.398 -0.7739  2.3815 -2.0533
  899MPD2    H113228   0.463   2.717   0.031 -0.0624  1.7861 -0.3322
  899MPD2    H213229   0.660   2.841  17.445  0.6827  0.2526 -0.0663
  899MPD2    H313230   0.640   2.830  17.664 -1.8068  0.6641  0.7314
  899MPD2     N13231   0.260   2.586  17.668  0.3022  0.4217  0.1236
  899MPD2    H513232   0.276   2.576   0.010  0.9224  0.9036  0.0742
  899MPD2    N113233   0.497   2.767  17.272 -0.5196 -0.6732  0.7841
  899MPD2    H713234   0.573   2.820  17.232 -2.0398 -0.1163 -1.3640
  900MPD2     C13235   4.719   3.846  12.559  0.3028  0.0827  0.7826
  900MPD2    C113236   4.628   3.742  12.570 -0.6896  0.4750  0.5192
  900MPD2    C213237   4.498   3.763  12.544 -0.0274  0.4211 -0.7163
  900MPD2    C313238   4.454   3.890  12.499  0.8946 -0.0489 -0.3007
  900MPD2    C413239   4.546   3.995  12.490  0.3665 -0.1725  0.1032
  900MPD2    C513240   4.681   3.965  12.512 -0.6259 -0.1757 -0.2022
  900MPD2     H13241   4.420   3.689  12.557  0.8863 -0.3565  0.2755
  900MPD2    H113242   4.525   4.097  12.459  0.0671 -0.6082 -1.1281
  900MPD2    H213243   0.085   3.824  12.567  0.0177 -1.7438 -0.4162
  900MPD2    H313244   0.008   4.050  12.503 -0.2065 -0.5129 -0.2456
  900MPD2     N13245   4.314   3.906  12.471 -0.3767 -0.8942 -0.2370
  900MPD2    H513246   4.261   3.824  12.499  0.6506 -1.6306 -0.4445
  900MPD2    N113247   4.676   3.614  12.609  0.1292 -0.3288  0.1032
  900MPD2    H713248   0.036   3.619  12.625 -0.0170  1.4474  0.3775
  901MPD2     C13249   4.620   2.547  12.826  0.1560  0.2832  0.6112
  901MPD2    C113250   4.727   2.604  12.896  0.3670 -0.6553 -0.7770
  901MPD2    C213251   0.007   2.741  12.897  0.4826 -0.1905  0.3181
  901MPD2    C313252   4.657   2.824  12.833  0.0066  0.1148 -0.0925
  901MPD2    C413253   4.547   2.767  12.778 -0.1831  0.0028 -0.3534
  901MPD2    C513254   4.526   2.628  12.780 -0.7415  1.0150 -0.1189
  901MPD2     H13255   0.098   2.784  12.937 -1.5896  2.4961  2.1336
  901MPD2    H113256   4.472   2.827  12.728 -1.2204 -1.0197 -0.0221
  901MPD2    H213257   4.613   2.439  12.814  1.3632  0.2495  0.2338
  901MPD2    H313258   4.439   2.595  12.726 -0.9731  0.1894  0.7558
  901MPD2     N13259   4.687   2.962  12.821  0.4368  0.9212  0.0864
  901MPD2    H513260   0.043   2.983  12.848  0.4692 -0.1752  0.8625
  901MPD2    N113261   0.092   2.512  12.926 -0.4733 -0.3956  0.1145
  901MPD2    H713262   0.097   2.420  12.883 -1.2031 -0.0254 -0.7637
  902MPD2     C13263   3.723   1.567  13.025  0.4623 -0.2027  0.0464
  902MPD2    C113264   3.844   1.624  12.994 -0.5788 -0.2614 -0.7731
  902MPD2    C213265   3.949   1.553  12.936 -0.3398 -0.1636  0.5993
  902MPD2    C313266   3.944   1.419  12.915 -0.6576  0.2034 -0.2730
  902MPD2    C413267   3.825   1.364  12.952 -0.2076  0.2760  0.3319
  902MPD2    C513268   3.715   1.436  12.991 -0.3584  0.6551 -0.3247
  902MPD2     H13269   4.029   1.616  12.898 -2.0800  0.2003 -2.4612
  902MPD2    H113270   3.800   1.263  12.924 -0.1240 -0.1569  1.8023
  902MPD2    H213271   3.642   1.614  13.079 -1.3856  0.5811 -3.4116
  902MPD2    H313272   3.626   1.375  12.998 -0.4018  0.8225  0.6653
  902MPD2     N13273   4.050   1.339  12.862 -0.4656  0.6563  0.1832
  902MPD2    H513274   4.041   1.238  12.870 -1.4781  0.9451  2.7695
  902MPD2    N113275   3.851   1.762  13.022 -0.0421  0.1213 -0.7509
  902MPD2    H713276   3.773   1.815  13.060 -0.0184 -2.5300  2.9882
  903MPD2     C13277   4.485   1.575  12.376  0.8117  0.1501 -0.6709
  903MPD2    C113278   4.466   1.437  12.366 -0.4522  0.1543 -0.4077
  903MPD2    C213279   4.384   1.385  12.268 -0.0065 -0.3475  0.2406
  903MPD2    C313280   4.309   1.475  12.193  0.2712  0.2064  0.3090
  903MPD2    C413281   4.347   1.608  12.188  0.2684 -0.3742 -0.1690
  903MPD2    C513282   4.434   1.658  12.282  0.0669 -0.9773 -0.0573
  903MPD2     H13283   4.355   1.281  12.258 -1.8476  0.0192  1.8355
  903MPD2    H113284   4.294   1.679  12.126  1.3668 -0.1728 -0.8804
  903MPD2    H213285   4.539   1.617  12.460 -3.0416 -0.9911  2.3611
  903MPD2    H313286   4.457   1.764  12.283 -1.3545 -0.6352 -1.7703
  903MPD2     N13287   4.206   1.419  12.123 -0.3923 -0.3054 -0.4267
  903MPD2    H513288   4.194   1.318  12.125 -0.5340 -0.2601  1.0881
  903MPD2    N113289   4.520   1.364  12.473  0.1057  0.0203 -0.2985
  903MPD2    H713290   4.564   1.405  12.555  0.6577 -0.1639 -0.5028
  904MPD2     C13291   3.571   0.923  14.560  0.0646 -0.3583 -0.5137
  904MPD2    C113292   3.624   0.886  14.439 -0.5581 -0.4931  0.0037
  904MPD2    C213293   3.752   0.846  14.431  0.7982 -0.0895  0.4273
  904MPD2    C313294   3.841   0.855  14.537 -0.8962  0.2279 -0.3179
  904MPD2    C413295   3.793   0.902  14.654 -0.1048  0.1759  0.6694
  904MPD2    C513296   3.659   0.924  14.668  0.4478  0.2976  0.1091
  904MPD2     H13297   3.798   0.825  14.335 -3.3274 -2.9836 -0.8826
  904MPD2    H113298   3.856   0.924  14.739 -0.3252  1.3485  0.5229
  904MPD2    H213299   3.468   0.954  14.571  0.1674 -0.3096  0.3265
  904MPD2    H313300   3.619   0.952  14.765  1.1159  0.4586  0.3361
  904MPD2     N13301   3.978   0.836  14.505 -0.1549  0.0966 -0.3969
  904MPD2    H513302   3.998   0.825  14.406 -0.3999 -0.6311 -0.3674
  904MPD2    N113303   3.546   0.877  14.323 -0.4089 -0.5232 -0.2665
  904MPD2    H713304   3.587   0.829  14.244 -0.3280  2.0026 -1.7525
  905MPD2     C13305   3.372   0.520  13.589 -0.9486  0.0301  0.0121
  905MPD2    C113306   3.451   0.556  13.699  0.1770  1.2763  0.1427
  905MPD2    C213307   3.574   0.490  13.715 -0.0510  0.1047 -1.3416
  905MPD2    C313308   3.628   0.416  13.616 -0.2009 -0.7726 -0.3162
  905MPD2    C413309   3.561   0.403  13.498 -0.4117  0.1176 -0.9226
  905MPD2    C513310   3.425   0.448  13.489  0.9867  0.7950  0.2436
  905MPD2     H13311   3.635   0.506  13.803  1.0620 -0.6520 -1.9761
  905MPD2    H113312   3.606   0.356  13.411 -0.5512 -2.1038  0.1906
  905MPD2    H213313   3.265   0.533  13.579 -1.2893 -2.5749  0.1325
  905MPD2    H313314   3.374   0.418  13.398  1.3901 -0.6002  0.4697
  905MPD2     N13315   3.768   0.378  13.623  0.3986 -0.6440 -0.3671
  905MPD2    H513316   3.825   0.376  13.539  0.4472 -0.8957 -0.3274
  905MPD2    N113317   3.407   0.653  13.787 -0.0693 -0.2843 -0.2882
  905MPD2    H713318   3.306   0.662  13.779  0.1686  1.7954 -0.9895
  906MPD2     C13319   1.294   0.724  11.222  0.8286 -1.0156 -0.2194
  906MPD2    C113320   1.194   0.738  11.121  0.3173  0.6002 -0.0396
  906MPD2    C213321   1.066   0.689  11.157 -0.3942  0.3526 -0.6278
  906MPD2    C313322   1.033   0.638  11.285  0.4192  0.2991  0.4261
  906MPD2    C413323   1.140   0.625  11.376 -0.1750  0.1068 -0.1071
  906MPD2    C513324   1.265   0.670  11.343 -1.5802  0.4494  0.2641
  906MPD2     H13325   0.989   0.686  11.080  2.0743 -2.5639 -2.9278
  906MPD2    H113326   1.117   0.588  11.475  0.8736 -0.9266 -0.2505
  906MPD2    H213327   1.394   0.766  11.219  1.6870 -3.1688 -1.7846
  906MPD2    H313328   1.346   0.678  11.414  0.5983 -0.6024 -2.0923
  906MPD2     N13329   0.903   0.582  11.310  0.2659  0.0364 -0.2563
  906MPD2    H513330   0.890   0.523  11.391 -2.4585 -1.2281 -1.6297
  906MPD2    N113331   1.220   0.777  10.987 -0.0682 -0.3391  0.1977
  906MPD2    H713332   1.152   0.743  10.920 -0.0458  0.7193 -0.3633
  907MPD2     C13333   4.721   0.571  15.648 -0.3077  0.2603  0.0900
  907MPD2    C113334   4.703   0.478  15.557 -0.7028 -1.0386  0.3276
  907MPD2    C213335   0.037   0.370  15.542 -0.3381 -0.3878 -0.9843
  907MPD2    C313336   0.149   0.356  15.625  0.6715  0.4085  1.0951
  907MPD2    C413337   0.170   0.450  15.721 -0.3277 -0.4135  0.1926
  907MPD2    C513338   0.080   0.555  15.735  0.7541 -0.0956  0.6415
  907MPD2     H13339   0.015   0.300  15.461 -2.5636 -2.8899  1.7838
  907MPD2    H113340   0.248   0.449  15.796  0.9461  1.5357 -1.0885
  907MPD2    H213341   4.668   0.665  15.663  0.4418  0.5879  0.6659
  907MPD2    H313342   0.100   0.628  15.813 -0.1257 -0.5665  1.3021
  907MPD2     N13343   0.230   0.242  15.625  0.2266  0.4474 -0.0798
  907MPD2    H513344   0.303   0.243  15.696 -0.4426 -0.7939  0.6273
  907MPD2    N113345   4.575   0.461  15.497 -0.0922  0.3270  0.2148
  907MPD2    H713346   4.568   0.379  15.438 -2.8057  1.4699 -1.0455
  908MPD2     C13347   2.718   0.305   9.532  0.7827  0.2048  0.3285
  908MPD2    C113348   2.694   0.241   9.658  0.2833 -0.9555 -0.1157
  908MPD2    C213349   2.702   0.320   9.780 -0.5776 -0.2965 -0.0575
  908MPD2    C313350   2.731   0.456   9.768  0.5080  0.2191  0.8951
  908MPD2    C413351   2.752   0.514   9.644  0.3966 -0.4043  0.9689
  908MPD2    C513352   2.756   0.440   9.530 -0.4966  0.6650  0.0003
  908MPD2     H13353   2.676   0.281   9.878 -3.5767  1.6746 -0.0832
  908MPD2    H113354   2.772   0.620   9.631  0.8156 -0.3810  1.8660
  908MPD2    H213355   2.707   0.249   9.440  0.0075 -1.2658  1.3186
  908MPD2    H313356   2.767   0.491   9.435  1.1131 -0.6106 -0.4924
  908MPD2     N13357   2.745   0.520   9.891  0.5368 -0.0626 -0.6299
  908MPD2    H513358   2.729   0.470   9.977 -0.8011 -1.3233 -1.6109
  908MPD2    N113359   2.655   0.105   9.666 -0.2763  0.3681  0.2512
  908MPD2    H713360   2.668   0.048   9.583  0.1501  1.5144 -0.4590
  909MPD2     C13361   2.821   3.648  11.299  0.4699 -0.4940  0.6528
  909MPD2    C113362   2.804   3.781  11.278 -0.3350  0.6713  0.1468
  909MPD2    C213363   2.756   3.868  11.381 -0.2780 -0.4346  0.3761
  909MPD2    C313364   2.714   3.811  11.502 -0.3060 -0.0462  0.0329
  909MPD2    C413365   2.726   3.671  11.516  0.6019  0.3189  0.2629
  909MPD2    C513366   2.781   3.598  11.418 -0.0582 -0.1732 -0.6076
  909MPD2     H13367   2.748   3.972  11.353  0.3123 -0.9483 -1.6966
  909MPD2    H113368   2.695   3.622  11.607  1.1581 -0.5185  0.0091
  909MPD2    H213369   2.879   3.578  11.240  1.1297  0.6931 -0.1330
  909MPD2    H313370   2.807   3.493  11.425  1.4471  0.1703 -0.9210
  909MPD2     N13371   2.664   3.894  11.607  0.3108  0.5052 -0.1916
  909MPD2    H513372   2.644   3.991  11.584  2.6804 -0.2262 -5.1341
  909MPD2    N113373   2.845   3.841  11.159 -0.9258 -0.2209 -0.7311
  909MPD2    H713374   2.830   3.940  11.173 -3.7955 -0.4859 -1.8215
  910MPD2     C13375   4.047   1.095  16.191 -0.0065 -0.4190  0.0584
  910MPD2    C113376   4.034   1.000  16.101 -0.1891 -0.1956 -0.0070
  910MPD2    C213377   3.963   1.030  15.986  0.4557 -0.2686 -0.0711
  910MPD2    C313378   3.899   1.151  15.974 -0.6692 -0.0974 -0.7903
  910MPD2    C413379   3.923   1.251  16.077 -0.0308  0.4445  0.2024
  910MPD2    C513380   3.992   1.219  16.194 -0.0792 -0.0209  0.1292
  910MPD2     H13381   3.952   0.953  15.910 -0.2998 -0.5428  0.3179
  910MPD2    H113382   3.874   1.348  16.073 -2.9007 -1.0486 -1.3212
  910MPD2    H213383   4.108   1.086  16.281 -1.6876 -1.4821  1.1013
  910MPD2    H313384   4.005   1.285  16.279  1.3063  2.8018 -2.2460
  910MPD2     N13385   3.809   1.182  15.870  0.1592  0.1061  0.1404
  910MPD2    H513386   3.753   1.267  15.876  3.2563  2.3084 -1.5494
  910MPD2    N113387   4.093   0.872  16.115  0.5482  0.2627 -0.2712
  910MPD2    H713388   4.095   0.806  16.038  0.2278  1.7979 -1.6112
  911MPD2     C13389   2.307   2.522  16.473 -0.2682 -0.3285  0.8594
  911MPD2    C113390   2.244   2.397  16.478  0.1629  0.4761 -0.1083
  911MPD2    C213391   2.111   2.399  16.431 -0.4196  0.7192  0.2993
  911MPD2    C313392   2.057   2.505  16.358  0.5593 -0.1202  0.4825
  911MPD2    C413393   2.129   2.623  16.353  0.0624  0.6527 -0.3641
  911MPD2    C513394   2.246   2.630  16.412  0.0233  0.0762  0.1848
  911MPD2     H13395   2.049   2.310  16.432 -1.2941  1.3343  1.1896
  911MPD2    H113396   2.093   2.715  16.309 -0.3964  1.1040  0.9405
  911MPD2    H213397   2.402   2.536  16.523  0.4359 -1.4595 -0.1636
  911MPD2    H313398   2.290   2.729  16.404  2.1014 -0.9537 -0.8729
  911MPD2     N13399   1.931   2.496  16.293 -0.0780  0.0774 -0.2512
  911MPD2    H513400   1.911   2.576  16.233 -0.2651 -0.5792 -1.0716
  911MPD2    N113401   2.304   2.287  16.537  0.4527 -0.4746  0.1525
  911MPD2    H713402   2.398   2.301  16.573  0.6502  0.8992 -0.9225
  912MPD2     C13403   1.108   2.158  16.357 -0.3380 -0.0979 -0.4718
  912MPD2    C113404   1.245   2.148  16.356 -0.3120 -0.1009  0.1450
  912MPD2    C213405   1.308   2.053  16.432 -0.5179 -0.8606 -0.0382
  912MPD2    C313406   1.238   1.966  16.513 -0.2056 -0.4192  0.0056
  912MPD2    C413407   1.105   1.985  16.520  0.4440 -0.3018 -0.2600
  912MPD2    C513408   1.041   2.078  16.446 -0.1747  0.2530  0.0388
  912MPD2     H13409   1.415   2.036  16.430 -0.3819  0.1041 -1.2052
  912MPD2    H113410   1.048   1.933  16.596  0.5544  0.1603  0.1362
  912MPD2    H213411   1.053   2.229  16.295 -0.8498  0.2595  0.3933
  912MPD2    H313412   0.934   2.090  16.457 -0.2311 -0.1330 -0.0745
  912MPD2     N13413   1.307   1.869  16.584  0.3845  0.2518  0.7587
  912MPD2    H513414   1.403   1.853  16.553 -0.6877  0.4513 -2.7498
  912MPD2    N113415   1.316   2.239  16.268 -0.3161 -0.2813 -0.1165
  912MPD2    H713416   1.261   2.317  16.235  1.7426  1.3204  0.2181
  913MPD2     C13417   2.461   2.247  11.625  0.4569 -0.5360 -0.6726
  913MPD2    C113418   2.494   2.200  11.503  0.3103  0.2264  0.3325
  913MPD2    C213419   2.429   2.248  11.390  0.4100  0.0620  0.1091
  913MPD2    C313420   2.332   2.343  11.402  0.1357  0.7257  0.9537
  913MPD2    C413421   2.300   2.393  11.527  0.0004 -0.0797  0.3837
  913MPD2    C513422   2.379   2.356  11.634 -0.6432 -0.1824  0.5074
  913MPD2     H13423   2.451   2.202  11.295  0.6933 -0.2480  0.3248
  913MPD2    H113424   2.232   2.477  11.538  1.1662  1.1634 -2.0159
  913MPD2    H213425   2.498   2.209  11.720 -0.0310  0.9158  0.0966
  913MPD2    H313426   2.351   2.404  11.727  0.1508  0.0779  0.6118
  913MPD2     N13427   2.277   2.398  11.286 -0.2511  0.1456 -0.0438
  913MPD2    H513428   2.186   2.443  11.298 -0.1090  0.9291 -1.8970
  913MPD2    N113429   2.597   2.103  11.493 -0.6849  0.0457  0.0343
  913MPD2    H713430   2.627   2.069  11.584 -0.8798 -0.8004 -0.2182
  914MPD2     C13431   0.580   2.935  12.306 -0.5815  0.3336  0.4666
  914MPD2    C113432   0.539   3.001  12.417  0.5096  0.3235 -0.4725
  914MPD2    C213433   0.506   2.934  12.532 -0.2535  0.5193  0.2864
  914MPD2    C313434   0.518   2.795  12.535 -0.0007  1.0070 -0.5716
  914MPD2    C413435   0.559   2.734  12.420  0.1901 -0.5001  0.1963
  914MPD2    C513436   0.586   2.804  12.308 -0.0650 -0.5514  0.6654
  914MPD2     H13437   0.478   2.990  12.621 -1.4013 -0.1352  0.3462
  914MPD2    H113438   0.570   2.628  12.401  0.1415 -0.4096 -0.3261
  914MPD2    H213439   0.595   2.979  12.208 -0.8331 -0.8767 -0.1177
  914MPD2    H313440   0.624   2.759  12.217  1.4366  1.7290  0.1730
  914MPD2     N13441   0.496   2.728  12.662  0.0395  0.1378 -0.0547
  914MPD2    H513442   0.445   2.778  12.734  0.2656  1.2050 -0.6377
  914MPD2    N113443   0.548   3.141  12.422  0.4541 -0.1509  0.3123
  914MPD2    H713444   0.505   3.191  12.500  0.5542 -2.5126  1.8617
  915MPD2     C13445   3.007   3.012  15.046  0.2171  0.6922  0.4759
  915MPD2    C113446   2.882   3.069  15.038  0.5181 -0.0028  0.1695
  915MPD2    C213447   2.824   3.140  15.144 -0.0613  0.4982  0.4475
  915MPD2    C313448   2.885   3.138  15.265  0.5074  0.2363  0.4293
  915MPD2    C413449   3.004   3.068  15.278 -0.0112 -0.4496  0.0222
  915MPD2    C513450   3.059   3.009  15.171 -0.4173  0.1376 -0.3539
  915MPD2     H13451   2.732   3.197  15.140  0.0761  0.6251 -0.8648
  915MPD2    H113452   3.059   3.072  15.371 -1.7660  0.4351  1.0215
  915MPD2    H213453   3.048   2.966  14.957  0.4906  1.9877 -0.0731
  915MPD2    H313454   3.154   2.958  15.177 -0.5128 -0.0460 -0.3692
  915MPD2     N13455   2.822   3.195  15.377 -0.6225 -0.3822 -0.4100
  915MPD2    H513456   2.745   3.259  15.359 -0.0256  1.4092  3.3084
  915MPD2    N113457   2.813   3.037  14.917 -0.3274  0.3171  0.0067
  915MPD2    H713458   2.868   2.990  14.845 -0.2295 -0.0278  0.3030
  916MPD2     C13459   1.356   0.836  15.730  0.3184  0.7733 -1.1054
  916MPD2    C113460   1.315   0.712  15.783 -0.0083 -0.8163  1.2658
  916MPD2    C213461   1.341   0.598  15.710 -0.0790  0.5356 -0.1203
  916MPD2    C313462   1.393   0.613  15.585  0.4978 -0.9211  0.1646
  916MPD2    C413463   1.453   0.733  15.544  0.2566  0.1289 -0.5708
  916MPD2    C513464   1.437   0.845  15.618 -0.2292 -0.8210 -0.2098
  916MPD2     H13465   1.304   0.499  15.734  0.0160 -0.2774 -3.3879
  916MPD2    H113466   1.516   0.740  15.455  2.9208  0.9937  1.3756
  916MPD2    H213467   1.343   0.932  15.779 -0.2166  0.2147 -0.1604
  916MPD2    H313468   1.482   0.939  15.588  0.8648 -1.2399  0.1279
  916MPD2     N13469   1.406   0.500  15.503  0.7065  0.0457 -1.0556
  916MPD2    H513470   1.377   0.414  15.548  0.8243  0.8063  0.4818
  916MPD2    N113471   1.231   0.720  15.895 -0.9346 -0.2228 -0.1796
  916MPD2    H713472   1.232   0.812  15.937 -0.4714 -0.7743  1.0023
  917MPD2     C13473   1.310   3.208  11.225 -0.5323  0.5328  0.4189
  917MPD2    C113474   1.419   3.229  11.305 -0.2732 -0.2715  0.7522
  917MPD2    C213475   1.524   3.306  11.257  0.3273 -0.2075  0.7710
  917MPD2    C313476   1.505   3.381  11.140  0.1326 -1.0094  0.3514
  917MPD2    C413477   1.392   3.357  11.066  1.0566  0.1251 -0.2097
  917MPD2    C513478   1.301   3.268  11.107 -0.5506 -0.4337  0.5045
  917MPD2     H13479   1.610   3.315  11.321 -0.3288 -2.2234  1.9508
  917MPD2    H113480   1.393   3.392  10.964 -1.6715 -1.7734 -0.9070
  917MPD2    H213481   1.231   3.141  11.258 -0.6028  0.7780  0.7504
  917MPD2    H313482   1.217   3.244  11.043  0.5944  1.1384 -1.5641
  917MPD2     N13483   1.600   3.475  11.091  0.1381 -0.4278  1.0283
  917MPD2    H513484   1.562   3.535  11.019  0.7871 -1.9769 -0.5996
  917MPD2    N113485   1.415   3.174  11.434  0.4844  0.1671 -0.3096
  917MPD2    H713486   1.340   3.105  11.436 -0.5519  1.3567  2.7805
  918MPD2     C13487   1.476   3.718  12.171 -0.2775  0.0394 -0.0827
  918MPD2    C113488   1.595   3.652  12.134 -0.7920  0.1276  0.0538
  918MPD2    C213489   1.592   3.532  12.073  0.4542  0.0297  0.4289
  918MPD2    C313490   1.474   3.467  12.060 -0.0596 -0.0740  0.5979
  918MPD2    C413491   1.360   3.527  12.103  0.3682 -0.2419 -1.2993
  918MPD2    C513492   1.362   3.653  12.157  0.1399 -0.1028  0.5988
  918MPD2     H13493   1.682   3.484  12.037 -1.5676 -3.6031  0.2185
  918MPD2    H113494   1.256   3.495  12.098 -0.0793  1.2962 -2.0412
  918MPD2    H213495   1.475   3.819  12.210 -0.7494 -0.2565  0.6787
  918MPD2    H313496   1.271   3.708  12.180  0.3460  0.4619  0.0628
  918MPD2     N13497   1.482   3.333  12.012  0.2675  0.5907  0.2406
  918MPD2    H513498   1.575   3.299  11.990  0.2580  1.6758 -1.4180
  918MPD2    N113499   1.723   3.715  12.152 -0.3524  0.1026 -0.3041
  918MPD2    H713500   1.802   3.662  12.118  1.7338  2.2512  1.2714
  919MPD2     C13501   2.315   1.842  11.587 -0.2833  0.0418  0.1638
  919MPD2    C113502   2.232   1.843  11.708 -0.3197  0.9314  0.3163
  919MPD2    C213503   2.132   1.942  11.723  0.1123  0.5876  0.5246
  919MPD2    C313504   2.111   2.038  11.630 -0.3534  0.0663 -0.7250
  919MPD2    C413505   2.192   2.033  11.525 -0.2518  0.2071 -0.2671
  919MPD2    C513506   2.298   1.947  11.504  0.1577 -0.6871 -0.5811
  919MPD2     H13507   2.070   1.947  11.812  1.1852  0.9136  1.2491
  919MPD2    H113508   2.175   2.099  11.441  0.7478 -1.2487 -1.5981
  919MPD2    H213509   2.396   1.772  11.566 -1.5102 -1.3253 -0.0439
  919MPD2    H313510   2.336   1.943  11.403 -3.3796  1.5210 -2.0071
  919MPD2     N13511   2.006   2.128  11.626 -0.0961  0.0216  0.1402
  919MPD2    H513512   2.000   2.191  11.546 -1.1460 -1.4927 -0.9789
  919MPD2    N113513   2.230   1.738  11.806 -0.3004  0.1596  0.0324
  919MPD2    H713514   2.143   1.730  11.859 -0.8398 -0.5921 -0.9708
  920MPD2     C13515   1.977   2.819  11.021  0.5569  0.1174  0.6451
  920MPD2    C113516   1.856   2.759  11.001 -0.0437 -0.3509 -0.5985
  920MPD2    C213517   1.819   2.672  11.093 -0.2991  0.8167 -0.3175
  920MPD2    C313518   1.876   2.651  11.221  0.7232 -0.0067  0.3359
  920MPD2    C413519   1.993   2.723  11.245  0.4203 -0.7946 -0.4216
  920MPD2    C513520   2.042   2.796  11.146 -0.1944  0.7991 -0.3066
  920MPD2     H13521   1.735   2.610  11.063  0.6629 -0.8010  0.3458
  920MPD2    H113522   2.047   2.712  11.339  1.2485  1.5728 -0.6417
  920MPD2    H213523   2.022   2.882  10.945  0.2451 -0.0210  0.3455
  920MPD2    H313524   2.141   2.837  11.162  0.6079 -1.3000  0.0803
  920MPD2     N13525   1.818   2.557  11.305  0.4671  0.3394  0.2445
  920MPD2    H513526   1.732   2.521  11.265 -0.3124  1.7702  0.6446
  920MPD2    N113527   1.773   2.769  10.881 -0.6984 -0.4197  0.2832
  920MPD2    H713528   1.681   2.727  10.872 -0.3858 -0.8350 -1.0164
  921MPD2     C13529   3.089   2.252  16.659  0.0304 -0.0101  0.3616
  921MPD2    C113530   3.036   2.150  16.592 -0.7071  0.6251 -0.5671
  921MPD2    C213531   2.909   2.113  16.620 -0.1211  0.2231  0.2546
  921MPD2    C313532   2.839   2.183  16.722  0.0516 -0.6190  0.0992
  921MPD2    C413533   2.888   2.296  16.773  0.4907 -0.3565  0.4157
  921MPD2    C513534   3.020   2.332  16.749 -0.8233  1.2543 -0.8594
  921MPD2     H13535   2.862   2.027  16.574 -0.0345  0.6402 -0.6191
  921MPD2    H113536   2.840   2.352  16.853 -2.9169 -2.0920 -0.4110
  921MPD2    H213537   3.194   2.271  16.642  0.2113 -0.8649  0.5198
  921MPD2    H313538   3.076   2.407  16.803  1.7593 -1.6440  0.5240
  921MPD2     N13539   2.708   2.141  16.760  0.1643 -0.3282  0.0689
  921MPD2    H513540   2.643   2.208  16.799 -0.5896 -0.5334 -0.8543
  921MPD2    N113541   3.111   2.071  16.497 -0.2743 -0.0697  0.0214
  921MPD2    H713542   3.209   2.083  16.477 -0.2993 -0.4341 -0.3220
  922MPD2     C13543   3.263   4.323  16.729  0.4820 -0.9994  0.7191
  922MPD2    C113544   3.226   4.391  16.843  0.4838  0.7483  0.6025
  922MPD2    C213545   3.135   4.337  16.928 -0.0453  0.4506  0.9464
  922MPD2    C313546   3.073   4.219  16.898  0.0758  0.0508  0.7717
  922MPD2    C413547   3.116   4.155  16.788  0.9486  0.2358 -0.0628
  922MPD2    C513548   3.217   4.197  16.704 -0.1277 -0.1240  0.3320
  922MPD2     H13549   3.114   4.391  17.020 -1.3324 -0.1189  0.9833
  922MPD2    H113550   3.092   4.051  16.768  1.0325  0.1587  0.2455
  922MPD2    H213551   3.333   4.367  16.659  0.3141 -1.3665  0.3241
  922MPD2    H313552   3.251   4.127  16.629  1.2930  1.2673 -0.3018
  922MPD2     N13553   2.980   4.158  16.988 -0.4624 -0.0413 -0.1304
  922MPD2    H513554   2.964   4.194  17.082  2.1310  0.2184  0.2229
  922MPD2    N113555   3.285   4.517  16.888 -0.9902  0.0896  0.3180
  922MPD2    H713556   3.257   4.552  16.980  1.9241 -0.0537  1.2562
  923MPD2     C13557   4.292   0.812   9.267  0.0324 -0.3609  0.9999
  923MPD2    C113558   4.307   0.940   9.318  0.7112  0.4800 -0.8191
  923MPD2    C213559   4.438   0.971   9.369  0.3744  0.2791  0.2674
  923MPD2    C313560   4.544   0.884   9.369 -0.1649 -0.4949 -0.3763
  923MPD2    C413561   4.523   0.763   9.319 -0.5760 -0.1510 -0.3683
  923MPD2    C513562   4.403   0.727   9.267  0.3376 -0.7285  0.1137
  923MPD2     H13563   4.456   1.071   9.406  3.3743  0.6776 -2.3105
  923MPD2    H113564   4.606   0.694   9.307 -0.1550  0.2269  0.4019
  923MPD2    H213565   4.202   0.780   9.215  1.2193  0.8836 -1.8224
  923MPD2    H313566   4.393   0.629   9.220 -0.9470 -0.0114 -1.0954
  923MPD2     N13567   4.674   0.916   9.418 -0.0910 -0.3863 -0.1055
  923MPD2    H513568   0.001   0.841   9.408  0.0529 -0.1689 -0.7521
  923MPD2    N113569   4.198   1.028   9.313 -0.5252  0.3900  0.2324
  923MPD2    H713570   4.108   0.995   9.277  0.2530  1.2344 -2.5254
  924MPD2     C13571   4.585   4.083  15.603 -0.0127 -0.4475  0.3429
  924MPD2    C113572   4.608   4.153  15.722  0.0964 -0.4925  0.0595
  924MPD2    C213573   4.716   4.242  15.724 -0.1926 -0.6263 -0.7602
  924MPD2    C313574   0.056   4.257  15.610 -0.2157 -0.2238  0.3680
  924MPD2    C413575   0.029   4.191  15.493  0.4591  0.2696 -0.1572
  924MPD2    C513576   4.660   4.108  15.489 -0.1819  0.3803 -1.3060
  924MPD2     H13577   0.003   4.297  15.813  1.1799 -0.4722 -1.2695
  924MPD2    H113578   0.080   4.209  15.399  0.5770 -0.0224 -0.1489
  924MPD2    H213579   4.510   4.005  15.599  0.7487 -1.1308 -0.5597
  924MPD2    H313580   4.636   4.061  15.394  0.3323  1.0205 -1.7600
  924MPD2     N13581   0.163   4.349  15.623  0.2264 -0.1529 -0.7183
  924MPD2    H513582   0.172   4.380  15.720 -0.4322  0.6802 -0.9229
  924MPD2    N113583   4.525   4.137  15.837  0.4004  0.1294  0.7466
  924MPD2    H713584   4.554   4.204  15.907  1.9499 -1.1625  1.3526
  925MPD2     C13585   3.726   1.858  14.442 -0.2529 -0.6393  0.3032
  925MPD2    C113586   3.626   1.939  14.376  0.0593 -0.0885  1.2053
  925MPD2    C213587   3.531   2.021  14.453 -0.7771  0.2802  0.5254
  925MPD2    C313588   3.547   2.014  14.593 -0.0710 -0.4601  0.3524
  925MPD2    C413589   3.642   1.936  14.651  0.7086 -0.4373 -0.3545
  925MPD2    C513590   3.730   1.860  14.578 -0.1612  0.6566 -0.7437
  925MPD2     H13591   3.461   2.085  14.400  1.3061  1.5864 -0.6590
  925MPD2    H113592   3.656   1.915  14.757  2.3670  2.4198 -0.0164
  925MPD2    H213593   3.798   1.802  14.385 -0.1562 -1.1551  0.9292
  925MPD2    H313594   3.813   1.810  14.624  0.8854  1.6861 -1.5009
  925MPD2     N13595   3.485   2.103  14.680 -0.5229 -0.1093 -0.0205
  925MPD2    H513596   3.520   2.104  14.775  0.8082 -1.0302 -0.5058
  925MPD2    N113597   3.621   1.942  14.235 -0.8745  0.1754 -0.7322
  925MPD2    H713598   3.567   2.024  14.208  0.5496  0.8963 -1.4256
  926MPD2     C13599   2.478   0.276  13.857 -0.0226 -0.2677  0.6562
  926MPD2    C113600   2.414   0.375  13.799 -0.5670  0.0382  0.5992
  926MPD2    C213601   2.460   0.424  13.676 -0.7118 -0.1258 -0.3923
  926MPD2    C313602   2.586   0.389  13.626 -1.2658  0.2878 -0.4045
  926MPD2    C413603   2.649   0.286  13.687  0.6215  0.3768  0.2663
  926MPD2    C513604   2.595   0.237  13.801 -0.4365  0.7267  0.3029
  926MPD2     H13605   2.404   0.504  13.628 -2.5777 -1.4647 -0.4334
  926MPD2    H113606   2.745   0.253  13.651 -0.1241 -0.8186 -0.6282
  926MPD2    H213607   2.440   0.227  13.946  1.0946  0.4320  1.5006
  926MPD2    H313608   2.653   0.159  13.849  2.6446  2.9590  0.2026
  926MPD2     N13609   2.632   0.437  13.502 -0.8515  0.0439  0.1804
  926MPD2    H513610   2.722   0.402  13.471 -0.1894  0.3181  1.8239
  926MPD2    N113611   2.290   0.423  13.844  0.2477  0.3526 -0.2920
  926MPD2    H713612   2.234   0.474  13.777 -1.8752 -0.1862  1.0819
  927MPD2     C13613   1.672   2.872  17.542  0.2204  0.4269  0.5116
  927MPD2    C113614   1.697   2.820  17.666 -0.7960 -0.3094  0.3007
  927MPD2    C213615   1.823   2.836  17.720  0.2338  0.4167 -0.4077
  927MPD2    C313616   1.924   2.896  17.648  0.6335  0.4919 -0.5678
  927MPD2    C413617   1.889   2.943  17.521 -0.3941  0.2727  0.5307
  927MPD2    C513618   1.763   2.949  17.471 -0.1316 -0.2991 -0.7409
  927MPD2     H13619   1.852   2.793   0.057  0.9374  0.3433 -0.6583
  927MPD2    H113620   1.960   2.993  17.455 -1.0700 -2.9362 -2.6115
  927MPD2    H213621   1.572   2.870  17.500 -0.7377  0.4295  2.7515
  927MPD2    H313622   1.742   2.993  17.374 -0.4234  1.1998  0.0103
  927MPD2     N13623   2.052   2.886  17.703  0.7979  0.1046  0.5051
  927MPD2    H513624   2.066   2.853   0.041 -0.9242 -2.0766  0.0030
  927MPD2    N113625   1.593   2.738  17.726 -0.3223  0.1997 -0.3864
  927MPD2    H713626   1.501   2.729  17.684 -0.9970  0.8202  0.9675
  928MPD2     C13627   3.680   1.746   0.971 -0.3698  0.3433 -0.6861
  928MPD2    C113628   3.783   1.681   1.037  0.0109 -0.4432  0.6422
  928MPD2    C213629   3.903   1.673   0.968  0.5489 -0.1859  0.2116
  928MPD2    C313630   3.923   1.734   0.843 -0.0161 -0.0460  0.8808
  928MPD2    C413631   3.820   1.795   0.780  0.5963  0.3242  0.3167
  928MPD2    C513632   3.699   1.806   0.849 -0.3824 -0.0072  0.5904
  928MPD2     H13633   3.987   1.619   1.010 -0.1920 -0.6763  1.0669
  928MPD2    H113634   3.846   1.847   0.688  1.8265  0.3276  0.6579
  928MPD2    H213635   3.584   1.768   1.016 -1.1353 -1.4176 -1.4443
  928MPD2    H313636   3.622   1.870   0.806 -0.1924 -0.3734 -0.2971
  928MPD2     N13637   4.042   1.722   0.771  0.4268  0.5200  0.2686
  928MPD2    H513638   4.049   1.760   0.677 -2.1447 -0.2278 -0.2128
  928MPD2    N113639   3.765   1.644   1.171  0.8325 -0.6237  0.0567
  928MPD2    H713640   3.680   1.678   1.216 -0.5402 -1.3685 -1.9731
  929MPD2     C13641   0.436   1.458  10.700 -0.2311 -0.3684 -0.6137
  929MPD2    C113642   0.352   1.436  10.593  0.6271 -0.3473  1.0753
  929MPD2    C213643   0.394   1.479  10.466 -0.4172  0.9504 -0.1403
  929MPD2    C313644   0.519   1.528  10.441  0.0967  0.4415 -0.2780
  929MPD2    C413645   0.598   1.547  10.553  0.0079 -0.8676 -0.4123
  929MPD2    C513646   0.559   1.512  10.680  0.3547  0.1892  0.0610
  929MPD2     H13647   0.328   1.466  10.381  0.1648  0.3938 -0.5120
  929MPD2    H113648   0.698   1.588  10.542 -1.4202  2.2355 -1.8011
  929MPD2    H213649   0.398   1.447  10.801  1.8731 -0.3986  0.1659
  929MPD2    H313650   0.631   1.530  10.759  0.3523  0.8764 -0.0887
  929MPD2     N13651   0.553   1.572  10.312  0.4778  0.0728 -0.2803
  929MPD2    H513652   0.619   1.649  10.314 -1.1148  1.4084  1.6313
  929MPD2    N113653   0.220   1.399  10.623  0.4378 -0.3446 -0.5600
  929MPD2    H713654   0.185   1.409  10.717  1.9013 -0.3211 -0.0188
  930MPD2     C13655   1.457   3.243  13.832  0.7659  0.3797 -0.5646
  930MPD2    C113656   1.595   3.239  13.840  0.5291  0.9749 -0.0726
  930MPD2    C213657   1.665   3.169  13.738  0.1966 -0.0183  0.2450
  930MPD2    C313658   1.600   3.108  13.634 -0.0728 -0.4401 -0.2628
  930MPD2    C413659   1.456   3.112  13.620  0.1166 -0.1921 -0.2068
  930MPD2    C513660   1.392   3.177  13.726 -0.5551  0.5602  0.5069
  930MPD2     H13661   1.771   3.158  13.753 -0.1805 -4.8152 -0.8482
  930MPD2    H113662   1.398   3.072  13.538  0.6391  0.5508 -0.9360
  930MPD2    H213663   1.406   3.287  13.917 -0.5513 -0.9324 -0.6813
  930MPD2    H313664   1.284   3.184  13.727 -0.4755  2.0288 -2.0167
  930MPD2     N13665   1.660   3.038  13.529 -0.0939  0.0064 -0.5058
  930MPD2    H513666   1.595   3.009  13.457 -0.7587  0.0389  0.0845
  930MPD2    N113667   1.651   3.275  13.967  0.2672 -0.2100  0.5010
  930MPD2    H713668   1.579   3.293  14.036  0.8045 -1.6427  1.4199
  931MPD2     C13669   1.381   1.984   0.483  0.4254 -0.2862 -0.0363
  931MPD2    C113670   1.431   2.113   0.475 -0.4915  0.6749 -0.1704
  931MPD2    C213671   1.501   2.165   0.590 -0.0595 -0.4897  0.6873
  931MPD2    C313672   1.524   2.094   0.702 -0.3144  0.3070 -0.0550
  931MPD2    C413673   1.475   1.961   0.710 -0.5665  0.5143 -0.0034
  931MPD2    C513674   1.399   1.916   0.601  0.2247  0.2517  0.6610
  931MPD2     H13675   1.531   2.269   0.591  0.3967 -0.6264  1.3883
  931MPD2    H113676   1.494   1.890   0.789 -0.8358 -0.5387 -0.8756
  931MPD2    H213677   1.330   1.940   0.398 -0.9715  0.0461  0.6271
  931MPD2    H313678   1.354   1.819   0.621 -0.4633  0.6949  1.2569
  931MPD2     N13679   1.589   2.160   0.808  0.6188  0.1510  0.6801
  931MPD2    H513680   1.578   2.116   0.899 -0.2236 -0.0236  0.4946
  931MPD2    N113681   1.412   2.187   0.360 -0.6611  0.0204 -0.7626
  931MPD2    H713682   1.338   2.162   0.295 -2.1924 -0.5130  1.1936
  932MPD2     C13683   3.959   1.788  11.575  0.1236 -0.2249 -0.1447
  932MPD2    C113684   4.096   1.781  11.588  0.1017 -1.0615  0.0157
  932MPD2    C213685   4.166   1.666  11.567  0.3333  0.1331  0.0500
  932MPD2    C313686   4.088   1.552  11.547 -0.3633 -0.6937 -0.1555
  932MPD2    C413687   3.952   1.565  11.529 -0.5303 -0.1107  0.2396
  932MPD2    C513688   3.889   1.684  11.536 -0.2740 -0.1988 -0.1792
  932MPD2     H13689   4.274   1.662  11.566  0.3511  0.9675 -3.0836
  932MPD2    H113690   3.897   1.477  11.497 -0.5375 -0.0117 -0.0174
  932MPD2    H213691   3.911   1.885  11.588  1.2568  0.3313 -0.0411
  932MPD2    H313692   3.781   1.692  11.528 -0.1614  0.8323 -0.7306
  932MPD2     N13693   4.137   1.417  11.557  0.3533  0.1008  0.6485
  932MPD2    H513694   4.072   1.344  11.530  0.4554 -0.2708  1.4173
  932MPD2    N113695   4.170   1.889  11.638 -0.3248  0.3602 -0.2446
  932MPD2    H713696   4.270   1.874  11.627  0.0382  1.6142  1.3860
  933MPD2     C13697   3.550   1.821   1.980  0.0282  0.7785 -0.6334
  933MPD2    C113698   3.579   1.856   1.851  0.0163 -0.1241  0.2103
  933MPD2    C213699   3.565   1.983   1.811 -0.0959 -0.4736 -0.3587
  933MPD2    C313700   3.514   2.076   1.894 -0.9246  0.1393 -0.1387
  933MPD2    C413701   3.473   2.040   2.020  0.3971 -0.0894  0.1648
  933MPD2    C513702   3.489   1.907   2.068  0.2655  0.1237  0.1119
  933MPD2     H13703   3.593   2.011   1.710  2.2501  0.7533  0.6568
  933MPD2    H113704   3.436   2.107   2.096  0.0574 -3.2847  2.8168
  933MPD2    H213705   3.573   1.725   2.023 -3.1128  0.1489 -0.3784
  933MPD2    H313706   3.446   1.870   2.160  1.2922 -0.8282  0.1964
  933MPD2     N13707   3.498   2.209   1.844  0.1559  0.4190 -0.0766
  933MPD2    H513708   3.541   2.221   1.753  0.2258 -1.9857 -0.3509
  933MPD2    N113709   3.622   1.752   1.764 -0.4075  0.7302  0.5005
  933MPD2    H713710   3.627   1.662   1.810 -1.6095  0.0511 -0.6924
  934MPD2     C13711   1.110   4.182   1.418  0.1536 -0.0246  0.0474
  934MPD2    C113712   1.174   4.117   1.312 -0.4466 -0.5386 -0.1447
  934MPD2    C213713   1.107   4.008   1.260  0.3433  0.5396  0.0810
  934MPD2    C313714   0.997   3.955   1.325 -0.6408 -0.0944 -0.4065
  934MPD2    C413715   0.935   4.021   1.433 -0.2225 -0.2156  0.3317
  934MPD2    C513716   0.994   4.135   1.480  0.3901  0.1062 -0.6229
  934MPD2     H13717   1.147   3.957   1.174 -1.0447 -0.3780 -0.0291
  934MPD2    H113718   0.847   3.979   1.481  1.0566 -1.2938  1.7276
  934MPD2    H213719   1.138   4.280   1.454  1.5542  0.0955 -1.3760
  934MPD2    H313720   0.943   4.188   1.560  2.7167  1.7471 -0.2537
  934MPD2     N13721   0.931   3.840   1.279 -0.2065  0.0211 -0.0326
  934MPD2    H513722   0.834   3.826   1.307 -0.6017  1.3994 -0.7092
  934MPD2    N113723   1.289   4.160   1.244  0.0930 -0.0392  0.0611
  934MPD2    H713724   1.318   4.116   1.157  3.9918  0.8702  0.8718
  935MPD2     C13725   0.993   2.891   1.070 -0.4862 -0.1187  0.1347
  935MPD2    C113726   0.902   2.931   0.975  0.0318  0.0219 -0.2549
  935MPD2    C213727   0.857   3.066   0.971  0.0249  0.5512  0.1135
  935MPD2    C313728   0.903   3.166   1.056 -0.1665 -0.0097  0.1561
  935MPD2    C413729   0.998   3.125   1.145 -0.6108  0.0814 -0.4329
  935MPD2    C513730   1.042   2.994   1.150  0.1321 -0.4864 -0.6577
  935MPD2     H13731   0.771   3.091   0.910  0.7574  0.3567 -1.0020
  935MPD2    H113732   1.036   3.191   1.223 -0.9046  0.3818 -0.5435
  935MPD2    H213733   1.017   2.787   1.086 -0.1814  0.4511  3.2941
  935MPD2    H313734   1.117   2.963   1.222  0.7659  1.1666 -0.6222
  935MPD2     N13735   0.856   3.303   1.070  0.6043  0.5500  0.2475
  935MPD2    H513736   0.884   3.355   1.152 -1.1221 -1.6805  2.2207
  935MPD2    N113737   0.827   2.841   0.896  0.2053  0.1213  0.0573
  935MPD2    H713738   0.752   2.868   0.833 -1.0283 -1.6176  0.7680
  936MPD2     C13739   4.249   4.526  12.564  0.0267 -0.2364  0.3257
  936MPD2    C113740   4.235   4.659  12.603  0.1007 -0.7354  0.7298
  936MPD2    C213741   4.243   0.017  12.507 -0.8146  0.6139  0.4413
  936MPD2    C313742   4.278   4.724  12.379 -0.1100 -0.1556  0.1912
  936MPD2    C413743   4.280   4.587  12.341 -0.5217  0.6826  0.1084
  936MPD2    C513744   4.257   4.490  12.432 -0.0611 -0.2160  0.0983
  936MPD2     H13745   4.242   0.121  12.538 -0.8196  0.9182 -0.5668
  936MPD2    H113746   4.290   4.555  12.237 -1.3140  2.9458 -0.6642
  936MPD2    H213747   4.246   4.444  12.635  0.7225 -2.6665 -2.4689
  936MPD2    H313748   4.253   4.384  12.408 -1.3905 -0.1987  0.2622
  936MPD2     N13749   4.317   0.088  12.296 -0.3967  0.0660  0.8504
  936MPD2    H513750   4.317   0.182  12.333  0.0191 -0.0335  1.1120
  936MPD2    N113751   4.224   4.691  12.745 -0.9059 -0.4351 -0.0738
  936MPD2    H713752   4.223   0.049  12.772 -1.1313 -0.5510  0.3335
  937MPD2     C13753   2.467   0.955  11.621 -0.1941  0.0207 -0.4534
  937MPD2    C113754   2.524   1.072  11.658 -0.1769 -0.0994 -0.4803
  937MPD2    C213755   2.620   1.122  11.569 -0.6227 -0.3283 -0.2003
  937MPD2    C313756   2.670   1.058  11.456  0.1090 -0.0120 -0.0021
  937MPD2    C413757   2.625   0.925  11.437  0.3762  0.3756 -0.1275
  937MPD2    C513758   2.519   0.885  11.517 -0.5200 -0.1761 -0.5993
  937MPD2     H13759   2.656   1.224  11.577 -1.4687 -0.0971  0.6782
  937MPD2    H113760   2.665   0.850  11.370 -0.6228 -0.6716  0.4510
  937MPD2    H213761   2.380   0.918  11.673 -0.8135 -0.5977 -1.9485
  937MPD2    H313762   2.473   0.794  11.480 -1.6822  0.3159 -0.3660
  937MPD2     N13763   2.750   1.123  11.361 -0.2129 -0.0713  0.0798
  937MPD2    H513764   2.783   1.215  11.388  1.0145 -0.3111 -0.5875
  937MPD2    N113765   2.460   1.163  11.744 -0.0051 -0.3874  0.1642
  937MPD2    H713766   2.500   1.256  11.738 -1.1404  0.1860  1.4936
  938MPD2     C13767   4.617   3.382   0.250 -0.1624  0.3263 -0.6468
  938MPD2    C113768   4.675   3.430   0.364 -1.3810  0.4734  0.5491
  938MPD2    C213769   4.653   3.354   0.477  0.4698 -0.0955  0.5236
  938MPD2    C313770   4.593   3.229   0.480 -0.4123 -0.0559 -0.1557
  938MPD2    C413771   4.545   3.179   0.360  0.9077 -0.0920 -0.4272
  938MPD2    C513772   4.553   3.261   0.253  0.5009  1.2120 -0.3073
  938MPD2     H13773   4.692   3.397   0.569  0.6713 -0.2401  0.5041
  938MPD2    H113774   4.505   3.080   0.344  0.8458 -0.3124  1.0650
  938MPD2    H213775   4.622   3.429   0.152  1.9413 -0.1018 -0.7525
  938MPD2    H313776   4.528   3.221   0.156  1.7985 -1.1008  0.3047
  938MPD2     N13777   4.573   3.154   0.597  0.1095  0.7822 -0.4526
  938MPD2    H513778   4.513   3.072   0.592  2.2837 -0.7799 -1.1141
  938MPD2    N113779   0.001   3.553   0.373 -0.1624 -0.3918 -0.3319
  938MPD2    H713780   0.044   3.574   0.462  0.9818 -0.3598 -0.8903
  939MPD2     C13781   0.778   4.684  17.737  1.0901  0.1916  0.1791
  939MPD2    C113782   0.724   4.575   0.040  0.8010  0.6396 -0.6377
  939MPD2    C213783   0.739   4.450  17.736 -0.0029 -0.2382 -0.1653
  939MPD2    C313784   0.810   4.425  17.622  0.1408  0.1059 -0.0407
  939MPD2    C413785   0.855   4.540  17.557 -0.6600 -0.4615 -0.2201
  939MPD2    C513786   0.838   4.673  17.609  0.3920 -0.2385 -0.0941
  939MPD2     H13787   0.693   4.366   0.028 -1.9367 -1.2173 -3.6402
  939MPD2    H113788   0.902   4.542  17.459 -2.2986 -0.8386 -1.0082
  939MPD2    H213789   0.757   0.042   0.021 -1.3816 -0.1340 -0.3366
  939MPD2    H313790   0.870   0.022  17.556  0.0045 -1.0817 -1.7430
  939MPD2     N13791   0.814   4.296  17.571  0.1854  0.0248 -0.3943
  939MPD2    H513792   0.758   4.230  17.625 -1.4190  1.1581 -0.6761
  939MPD2    N113793   0.655   4.597   0.163  0.6061  0.5258  0.1751
  939MPD2    H713794   0.651   4.690   0.203  0.8747 -0.1150  1.6877
  940MPD2     C13795   4.698   0.318  13.545 -0.4899 -0.1356 -0.0607
  940MPD2    C113796   4.619   0.225  13.475  0.0508 -0.2853  0.3054
  940MPD2    C213797   4.599   0.245  13.342 -0.6157  0.1917  0.5123
  940MPD2    C313798   4.657   0.349  13.277  0.3400  0.0079 -0.0609
  940MPD2    C413799   0.006   0.432  13.341 -0.1795  0.7407 -0.3814
  940MPD2    C513800   0.019   0.416  13.475 -0.7709  0.7990  0.2329
  940MPD2     H13801   4.530   0.177  13.294 -1.1012  1.3396 -0.4056
  940MPD2    H113802   0.074   0.500  13.291 -0.1699 -0.4921 -2.0216
  940MPD2    H213803   4.719   0.303  13.650  1.7305  0.5736 -0.3911
  940MPD2    H313804   0.089   0.478  13.530 -0.6746 -0.5379  1.6076
  940MPD2     N13805   4.643   0.359  13.135  0.3525  0.4879  0.6800
  940MPD2    H513806   4.709   0.421  13.089 -2.3641  3.1058  0.3470
  940MPD2    N113807   4.563   0.108  13.532 -0.1293  0.9168 -0.0907
  940MPD2    H713808   4.517   0.040  13.472  0.8487  0.3352 -0.1911
  941MPD2     C13809   3.941   3.761   9.937  0.5540 -0.1218  0.0856
  941MPD2    C113810   4.014   3.793  10.049 -0.0327  0.0052 -0.1815
  941MPD2    C213811   3.971   3.746  10.175 -0.5536 -0.2975 -0.1641
  941MPD2    C313812   3.863   3.664  10.181  0.1031 -1.0975 -0.3458
  941MPD2    C413813   3.794   3.630  10.069 -0.0565  0.5328 -0.5680
  941MPD2    C513814   3.844   3.667   9.950  0.8049  0.1601 -0.3087
  941MPD2     H13815   4.034   3.771  10.259  0.1637  2.1613 -1.4445
  941MPD2    H113816   3.715   3.556  10.059 -1.8545  2.3553  0.1775
  941MPD2    H213817   3.974   3.801   9.841 -0.0037 -1.2066 -0.5543
  941MPD2    H313818   3.794   3.648   9.856  0.3731  3.8314 -0.8387
  941MPD2     N13819   3.822   3.603  10.295 -0.8266 -0.1327 -0.1618
  941MPD2    H513820   3.749   3.533  10.289 -0.9978  0.2230 -2.1809
  941MPD2    N113821   4.119   3.890  10.044 -0.2360  0.5801  0.6049
  941MPD2    H713822   4.162   3.924  10.130  2.5586 -0.4092 -0.4012
  942MPD2     C13823   3.478   0.163   8.769  0.2078  0.1516 -0.1599
  942MPD2    C113824   3.586   0.205   8.844 -0.0925 -0.2005  1.0801
  942MPD2    C213825   3.686   0.277   8.773 -0.1094  0.9540  0.2578
  942MPD2    C313826   3.673   0.325   8.643 -0.4059  1.0316 -0.5389
  942MPD2    C413827   3.559   0.285   8.578 -0.3970 -0.5203  0.0057
  942MPD2    C513828   3.463   0.210   8.638  0.0162  0.7574  0.0401
  942MPD2     H13829   3.775   0.306   8.827 -0.0813  0.8996  0.2404
  942MPD2    H113830   3.542   0.323   8.478 -0.4838  0.4399  0.3855
  942MPD2    H213831   3.398   0.102   8.809 -2.0342  3.0085 -0.2978
  942MPD2    H313832   3.376   0.169   8.587  2.8238 -4.3702 -0.5824
  942MPD2     N13833   3.773   0.404   8.577 -0.7172 -0.3971  0.3241
  942MPD2    H513834   3.755   0.435   8.482  0.9658 -2.6181 -0.7176
  942MPD2    N113835   3.613   0.178   8.982  0.3087  0.8129 -0.3687
  942MPD2    H713836   3.703   0.205   9.020  0.2638  0.3848  0.0410
  943MPD2     C13837   3.062   2.950  10.054  0.3936  0.1119  0.6128
  943MPD2    C113838   2.945   2.957  10.124 -0.5222  0.5056  0.2339
  943MPD2    C213839   2.941   3.029  10.242 -0.5678 -0.1689  0.4818
  943MPD2    C313840   3.059   3.077  10.306  0.2108  0.3041 -0.9831
  943MPD2    C413841   3.171   3.088  10.224  0.1649 -0.6401  0.4204
  943MPD2    C513842   3.166   3.024  10.103 -0.2130 -0.0900 -0.4828
  943MPD2     H13843   2.850   3.018  10.299 -0.3329  3.3854  1.5557
  943MPD2    H113844   3.266   3.122  10.264 -0.1110  0.0281  0.5233
  943MPD2    H213845   3.080   2.917   9.953  3.3458  0.5559  1.0162
  943MPD2    H313846   3.256   3.027  10.042 -2.0045  1.2588 -3.0586
  943MPD2     N13847   3.061   3.123  10.438 -0.1545  0.2896 -0.5929
  943MPD2    H513848   3.148   3.163  10.473 -0.5448  0.3389  0.3301
  943MPD2    N113849   2.836   2.883  10.080 -0.1151 -0.9504 -0.3209
  943MPD2    H713850   2.864   2.833   9.996 -0.1562  0.7984 -1.3921
  944MPD2     C13851   2.922   2.801  11.528 -0.7205 -0.9114  0.0028
  944MPD2    C113852   2.931   2.863  11.406  0.1534  0.0342  0.4829
  944MPD2    C213853   2.856   2.972  11.369 -0.6385 -0.2160 -0.0192
  944MPD2    C313854   2.754   3.009  11.454  0.2445 -0.3788 -0.1831
  944MPD2    C413855   2.731   2.933  11.574  0.2435  0.3700  0.0934
  944MPD2    C513856   2.820   2.828  11.606 -0.3551  0.3237 -0.0117
  944MPD2     H13857   2.875   3.014  11.271 -0.3355  2.3048  1.1353
  944MPD2    H113858   2.649   2.954  11.642  1.8971 -1.5028  2.6701
  944MPD2    H213859   2.983   2.713  11.549 -2.0472 -1.8593 -0.1315
  944MPD2    H313860   2.813   2.775  11.700 -0.3250 -1.4246 -0.9978
  944MPD2     N13861   2.689   3.120  11.411 -0.0944 -0.4319  0.3661
  944MPD2    H513862   2.730   3.168  11.331 -0.9681 -0.1120  0.1073
  944MPD2    N113863   3.024   2.795  11.317 -0.1355 -0.0613 -0.7801
  944MPD2    H713864   3.085   2.720  11.348  0.9110  0.6367 -1.1255
    1TMC1    C113865   0.567   3.998  13.619  0.0181 -0.1009 -0.2623
    1TMC1    C213866   0.558   3.917  13.512 -0.2785 -0.1900  0.2955
    1TMC1    C313867   0.488   3.962  13.399  0.0273 -0.1236 -0.6084
    1TMC1    C413868   0.490   4.112  13.637  0.0649 -0.0051  0.1697
    1TMC1    C513869   0.419   4.155  13.522 -0.2349 -0.2121 -0.7969
    1TMC1    C613870   0.423   4.079  13.407  0.3057 -0.5903 -0.0576
    1TMC1     C13871   0.631   3.939  13.739 -0.6654 -1.1247 -0.5890
    1TMC1     O13872   0.685   3.830  13.713 -0.1824  0.1795  1.0315
    1TMC1     H13873   0.615   3.825  13.503 -1.8732 -1.4376  3.1148
    1TMC1    H113874   0.474   4.160  13.733 -0.2151 -1.1196  0.6953
    1TMC1    H213875   0.375   4.104  13.313 -2.0985 -1.0853  1.0396
    1TMC1    C713876   0.362   4.287  13.516 -0.2033 -0.9073  0.4527
    1TMC1    C813877   0.488   3.879  13.278 -0.4753  0.4637 -0.1497
    1TMC1    O113878   0.425   4.371  13.581 -0.5408 -0.0931  0.0765
    1TMC1    O213879   0.577   3.796  13.273 -0.2729  0.0643 -0.1924
    1TMC1    O313880   0.304   4.304  13.395  0.1865  0.1682 -0.7471
    1TMC1    H313881   0.238   4.236  13.369 -0.6435  0.5933  0.2285
    1TMC1    O513882   0.356   3.847  13.248  0.1298 -0.2424 -0.3235
    1TMC1    H513883   0.284   3.899  13.289  0.1585  0.2656 -0.9310
    2MPD2     C13884   0.860   3.943  14.194  0.3297  0.8198  0.0280
    2MPD2    C113885   0.808   4.065  14.176 -0.0012 -0.6563 -0.1132
    2MPD2    C213886   0.740   4.095  14.057  0.3430 -0.0899 -0.0981
    2MPD2    C313887   0.724   3.998  13.963  0.3764 -0.3140 -0.2099
    2MPD2    C413888   0.773   3.868  13.982  0.0724 -0.1944 -0.1041
    2MPD2    C513889   0.837   3.839  14.104  0.5488  0.5275 -0.3514
    2MPD2     H13890   0.699   4.192  14.034 -2.1180 -1.2193 -0.4619
    2MPD2    H113891   0.763   3.778  13.923 -0.4123 -0.5178  0.4781
    2MPD2    H213892   0.910   3.916  14.287  0.4673 -1.4562 -0.7106
    2MPD2    H313893   0.878   3.742  14.131 -0.5676 -0.3262 -1.6903
    2MPD2     N13894   0.654   4.028  13.843 -0.4323  0.3484 -0.5432
    2MPD2    H513895   0.620   4.124  13.841 -0.3325  0.4115  0.9473
    2MPD2    N113896   0.833   4.152  14.282  0.0516  0.4644 -0.1046
    2MPD2    H713897   0.886   4.117  14.361 -0.0165  0.7139  0.0528
    3TMC2    C113898   0.857   4.332  14.420 -0.1040  0.2442  0.7589
    3TMC2    C213899   0.896   4.253  14.532  0.3651 -0.2214  0.1951
    3TMC2    C313900   0.908   4.314  14.656 -0.3889 -0.3337  0.4081
    3TMC2    C413901   0.836   4.469  14.439  0.3580  0.0292 -0.1344
    3TMC2    C513902   0.848   4.522  14.564  0.4590 -0.0163  0.5903
    3TMC2    C613903   0.883   4.449  14.675 -0.7428 -0.7836  0.0136
    3TMC2     C13904   0.814   4.281  14.293 -0.4370  0.0157 -0.4496
    3TMC2     O13905   0.767   4.356  14.209 -0.3468  0.0316 -0.0466
    3TMC2     H13906   0.889   4.145  14.530  0.3566 -0.2324  1.1552
    3TMC2    H113907   0.822   4.534  14.354  0.6598  0.9140  0.4911
    3TMC2    H213908   0.895   4.495  14.773 -2.2429 -0.6518  0.1404
    3TMC2    C713909   0.842   4.667  14.584  0.3385  0.4765 -0.1227
    3TMC2    C813910   0.923   4.234  14.776  0.2770  0.0996  0.0338
    3TMC2    O113911   0.885   4.705  14.693 -0.1756 -0.2534  0.5236
    3TMC2    O213912   0.909   4.286  14.888  0.2791 -0.4674  0.4836
    3TMC2    O513913   1.002   4.120  14.758  0.3532 -0.1004  0.9519
    3TMC2    H513914   1.011   4.095  14.664  1.5877  0.6866  0.8592
    4TMC2    C113915   0.542   0.613  13.924  0.3651  0.7694 -0.2570
    4TMC2    C213916   0.576   0.567  13.800 -0.6841 -0.1175 -0.4946
    4TMC2    C313917   0.655   0.454  13.785 -0.0500  0.2706  0.0453
    4TMC2    C413918   0.577   0.536  14.033  0.3146  0.6342  0.5860
    4TMC2    C513919   0.649   0.423  14.006 -0.4170  0.0351 -0.0950
    4TMC2    C613920   0.706   0.390  13.892  0.2117  0.0255 -0.0982
    4TMC2     C13921   0.470   0.734  13.936  0.6793 -0.6050 -0.4719
    4TMC2     O13922   0.467   0.782  14.047 -0.3549  0.0548 -0.3212
    4TMC2     H13923   0.560   0.624  13.709 -0.0918 -2.7878 -2.2696
    4TMC2    H113924   0.546   0.568  14.132 -2.1270 -0.9206  0.3048
    4TMC2    H213925   0.766   0.300  13.884  0.3429  0.0352  0.8319
    4TMC2    C713926   0.676   0.337  14.118 -0.7027  0.3748 -0.1977
    4TMC2    C813927   0.738   0.439  13.667 -0.2662 -0.2410  0.7400
    4TMC2    O113928   0.684   0.220  14.081 -0.0260 -0.0437  0.0791
    4TMC2    O213929   0.698   0.475  13.556 -0.4118 -0.0270  0.3170
    4TMC2    O513930   0.851   0.489  13.722  0.1217  0.0894  0.8977
    4TMC2    H513931   0.861   0.447  13.811  3.2271 -1.2228 -0.0796
    5MPD2     C13932   0.065   1.023  13.814 -0.2603 -0.2934  0.2996
    5MPD2    C113933   0.100   0.934  13.704 -0.6483  0.2660  0.0501
    5MPD2    C213934   0.218   0.858  13.715 -0.8830 -0.3485  0.0759
    5MPD2    C313935   0.301   0.871  13.825  0.8116 -0.3478 -0.2605
    5MPD2    C413936   0.274   0.967  13.919  0.6832 -0.3108  0.3912
    5MPD2    C513937   0.155   1.039  13.915 -0.1488 -0.4785 -0.2211
    5MPD2     H13938   0.234   0.778  13.643  1.2353 -0.5196  0.7463
    5MPD2    H113939   0.337   0.979  14.006  2.2345  0.6020 -0.8457
    5MPD2    H213940   4.709   1.072  13.805  0.4015  1.0034  0.2427
    5MPD2    H313941   0.140   1.107  13.998  2.0096  1.6532 -1.5569
    5MPD2     N13942   0.411   0.782  13.827 -0.5608 -0.0711 -0.2615
    5MPD2    H513943   0.418   0.725  13.743 -2.5577  2.4707 -2.1377
    5MPD2    N113944   4.737   0.921  13.603  0.0381  0.5848  0.1654
    5MPD2    H713945   4.657   0.983  13.603 -1.1915 -0.9920 -0.9600
    6MPD1     C13946   4.267   2.322  13.512  0.6912 -0.0749  0.7533
    6MPD1    C113947   4.147   2.256  13.535 -0.3978  0.0819 -1.2689
    6MPD1    C213948   4.131   2.127  13.497  0.0689  0.1001  0.2319
    6MPD1    C313949   4.235   2.057  13.430 -0.6913  0.1281 -0.4403
    6MPD1    C413950   4.355   2.120  13.408  0.6271  0.4336  0.3044
    6MPD1    C513951   4.364   2.252  13.453  0.0692  0.3720 -0.4833
    6MPD1     H13952   4.046   2.068  13.529  0.1719 -0.4698 -0.5622
    6MPD1    H113953   4.439   2.060  13.374  0.3244  0.9916 -1.4025
    6MPD1    H213954   4.283   2.423  13.547  0.8850 -0.5193  1.9543
    6MPD1    H313955   4.458   2.302  13.436  1.2959 -1.5661  0.5269
    6MPD1     N13956   4.223   1.918  13.390 -0.5022  0.2649 -0.0239
    6MPD1    H513957   4.310   1.872  13.364 -1.0490 -0.3098 -0.8425
    6MPD1    N113958   4.053   2.318  13.618 -0.1081  0.0588  0.1887
    6MPD1    H613959   3.960   2.279  13.608  0.3420 -1.0139  0.2116
    6MPD1    H713960   4.043   2.418  13.599 -2.5440 -0.4031 -0.9042
    7MPD2     C13961   3.839   1.113  13.340 -0.4697 -0.0698 -0.0123
    7MPD2    C113962   3.971   1.155  13.370  0.0666 -0.1752 -1.2007
    7MPD2    C213963   4.072   1.066  13.388  0.1399 -0.2077 -0.6057
    7MPD2    C313964   4.050   0.930  13.369 -0.1650  0.5164 -0.7530
    7MPD2    C413965   3.920   0.892  13.327 -0.3290  0.0885 -0.1992
    7MPD2    C513966   3.818   0.978  13.312 -0.3963 -0.6853  0.7594
    7MPD2     H13967   4.172   1.104  13.403  0.9348 -3.1060  1.4409
    7MPD2    H113968   3.897   0.788  13.306 -1.1437  0.6749 -2.2678
    7MPD2    H213969   3.760   1.187  13.335 -0.2333  0.1734 -0.1714
    7MPD2    H313970   3.721   0.939  13.281 -1.4578  0.8262  2.1767
    7MPD2     N13971   4.156   0.834  13.379  0.1243  0.3786  0.0790
    7MPD2    H513972   4.134   0.743  13.342 -0.8717  1.0504 -0.9477
    7MPD2    N113973   4.010   1.291  13.361 -0.5290 -0.0197 -0.2237
    7MPD2    H713974   4.109   1.313  13.365 -0.1231 -2.0444  0.6268
    8TMC3    C113975   4.384   0.789  13.404 -0.0302  1.0168  0.2731
    8TMC3    C213976   4.499   0.824  13.473 -0.6344 -0.0862 -0.9837
    8TMC3    C313977   4.619   0.807  13.417  0.1253  0.2957 -0.2986
    8TMC3    C413978   4.386   0.754  13.274  0.4036 -0.2251 -0.0909
    8TMC3    C513979   4.510   0.728  13.216  0.7189 -0.9036 -0.2772
    8TMC3    C613980   4.629   0.743  13.292 -0.2022  0.7729 -0.0076
    8TMC3     C13981   4.268   0.860  13.449  0.3146  0.2009 -0.3922
    8TMC3     O13982   4.287   0.946  13.538 -0.1122 -0.1971 -0.0382
    8TMC3     H13983   4.494   0.844  13.580 -0.2869 -0.4482 -0.9007
    8TMC3    H113984   4.300   0.729  13.214  0.0541  0.4194  0.1386
    8TMC3    H213985   4.728   0.731  13.250 -0.0818  1.4419  0.0847
    8TMC3    C713986   4.527   0.803  13.094 -0.1881 -0.9926  0.0505
    8TMC3    C813987   0.002   0.829  13.498  0.2870  0.1557 -0.4670
    8TMC3    O113988   4.631   0.788  13.031 -0.2700  0.6381  0.3768
    8TMC3    O213989   0.099   0.757  13.470  0.2069 -0.5369  0.0695
    9TMC3    C113990   4.115   1.709  13.336  0.5327 -0.3767  0.0067
    9TMC3    C213991   4.214   1.675  13.247 -0.8232 -0.3284 -0.0935
    9TMC3    C313992   4.205   1.560  13.177 -0.2116  0.0369  0.2253
    9TMC3    C413993   4.001   1.633  13.347 -0.7482  0.1881  0.0905
    9TMC3    C513994   4.000   1.515  13.286  0.1857  0.2523  0.4048
    9TMC3    C613995   4.100   1.475  13.199 -0.0238  0.1372  0.2930
    9TMC3     C13996   4.107   1.843  13.390 -0.1125 -1.4883 -0.0215
    9TMC3     O13997   3.997   1.884  13.418 -0.7822  0.1197  0.2878
    9TMC3     H13998   4.307   1.729  13.234 -0.9500  0.2778  1.4740
    9TMC3    H113999   3.920   1.662  13.412 -0.2811 -0.5654  1.0147
    9TMC3    H214000   4.089   1.384  13.142 -0.5405  0.2324  0.2420
    9TMC3    C714001   3.925   1.399  13.341  0.5697 -0.5649  0.5187
    9TMC3    C814002   4.324   1.495  13.117 -0.6356 -0.3975 -0.2999
    9TMC3    O114003   3.802   1.412  13.362  0.9521 -0.0559 -0.1647
    9TMC3    O214004   4.409   1.563  13.066  0.5322  0.4458  0.0400
   10MPD2     C14005   4.581   1.081  12.989 -0.1246 -0.2106 -0.1296
   10MPD2    C114006   4.485   1.047  13.078 -1.0214 -0.3146  0.5294
   10MPD2    C214007   4.412   1.145  13.138 -0.1595 -0.0231  0.0725
   10MPD2    C314008   4.435   1.276  13.098  0.6843  0.2851  0.0562
   10MPD2    C414009   4.523   1.307  13.007  0.4193  0.3895 -0.5670
   10MPD2    C514010   4.596   1.210  12.950 -0.1426  0.7083  0.0952
   10MPD2     H14011   4.344   1.121  13.218 -0.3977  1.1571  0.2280
   10MPD2    H114012   4.531   1.404  12.961  0.9057 -1.1242 -3.6746
   10MPD2    H214013   4.657   1.014  12.952  0.9165  0.1478  1.3587
   10MPD2    H314014   4.656   1.249  12.868 -0.8360 -2.7007 -2.0449
   10MPD2     N14015   4.334   1.365  13.146  0.1800 -0.5184  0.0948
   10MPD2    H514016   4.265   1.339  13.216  0.9656  0.3079  1.1615
   10MPD2    N114017   4.453   0.920  13.119  0.0233 -0.6378 -0.2963
   10MPD2    H714018   4.370   0.913  13.178 -0.7148 -0.7825 -1.3441
   11MPD2     C14019   0.874   0.217  14.559 -0.2530 -0.6416 -0.6156
   11MPD2    C114020   0.813   0.141  14.466  0.3057 -0.0825 -0.1814
   11MPD2    C214021   0.753   0.216  14.363  0.0910 -0.1837 -0.2079
   11MPD2    C314022   0.764   0.350  14.344  0.3699 -0.1515 -0.1710
   11MPD2    C414023   0.824   0.420  14.441 -0.3826  0.4318  0.3746
   11MPD2    C514024   0.881   0.358  14.546 -0.3318 -0.3453  0.6676
   11MPD2     H14025   0.691   0.158  14.295  1.9881 -3.3222  0.7363
   11MPD2    H114026   0.831   0.528  14.439  1.7755  0.3757  4.2854
   11MPD2    H214027   0.911   0.172  14.650 -1.2057 -0.0172  0.0785
   11MPD2    H314028   0.943   0.417  14.612  0.7280 -1.5185  0.7210
   11MPD2     N14029   0.714   0.412  14.228 -0.7311 -0.2488  0.4020
   11MPD2    H514030   0.727   0.512  14.222  2.3206 -0.7451 -1.4099
   11MPD2    N114031   0.798   0.003  14.477 -0.3434  0.2209  0.5266
   11MPD2    H714032   0.742   4.695  14.407 -0.5779  0.5330  0.5054
    1MPD1     C14033   3.584   2.512  15.796 -0.1558 -0.2784  0.6494
    1MPD1    C114034   3.616   2.620  15.868  0.5143  0.7090  0.4402
    1MPD1    C214035   3.664   2.602  15.995 -0.0852 -0.2246 -0.4967
    1MPD1    C314036   3.663   2.477  16.058  0.3218 -0.3752  0.1194
    1MPD1    C414037   3.610   2.371  15.987  0.0659 -0.5505  0.6708
    1MPD1    C514038   3.575   2.389  15.858 -0.1277 -0.0210 -0.2252
    1MPD1     H14039   3.686   2.693  16.051  1.9341  0.2542 -2.0326
    1MPD1    H114040   3.602   2.275  16.036 -2.2909 -1.2577 -1.0821
    1MPD1    H214041   3.565   2.527  15.690  2.2876 -2.0022 -0.0511
    1MPD1    H314042   3.539   2.303  15.803 -2.8073  2.2101 -1.9248
    1MPD1     N14043   3.703   2.460  16.189  0.4370 -0.1548  0.7465
    1MPD1    H514044   3.693   2.363  16.219  0.8214 -0.3925  0.1083
    1MPD1    N114045   3.620   2.743  15.805 -0.0618 -0.3311  0.2438
    1MPD1    H614046   3.631   2.828  15.860 -2.6082  0.6560 -0.7911
    1MPD1    H714047   3.543   2.751  15.740 -1.6843  1.8362  2.4285
    2MPD1     C14048   3.433   2.093  17.032 -0.0454  0.3829  0.0581
    2MPD1    C114049   3.368   2.155  16.928  0.1331 -0.0076 -0.3189
    2MPD1    C214050   3.453   2.219  16.834 -0.3393 -0.7228 -0.1084
    2MPD1    C314051   3.592   2.240  16.850  0.3003  0.2526  0.3329
    2MPD1    C414052   3.645   2.176  16.964 -0.3560  0.0655  0.4999
    2MPD1    C514053   3.569   2.096  17.043 -0.2412 -0.1697  0.5718
    2MPD1     H14054   3.402   2.274  16.756  0.5573 -0.5131 -0.5489
    2MPD1    H114055   3.753   2.174  16.978 -0.5753 -0.4704  2.0436
    2MPD1    H214056   3.379   2.035  17.106  0.2069 -1.5296 -1.2505
    2MPD1    H314057   3.612   2.047  17.130  1.5321 -1.1280 -0.8669
    2MPD1     N14058   3.666   2.305  16.756  0.2384  0.4961  0.0978
    2MPD1    H514059   3.766   2.305  16.774  0.0919 -2.8096  0.9270
    2MPD1    N114060   3.232   2.136  16.912  0.3784  0.4307 -0.8617
    2MPD1    H614061   3.190   2.206  16.852 -1.5133 -2.0537 -2.4666
    2MPD1    H714062   3.182   2.141  17.001  1.1863 -0.4750 -0.3535
    3TMC3    C114063   3.742   2.421  16.581  0.2917 -0.3737  0.1709
    3TMC3    C214064   3.848   2.476  16.642 -0.1310 -0.5997  0.0854
    3TMC3    C314065   3.952   2.532  16.566 -0.8276  0.7702 -0.6100
    3TMC3    C414066   3.734   2.424  16.443  0.5336  0.2153  0.3584
    3TMC3    C514067   3.833   2.494  16.372  0.4867 -0.0688  0.0212
    3TMC3    C614068   3.942   2.549  16.433 -0.0786 -0.6155  0.9714
    3TMC3     C14069   3.622   2.369  16.648 -0.5509 -0.1422  0.6553
    3TMC3     O14070   3.512   2.358  16.587  0.3329 -0.1340  0.1371
    3TMC3     H14071   3.842   2.488  16.749 -0.4085 -0.5327  0.0624
    3TMC3    H114072   3.642   2.394  16.396  0.1527 -0.1145  1.3165
    3TMC3    H214073   4.017   2.602  16.375  0.9960 -1.9688  1.1467
    3TMC3    C714074   3.785   2.550  16.255  0.0857 -0.1823  0.6342
    3TMC3    C814075   4.063   2.615  16.618 -0.8028 -0.4673 -0.9709
    3TMC3    O114076   3.840   2.655  16.220  0.1386  0.0998  0.1336
    3TMC3    O214077   4.111   2.693  16.541  0.2209  0.0173 -0.4928
    4MPD1     C14078   4.382   2.768  16.982  0.6659  0.3953 -0.2225
    4MPD1    C114079   4.321   2.652  17.021  0.1051  0.3676  0.4931
    4MPD1    C214080   4.214   2.608  16.951 -0.1331 -0.0613 -0.8346
    4MPD1    C314081   4.194   2.652  16.826  0.8333  0.7389  0.0262
    4MPD1    C414082   4.272   2.757  16.780  0.0542  0.4012  0.4967
    4MPD1    C514083   4.360   2.825  16.860  0.6153  0.1500  0.3025
    4MPD1     H14084   4.158   2.518  16.975  0.5814 -0.2422  0.1582
    4MPD1    H114085   4.260   2.806  16.684  0.0924 -0.1645  0.1989
    4MPD1    H214086   4.455   2.822  17.041 -0.4917 -0.1457  1.6980
    4MPD1    H314087   4.409   2.918  16.831  0.6428  0.6558  2.0034
    4MPD1     N14088   4.080   2.602  16.759  0.0364 -0.4117 -0.2217
    4MPD1    H514089   4.036   2.520  16.799 -0.9519  1.3702  2.3372
    4MPD1    N114090   4.337   2.607  17.154  0.1440 -0.8119 -0.2485
    4MPD1    H614091   4.435   2.612  17.182  0.1017 -0.8270 -0.0966
    4MPD1    H714092   4.307   2.511  17.167 -0.6210 -0.8284 -2.1592
    1TCq1    O114093   4.044   1.827  11.272 -0.3153  0.3347  0.3704
    1TCq1    C114094   4.167   1.878  11.237 -0.4098 -0.2511  0.0861
    1TCq1    O214095   4.200   1.993  11.229  0.0691 -0.2565  0.3384
    1TCq1    C214096   4.262   1.765  11.244  0.5162 -0.2379 -0.2099
    1TCq1    C314097   4.389   1.805  11.272 -0.1319  0.1972 -0.7366
    1TCq1    C414098   4.487   1.703  11.286  0.6402  0.3863  0.1339
    1TCq1    C514099   4.447   1.577  11.245 -0.3332 -0.7054  0.6214
    1TCq1    C614100   4.317   1.541  11.223 -0.0404 -0.4929  0.2309
    1TCq1    C714101   4.220   1.635  11.225  0.2655 -0.1321  0.4347
    1TCq1    C814102   4.273   1.406  11.236 -0.9377  0.4554  0.1916
    1TCq1    O414103   4.153   1.381  11.232 -1.0394 -0.4793 -0.3298
    1TCq1    C914104   4.626   1.745  11.282  0.1723 -0.6730  0.2660
    1TCq1    O514105   4.709   1.651  11.272 -0.3758 -0.1118  0.3144
    1TCq1    O614106   4.649   1.862  11.326  0.4756 -0.3512 -0.1157
    1TCq1    H114107   4.055   1.734  11.301  0.2061  0.0745 -0.6463
    1TCq1    H214108   4.416   1.908  11.250  0.1185 -0.5745 -3.9769
    1TCq1    H314109   4.526   1.502  11.255  1.1377  0.5866 -1.2584
    1TCq1    H414110   4.118   1.613  11.196 -0.4763  0.9590  2.2448
    2MPD1     C14111   4.334   0.901  11.319 -0.1243 -0.4821 -0.7620
    2MPD1    C114112   4.439   0.969  11.383  0.9079 -0.1635 -1.2296
    2MPD1    C214113   4.448   1.106  11.344  0.1134  0.8620 -1.0355
    2MPD1    C314114   4.352   1.178  11.284  0.6201 -0.4700  0.0437
    2MPD1    C414115   4.243   1.109  11.239  0.8649 -0.8307 -0.0761
    2MPD1    C514116   4.242   0.973  11.252  0.3499 -0.0560 -0.6228
    2MPD1     H14117   4.536   1.166  11.362  0.7433 -0.2118 -0.5256
    2MPD1    H114118   4.161   1.161  11.191  0.4774 -1.0821  0.3145
    2MPD1    H214119   4.330   0.793  11.310  2.4228 -0.8721  2.8634
    2MPD1    H314120   4.164   0.916  11.203 -1.3411  1.7997 -0.0904
    2MPD1     N14121   4.374   1.319  11.267  0.0225 -0.6961  0.1678
    2MPD1    H514122   4.463   1.354  11.298  0.2323 -2.2645  1.3424
    2MPD1    N114123   4.552   0.901  11.432 -0.6386  0.3850 -0.0691
    2MPD1    H614124   4.534   0.810  11.474 -0.7057  0.2641 -0.3627
    2MPD1    H714125   4.607   0.959  11.495 -2.7593  0.0331  2.1005
    1TMC1    C114126   0.844   1.037   1.528  0.1294  0.3134  0.0752
    1TMC1    C214127   0.902   1.157   1.499 -0.8037  0.2999 -0.2879
    1TMC1    C314128   0.920   1.248   1.605  0.3817 -0.3385  0.1122
    1TMC1    C414129   0.799   1.018   1.655 -0.1157 -0.3325 -0.2257
    1TMC1    C514130   0.823   1.109   1.756 -0.6991 -0.2884  1.0009
    1TMC1    C614131   0.898   1.222   1.736  0.0425 -0.5050 -0.1815
    1TMC1     C14132   0.841   0.937   1.428 -0.3013 -0.1549  0.8908
    1TMC1     O14133   0.933   0.941   1.350 -0.0842 -0.0626  0.4997
    1TMC1     H14134   0.936   1.183   1.399 -0.8099  1.9473  0.1290
    1TMC1    H114135   0.751   0.924   1.679  0.7980 -1.2176 -1.8976
    1TMC1    H214136   0.929   1.283   1.820 -1.0481  2.9790 -2.3201
    1TMC1    C714137   0.812   1.049   1.882  0.0145 -0.4908 -0.3021
    1TMC1    C814138   0.999   1.365   1.566 -0.3165  0.3905  0.0778
    1TMC1    O114139   0.899   1.049   1.965 -0.0921 -0.2496 -0.2570
    1TMC1    O214140   1.054   1.389   1.459  0.7184 -0.2294  0.3126
    1TMC1    O314141   0.685   1.003   1.890  0.2305 -0.6564 -0.5624
    1TMC1    H314142   0.626   1.027   1.815 -1.4302 -0.9697  0.6583
    1TMC1    O514143   0.959   1.457   1.648  0.2306  0.4369  0.3958
    1TMC1    H514144   0.888   1.433   1.711 -0.8768 -0.4237 -1.1818
    2MPD1     C14145   0.698   0.500   1.213 -0.0881  0.0442 -0.6240
    2MPD1    C114146   0.621   0.518   1.329  0.1656 -0.2364  0.3491
    2MPD1    C214147   0.651   0.626   1.413  0.6890  0.2936  0.6336
    2MPD1    C314148   0.736   0.721   1.374 -0.9959  0.0848 -0.6586
    2MPD1    C414149   0.816   0.705   1.265 -0.4599  0.5030  0.1187
    2MPD1    C514150   0.794   0.596   1.183  0.1839  0.4978 -0.5925
    2MPD1     H14151   0.605   0.637   1.511 -1.2671  0.8667 -0.3631
    2MPD1    H114152   0.905   0.762   1.240 -1.8420  1.7952 -1.8084
    2MPD1    H214153   0.688   0.416   1.145  1.9013 -1.5678  1.0851
    2MPD1    H314154   0.855   0.564   1.099 -0.2911  1.1227 -1.1765
    2MPD1     N14155   0.751   0.836   1.451 -0.1479 -0.8850 -0.0225
    2MPD1    H514156   0.691   0.846   1.532 -1.4210  0.2286 -1.1025
    2MPD1    N114157   0.529   0.420   1.372  0.1786 -0.1128 -0.1619
    2MPD1    H614158   0.464   0.395   1.297  0.5875  0.9177 -0.8486
    2MPD1    H714159   0.472   0.442   1.453  0.5675  1.7665 -0.4109
    1MPD1     C14160   1.169   1.482  11.070 -0.5448 -0.7063  0.5999
    1MPD1    C114161   1.292   1.523  11.024 -0.2993  0.1256  0.1071
    1MPD1    C214162   1.389   1.543  11.116 -0.3435 -0.4294  0.3445
    1MPD1    C314163   1.367   1.525  11.253  0.6219 -0.1887  0.0911
    1MPD1    C414164   1.241   1.482  11.301  0.1789 -0.3613  0.0294
    1MPD1    C514165   1.147   1.460  11.204 -0.4239  0.0075  0.3271
    1MPD1     H14166   1.486   1.580  11.085 -1.0182  2.5278  1.8343
    1MPD1    H114167   1.218   1.480  11.406  0.3063 -0.6010  0.0552
    1MPD1    H214168   1.092   1.463  10.996 -0.3562  1.8609 -0.2325
    1MPD1    H314169   1.049   1.428  11.237 -0.6283  0.3815  0.0864
    1MPD1     N14170   1.466   1.570  11.330  0.0382  0.4457  0.3423
    1MPD1    H514171   1.550   1.600  11.280  0.1424  3.5779  2.3858
    1MPD1    N114172   1.282   1.581  10.894  0.0379  0.1156  0.1033
    1MPD1    H614173   1.215   1.527  10.839  0.5216 -0.5288  0.1442
    1MPD1    H714174   1.376   1.587  10.854  0.1883  1.1941  0.6162
    2MPD1     C14175   1.557   0.820  11.778 -0.3327 -0.1067  0.1035
    2MPD1    C114176   1.433   0.880  11.760  0.3295 -0.0874  0.4410
    2MPD1    C214177   1.407   0.944  11.642 -0.0665  0.4959  0.2242
    2MPD1    C314178   1.491   0.931  11.539  0.8465  0.0635  0.3535
    2MPD1    C414179   1.607   0.859  11.554  0.4319 -0.8643 -0.3710
    2MPD1    C514180   1.643   0.809  11.676  0.3545 -0.8400 -0.0902
    2MPD1     H14181   1.314   1.001  11.635 -2.1972 -3.2941 -1.9994
    2MPD1    H114182   1.670   0.847  11.467 -0.5102 -1.9457 -0.9095
    2MPD1    H214183   1.582   0.777  11.874  0.2888  1.5861  0.7018
    2MPD1    H314184   1.730   0.747  11.692  0.2333 -1.4036 -1.6141
    2MPD1     N14185   1.463   0.986  11.415 -0.4136 -0.5160 -0.0562
    2MPD1    H514186   1.525   0.975  11.336  1.0097 -2.2500  1.2930
    2MPD1    N114187   1.352   0.890  11.871 -0.4869  0.4662 -0.6548
    2MPD1    H614188   1.371   0.811  11.932 -1.9020  0.4591 -0.2166
    2MPD1    H714189   1.253   0.895  11.849 -1.3255 -2.7581  2.3004
    3MPD1     C14190   0.759   0.961  10.723 -0.4037  0.3541 -0.1262
    3MPD1    C114191   0.786   0.908  10.851  0.1137  0.2244  0.1975
    3MPD1    C214192   0.895   0.942  10.924 -0.3315  0.5849 -0.2336
    3MPD1    C314193   0.979   1.045  10.881 -0.7899 -0.2412 -0.1315
    3MPD1    C414194   0.946   1.109  10.767  0.6666 -0.4725  0.4216
    3MPD1    C514195   0.834   1.069  10.689  0.4713  0.1832  0.2537
    3MPD1     H14196   0.924   0.879  11.007 -1.3153 -0.7119 -0.8704
    3MPD1    H114197   1.005   1.193  10.730  1.2591 -0.8950  0.4080
    3MPD1    H214198   0.677   0.940  10.655 -0.9835 -1.2895  1.0828
    3MPD1    H314199   0.817   1.124  10.598  0.1620  0.8315  0.7003
    3MPD1     N14200   1.085   1.071  10.964  0.0521  0.2992 -0.3402
    3MPD1    H514201   1.114   1.009  11.038  0.4746  1.6934  0.6706
    3MPD1    N114202   0.708   0.793  10.878 -0.9156  0.0549  0.3183
    3MPD1    H614203   0.693   0.774  10.977 -0.5629 -0.3557  0.2938
    3MPD1    H714204   0.616   0.790  10.835 -0.6759  1.8882 -0.3484
    4MPD2     C14205   2.038   1.840  11.225 -0.2751  0.7235  0.3529
    4MPD2    C114206   2.034   1.758  11.332 -0.3262 -0.7220 -0.7457
    4MPD2    C214207   2.116   1.641  11.338 -0.6414 -0.1151 -0.5058
    4MPD2    C314208   2.200   1.615  11.234  0.1031 -1.1829 -0.2035
    4MPD2    C414209   2.211   1.699  11.131  0.0879 -0.6072 -0.6163
    4MPD2    C514210   2.134   1.818  11.129 -1.0217 -0.1169 -0.5329
    4MPD2     H14211   2.101   1.569  11.417  0.5881 -1.7153 -1.7220
    4MPD2    H114212   2.265   1.676  11.039  1.7576  0.4928  0.0937
    4MPD2    H214213   1.968   1.922  11.215 -1.0479 -0.0128 -0.2876
    4MPD2    H314214   2.136   1.882  11.042 -0.0918  1.0376  0.3503
    4MPD2     N14215   2.271   1.492  11.232  0.2757 -0.3319 -0.2137
    4MPD2    H514216   2.258   1.436  11.315  1.3050 -1.8334 -1.0531
    4MPD2    N114217   1.928   1.768  11.427 -0.4428  0.1568  0.5859
    4MPD2    H714218   1.926   1.703  11.505  1.8241 -0.3427  0.2316
    5TMC3    C114219   1.741   1.817  11.524 -0.0995  0.4445 -0.5388
    5TMC3    C214220   1.636   1.749  11.464  0.5434 -0.3685 -0.6108
    5TMC3    C314221   1.591   1.631  11.526 -0.3007  0.6301  0.2058
    5TMC3    C414222   1.796   1.773  11.647 -0.7226  0.4419 -0.1676
    5TMC3    C514223   1.756   1.659  11.704 -0.1931  0.3501 -0.3830
    5TMC3    C614224   1.654   1.593  11.638 -0.2693  0.5097  0.1179
    5TMC3     C14225   1.834   1.866  11.430 -0.2940 -0.3110 -0.3750
    5TMC3     O14226   1.798   1.948  11.347  0.2583  0.4069  0.5135
    5TMC3     H14227   1.599   1.779  11.366  1.7128 -0.1735 -0.9982
    5TMC3    H114228   1.894   1.813  11.671 -0.6275 -1.3250  2.3533
    5TMC3    H214229   1.614   1.499  11.674 -0.0870 -0.1083 -1.2736
    5TMC3    C714230   1.864   1.568  11.713 -0.2568 -0.2876  0.7181
    5TMC3    C814231   1.479   1.559  11.465  0.3079  0.1658 -0.0872
    5TMC3    O114232   1.954   1.592  11.634 -0.5431  0.0624 -0.4597
    5TMC3    O214233   1.409   1.499  11.545  0.0997 -0.1128  0.4421
    6TMC3    C114234   1.351   1.121  11.260  0.3507  0.4175 -0.1286
    6TMC3    C214235   1.252   1.126  11.172  0.1188 -0.5781 -0.1961
    6TMC3    C314236   1.281   1.170  11.042  0.1228 -0.5248 -0.1818
    6TMC3    C414237   1.486   1.154  11.217 -0.7100  0.6932 -0.0377
    6TMC3    C514238   1.514   1.179  11.088 -1.0066  0.4024  0.3332
    6TMC3    C614239   1.413   1.198  10.997  0.3784  0.5095 -0.7158
    6TMC3     C14240   1.344   1.051  11.380 -0.6043  1.1571  0.5738
    6TMC3     O14241   1.236   1.038  11.430  0.5758  0.3433  0.2717
    6TMC3     H14242   1.152   1.097  11.202 -0.0151 -0.7160 -0.7687
    6TMC3    H114243   1.566   1.158  11.291 -2.4991 -1.4796  2.0274
    6TMC3    H214244   1.432   1.236  10.897  0.5189 -1.1586 -1.3156
    6TMC3    C714245   1.658   1.167  11.055 -0.0251 -0.4705  0.6983
    6TMC3    C814246   1.179   1.170  10.940  0.1083  0.4427 -0.3350
    6TMC3    O114247   1.737   1.166  11.150 -0.7163 -0.3389 -0.0850
    6TMC3    O214248   1.198   1.238  10.839 -0.2389 -0.1454 -0.4238
    7MPD2     C14249   1.974   1.059  11.695 -0.2355  0.1435  0.0327
    7MPD2    C114250   2.043   1.163  11.639  0.3523  0.8784  0.4845
    7MPD2    C214251   1.997   1.296  11.664  0.5313  0.3908 -0.1938
    7MPD2    C314252   1.881   1.311  11.740  1.0672 -0.4670  0.0126
    7MPD2    C414253   1.813   1.205  11.794  0.6078 -0.5701  0.2722
    7MPD2    C514254   1.862   1.080  11.766 -0.2737 -0.5206  0.0351
    7MPD2     H14255   2.040   1.378  11.609 -0.6941  1.5787  0.5912
    7MPD2    H114256   1.718   1.210  11.846  2.2350 -0.5210  3.2229
    7MPD2    H214257   1.993   0.961  11.653  1.9842  0.4095  0.4078
    7MPD2    H314258   1.806   0.991  11.793 -1.7292  0.6544  0.9065
    7MPD2     N14259   1.824   1.443  11.760 -0.1147 -0.5969  0.0485
    7MPD2    H514260   1.738   1.443  11.815 -0.5819  0.5825 -0.6887
    7MPD2    N114261   2.147   1.141  11.545 -0.9489  0.2054  0.0247
    7MPD2    H714262   2.156   1.045  11.514 -0.8274  0.0468  0.5557
    8TMC3    C114263   2.300   1.193  11.365  0.2270  1.0632  0.4413
    8TMC3    C214264   2.258   1.085  11.289  0.5171 -0.1971  0.0110
    8TMC3    C314265   2.283   1.096  11.157 -0.5422  0.5159  0.1517
    8TMC3    C414266   2.374   1.299  11.316 -0.0660 -1.1406 -0.7869
    8TMC3    C514267   2.391   1.315  11.183  0.1654 -0.4780  0.9076
    8TMC3    C614268   2.341   1.208  11.109 -0.2371  0.5356  0.4680
    8TMC3     C14269   2.228   1.232  11.481 -0.1734  0.1689  0.6689
    8TMC3     O14270   2.223   1.353  11.495  0.2094 -0.6097  0.3220
    8TMC3     H14271   2.202   1.001  11.329  0.1746 -0.4086 -0.9271
    8TMC3    H114272   2.404   1.379  11.383 -1.1744  0.6902 -2.4608
    8TMC3    H214273   2.366   1.209  11.004  1.4639  0.2307  0.8695
    8TMC3    C714274   2.352   1.438  11.137  0.9056  0.0552 -0.5746
    8TMC3    C814275   2.161   1.053  11.077 -0.0561  0.3073 -0.0560
    8TMC3    O114276   2.354   1.462  11.017 -0.1509  0.7081  0.2777
    8TMC3    O214277   2.074   1.000  11.142  0.0137 -0.3478  0.2305
    9MPD2     C14278   2.070   1.204  10.761  0.2653 -0.2224  0.2942
    9MPD2    C114279   2.045   1.148  10.878  0.2084 -0.5555 -0.2273
    9MPD2    C214280   1.918   1.144  10.931  0.5253  0.5615  0.4095
    9MPD2    C314281   1.809   1.194  10.864 -0.3923  0.3448  0.0887
    9MPD2    C414282   1.834   1.239  10.732 -0.0035  0.4747  0.6926
    9MPD2    C514283   1.969   1.258  10.689  0.7958 -0.1653  0.5012
    9MPD2     H14284   1.909   1.102  11.030 -0.6383 -2.7870 -1.1215
    9MPD2    H114285   1.760   1.271  10.659 -0.1655 -1.4804  0.0100
    9MPD2    H214286   2.168   1.222  10.719 -1.1666  2.0022 -2.0350
    9MPD2    H314287   1.986   1.295  10.589  1.0420 -1.1892  0.1694
    9MPD2     N14288   1.680   1.174  10.919  0.6313 -0.2129  0.3476
    9MPD2    H514289   1.601   1.201  10.860 -0.4001  1.7685  2.6218
    9MPD2    N114290   2.162   1.115  10.953 -0.1473 -0.3377  0.0257
    9MPD2    H714291   2.251   1.148  10.916  0.0862 -0.4436  0.4910
    1MPD1     C14292   1.120   1.800  16.102 -0.2500 -0.1416  0.2347
    1MPD1    C114293   1.217   1.712  16.064  0.3176 -0.4483  0.2084
    1MPD1    C214294   1.224   1.597  16.135  0.1392 -0.5415  0.3479
    1MPD1    C314295   1.155   1.582  16.256 -0.1311  0.3103 -0.0113
    1MPD1    C414296   1.071   1.682  16.302 -0.0847 -0.0347 -0.1032
    1MPD1    C514297   1.042   1.785  16.217  0.4897 -0.3892  0.5155
    1MPD1     H14298   1.295   1.522  16.104  0.6367  2.0905 -4.7645
    1MPD1    H114299   1.020   1.667  16.397  0.9672 -1.2916  0.2737
    1MPD1    H214300   1.098   1.885  16.038  1.7648 -2.1717 -3.1717
    1MPD1    H314301   0.965   1.856  16.245  0.8827 -0.0362  0.6971
    1MPD1     N14302   1.164   1.463  16.339 -0.0432  0.1116  0.0942
    1MPD1    H514303   1.110   1.460  16.424  0.7731  0.7210  0.6403
    1MPD1    N114304   1.277   1.721  15.941  0.1772 -0.1724  0.0533
    1MPD1    H614305   1.285   1.810  15.892 -1.0586 -0.1781 -0.1644
    1MPD1    H714306   1.362   1.666  15.931 -1.4656 -2.7085  0.1397
    2TMC2    C114307   1.234   1.023  16.496  0.6641  0.3713 -0.2166
    2TMC2    C214308   1.207   1.064  16.626  0.1928  0.6949  0.1167
    2TMC2    C314309   1.182   1.195  16.639 -0.5879  0.2196  0.7921
    2TMC2    C414310   1.229   1.112  16.381 -0.7723  0.1532  0.4598
    2TMC2    C514311   1.197   1.240  16.404 -0.5267 -0.5350  0.3514
    2TMC2    C614312   1.188   1.287  16.533  0.2548 -0.1565 -0.2475
    2TMC2     C14313   1.233   0.877  16.480 -0.3259  0.0443  0.5937
    2TMC2     O14314   1.166   0.816  16.565  0.1685  0.0736 -0.2660
    2TMC2     H14315   1.204   0.989  16.705 -1.9051  0.5581 -0.0842
    2TMC2    H114316   1.254   1.077  16.281 -0.3934  0.8841  0.2987
    2TMC2    H214317   1.190   1.392  16.560  0.1356 -0.6705  1.7159
    2TMC2    C714318   1.207   1.344  16.300  0.5188  0.2917  0.5693
    2TMC2    C814319   1.182   1.262  16.770  0.0315  0.4370  0.6244
    2TMC2    O114320   1.273   1.321  16.202  0.3241  0.4737  0.3640
    2TMC2    O214321   1.239   1.366  16.791  0.0320  0.4642 -0.0275
    2TMC2    O514322   1.148   1.169  16.855  0.0709 -0.1602  0.3667
    2TMC2    H514323   1.088   1.097  16.826  0.7277 -1.3183  1.8585
    3MPD1     C14324   1.412   0.451  16.263  0.7084  0.4779  0.0283
    3MPD1    C114325   1.460   0.564  16.194 -0.1356 -0.2685  0.1195
    3MPD1    C214326   1.425   0.688  16.242 -0.1886 -0.2943 -0.3696
    3MPD1    C314327   1.333   0.706  16.340  0.4109  0.0776  0.3034
    3MPD1    C414328   1.279   0.594  16.405 -0.4085 -0.6515  0.7136
    3MPD1    C514329   1.318   0.466  16.365 -0.0750 -0.5352  0.7406
    3MPD1     H14330   1.484   0.770  16.202  1.0064 -1.2394 -0.5259
    3MPD1    H114331   1.185   0.610  16.457 -1.8534  0.2725 -2.1709
    3MPD1    H214332   1.451   0.351  16.245 -0.8454 -0.0321 -0.4688
    3MPD1    H314333   1.276   0.381  16.418  1.4687 -1.9701 -0.3209
    3MPD1     N14334   1.305   0.840  16.371  0.1705 -0.2640  0.5567
    3MPD1    H514335   1.352   0.913  16.317 -0.8802 -0.4490 -0.5999
    3MPD1    N114336   1.570   0.547  16.108 -0.0231  0.1094  0.0317
    3MPD1    H614337   1.581   0.624  16.042 -3.1607  0.0581 -0.5673
    3MPD1    H714338   1.570   0.456  16.063 -0.0752 -0.2582  0.7746
    1TMC1    C114339   3.548   3.935  13.061 -0.3013 -0.1916 -0.4257
    1TMC1    C214340   3.594   3.825  12.992  0.0077 -0.4741  0.3784
    1TMC1    C314341   3.521   3.713  12.998  0.2762  0.3908  0.5434
    1TMC1    C414342   3.441   3.928  13.143 -0.1006  0.1585 -0.4284
    1TMC1    C514343   3.368   3.816  13.143  0.5209 -0.1930 -0.1614
    1TMC1    C614344   3.406   3.705  13.063  0.3408  0.4541 -0.5278
    1TMC1     C14345   3.628   4.053  13.059 -0.7826 -0.2687  0.0163
    1TMC1     O14346   3.567   4.158  13.054  0.1053  0.1030 -0.2909
    1TMC1     H14347   3.678   3.840  12.925 -0.3827  0.0796  0.0111
    1TMC1    H114348   3.400   4.016  13.190 -1.3685 -0.0334 -1.1893
    1TMC1    H214349   3.335   3.628  13.035 -0.4985  0.2244  2.2484
    1TMC1    C714350   3.230   3.835  13.169  0.1300  0.8781 -1.1361
    1TMC1    C814351   3.542   3.610  12.898  0.8554 -0.5811  0.0778
    1TMC1    O114352   3.169   3.942  13.163  0.1153  0.0017 -0.0709
    1TMC1    O214353   3.455   3.532  12.861  0.2151  0.3659  0.5331
    1TMC1    O314354   3.183   3.714  13.191 -0.1493  0.1407 -0.6500
    1TMC1    H314355   3.245   3.640  13.212 -1.2062 -0.1780  1.3661
    1TMC1    O514356   3.674   3.584  12.898  0.2851 -0.4274 -0.1310
    1TMC1    H514357   3.729   3.656  12.937 -0.3252 -0.1857  0.2922
    2MPD2     C14358   3.850   4.246  13.013  0.7880  0.1659 -0.6068
    2MPD2    C114359   3.862   4.126  13.079  0.0811 -1.2253  1.2999
    2MPD2    C214360   3.982   4.086  13.134 -0.1158 -0.1041  0.6862
    2MPD2    C314361   4.090   4.169  13.139 -1.0319  0.1257  0.5428
    2MPD2    C414362   4.080   4.288  13.072 -0.2262  0.6948 -0.1450
    2MPD2    C514363   3.963   4.320  13.002 -0.2183 -0.2495 -0.5214
    2MPD2     H14364   3.983   3.995  13.193  1.4862 -0.7921 -0.4063
    2MPD2    H114365   4.167   4.353  13.068 -0.4439  0.9236 -0.9253
    2MPD2    H214366   3.756   4.294  12.988  1.5613  2.5441  1.0141
    2MPD2    H314367   3.953   4.409  12.941 -2.3352  2.1469  3.2729
    2MPD2     N14368   4.202   4.111  13.203 -0.1248  0.3573 -0.2887
    2MPD2    H514369   4.179   4.026  13.254 -2.4091  0.2310 -1.5372
    2MPD2    N114370   3.762   4.025  13.092 -0.7655 -0.1797 -0.2382
    2MPD2    H714371   3.793   3.931  13.114 -0.2548 -0.1621 -0.8857
    3TCq1    O114372   4.592   3.656  13.168  0.2780 -0.0296  0.0703
    3TCq1    C114373   4.474   3.711  13.218 -0.6712 -0.6397  0.7739
    3TCq1    O214374   4.359   3.670  13.196 -0.0374  0.1803 -0.0622
    3TCq1    C214375   4.500   3.844  13.271  0.0977  0.3206  0.1200
    3TCq1    C314376   4.624   3.886  13.309  0.3227 -0.1621  0.0828
    3TCq1    C414377   4.655   4.020  13.310  0.1103 -0.6567  0.0939
    3TCq1    C514378   4.557   4.111  13.287 -0.0736 -0.1090  0.4905
    3TCq1    C614379   4.426   4.068  13.269  0.0487  0.3461  0.0436
    3TCq1    C714380   4.396   3.933  13.261 -0.2170  0.9788 -0.4202
    3TCq1    C814381   4.329   4.158  13.214  1.3270 -0.3520  0.0845
    3TCq1    O414382   4.380   4.265  13.186  0.0638  0.7663  0.2973
    3TCq1    C914383   0.052   4.053  13.318 -0.3414 -0.7248 -0.5618
    3TCq1    O514384   0.086   4.179  13.330 -0.1817  0.1047 -0.4915
    3TCq1    O614385   0.140   3.957  13.320 -0.2252  0.7145 -0.2445
    3TCq1    H114386   4.668   3.717  13.164 -1.0247  1.5199 -0.9941
    3TCq1    H214387   4.699   3.811  13.331 -2.1199 -3.1186 -1.7246
    3TCq1    H314388   4.591   4.214  13.275 -0.7281 -0.0378 -0.7853
    3TCq1    H414389   4.298   3.887  13.254 -0.0435  0.5994 -0.3799
    1MPD2     C14390   3.333   1.121  14.842  0.2541  0.8727  0.2080
    1MPD2    C114391   3.274   1.007  14.794  0.7374  0.2665  0.2815
    1MPD2    C214392   3.316   0.880  14.837 -0.0196 -0.5574  0.0960
    1MPD2    C314393   3.409   0.865  14.938  0.1484 -0.4411 -0.5507
    1MPD2    C414394   3.464   0.981  14.997  1.1569 -1.4005  0.3942
    1MPD2    C514395   3.432   1.104  14.942  0.0398 -0.1285 -0.2008
    1MPD2     H14396   3.268   0.795  14.791  1.6235 -0.1651 -2.3612
    1MPD2    H114397   3.533   0.973  15.080 -1.6892 -2.4565  2.6851
    1MPD2    H214398   3.301   1.216  14.802  1.8195  0.7196 -1.4036
    1MPD2    H314399   3.472   1.192  14.990  0.3690 -2.2394  3.4160
    1MPD2     N14400   3.449   0.739  14.996 -0.1902  0.2611 -0.1546
    1MPD2    H514401   3.499   0.739  15.084  3.2156  0.2339 -2.0715
    1MPD2    N114402   3.167   1.016  14.707 -0.3974 -0.3873 -0.7070
    1MPD2    H714403   3.152   1.105  14.660  3.1851  0.3622 -0.3932
    2TMC3    C114404   2.964   0.950  14.602  0.5508 -0.4517 -0.4885
    2TMC3    C214405   2.856   0.864  14.615 -0.3957  0.5088  0.1440
    2TMC3    C314406   2.793   0.825  14.501  0.3645  0.0373  0.5593
    2TMC3    C414407   3.011   0.992  14.478  0.7282 -0.4601  0.4677
    2TMC3    C514408   2.940   0.956  14.366 -0.3584  0.0656  0.2438
    2TMC3    C614409   2.838   0.869  14.382  0.1277 -0.0965  0.2610
    2TMC3     C14410   3.075   0.917  14.684  0.0750  0.6322  0.4412
    2TMC3     O14411   3.043   0.822  14.756 -0.9362 -0.4368 -0.2215
    2TMC3     H14412   2.811   0.853  14.713  1.9086  0.6929  1.2228
    2TMC3    H114413   3.098   1.055  14.470 -1.3876  2.1864 -1.4749
    2TMC3    H214414   2.794   0.825  14.293  0.7782 -1.9483  0.8635
    2TMC3    C714415   2.939   1.033  14.242  0.6567  0.0076 -0.0644
    2TMC3    C814416   2.771   0.680  14.498  0.2261 -0.1089 -0.3526
    2TMC3    O114417   2.955   0.960  14.148 -0.5002 -0.1425  0.3454
    2TMC3    O214418   2.686   0.628  14.429  0.4335  0.2093 -0.5168
    3TCq1    O114419   3.181   2.244  14.337  0.1383  0.4548  0.1824
    3TCq1    C114420   3.107   2.160  14.255  0.1318 -0.4318  0.1312
    3TCq1    O214421   3.065   2.186  14.142  0.1840  0.4140 -0.5190
    3TCq1    C214422   3.145   2.024  14.278  0.5955  0.2885 -0.2056
    3TCq1    C314423   3.186   1.989  14.406 -0.3529  0.0395  0.0914
    3TCq1    C414424   3.237   1.861  14.422  0.1657  0.3075  0.3113
    3TCq1    C514425   3.240   1.773  14.321 -0.9677 -0.1640 -0.2215
    3TCq1    C614426   3.210   1.806  14.188  0.2643 -0.8461 -0.4529
    3TCq1    C714427   3.170   1.934  14.177  0.2832  0.1006  0.6769
    3TCq1    C814428   3.137   1.710  14.109 -0.6002  0.4384  0.3826
    3TCq1    O414429   3.072   1.747  14.015  0.3439 -0.4356  0.0163
    3TCq1    C914430   3.281   1.814  14.558 -0.0897  0.5416  0.1942
    3TCq1    O514431   3.310   1.696  14.570  0.0536 -0.6104  0.3246
    3TCq1    O614432   3.262   1.888  14.659  0.1502 -0.8767 -0.9820
    3TCq1    H114433   3.223   2.210  14.419  3.7519  2.7194 -0.7310
    3TCq1    H214434   3.189   2.059  14.489  1.6419 -0.7696  0.7060
    3TCq1    H314435   3.268   1.670  14.340  0.8206  0.4687  0.5026
    3TCq1    H414436   3.145   1.974  14.079 -1.7634  0.3887  1.3091
    4MPD2     C14437   3.047   1.464  13.981 -0.4110 -0.2113 -0.2265
    4MPD2    C114438   3.075   1.476  14.113 -0.6823  0.3781  0.3067
    4MPD2    C214439   3.048   1.375  14.210  0.5880  0.1119  0.3594
    4MPD2    C314440   2.992   1.260  14.164 -0.0238 -0.6256  0.5046
    4MPD2    C414441   2.962   1.242  14.031 -0.5217  0.0429 -0.4858
    4MPD2    C514442   2.992   1.341  13.940 -0.0161 -0.2496 -0.1814
    4MPD2     H14443   3.086   1.383  14.311  1.4693  0.5939 -0.0098
    4MPD2    H114444   2.911   1.156  13.991 -0.3900  0.4536 -1.5310
    4MPD2    H214445   3.085   1.535  13.908 -0.4062  0.0927  0.0692
    4MPD2    H314446   2.973   1.316  13.837 -0.9350 -3.5068  0.7862
    4MPD2     N14447   2.963   1.163  14.265  0.5194 -0.0434  0.2680
    4MPD2    H514448   2.959   1.194  14.362 -2.0187  3.0048 -0.7889
    4MPD2    N114449   3.137   1.593  14.171  0.9584  0.0011 -0.1045
    4MPD2    H714450   3.173   1.598  14.266  0.6377  3.5206 -0.1626
    5TMC2    C114451   3.236   0.360  15.035 -0.2371 -0.5219 -1.3238
    5TMC2    C214452   3.209   0.416  15.163 -0.0699 -0.1067  0.1221
    5TMC2    C314453   3.305   0.495  15.221 -0.4056  0.3540 -0.1416
    5TMC2    C414454   3.346   0.403  14.967 -0.1793 -0.0945 -0.7108
    5TMC2    C514455   3.431   0.501  15.022  0.2263  0.1630 -0.3820
    5TMC2    C614456   3.419   0.538  15.149 -0.2790 -0.1198 -0.9461
    5TMC2     C14457   3.125   0.393  14.949  0.0298  0.0812 -0.2224
    5TMC2     O14458   3.058   0.486  14.999 -0.2714  0.2018 -0.0626
    5TMC2     H14459   3.125   0.379  15.221 -1.9175 -0.5030 -2.8057
    5TMC2    H114460   3.348   0.381  14.860 -2.4940  0.2481 -0.8215
    5TMC2    H214461   3.493   0.596  15.203 -1.3280 -0.4556  0.8541
    5TMC2    C714462   3.418   0.617  14.936  0.3290  0.2336  0.5532
    5TMC2    C814463   3.316   0.494  15.366  0.2996  0.9759 -0.6596
    5TMC2    O114464   3.392   0.602  14.817 -0.0861 -0.6647  0.2010
    5TMC2    O214465   3.417   0.497  15.434 -0.6398 -0.2455  0.3805
    5TMC2    O514466   3.203   0.549  15.408 -0.1122 -0.1651 -0.1950
    5TMC2    H514467   3.129   0.555  15.345 -0.1773  0.4234 -0.0650
    6MPD2     C14468   2.835   0.385  14.539 -0.1511 -0.4637 -1.0415
    6MPD2    C114469   2.889   0.491  14.605  0.6896  0.1660 -0.1005
    6MPD2    C214470   2.971   0.466  14.718  0.0107  0.8142  0.0198
    6MPD2    C314471   3.013   0.341  14.740 -0.5625 -0.0564 -0.3884
    6MPD2    C414472   2.982   0.238  14.657 -1.0490 -0.1268 -0.6517
    6MPD2    C514473   2.880   0.254  14.563  0.5749 -0.7117  1.3138
    6MPD2     H14474   3.019   0.552  14.764  1.4253  0.2833 -0.4476
    6MPD2    H114475   3.018   0.138  14.677 -2.2439 -0.3721  0.2958
    6MPD2    H214476   2.763   0.400  14.459 -1.5659 -2.8643 -0.2198
    6MPD2    H314477   2.828   0.168  14.522 -0.4219  0.4470  0.1583
    6MPD2     N14478   3.107   0.307  14.845 -0.1460 -0.5508  0.4995
    6MPD2    H514479   3.166   0.224  14.843  0.8679  0.1982 -0.8214
    6MPD2    N114480   2.864   0.629  14.578 -0.5036 -0.2169  0.0197
    6MPD2    H714481   2.921   0.696  14.627  0.7964 -0.5334 -1.0350
  945NH4     N114482   1.935   3.496  12.703  0.2290 -0.4730  0.6080
  945NH4     H214483   2.019   3.456  12.748  0.4514  1.2236  1.7245
  945NH4     H314484   1.875   3.417  12.670  0.6470  0.4163 -2.3218
  945NH4     H414485   1.965   3.537  12.612 -0.7890 -0.2827  0.3555
  945NH4     H514486   1.895   3.577  12.755 -0.4738 -0.7773  0.5347
  946SOD     NA14487   3.521   1.442  12.546 -0.1655 -0.3751 -0.2953
  947SOD     NA14488   3.287   1.694  14.796 -0.1852 -0.0583  0.8313
  948SOD     NA14489   2.292   1.960  13.256  0.1448  0.0831 -0.3536
  949SOD     NA14490   0.130   0.881  15.409 -0.0811  0.1239 -0.1678
  950SOD     NA14491   1.798   3.109   6.733  0.0334 -0.3887  0.1342
  951SOD     NA14492   1.150   3.663   9.610  0.2881  0.0093  0.2023
  952SOD     NA14493   0.147   0.895   6.514  0.1751  0.2084 -0.0825
  953SOL     OW14494   1.476   3.076   3.624 -0.1422 -0.0243  0.6765
  953SOL    HW114495   1.494   3.004   3.685 -0.4929 -0.8911 -0.2478
  953SOL    HW214496   1.410   3.036   3.568 -0.2994  2.8258 -1.1767
  954SOL     OW14497   0.616   3.985   7.993  0.2778 -0.9862 -0.0378
  954SOL    HW114498   0.634   4.055   8.054  1.1943 -2.6113  1.5408
  954SOL    HW214499   0.664   4.031   7.924  3.4350 -2.0759  1.4592
  955SOL     OW14500   3.613   3.465   7.505 -0.3327 -0.4275  0.3501
  955SOL    HW114501   3.681   3.429   7.562  0.6172  1.2319  0.2664
  955SOL    HW214502   3.644   3.555   7.505 -0.2385 -0.4595  0.5029
  956SOL     OW14503   1.438   3.999   8.528  0.2874 -0.0616 -0.0786
  956SOL    HW114504   1.483   3.960   8.603 -0.7956 -1.8372 -0.3688
  956SOL    HW214505   1.441   4.091   8.553  2.9178  0.1671 -1.1780
  957SOL     OW14506   4.190   3.818   8.364 -0.0251  0.5865  0.3837
  957SOL    HW114507   4.248   3.769   8.306 -1.7583  0.3650 -1.1507
  957SOL    HW214508   4.114   3.810   8.307  0.7950 -2.1264 -0.3088
  958SOL     OW14509   1.241   2.770   8.651  0.1056 -0.2193 -0.3563
  958SOL    HW114510   1.205   2.706   8.713 -1.7690  1.0171 -0.1677
  958SOL    HW214511   1.294   2.704   8.606  1.1845  0.8574 -0.6698
  959SOL     OW14512   2.093   4.618  12.168  0.3097 -0.7194 -0.2640
  959SOL    HW114513   2.003   4.591  12.153  0.4659 -2.2633  1.5566
  959SOL    HW214514   2.130   4.600  12.081 -1.0898 -2.2917 -0.5321
  960SOL     OW14515   2.822   1.396   5.540  0.1399 -0.9272  0.1587
  960SOL    HW114516   2.841   1.453   5.614  1.3844  0.1349 -0.9862
  960SOL    HW214517   2.727   1.392   5.547 -0.0337 -0.4145 -1.9597
  961SOL     OW14518   4.008   0.108   1.382  0.0313 -0.2014  0.3833
  961SOL    HW114519   4.068   0.173   1.420 -0.1270 -0.2162  0.6530
  961SOL    HW214520   3.928   0.150   1.413  1.1407  4.0460 -2.3697
  962SOL     OW14521   4.248   3.065   3.204  0.2484 -0.4165 -0.1103
  962SOL    HW114522   4.176   3.011   3.237  1.2363 -1.5353  0.2334
  962SOL    HW214523   4.319   3.001   3.202 -1.1270 -1.9456 -1.8225
  963SOL     OW14524   2.660   3.709   8.658 -0.3596 -0.1471 -0.3434
  963SOL    HW114525   2.712   3.773   8.707 -0.3431  1.2414 -2.1757
  963SOL    HW214526   2.646   3.637   8.720 -0.2464  1.6029  1.7004
  964SOL     OW14527   1.818   4.334   8.651  0.4813  0.1671 -0.3704
  964SOL    HW114528   1.800   4.380   8.734 -0.8017 -1.5925  0.3284
  964SOL    HW214529   1.803   4.407   8.591  1.7327 -1.1625 -2.2617
  965SOL     OW14530   2.140   1.798   4.605 -0.2806 -0.0401  0.0495
  965SOL    HW114531   2.130   1.810   4.699 -1.0244 -1.7448  0.1702
  965SOL    HW214532   2.163   1.707   4.586 -1.9675 -0.7757  1.5833
  966SOL     OW14533   4.033   4.658   7.340 -0.3500 -0.4441  0.2188
  966SOL    HW114534   4.030   0.012   7.320 -1.9293 -0.6273 -0.3717
  966SOL    HW214535   4.125   4.652   7.365 -0.4552  0.7120  0.9047
  967SOL     OW14536   3.277   3.079   7.331 -0.3091  0.1401 -0.2604
  967SOL    HW114537   3.250   3.086   7.422 -0.8418  2.4978 -0.6041
  967SOL    HW214538   3.349   3.141   7.331 -0.5129  0.3796  0.6938
  968SOL     OW14539   1.962   3.223   7.114 -0.2739  0.2032  0.2548
  968SOL    HW114540   1.972   3.318   7.114  2.2592 -0.0676  2.7673
  968SOL    HW214541   1.946   3.206   7.021 -0.5699 -0.0894  0.3565
  969SOL     OW14542   1.597   4.029   5.257  0.2196 -0.0939  0.4026
  969SOL    HW114543   1.656   4.068   5.192  0.1728 -0.1463  0.3295
  969SOL    HW214544   1.655   3.968   5.302 -0.3467 -1.8295 -1.2469
  970SOL     OW14545   4.553   4.321   2.643  0.2776 -0.1538  0.7161
  970SOL    HW114546   4.636   4.350   2.605 -0.0805 -1.8746 -1.3790
  970SOL    HW214547   4.578   4.330   2.735  1.0015  0.8132  0.4304
  971SOL     OW14548   1.301   2.027   6.893  0.0488  0.7029 -0.1161
  971SOL    HW114549   1.356   2.014   6.970  0.4399  0.2483 -0.4744
  971SOL    HW214550   1.224   2.069   6.932 -2.5794 -0.8459 -3.5605
  972SOL     OW14551   1.699   4.143   8.806  0.1181 -0.3585 -0.0243
  972SOL    HW114552   1.756   4.183   8.741  0.8876 -4.6385 -1.9551
  972SOL    HW214553   1.618   4.180   8.770  0.6143 -1.3972 -2.1805
  973SOL     OW14554   2.605   1.620   4.238 -0.2410 -0.1890  0.2418
  973SOL    HW114555   2.619   1.646   4.147 -1.5423  0.8785  0.3384
  973SOL    HW214556   2.531   1.560   4.229  0.9233 -1.5398 -0.3695
  974SOL     OW14557   0.082   2.799  17.349 -1.3638 -0.1328  0.3433
  974SOL    HW114558   0.016   2.732  17.366 -1.7752  0.9647  3.0343
  974SOL    HW214559   0.150   2.762  17.292 -1.8740  2.3204 -1.8781
  975SOL     OW14560   4.069   1.599  17.455  0.4504  0.2302 -0.0042
  975SOL    HW114561   4.020   1.601  17.372  0.3326  2.4853  0.1072
  975SOL    HW214562   4.158   1.581  17.425  0.6997 -0.0881  0.9296
  976SOL     OW14563   4.720   3.396   8.893  0.6259 -0.0209 -0.3924
  976SOL    HW114564   0.035   3.336   8.943  0.7615  0.1497 -0.3353
  976SOL    HW214565   4.724   3.333   8.821  0.6831  0.1591 -0.5487
  977SOL     OW14566   3.717   2.892   7.353  0.1761  0.1416 -0.1551
  977SOL    HW114567   3.625   2.867   7.348 -0.1965  1.4423  0.0863
  977SOL    HW214568   3.733   2.834   7.427 -1.8009  0.9199  0.8698
  978SOL     OW14569   1.240   0.591  12.671 -0.3751 -0.3099  0.2091
  978SOL    HW114570   1.179   0.535  12.719 -0.0335 -0.4416  0.4893
  978SOL    HW214571   1.299   0.523  12.639 -2.0993 -0.6315 -2.3185
  979SOL     OW14572   1.636   1.618   3.580 -0.3661 -0.0596  0.0867
  979SOL    HW114573   1.564   1.656   3.631  0.2758 -1.9888  2.4242
  979SOL    HW214574   1.630   1.523   3.589  1.3735 -0.0341  1.4713
  980SOL     OW14575   2.303   1.336  12.900 -0.4305 -0.1932 -0.1341
  980SOL    HW114576   2.316   1.242  12.908  0.0108 -0.1829 -0.7948
  980SOL    HW214577   2.218   1.327  12.856 -0.4374 -1.3688  0.1212
  981SOL     OW14578   0.135   1.462   7.272  0.1270  0.5390  0.5978
  981SOL    HW114579   0.158   1.436   7.361  0.3004  1.1921  0.7435
  981SOL    HW214580   0.047   1.425   7.259  0.9169 -1.2860  0.4579
  982SOL     OW14581   3.618   3.698   2.848 -0.3750  0.5918  0.4104
  982SOL    HW114582   3.658   3.783   2.828 -0.7507  0.6931  0.0723
  982SOL    HW214583   3.618   3.653   2.763  0.2828  1.8572 -0.2643
  983SOL     OW14584   1.534   2.260   9.738 -0.0600  0.1248  0.9213
  983SOL    HW114585   1.625   2.280   9.756  0.4005 -0.5164 -0.7165
  983SOL    HW214586   1.511   2.219   9.822  1.7510 -0.4185  1.1382
  984SOL     OW14587   4.446   2.969   7.190 -0.0861 -0.0751  0.1277
  984SOL    HW114588   4.481   2.887   7.154 -0.4866 -0.3775  0.4198
  984SOL    HW214589   4.493   3.041   7.147 -1.1682  0.4923 -0.0999
  985SOL     OW14590   2.724   2.946   4.272  0.6421  0.6717  0.0470
  985SOL    HW114591   2.646   2.949   4.216 -0.5808 -0.4154  1.6962
  985SOL    HW214592   2.729   2.854   4.296  2.1697  0.6246 -0.4374
  986SOL     OW14593   3.946   0.092   6.534 -0.6329 -0.0438 -0.0082
  986SOL    HW114594   3.996   0.113   6.613  1.9204 -0.2876 -1.5329
  986SOL    HW214595   3.956   0.174   6.486 -0.1761  0.3067  0.6904
  987SOL     OW14596   1.650   2.680   3.616  0.0652 -0.1212  0.3671
  987SOL    HW114597   1.611   2.603   3.574  0.8941 -0.5184  0.3200
  987SOL    HW214598   1.690   2.719   3.538  0.4021  1.3846  1.3038
  988SOL     OW14599   3.681   2.295   3.410 -0.4538 -0.0837 -0.1716
  988SOL    HW114600   3.626   2.218   3.422  1.8815 -1.9184 -1.1415
  988SOL    HW214601   3.618   2.350   3.457 -1.1619 -0.9826 -0.0727
  989SOL     OW14602   3.941   2.817   8.787 -0.1233 -0.1339  0.0773
  989SOL    HW114603   3.872   2.802   8.851  0.8573  0.8677  1.3660
  989SOL    HW214604   3.886   2.796   8.712 -0.4417 -1.0818  0.5670
  990SOL     OW14605   2.831   0.840   5.357  0.0227 -0.2879 -0.3448
  990SOL    HW114606   2.759   0.826   5.295 -0.2269  3.3093 -0.8673
  990SOL    HW214607   2.793   0.787   5.428  2.0400  0.2139  1.1270
  991SOL     OW14608   3.812   3.183   3.766  0.7006  0.4135  0.0532
  991SOL    HW114609   3.717   3.177   3.761  0.7145  0.4385 -0.2545
  991SOL    HW214610   3.832   3.237   3.689  1.7930  2.0350  1.4805
  992SOL     OW14611   3.893   0.649   1.305  0.0130 -0.2318 -0.0836
  992SOL    HW114612   3.854   0.729   1.270 -1.9307 -1.3745 -0.5256
  992SOL    HW214613   3.983   0.661   1.275  0.1106 -0.9356 -0.0801
  993SOL     OW14614   3.924   0.324  10.477  0.1014 -0.5537 -0.3242
  993SOL    HW114615   3.932   0.231  10.501  0.7901  0.1048  1.9881
  993SOL    HW214616   3.865   0.364  10.542  0.1566 -0.6170 -0.2349
  994SOL     OW14617   2.115   2.435   8.399 -0.3372  0.0914 -0.3835
  994SOL    HW114618   2.107   2.487   8.479 -2.2489 -0.7686 -0.0118
  994SOL    HW214619   2.116   2.504   8.333  3.7331 -0.9103 -1.3478
  995SOL     OW14620   0.401   0.015  15.212  0.2972 -0.1870  0.1364
  995SOL    HW114621   0.322   0.069  15.223  0.7888  0.4429  0.5803
  995SOL    HW214622   0.389   4.707  15.130 -0.9456 -1.1047  0.8609
  996SOL     OW14623   4.471   4.174   2.996  0.1163  0.0328  0.1868
  996SOL    HW114624   4.535   4.228   3.042 -0.8171  0.2878  1.1964
  996SOL    HW214625   4.438   4.241   2.937 -0.4063  0.0969  0.5530
  997SOL     OW14626   1.420   0.579  17.130 -0.2983  0.7485  0.3593
  997SOL    HW114627   1.344   0.531  17.162 -0.6152  1.2956  0.4234
  997SOL    HW214628   1.381   0.633  17.061  2.6024  0.5214 -1.4769
  998SOL     OW14629   4.272   2.887   4.878 -0.2197 -0.4035 -0.2189
  998SOL    HW114630   4.288   2.851   4.790 -0.5258  0.8581 -0.7851
  998SOL    HW214631   4.181   2.917   4.873  0.2309  1.1272  0.9044
  999SOL     OW14632   1.784   2.200   4.592 -0.1674 -0.3858  0.4054
  999SOL    HW114633   1.804   2.157   4.509  0.6980  2.2873 -0.7883
  999SOL    HW214634   1.792   2.127   4.653  1.4225  1.1644  2.0546
 1000SOL     OW14635   2.757   0.375   5.114 -0.0616  0.2435  0.3172
 1000SOL    HW114636   2.744   0.404   5.204 -0.5866  1.3974 -0.1228
 1000SOL    HW214637   2.706   0.294   5.108 -0.8219  0.6711  0.9056
 1001SOL     OW14638   2.912   4.248  16.503 -1.0565  0.0809 -0.4520
 1001SOL    HW114639   2.860   4.186  16.451  0.2151 -1.9058  0.6601
 1001SOL    HW214640   2.958   4.186  16.560  1.1141  1.6936 -0.4608
 1002SOL     OW14641   1.389   3.712   2.524 -0.3932 -0.0191 -0.0491
 1002SOL    HW114642   1.413   3.760   2.445 -0.4656 -3.0527 -1.8931
 1002SOL    HW214643   1.417   3.621   2.514  1.9233  0.6531  0.2797
 1003SOL     OW14644   1.162   1.527  12.787 -0.0965 -0.3993 -0.2180
 1003SOL    HW114645   1.253   1.509  12.809  0.0773 -0.3439 -0.8897
 1003SOL    HW214646   1.143   1.451  12.731  0.9163 -1.0367  0.2941
 1004SOL     OW14647   1.974   1.929  16.629 -0.3789 -0.4087  0.3484
 1004SOL    HW114648   2.030   2.005  16.616 -2.3739  0.7416 -1.5576
 1004SOL    HW214649   1.896   1.970  16.664  0.6180  1.3224  0.5484
 1005SOL     OW14650   4.439   4.730   1.453 -0.0691 -0.2596  0.0907
 1005SOL    HW114651   4.517   4.677   1.436  1.3630  2.5519 -2.2860
 1005SOL    HW214652   4.393   4.693   1.528  2.3937 -3.3939  0.0682
 1006SOL     OW14653   4.628   0.019  10.858  0.4052 -0.1590  0.1854
 1006SOL    HW114654   4.696   4.721  10.802  1.0748  0.4525  0.5855
 1006SOL    HW214655   4.611   4.682  10.911  1.5641  1.5273  3.0035
 1007SOL     OW14656   3.551   2.076   4.656 -0.6554  0.0987  0.4863
 1007SOL    HW114657   3.537   2.130   4.578 -0.4213 -0.8565 -0.2150
 1007SOL    HW214658   3.483   2.009   4.652 -0.7859  0.2748 -0.2348
 1008SOL     OW14659   2.839   2.863   4.826  0.4202 -0.0356 -0.4321
 1008SOL    HW114660   2.886   2.858   4.910  0.4324  1.3414 -0.3515
 1008SOL    HW214661   2.906   2.891   4.763  0.4123 -0.6791 -0.7232
 1009SOL     OW14662   3.343   1.925   6.542 -0.4352  0.0489 -0.1000
 1009SOL    HW114663   3.281   1.978   6.491  0.8760  0.5549 -1.1536
 1009SOL    HW214664   3.383   1.997   6.590  0.9555 -0.7404 -0.0897
 1010SOL     OW14665   0.165   1.861  12.627 -0.0252 -0.0876 -0.1129
 1010SOL    HW114666   0.215   1.791  12.584 -1.9115 -2.7227  1.9650
 1010SOL    HW214667   0.177   1.931  12.564  1.8936 -2.6979 -2.6657
 1011SOL     OW14668   1.307   0.532   3.081  0.2615 -0.3185  0.4031
 1011SOL    HW114669   1.371   0.534   3.009 -0.6387  0.5066 -0.3773
 1011SOL    HW214670   1.232   0.542   3.023  2.1325  2.7606 -1.5126
 1012SOL     OW14671   1.405   3.884  10.755  0.2756 -0.7664 -0.1944
 1012SOL    HW114672   1.494   3.872  10.788 -0.3225 -0.1077  1.6312
 1012SOL    HW214673   1.414   3.973  10.722 -0.5511 -0.0794  1.4704
 1013SOL     OW14674   3.835   1.653   9.173 -0.3060 -0.2423  0.0157
 1013SOL    HW114675   3.836   1.677   9.080 -2.6948 -0.4242 -0.0686
 1013SOL    HW214676   3.928   1.646   9.193 -0.8243 -5.3225  0.5729
 1014SOL     OW14677   3.057   2.098   5.336  0.5227 -0.0048  0.6270
 1014SOL    HW114678   3.031   2.112   5.245 -1.2105  1.3678  1.3419
 1014SOL    HW214679   3.129   2.161   5.342  0.3513  0.2030  0.4876
 1015SOL     OW14680   2.602   4.597   7.956  0.0634 -0.2166 -0.0043
 1015SOL    HW114681   2.616   4.673   7.899  1.5355 -0.0718  0.5443
 1015SOL    HW214682   2.545   4.545   7.900 -0.8961  0.6785  0.1263
 1016SOL     OW14683   3.599   3.807   5.476 -0.0698 -0.3082 -0.2608
 1016SOL    HW114684   3.654   3.832   5.402  1.4664 -0.3415  0.8713
 1016SOL    HW214685   3.636   3.855   5.550 -1.7122  1.2657 -0.4322
 1017SOL     OW14686   4.198   3.768   5.597 -0.4312  0.1727  0.3018
 1017SOL    HW114687   4.185   3.848   5.546 -0.6335  0.0995  0.2399
 1017SOL    HW214688   4.159   3.792   5.680  0.3125 -1.6919  1.1986
 1018SOL     OW14689   2.147   0.321   3.437 -0.2061  0.0328 -0.1012
 1018SOL    HW114690   2.102   0.298   3.519  0.8029  0.1620  0.4887
 1018SOL    HW214691   2.231   0.350   3.473 -0.4723 -0.8419  1.2177
 1019SOL     OW14692   1.861   3.416   2.540  0.3956 -0.7643  0.1822
 1019SOL    HW114693   1.772   3.394   2.565  0.4544  0.0708  1.0944
 1019SOL    HW214694   1.887   3.493   2.590  3.7759 -1.3658 -0.5848
 1020SOL     OW14695   3.075   4.501   7.965  0.4821 -0.5171  0.2690
 1020SOL    HW114696   2.997   4.457   7.931 -0.0250  0.6017 -0.0508
 1020SOL    HW214697   3.068   4.584   7.917  1.7028 -1.6678 -1.9136
 1021SOL     OW14698   1.976   1.062   3.906  0.2126  0.0285  0.6352
 1021SOL    HW114699   1.977   0.983   3.959 -0.1050 -0.3160  0.1244
 1021SOL    HW214700   1.990   1.132   3.969 -1.5924  0.9598 -0.0060
 1022SOL     OW14701   3.259   0.473   7.656 -0.2899 -0.3767 -0.3283
 1022SOL    HW114702   3.318   0.449   7.728  0.7263 -1.4381 -1.5130
 1022SOL    HW214703   3.248   0.390   7.609  2.2139 -0.0981 -1.3734
 1023SOL     OW14704   1.590   0.030  15.886 -0.3919 -0.1187 -0.4383
 1023SOL    HW114705   1.677   4.738  15.911 -0.7808  0.0798  1.1383
 1023SOL    HW214706   1.576   4.735  15.797  0.8982 -0.0748 -0.6594
 1024SOL     OW14707   2.573   3.662   1.395 -0.0591  0.1216  0.1087
 1024SOL    HW114708   2.665   3.691   1.393 -0.2668  0.7923  0.4059
 1024SOL    HW214709   2.581   3.593   1.461  1.0157 -0.0678 -0.2161
 1025SOL     OW14710   3.814   4.421   7.760  0.3091 -0.3330 -0.0511
 1025SOL    HW114711   3.843   4.492   7.819 -1.3527 -1.2424  1.8614
 1025SOL    HW214712   3.841   4.452   7.674  1.2779  0.0555  0.3882
 1026SOL     OW14713   3.672   0.122   5.825 -0.0816 -0.1365  0.3029
 1026SOL    HW114714   3.667   0.057   5.896 -0.8847  0.1237  0.4793
 1026SOL    HW214715   3.704   0.073   5.749 -1.0436 -2.1873  1.1911
 1027SOL     OW14716   4.441   0.019   4.006  0.1408  0.3932  0.1634
 1027SOL    HW114717   4.436   0.084   4.076 -1.4691  0.2966  0.1366
 1027SOL    HW214718   4.529   0.037   3.972  1.1410 -1.6844  1.6735
 1028SOL     OW14719   2.518   3.998   4.577 -0.1037  0.2419 -0.1170
 1028SOL    HW114720   2.531   4.093   4.567 -2.1896  0.7443  1.9037
 1028SOL    HW214721   2.428   4.007   4.610  0.1668 -1.5719  1.0809
 1029SOL     OW14722   0.319   1.991   3.178  0.4381  0.1918  0.5077
 1029SOL    HW114723   0.395   2.014   3.126 -0.2525 -1.5369 -1.2992
 1029SOL    HW214724   0.357   1.920   3.230 -1.1429 -0.5482  0.6833
 1030SOL     OW14725   2.420   3.196  15.477  0.2820 -0.1219  0.3143
 1030SOL    HW114726   2.459   3.114  15.507  0.3972 -1.5760 -3.9125
 1030SOL    HW214727   2.339   3.183  15.527 -0.0463 -3.7513 -1.1687
 1031SOL     OW14728   3.914   3.939   4.601  0.8115 -0.3362  0.0941
 1031SOL    HW114729   3.998   3.920   4.642  1.1153  0.2884 -0.2407
 1031SOL    HW214730   3.858   3.866   4.628 -1.0203  2.0677  2.8135
 1032SOL     OW14731   1.041   2.452   1.896 -0.5993 -0.2793 -0.6305
 1032SOL    HW114732   0.993   2.370   1.901 -0.8252  0.0496  2.5381
 1032SOL    HW214733   1.116   2.450   1.955 -1.0861 -0.5216 -0.0226
 1033SOL     OW14734   3.502   1.126   0.514  0.3098  0.1118  0.0457
 1033SOL    HW114735   3.433   1.169   0.464  0.9187 -1.6249 -2.2929
 1033SOL    HW214736   3.470   1.036   0.514  2.2140 -0.5845 -0.7254
 1034SOL     OW14737   3.092   3.775   9.974  0.0553 -0.3535  0.7353
 1034SOL    HW114738   3.055   3.845   9.920  0.3221 -0.9661 -0.2507
 1034SOL    HW214739   3.031   3.705   9.953 -0.2351 -0.4366  1.8711
 1035SOL     OW14740   2.708   4.532  11.519  0.0421  0.0335 -0.8497
 1035SOL    HW114741   2.795   4.571  11.505 -1.5693  3.7995 -0.3739
 1035SOL    HW214742   2.688   4.497  11.433  0.3789 -0.2305 -0.8231
 1036SOL     OW14743   0.219   4.522   9.300 -0.0286 -0.2148  0.2807
 1036SOL    HW114744   0.297   4.533   9.245  0.5995 -1.5141  0.9088
 1036SOL    HW214745   0.260   4.515   9.386  1.3570 -1.4798 -0.4845
 1037SOL     OW14746   1.993   3.523   5.015 -0.2493 -0.3507 -0.0326
 1037SOL    HW114747   1.958   3.536   4.926 -1.5151 -0.2381  0.4875
 1037SOL    HW214748   1.964   3.604   5.058 -1.0685 -0.6540 -0.0196
 1038SOL     OW14749   3.239   2.175   0.985 -0.7794 -0.1676  0.2745
 1038SOL    HW114750   3.161   2.159   1.039  0.5419 -0.9929  1.9414
 1038SOL    HW214751   3.220   2.266   0.962  2.0884  0.9564  2.3528
 1039SOL     OW14752   3.265   4.009   2.968  0.6019  0.0495  0.0454
 1039SOL    HW114753   3.330   3.949   2.933 -1.1888 -2.0761  0.3579
 1039SOL    HW214754   3.300   4.034   3.053  0.8403  2.1089 -0.6677
 1040SOL     OW14755   1.547   1.286   9.426  0.4383  0.0094  0.2804
 1040SOL    HW114756   1.576   1.357   9.369 -2.4363 -0.4421 -1.7802
 1040SOL    HW214757   1.524   1.226   9.355  1.2236 -0.6829  0.6148
 1041SOL     OW14758   4.411   3.368   8.824 -0.5505  0.2662  0.4544
 1041SOL    HW114759   4.329   3.411   8.800 -0.6879 -0.0659  0.3341
 1041SOL    HW214760   4.464   3.380   8.745 -0.5224  1.4574  0.6464
 1042SOL     OW14761   3.184   3.493   8.032  0.2279  0.0839 -0.1812
 1042SOL    HW114762   3.173   3.408   8.074  1.5183  0.3783  0.7425
 1042SOL    HW214763   3.091   3.512   8.022  0.1459  0.3744  1.1399
 1043SOL     OW14764   3.959   2.140   2.858 -0.3418 -0.0073 -0.4345
 1043SOL    HW114765   3.866   2.147   2.881 -0.3293 -0.4025 -0.2595
 1043SOL    HW214766   3.967   2.200   2.784 -0.9855 -1.7019 -1.8746
 1044SOL     OW14767   4.700   2.333   6.938 -0.1083 -0.1941  0.0500
 1044SOL    HW114768   4.684   2.250   6.984  1.6544  0.1637  1.3122
 1044SOL    HW214769   0.055   2.338   6.935 -0.0655  0.5015  2.5208
 1045SOL     OW14770   0.446   1.626   3.590 -0.1178 -0.3395 -0.1614
 1045SOL    HW114771   0.420   1.716   3.610 -1.9324 -1.0148  0.5184
 1045SOL    HW214772   0.538   1.629   3.566 -0.4608 -0.4840 -1.5152
 1046SOL     OW14773   1.431   4.474   2.610 -0.0101 -0.6207  0.2709
 1046SOL    HW114774   1.454   4.411   2.678 -0.9590 -0.7466  0.4753
 1046SOL    HW214775   1.388   4.410   2.553  0.4139 -0.1421 -0.5984
 1047SOL     OW14776   1.254   4.146   7.347  0.3011 -0.2516  0.5758
 1047SOL    HW114777   1.217   4.176   7.264  0.3631 -0.5548  0.4386
 1047SOL    HW214778   1.334   4.100   7.320  0.7529  0.5209  0.5822
 1048SOL     OW14779   3.497   4.505   9.395 -0.1019 -0.1046 -0.2469
 1048SOL    HW114780   3.573   4.465   9.436  1.7465  1.7683 -1.8672
 1048SOL    HW214781   3.459   4.426   9.355 -2.3845 -0.1680  2.0328
 1049SOL     OW14782   1.048   0.227  16.448 -0.8163  0.0043 -0.2181
 1049SOL    HW114783   1.030   0.316  16.418  0.3369  0.2221 -0.2737
 1049SOL    HW214784   1.137   0.229  16.484  0.3422 -1.5984 -3.0336
 1050SOL     OW14785   3.882   0.294  17.274  0.1727 -0.2217  0.4803
 1050SOL    HW114786   3.820   0.238  17.227  0.2292 -0.5432  0.7922
 1050SOL    HW214787   3.930   0.223  17.315  0.8542  0.5047  0.9449
 1051SOL     OW14788   2.809   4.201   8.048 -0.0495 -0.1033  0.2605
 1051SOL    HW114789   2.719   4.174   8.028 -0.2897  1.3282 -0.5491
 1051SOL    HW214790   2.809   4.283   7.998 -1.1471 -0.6815 -0.7052
 1052SOL     OW14791   4.303   1.518   5.977 -0.0087  0.2336 -0.2419
 1052SOL    HW114792   4.216   1.534   5.941 -0.5359  1.5792  1.6388
 1052SOL    HW214793   4.358   1.596   5.967  0.6901 -0.4439 -1.6902
 1053SOL     OW14794   4.404   0.138  11.057  0.4972  0.4388  0.0202
 1053SOL    HW114795   4.446   0.100  11.135 -0.5417 -1.0082 -0.1275
 1053SOL    HW214796   4.482   0.178  11.019  0.0329 -1.6551 -3.0851
 1054SOL     OW14797   2.251   3.479  16.799 -0.1956 -0.1795 -0.6172
 1054SOL    HW114798   2.345   3.494  16.791 -0.2561  0.3353 -0.3928
 1054SOL    HW214799   2.251   3.439  16.885 -0.6322  4.9800  1.8025
 1055SOL     OW14800   3.492   0.111  15.711 -0.0798 -0.0168  0.4776
 1055SOL    HW114801   3.501   0.189  15.766 -1.5057  0.7548 -0.3753
 1055SOL    HW214802   3.428   0.150  15.651  1.5449 -0.7458 -1.7213
 1056SOL     OW14803   4.419   0.265   5.559 -0.1961  0.7553  0.3113
 1056SOL    HW114804   4.498   0.219   5.531 -0.3909  0.0962  0.8454
 1056SOL    HW214805   4.451   0.299   5.643 -0.2091  0.9207  0.2498
 1057SOL     OW14806   1.545   0.560   3.590  0.0361 -0.1370 -0.6760
 1057SOL    HW114807   1.618   0.620   3.577 -0.8148  0.4176 -3.0079
 1057SOL    HW214808   1.532   0.518   3.504  1.7029  0.0238 -1.0014
 1058SOL     OW14809   4.670   4.074   3.324 -0.0974  0.2475  0.1447
 1058SOL    HW114810   4.725   4.145   3.355  0.1857  0.4075 -0.7276
 1058SOL    HW214811   4.591   4.074   3.378 -0.1798  1.4378  0.0062
 1059SOL     OW14812   2.690   0.767   8.346 -0.1303 -0.3281 -0.3871
 1059SOL    HW114813   2.773   0.746   8.304  0.3360 -2.0953  1.4350
 1059SOL    HW214814   2.697   0.717   8.427  0.0439  0.5438  0.1396
 1060SOL     OW14815   1.913   4.034   9.441  0.3548 -0.3569 -0.0049
 1060SOL    HW114816   1.998   3.996   9.420  0.4432  0.5825 -1.3357
 1060SOL    HW214817   1.916   4.038   9.537 -2.1212  2.9224 -0.0501
 1061SOL     OW14818   1.684   0.751   3.487 -0.1145  0.3436 -0.4077
 1061SOL    HW114819   1.767   0.782   3.523  1.7013 -3.6330 -1.2181
 1061SOL    HW214820   1.694   0.744   3.392 -0.4204 -1.7536 -0.2711
 1062SOL     OW14821   3.629   1.894   8.593 -0.2622 -0.5412 -0.5592
 1062SOL    HW114822   3.665   1.839   8.663 -0.2578 -1.5216 -1.3365
 1062SOL    HW214823   3.556   1.849   8.552  0.1236 -0.4838 -1.3083
 1063SOL     OW14824   3.494   4.100   3.792  0.7671  0.3561 -0.0569
 1063SOL    HW114825   3.510   4.017   3.837  0.2185 -0.7000 -1.8134
 1063SOL    HW214826   3.565   4.103   3.727  0.8004  2.4712  0.0823
 1064SOL     OW14827   0.060   2.222   8.449 -0.4723 -0.9586 -0.5474
 1064SOL    HW114828   4.715   2.255   8.479  0.5171 -0.2873  1.5511
 1064SOL    HW214829   0.088   2.176   8.528  1.7141  1.5107  0.1415
 1065SOL     OW14830   4.159   3.859   7.226  0.2649 -0.0757 -0.2395
 1065SOL    HW114831   4.096   3.811   7.172  0.8682 -1.8752  0.6784
 1065SOL    HW214832   4.112   3.863   7.309 -1.2985  2.4153 -1.2329
 1066SOL     OW14833   0.429   4.072   7.178 -0.0850 -0.4525 -0.4237
 1066SOL    HW114834   0.466   4.083   7.090 -1.1994  3.1247 -0.4337
 1066SOL    HW214835   0.338   4.049   7.160  0.3840 -2.0023 -0.8336
 1067SOL     OW14836   2.696   4.610   6.140 -0.5689 -0.3192  0.6209
 1067SOL    HW114837   2.754   4.660   6.083 -0.2678  0.3753  1.5294
 1067SOL    HW214838   2.683   4.531   6.088 -2.9523 -0.2372  1.1033
 1068SOL     OW14839   4.657   3.019   1.712  0.5299 -1.0613  0.5019
 1068SOL    HW114840   4.641   2.969   1.792 -0.5488 -1.3109  0.1331
 1068SOL    HW214841   0.007   2.991   1.697  0.8533  0.9606 -1.3980
 1069SOL     OW14842   0.095   4.249  14.722  0.0396 -0.1860 -0.5485
 1069SOL    HW114843   0.146   4.308  14.778  1.5902 -1.2481 -0.8485
 1069SOL    HW214844   0.009   4.271  14.758 -1.1328 -3.7259 -1.2285
 1070SOL     OW14845   2.237   1.103   2.399  0.5299 -0.7475  0.2263
 1070SOL    HW114846   2.286   1.052   2.464  1.0210 -1.3463 -0.6118
 1070SOL    HW214847   2.252   1.052   2.319  0.0163 -1.5555  0.6481
 1071SOL     OW14848   0.413   4.207  16.648 -0.2301  0.4360 -0.4651
 1071SOL    HW114849   0.453   4.293  16.638  0.0751  0.4284  0.7398
 1071SOL    HW214850   0.463   4.183  16.726 -0.8195  0.5563 -0.0518
 1072SOL     OW14851   0.915   1.709   5.855 -0.1582 -0.0124  0.1977
 1072SOL    HW114852   0.961   1.791   5.840 -2.1584  1.3149  1.3513
 1072SOL    HW214853   0.885   1.691   5.766  1.5431  2.0151 -0.7866
 1073SOL     OW14854   0.398   4.293   5.934  0.7762 -0.2443  0.3328
 1073SOL    HW114855   0.327   4.322   5.990  0.8384 -3.0228  1.8731
 1073SOL    HW214856   0.453   4.371   5.936  1.2999 -0.5994 -0.0066
 1074SOL     OW14857   1.694   0.604   2.272 -0.0186 -0.3636  0.2006
 1074SOL    HW114858   1.717   0.586   2.363 -0.3252 -1.2175  0.1051
 1074SOL    HW214859   1.775   0.613   2.221 -0.5679  0.7077 -0.4748
 1075SOL     OW14860   1.396   2.683   3.713  0.3006 -0.3560  0.1450
 1075SOL    HW114861   1.454   2.758   3.727  1.3031 -1.4936  2.0710
 1075SOL    HW214862   1.468   2.634   3.674  0.2863  0.4594 -0.8991
 1076SOL     OW14863   2.936   3.193   1.919 -0.8859 -0.9975  0.2524
 1076SOL    HW114864   2.881   3.124   1.881 -0.8660 -0.9527  0.1428
 1076SOL    HW214865   2.934   3.180   2.014 -0.7351 -0.7802  0.2855
 1077SOL     OW14866   0.675   3.983  16.393 -0.2347  0.5946  0.9851
 1077SOL    HW114867   0.684   4.076  16.416  0.8041  0.4969  0.9829
 1077SOL    HW214868   0.690   3.938  16.476 -1.2419 -1.0495  0.2625
 1078SOL     OW14869   3.153   1.266   2.984 -0.0215 -0.3280  0.1633
 1078SOL    HW114870   3.100   1.267   2.905  2.0434  2.2669 -1.1934
 1078SOL    HW214871   3.095   1.272   3.060 -0.9565 -0.3004 -0.5573
 1079SOL     OW14872   3.715   4.039   0.539  0.5037 -0.5325 -0.1133
 1079SOL    HW114873   3.752   4.048   0.627  1.0379  0.3702 -0.4284
 1079SOL    HW214874   3.640   4.098   0.549 -0.2432 -1.2210 -1.6619
 1080SOL     OW14875   2.162   2.196   2.613 -0.1689 -0.3726 -0.1807
 1080SOL    HW114876   2.134   2.108   2.591 -2.3622  0.0682  0.8152
 1080SOL    HW214877   2.256   2.177   2.618 -0.1122  0.8141  3.7950
 1081SOL     OW14878   3.131   3.738   6.690 -0.5727 -0.4360  0.2340
 1081SOL    HW114879   3.088   3.820   6.667 -0.4626 -0.6262 -0.6579
 1081SOL    HW214880   3.188   3.712   6.617 -2.8968  0.6822 -1.9965
 1082SOL     OW14881   2.336   1.344  16.260 -0.0810  0.5970  0.5040
 1082SOL    HW114882   2.365   1.262  16.300 -3.0093 -0.3757  0.6472
 1082SOL    HW214883   2.291   1.389  16.333 -1.8652 -0.9381  0.3503
 1083SOL     OW14884   2.475   2.869   8.107 -0.1190 -0.0463 -0.5258
 1083SOL    HW114885   2.424   2.831   8.179 -0.2213  1.0069 -0.0386
 1083SOL    HW214886   2.535   2.795   8.095 -0.0927 -0.2621  0.9175
 1084SOL     OW14887   3.401   0.084   2.052  0.5981  0.1310  0.2391
 1084SOL    HW114888   3.450   0.056   1.975  0.1583  0.8989 -0.3214
 1084SOL    HW214889   3.360   4.738   2.061  0.0455  0.4532  0.8285
 1085SOL     OW14890   0.259   0.040   3.352  0.3478 -0.3757  0.2782
 1085SOL    HW114891   0.309   0.066   3.275  1.6713 -0.9884  0.9142
 1085SOL    HW214892   0.227   0.125   3.382  1.1438  0.0623 -0.1105
 1086SOL     OW14893   1.840   4.006   8.272 -0.0818  0.4998 -0.4376
 1086SOL    HW114894   1.843   3.912   8.255 -0.9461  0.6232 -1.2789
 1086SOL    HW214895   1.908   4.010   8.339  1.9259 -1.0234 -2.3804
 1087SOL     OW14896   2.164   0.077   2.552  0.0426 -0.2158  0.5599
 1087SOL    HW114897   2.174   4.723   2.537 -1.7117 -0.8179  3.3209
 1087SOL    HW214898   2.237   0.108   2.606 -0.9668 -2.3079  3.0746
 1088SOL     OW14899   3.235   4.576   1.651  0.3102 -0.1294 -0.2151
 1088SOL    HW114900   3.182   4.541   1.579  0.0300 -0.0856 -0.0300
 1088SOL    HW214901   3.210   4.521   1.726 -1.6262 -0.7212 -1.2918
 1089SOL     OW14902   4.231   2.752   8.884  0.0757 -0.0711 -0.5316
 1089SOL    HW114903   4.146   2.776   8.848 -0.2637  0.3740  0.5407
 1089SOL    HW214904   4.203   2.738   8.975 -0.0248 -1.1873 -0.7333
 1090SOL     OW14905   4.566   1.807   8.763 -0.3131  0.6538 -0.0760
 1090SOL    HW114906   4.657   1.787   8.743 -0.6472 -0.0663 -0.9221
 1090SOL    HW214907   4.576   1.810   8.858  0.8606 -0.4318 -0.1679
 1091SOL     OW14908   4.167   1.168   8.435  1.0893 -0.6078 -0.2497
 1091SOL    HW114909   4.216   1.117   8.499  0.8035 -1.4736 -0.7164
 1091SOL    HW214910   4.236   1.227   8.407  2.2381 -1.8275  0.0233
 1092SOL     OW14911   1.886   4.406  12.715  0.7448  0.2412 -0.0795
 1092SOL    HW114912   1.970   4.412  12.760  0.2401  0.4797  0.8245
 1092SOL    HW214913   1.819   4.438  12.776  1.2171  2.3651 -0.6736
 1093SOL     OW14914   4.541   0.345   2.881  0.3007  0.3743 -0.3805
 1093SOL    HW114915   4.586   0.370   2.962  1.8225  0.2001 -1.1694
 1093SOL    HW214916   4.530   0.427   2.831  0.2306  1.1817  0.9621
 1094SOL     OW14917   3.057   3.854   5.064 -0.3202 -0.3094 -0.0690
 1094SOL    HW114918   2.997   3.902   5.122  1.1355 -0.2722  1.4077
 1094SOL    HW214919   3.037   3.898   4.981  1.7457  1.9658  0.6331
 1095SOL     OW14920   1.587   0.157   5.669 -0.2459  0.4082 -0.1896
 1095SOL    HW114921   1.659   0.099   5.644 -0.3591 -0.5628  1.7467
 1095SOL    HW214922   1.556   0.114   5.749  2.0434  1.5967  1.3077
 1096SOL     OW14923   0.143   1.470  14.761  0.2877  0.2951 -0.0070
 1096SOL    HW114924   0.048   1.470  14.773  0.3338  2.4644  0.3838
 1096SOL    HW214925   0.157   1.565  14.764  2.7245 -0.1063  0.8770
 1097SOL     OW14926   1.548   1.686   3.957  0.0699 -0.4179  0.5548
 1097SOL    HW114927   1.473   1.665   3.900  1.2173  0.2279 -1.2077
 1097SOL    HW214928   1.566   1.780   3.952 -2.0088 -0.0089  0.6838
 1098SOL     OW14929   0.156   1.672  11.470  0.2776  0.2089  0.1951
 1098SOL    HW114930   0.237   1.663  11.421  1.1659 -0.7513  1.8366
 1098SOL    HW214931   0.093   1.664  11.399  1.2590  0.3245 -0.6850
 1099SOL     OW14932   2.912   0.734   7.618 -0.3203  0.3710 -0.4541
 1099SOL    HW114933   2.961   0.704   7.542 -0.4461 -0.2417 -0.2903
 1099SOL    HW214934   2.950   0.817   7.647  0.3719 -0.2853  0.4767
 1100SOL     OW14935   2.707   3.273   3.094  0.1421 -0.0665  0.1614
 1100SOL    HW114936   2.627   3.222   3.085  0.9011 -1.2987  0.4613
 1100SOL    HW214937   2.703   3.287   3.188 -1.0036 -2.8060  0.4978
 1101SOL     OW14938   3.292   0.826   0.094  0.3272  0.0707 -0.0606
 1101SOL    HW114939   3.230   0.789   0.031  1.0056 -0.2290 -0.5556
 1101SOL    HW214940   3.257   0.798   0.179 -0.9834 -3.1857 -1.6717
 1102SOL     OW14941   4.414   1.764   4.353  0.3707  0.5350 -0.5341
 1102SOL    HW114942   4.356   1.804   4.288  2.3602  1.5473 -1.6704
 1102SOL    HW214943   4.367   1.688   4.388 -0.8788  1.8766  0.6958
 1103SOL     OW14944   2.385   2.798   9.754 -0.1530 -0.0137  0.0434
 1103SOL    HW114945   2.372   2.709   9.719  2.7949 -0.5294  0.2727
 1103SOL    HW214946   2.373   2.848   9.674 -0.8147 -1.1748 -0.5913
 1104SOL     OW14947   3.147   2.827  12.760  0.6818 -0.6395 -0.0420
 1104SOL    HW114948   3.187   2.912  12.740  1.1175 -1.3299 -2.1387
 1104SOL    HW214949   3.106   2.806  12.676  0.4151  2.2013 -0.6496
 1105SOL     OW14950   2.280   1.337  14.982 -0.5870 -0.5544  0.0855
 1105SOL    HW114951   2.202   1.346  14.929 -0.2653  2.6983  0.1262
 1105SOL    HW214952   2.243   1.303  15.064  0.8550 -0.2429  0.8752
 1106SOL     OW14953   3.562   0.115   6.831 -0.1050  0.0518 -0.3808
 1106SOL    HW114954   3.579   0.101   6.924 -2.3800  0.4368  0.0938
 1106SOL    HW214955   3.514   0.037   6.803 -0.4190  0.5307 -1.1650
 1107SOL     OW14956   0.603   1.547   5.414  0.2602 -0.3792  0.6368
 1107SOL    HW114957   0.609   1.627   5.362 -1.0720 -0.2533  0.6944
 1107SOL    HW214958   0.528   1.552   5.473  0.0022 -1.5413  0.4003
 1108SOL     OW14959   3.525   3.163  10.717 -0.4293 -0.1840 -0.7479
 1108SOL    HW114960   3.457   3.156  10.651 -0.9293 -1.0052 -0.1414
 1108SOL    HW214961   3.606   3.153  10.668 -0.1905  1.4082 -0.6797
 1109SOL     OW14962   0.080   1.968  15.558  0.4443  0.1757  0.1168
 1109SOL    HW114963   0.047   2.045  15.513 -0.0770  0.9353  1.8309
 1109SOL    HW214964   0.101   1.913  15.482  0.8788  0.0577  0.3213
 1110SOL     OW14965   3.781   1.012   8.071  0.1713  0.4770 -0.0164
 1110SOL    HW114966   3.701   0.994   8.022 -1.5589  0.0843  2.9191
 1110SOL    HW214967   3.799   0.933   8.122  1.5084 -0.0150 -1.2382
 1111SOL     OW14968   3.838   4.181   2.655  0.8300  0.3212 -0.2226
 1111SOL    HW114969   3.841   4.168   2.560  0.5956 -4.3959  0.4084
 1111SOL    HW214970   3.798   4.268   2.664 -0.5041  0.0145 -3.2642
 1112SOL     OW14971   4.154   2.808  17.259 -0.0731 -0.0733 -0.1103
 1112SOL    HW114972   4.162   2.884  17.203  1.8686  1.8568  2.7810
 1112SOL    HW214973   4.225   2.752  17.228 -0.2195 -0.1687 -0.2747
 1113SOL     OW14974   2.719   3.741  15.092  0.5099 -0.7715 -0.2000
 1113SOL    HW114975   2.796   3.790  15.063  1.6825 -2.7638 -0.5364
 1113SOL    HW214976   2.646   3.800  15.077  0.2849 -0.6144  1.5699
 1114SOL     OW14977   2.752   3.697   4.464  0.6276  0.2932 -0.0929
 1114SOL    HW114978   2.831   3.723   4.417  0.6804  1.3788  0.6217
 1114SOL    HW214979   2.687   3.675   4.396  1.2371  2.1761 -1.2819
 1115SOL     OW14980   1.367   3.992   4.506  0.3703  0.3887 -0.0779
 1115SOL    HW114981   1.346   3.902   4.482  0.4442  0.1580  0.7553
 1115SOL    HW214982   1.400   4.030   4.424 -0.4390  0.9522 -0.1461
 1116SOL     OW14983   3.958   0.363  12.433 -0.0592  0.1349  0.1035
 1116SOL    HW114984   4.052   0.379  12.436 -0.3698  1.4890  2.0503
 1116SOL    HW214985   3.962   0.317  12.349 -3.1916 -1.6601  0.9264
 1117SOL     OW14986   2.487   4.314   3.052 -0.2838 -0.0580 -0.0143
 1117SOL    HW114987   2.517   4.225   3.034 -2.8940 -1.2754  1.6220
 1117SOL    HW214988   2.556   4.377   3.031 -0.0326  0.0469  1.1615
 1118SOL     OW14989   0.468   0.071  11.722  0.0656 -0.9477 -0.3790
 1118SOL    HW114990   0.485   0.011  11.795 -1.8685  1.2416  1.8598
 1118SOL    HW214991   0.493   0.154  11.763  0.3065 -1.7728  1.1667
 1119SOL     OW14992   2.853   1.195   8.240  0.0012  0.0589  0.0667
 1119SOL    HW114993   2.916   1.188   8.312 -0.2305 -0.7541  0.1927
 1119SOL    HW214994   2.770   1.194   8.289  0.3896 -0.2949  0.7179
 1120SOL     OW14995   0.583   0.737   6.079  0.5495 -0.0042  0.4608
 1120SOL    HW114996   0.646   0.791   6.126 -0.4700  1.9665 -0.4203
 1120SOL    HW214997   0.527   0.728   6.157 -0.7011  0.4041 -0.3946
 1121SOL     OW14998   4.076   2.499   5.220  0.4032  0.2341 -0.1718
 1121SOL    HW114999   4.007   2.510   5.154  1.0649 -0.0896 -0.9158
 1121SOL    HW215000   4.120   2.420   5.189  0.2039 -0.7894  2.1080
 1122SOL     OW15001   2.112   3.945   6.873 -0.1916 -0.0537  0.4570
 1122SOL    HW115002   2.115   3.861   6.827 -0.1285  0.3142 -0.2064
 1122SOL    HW215003   2.072   3.929   6.959  0.1935  0.6083  0.7571
 1123SOL     OW15004   0.125   2.838   1.626  0.5198  0.0396  0.2787
 1123SOL    HW115005   0.149   2.857   1.536  1.7880 -1.5869  0.2702
 1123SOL    HW215006   0.212   2.848   1.665 -0.5386  2.0467  2.1215
 1124SOL     OW15007   2.038   1.163   7.623  0.2115  0.5731 -0.4893
 1124SOL    HW115008   2.080   1.111   7.692 -2.6476  2.2454  2.5032
 1124SOL    HW215009   2.075   1.247   7.648 -1.7231  1.1210  0.5756
 1125SOL     OW15010   4.192   2.892   6.997 -0.3283 -0.0510 -0.1607
 1125SOL    HW115011   4.242   2.973   6.987 -0.8119  0.3434  0.5759
 1125SOL    HW215012   4.132   2.910   7.069 -0.1659  1.7807 -0.4893
 1126SOL     OW15013   0.430   3.823   2.595  0.6842  0.7706  0.2037
 1126SOL    HW115014   0.366   3.891   2.577 -0.4568 -0.2094  0.5137
 1126SOL    HW215015   0.443   3.827   2.690 -1.8665 -0.9010  0.6083
 1127SOL     OW15016   1.894   4.433  12.453 -0.0555  0.5487  0.5361
 1127SOL    HW115017   1.801   4.454  12.443 -0.5890 -0.3795  3.4057
 1127SOL    HW215018   1.896   4.417  12.548 -3.2433  0.6220  0.6246
 1128SOL     OW15019   2.989   0.788   3.859  0.4222 -0.2992 -0.3007
 1128SOL    HW115020   3.026   0.719   3.803  2.5796 -0.4596  1.3276
 1128SOL    HW215021   2.943   0.740   3.927 -0.0395  2.1168  1.0683
 1129SOL     OW15022   1.957   0.929   6.599  0.0115 -0.7842 -0.0748
 1129SOL    HW115023   1.958   1.010   6.651 -2.2887 -1.8264  1.5950
 1129SOL    HW215024   1.954   0.971   6.513 -1.5376 -2.4271 -0.8223
 1130SOL     OW15025   2.524   3.744   7.634  0.0428  0.5152  0.3885
 1130SOL    HW115026   2.485   3.669   7.679  0.6572  0.4831  0.8621
 1130SOL    HW215027   2.517   3.712   7.544  0.3629 -0.8870  0.8593
 1131SOL     OW15028   1.047   3.231   2.481  0.0077  0.6430 -0.3945
 1131SOL    HW115029   0.978   3.193   2.426 -0.9835  0.6818  0.8384
 1131SOL    HW215030   1.038   3.194   2.568  0.7363  1.8557  0.1936
 1132SOL     OW15031   3.211   2.341  15.422 -0.1368 -0.0801 -0.0941
 1132SOL    HW115032   3.207   2.395  15.501  0.4042  0.5221 -0.4802
 1132SOL    HW215033   3.304   2.353  15.404 -0.2111  1.6097  0.6550
 1133SOL     OW15034   4.430   3.293   5.815  0.2102 -0.5709  0.0420
 1133SOL    HW115035   4.476   3.303   5.898 -1.2232  0.2837  0.7402
 1133SOL    HW215036   4.492   3.345   5.765 -0.7637 -0.3345 -0.9227
 1134SOL     OW15037   2.061   2.368   2.852  0.6337 -0.0739  0.0224
 1134SOL    HW115038   2.102   2.319   2.780  0.7600 -0.0945  0.1089
 1134SOL    HW215039   1.968   2.361   2.831  0.7823 -2.1468  0.1207
 1135SOL     OW15040   4.556   3.564   9.079  0.5574  0.1210 -0.3357
 1135SOL    HW115041   4.552   3.473   9.049  2.0107 -0.1760  0.3933
 1135SOL    HW215042   4.651   3.573   9.079  0.5100  0.5808 -0.6836
 1136SOL     OW15043   0.990   1.587  13.000  0.0598 -0.2170  0.2585
 1136SOL    HW115044   1.005   1.500  13.037 -3.2028 -1.3437 -1.1137
 1136SOL    HW215045   1.048   1.589  12.923  1.9937  1.7271  1.7627
 1137SOL     OW15046   0.181   3.998   2.613 -0.1863 -0.6320 -0.1635
 1137SOL    HW115047   0.137   4.018   2.696  0.3552 -1.2188  0.2661
 1137SOL    HW215048   0.150   3.911   2.589  1.7752 -1.4224  0.1970
 1138SOL     OW15049   2.891   2.171   5.103  0.0609  0.1158  0.0312
 1138SOL    HW115050   2.811   2.137   5.145  0.8111 -0.7875  0.7332
 1138SOL    HW215051   2.889   2.266   5.110 -3.1426 -0.0902  1.9545
 1139SOL     OW15052   3.324   2.101  17.598  0.1057  0.4052  0.4243
 1139SOL    HW115053   3.340   2.010  17.623 -0.6686  0.1764  0.0753
 1139SOL    HW215054   3.317   2.143  17.684 -1.1746 -0.3195  0.6706
 1140SOL     OW15055   0.276   0.739  14.226 -0.3386 -0.1543 -0.0532
 1140SOL    HW115056   0.341   0.766  14.160 -0.9562  0.3021 -0.4781
 1140SOL    HW215057   0.325   0.669  14.269 -0.3171  1.4836  2.5988
 1141SOL     OW15058   4.612   2.733   2.211 -0.3670  0.7756  0.1408
 1141SOL    HW115059   4.581   2.648   2.179  1.1331 -0.0098  0.7668
 1141SOL    HW215060   4.539   2.789   2.188 -2.5142 -2.0016  0.1273
 1142SOL     OW15061   1.450   0.478   2.847  0.6110  0.1522 -0.1610
 1142SOL    HW115062   1.423   0.535   2.775  3.5058  0.6896 -0.8211
 1142SOL    HW215063   1.544   0.495   2.857 -0.2307  2.8558  3.1315
 1143SOL     OW15064   3.570   3.080  11.031  0.4081  0.3148  0.0301
 1143SOL    HW115065   3.530   3.128  10.958  1.6909  2.6596  0.8657
 1143SOL    HW215066   3.593   3.152  11.089 -0.9311  0.9985 -0.2737
 1144SOL     OW15067   1.022   1.235   4.482 -0.7725  0.5085 -0.3350
 1144SOL    HW115068   0.995   1.326   4.466  0.3607  1.1151  1.1150
 1144SOL    HW215069   1.029   1.231   4.578  0.1347 -0.6443 -0.4509
 1145SOL     OW15070   3.281   0.835   3.368 -0.0842  0.0751  0.0073
 1145SOL    HW115071   3.371   0.807   3.383 -0.0601 -0.4639 -1.1174
 1145SOL    HW215072   3.274   0.906   3.432 -0.3763  0.7292 -0.7530
 1146SOL     OW15073   4.454   4.541  13.140  0.2724  0.2090  0.3481
 1146SOL    HW115074   4.488   4.509  13.223  1.1036 -1.5832 -0.6981
 1146SOL    HW215075   4.407   4.462  13.115  0.9356  0.4647 -1.7576
 1147SOL     OW15076   2.535   2.364   8.628  0.3082  0.4206  0.2732
 1147SOL    HW115077   2.557   2.318   8.710 -2.8528 -0.0511  0.8482
 1147SOL    HW215078   2.607   2.333   8.574 -0.8797 -0.0620 -1.0356
 1148SOL     OW15079   3.454   4.183   4.210 -0.0926  0.5218  0.4810
 1148SOL    HW115080   3.464   4.277   4.194 -0.8885  0.5794  0.3469
 1148SOL    HW215081   3.543   4.149   4.200 -0.3626  0.5008 -1.7866
 1149SOL     OW15082   3.021   0.346   5.014 -0.3773 -0.1940 -0.0839
 1149SOL    HW115083   2.941   0.367   5.062  1.0060 -1.4759  2.7409
 1149SOL    HW215084   3.008   0.251   5.006  0.5013 -0.3405  0.2068
 1150SOL     OW15085   0.114   0.646  11.849 -0.2787 -0.0428  0.2698
 1150SOL    HW115086   0.035   0.601  11.819  0.7873 -0.4200 -1.9516
 1150SOL    HW215087   0.148   0.689  11.770  1.5509  0.7228  1.4766
 1151SOL     OW15088   0.352   3.495   8.878 -0.2134  0.1147 -0.4153
 1151SOL    HW115089   0.348   3.543   8.961  1.4548 -0.3745 -0.0552
 1151SOL    HW215090   0.283   3.542   8.830  0.2082  1.4418  0.2798
 1152SOL     OW15091   0.528   4.660   4.625  0.0588  0.3686  0.1871
 1152SOL    HW115092   0.462   4.591   4.627 -0.8163  1.2589  1.5859
 1152SOL    HW215093   0.548   4.666   4.531  0.2224  1.8266  0.3161
 1153SOL     OW15094   4.201   1.872   8.864  0.2258 -0.0914  0.2682
 1153SOL    HW115095   4.184   1.779   8.847 -1.2386  0.6533 -2.3958
 1153SOL    HW215096   4.228   1.903   8.778 -0.4975  0.3488  0.1927
 1154SOL     OW15097   0.529   0.692  10.659 -0.3546 -0.1289 -0.2217
 1154SOL    HW115098   0.473   0.629  10.612  1.7065 -1.7398 -0.5182
 1154SOL    HW215099   0.556   0.753  10.590  1.7112 -1.3509 -0.4882
 1155SOL     OW15100   0.481   0.476   7.831 -0.0422  0.2173 -0.1477
 1155SOL    HW115101   0.462   0.402   7.889  1.5862  0.6045  0.8841
 1155SOL    HW215102   0.546   0.438   7.772  0.1684  0.8842 -0.3445
 1156SOL     OW15103   0.983   1.658   0.122 -0.1006 -0.1731  0.2040
 1156SOL    HW115104   1.019   1.621   0.041 -1.3489 -0.2694 -0.3107
 1156SOL    HW215105   1.062   1.707   0.144 -0.1905  0.5276 -1.0169
 1157SOL     OW15106   2.129   0.090   4.996 -0.3771 -0.5404 -0.0059
 1157SOL    HW115107   2.037   0.083   5.024  0.0918 -1.7740  1.2029
 1157SOL    HW215108   2.133   0.181   4.967 -0.3606  0.0967  1.9693
 1158SOL     OW15109   0.086   4.105   2.872 -0.3092 -0.3395 -0.2216
 1158SOL    HW115110   0.165   4.159   2.883  0.2690 -0.6986 -2.6492
 1158SOL    HW215111   0.111   4.039   2.936 -1.7386  0.4340  1.1268
 1159SOL     OW15112   1.393   2.805   8.018  0.3467 -0.0056  0.3501
 1159SOL    HW115113   1.430   2.766   7.939 -0.5926  1.2686 -0.7191
 1159SOL    HW215114   1.466   2.863   8.041  0.2427 -0.4476  1.8172
 1160SOL     OW15115   1.157   3.207  15.214 -0.0706  0.2393  0.1618
 1160SOL    HW115116   1.085   3.271  15.211  0.4430  0.7458 -1.8860
 1160SOL    HW215117   1.223   3.250  15.268  0.3688  1.6804 -1.4958
 1161SOL     OW15118   4.687   2.920  12.441 -0.1427 -0.4678  0.1915
 1161SOL    HW115119   0.006   2.980  12.396 -0.5279  0.5138  0.9866
 1161SOL    HW215120   0.012   2.901  12.509  0.7897 -0.5756 -0.7291
 1162SOL     OW15121   2.931   2.581   2.533 -0.4319 -0.2518 -0.0809
 1162SOL    HW115122   2.923   2.581   2.628  0.0223  0.1245 -0.0447
 1162SOL    HW215123   3.015   2.626   2.523 -0.8658  0.6448  0.4111
 1163SOL     OW15124   2.076   1.118   2.069 -0.3784  0.1544 -0.3801
 1163SOL    HW115125   2.110   1.166   1.994 -0.0218  2.0164  0.9651
 1163SOL    HW215126   2.158   1.089   2.109 -0.4941 -1.7517 -1.4982
 1164SOL     OW15127   1.209   4.042   0.472 -0.0831 -0.2070  0.1157
 1164SOL    HW115128   1.185   3.961   0.517 -0.3912 -0.0924  0.1528
 1164SOL    HW215129   1.233   4.013   0.384 -0.0831  0.7036 -0.1815
 1165SOL     OW15130   0.814   4.638   6.003  0.6184 -0.0741 -0.6100
 1165SOL    HW115131   0.759   4.713   5.979 -0.1159 -0.9361 -1.6319
 1165SOL    HW215132   0.892   4.655   5.950 -0.0656  0.9000 -1.3270
 1166SOL     OW15133   2.303   0.307   3.747 -0.4686  0.1459 -0.6636
 1166SOL    HW115134   2.356   0.363   3.691  2.4051 -2.2704 -0.3901
 1166SOL    HW215135   2.360   0.309   3.824 -0.1398 -1.5024 -0.8609
 1167SOL     OW15136   4.396   1.848  12.586 -0.0919  0.4507  0.5719
 1167SOL    HW115137   4.377   1.817  12.674 -0.1643  1.1110  0.7843
 1167SOL    HW215138   4.318   1.813  12.542  1.8795 -2.2682 -0.7456
 1168SOL     OW15139   0.032   1.221   5.290 -0.2203 -0.2149  0.0180
 1168SOL    HW115140   4.715   1.285   5.248 -1.0233 -1.9084 -1.4603
 1168SOL    HW215141   0.035   1.259   5.378 -1.0295  0.3457 -0.1978
 1169SOL     OW15142   3.197   1.300  12.181 -0.3940  0.1568  0.2038
 1169SOL    HW115143   3.238   1.374  12.136 -0.8873  0.2887 -0.0299
 1169SOL    HW215144   3.105   1.327  12.171 -0.4414 -1.1216 -3.0411
 1170SOL     OW15145   3.486   2.482   6.536  0.1045  0.2425  0.2084
 1170SOL    HW115146   3.419   2.504   6.600  0.8206  0.2627  0.9586
 1170SOL    HW215147   3.533   2.565   6.527 -0.1603  0.2417 -1.1711
 1171SOL     OW15148   4.326   2.678  11.771  0.0449  0.0854 -0.2969
 1171SOL    HW115149   4.353   2.763  11.735  1.3604 -0.5033 -0.6876
 1171SOL    HW215150   4.375   2.662  11.852 -1.7375  0.6710  0.9096
 1172SOL     OW15151   0.119   1.402  17.170  0.5123  0.6117 -0.0785
 1172SOL    HW115152   0.128   1.490  17.207  1.5921  1.2603 -1.9144
 1172SOL    HW215153   0.062   1.404  17.093 -0.0148  1.0675  0.3171
 1173SOL     OW15154   1.466   2.003   1.032 -0.0729  0.0550 -0.2624
 1173SOL    HW115155   1.388   2.054   1.010  0.8536  2.1646  1.2776
 1173SOL    HW215156   1.429   1.915   1.032 -0.3613  0.1938  2.0319
 1174SOL     OW15157   2.835   2.575   5.406 -0.5342  0.1899  0.0659
 1174SOL    HW115158   2.854   2.522   5.484  0.0643 -0.8870 -0.8119
 1174SOL    HW215159   2.770   2.635   5.443 -0.4356 -0.3957  1.2007
 1175SOL     OW15160   3.165   1.886   2.113 -0.9378  0.2403 -0.3324
 1175SOL    HW115161   3.169   1.981   2.123 -0.6190  0.0735  1.1361
 1175SOL    HW215162   3.177   1.873   2.019 -0.1925  0.2689 -0.2449
 1176SOL     OW15163   2.008   1.251   5.109 -0.0319  0.0411 -0.2236
 1176SOL    HW115164   1.961   1.318   5.159 -1.5104 -0.7895 -0.5018
 1176SOL    HW215165   1.999   1.177   5.169  1.0632 -1.1735 -1.5756
 1177SOL     OW15166   2.028   2.204   8.822  0.2198 -0.1018 -0.6748
 1177SOL    HW115167   2.095   2.264   8.789 -1.0555  1.2363 -0.8009
 1177SOL    HW215168   2.063   2.184   8.909 -2.5714  1.1634  0.7168
 1178SOL     OW15169   1.227   0.746   5.022  0.5841  0.0524  0.3136
 1178SOL    HW115170   1.156   0.783   5.074 -0.8908 -0.6968 -1.1632
 1178SOL    HW215171   1.183   0.685   4.962  0.8517  1.3356 -1.1719
 1179SOL     OW15172   1.939   3.640   1.666  0.4143  0.4289 -0.2026
 1179SOL    HW115173   1.987   3.619   1.586  0.8343  1.7403 -0.2825
 1179SOL    HW215174   1.966   3.569   1.725  0.9020  0.4170 -0.4339
 1180SOL     OW15175   3.090   0.680   6.499 -1.1172  0.0585  0.0800
 1180SOL    HW115176   3.008   0.662   6.453 -1.3986 -1.1775  1.0819
 1180SOL    HW215177   3.119   0.757   6.449 -2.7032  1.1767  0.8947
 1181SOL     OW15178   3.839   3.683  16.290  0.0494  0.1601  0.1855
 1181SOL    HW115179   3.822   3.616  16.356 -3.1067 -0.2785 -1.1255
 1181SOL    HW215180   3.755   3.681  16.246 -0.4092 -3.1792  1.2396
 1182SOL     OW15181   3.829   3.120  13.455  0.6642 -0.4707  0.7663
 1182SOL    HW115182   3.751   3.082  13.495  0.1194 -2.1646 -1.9273
 1182SOL    HW215183   3.880   3.044  13.430  0.5330 -0.1043 -0.5956
 1183SOL     OW15184   3.318   0.660   8.718 -0.3161 -0.0028  0.3083
 1183SOL    HW115185   3.401   0.627   8.754  1.3467 -0.5094 -4.0322
 1183SOL    HW215186   3.248   0.624   8.772 -0.2412 -0.8936 -0.1745
 1184SOL     OW15187   2.954   1.547   4.968 -0.5011  0.2195  0.3162
 1184SOL    HW115188   2.860   1.542   4.952 -0.6122  1.3592  0.6025
 1184SOL    HW215189   2.987   1.591   4.889 -0.1511 -1.4895 -0.4942
 1185SOL     OW15190   0.691   2.381  14.093 -0.0701 -0.2358  0.0014
 1185SOL    HW115191   0.655   2.464  14.126 -1.7295 -1.0268  0.1845
 1185SOL    HW215192   0.680   2.382  13.998  0.7028 -1.1798 -0.0971
 1186SOL     OW15193   4.308   3.958   5.358 -0.5316  0.2227 -0.3141
 1186SOL    HW115194   4.224   3.981   5.398 -0.3614 -1.8396  1.2282
 1186SOL    HW215195   4.376   3.999   5.412  0.3822 -0.5879 -0.8370
 1187SOL     OW15196   2.187   2.181  13.697  0.3135  0.1881 -0.6678
 1187SOL    HW115197   2.282   2.174  13.695  0.4362  1.5718  0.4334
 1187SOL    HW215198   2.165   2.088  13.690 -0.4686  0.0832  2.8999
 1188SOL     OW15199   0.702   0.701  15.329  0.4333  0.2862 -0.4484
 1188SOL    HW115200   0.730   0.791  15.310 -0.5980  0.3275 -1.7485
 1188SOL    HW215201   0.647   0.714  15.406 -0.1568 -1.4212 -0.5876
 1189SOL     OW15202   1.851   3.444   8.273  0.2916 -0.1194 -0.8660
 1189SOL    HW115203   1.810   3.446   8.359  0.3966  0.9178 -0.8402
 1189SOL    HW215204   1.913   3.515   8.291 -0.8317  1.1783 -2.0588
 1190SOL     OW15205   0.443   3.779   7.935 -0.2266  0.0178  0.6633
 1190SOL    HW115206   0.510   3.847   7.930  0.8460 -1.1979 -1.4381
 1190SOL    HW215207   0.360   3.826   7.932 -0.3642 -0.2309  0.5921
 1191SOL     OW15208   3.905   2.058   3.370 -0.4355 -0.3051 -0.0181
 1191SOL    HW115209   3.865   2.117   3.307  2.8491  0.5476 -1.2959
 1191SOL    HW215210   3.845   1.984   3.382 -0.1119 -0.6760 -0.6491
 1192SOL     OW15211   1.043   2.154  17.060 -0.0715  0.3352  0.1737
 1192SOL    HW115212   0.987   2.229  17.081 -0.4925  0.2116 -0.4984
 1192SOL    HW215213   1.090   2.161  17.143  2.1194 -1.2999 -0.9313
 1193SOL     OW15214   3.860   0.659   0.860  0.2043  0.0448 -0.2662
 1193SOL    HW115215   3.857   0.745   0.903  0.0407  0.2759 -0.7369
 1193SOL    HW215216   3.776   0.651   0.815 -0.0869  2.2284 -0.1535
 1194SOL     OW15217   3.457   1.541   4.171 -0.8455  0.5167 -0.5315
 1194SOL    HW115218   3.516   1.598   4.221 -0.6077 -0.1992  0.0068
 1194SOL    HW215219   3.522   1.525   4.102  1.2732 -0.2661  1.6490
 1195SOL     OW15220   3.025   4.638   6.652  0.5525  0.1295  0.0483
 1195SOL    HW115221   3.100   4.594   6.693  0.9428  0.9219  0.1951
 1195SOL    HW215222   2.985   4.567   6.603  0.7293 -0.0762  0.2003
 1196SOL     OW15223   2.526   1.843   0.908  0.7863 -0.1484  0.2323
 1196SOL    HW115224   2.497   1.865   0.819 -0.5007 -0.1198  0.6616
 1196SOL    HW215225   2.534   1.748   0.896 -4.0719 -0.5616  0.0052
 1197SOL     OW15226   2.536   0.150   1.329 -0.1744 -0.1817 -0.1047
 1197SOL    HW115227   2.546   0.241   1.300  2.0477  0.0738  1.5028
 1197SOL    HW215228   2.521   0.162   1.423 -0.1418  0.2105 -0.1498
 1198SOL     OW15229   0.370   1.234   7.848 -0.0736 -0.6106  0.0830
 1198SOL    HW115230   0.351   1.291   7.923  1.9387  0.2944 -0.0866
 1198SOL    HW215231   0.400   1.293   7.778  0.4945  0.2176  1.0200
 1199SOL     OW15232   4.164   2.668  13.768  0.2781 -0.2444  0.1073
 1199SOL    HW115233   4.243   2.674  13.715  2.7861  0.7753  3.9934
 1199SOL    HW215234   4.125   2.755  13.766 -0.5081 -0.6193 -1.4675
 1200SOL     OW15235   3.346   2.185  12.903 -0.4680  0.0414  0.5107
 1200SOL    HW115236   3.312   2.096  12.891 -3.7267  0.8914  3.4278
 1200SOL    HW215237   3.435   2.162  12.879 -0.4023 -1.0588  1.8433
 1201SOL     OW15238   0.395   1.696  11.361  0.4306  0.1351 -0.4718
 1201SOL    HW115239   0.452   1.772  11.347  0.2829  0.1070 -1.2297
 1201SOL    HW215240   0.456   1.630  11.394  0.1515  0.5973  0.9542
 1202SOL     OW15241   1.444   0.531  17.697 -0.1200  0.8571  0.2872
 1202SOL    HW115242   1.425   0.499  17.609  4.6276 -1.3389  0.0553
 1202SOL    HW215243   1.355   0.554  17.723 -0.8448 -0.3422 -1.1276
 1203SOL     OW15244   1.529   1.820   6.957  0.0735  0.1313  0.4573
 1203SOL    HW115245   1.449   1.783   6.993  1.0515  1.4241  3.9516
 1203SOL    HW215246   1.515   1.812   6.863  0.0480  1.4894  0.3566
 1204SOL     OW15247   3.443   2.230   5.231 -0.2633 -0.1731  0.3514
 1204SOL    HW115248   3.493   2.297   5.279 -1.6299 -0.5257  2.2451
 1204SOL    HW215249   3.361   2.225   5.280 -0.7970  2.7306 -0.2078
 1205SOL     OW15250   0.294   0.632   8.473 -0.1203  0.5511 -0.1616
 1205SOL    HW115251   0.273   0.699   8.538 -0.9529 -1.9696  2.1686
 1205SOL    HW215252   0.375   0.663   8.433  0.3265  1.3091  1.3538
 1206SOL     OW15253   3.803   2.168   2.188  0.3449 -0.3002  0.2174
 1206SOL    HW115254   3.744   2.146   2.261 -0.5145 -0.9484 -0.6710
 1206SOL    HW215255   3.747   2.215   2.126  1.0520  2.2221  1.5027
 1207SOL     OW15256   0.749   2.443   2.094 -0.0689 -0.6074  0.1964
 1207SOL    HW115257   0.736   2.349   2.107  1.5833 -0.7975  0.4372
 1207SOL    HW215258   0.783   2.436   2.004  1.6191 -0.6084  0.8392
 1208SOL     OW15259   0.477   0.372   1.677  0.2082  0.5064  0.5162
 1208SOL    HW115260   0.568   0.342   1.674  0.3986  1.1449 -0.2908
 1208SOL    HW215261   0.436   0.286   1.670  1.7891 -0.2646  0.7324
 1209SOL     OW15262   0.441   3.358  16.185  0.0128 -0.3224  0.0210
 1209SOL    HW115263   0.354   3.352  16.225  0.8177  0.0070  1.8184
 1209SOL    HW215264   0.492   3.360  16.266 -1.5025  0.4627  0.9723
 1210SOL     OW15265   4.014   2.492   2.840 -0.4350 -0.9221  0.1934
 1210SOL    HW115266   3.922   2.493   2.866 -0.5162  1.9810 -0.1346
 1210SOL    HW215267   4.003   2.438   2.762 -1.6776  2.3841 -1.9038
 1211SOL     OW15268   2.361   1.314   5.277 -0.1701  0.6428  0.2515
 1211SOL    HW115269   2.442   1.262   5.283 -1.0717 -0.9747 -1.4411
 1211SOL    HW215270   2.301   1.246   5.245 -1.0746  1.4669  0.2193
 1212SOL     OW15271   2.969   1.448  12.528 -0.0712 -0.3294  0.1655
 1212SOL    HW115272   2.934   1.450  12.617 -4.2527 -0.7903 -1.5010
 1212SOL    HW215273   2.901   1.397  12.485 -1.8339  0.7295  1.7127
 1213SOL     OW15274   0.638   1.783   5.278 -1.0040  0.7310  0.2036
 1213SOL    HW115275   0.713   1.834   5.309 -0.1629  0.8312 -1.9457
 1213SOL    HW215276   0.576   1.850   5.248 -1.5125 -0.3203 -1.0657
 1214SOL     OW15277   0.114   1.805   3.762 -0.2129  0.0301  0.0454
 1214SOL    HW115278   0.064   1.827   3.841 -3.0205  0.6662 -1.9090
 1214SOL    HW215279   0.071   1.863   3.699  2.3716  1.7668 -0.1306
 1215SOL     OW15280   3.417   1.147   2.992 -0.3722 -0.2093  0.2985
 1215SOL    HW115281   3.346   1.202   3.025  0.3200  0.9912 -0.2311
 1215SOL    HW215282   3.386   1.061   3.020  1.4902 -0.8626  0.3128
 1216SOL     OW15283   0.142   4.610   2.702  0.0229  0.2287 -0.5748
 1216SOL    HW115284   0.101   4.566   2.627  0.7246  0.0814 -0.8663
 1216SOL    HW215285   0.230   4.581   2.680 -1.0265 -2.6679 -0.9979
 1217SOL     OW15286   2.691   0.935   4.371 -0.0089 -0.0651 -0.0837
 1217SOL    HW115287   2.636   0.875   4.420 -0.0751  0.7041  0.7967
 1217SOL    HW215288   2.768   0.879   4.361 -0.8725 -1.0766 -0.9437
 1218SOL     OW15289   1.865   0.130   0.939 -0.4617  0.2866 -0.0867
 1218SOL    HW115290   1.907   0.145   1.024 -1.2139  0.9830  0.1603
 1218SOL    HW215291   1.947   0.124   0.889  0.1145  2.5426  0.5804
 1219SOL     OW15292   4.409   2.920   9.932 -0.1732 -0.3914 -0.4926
 1219SOL    HW115293   4.436   2.865  10.006 -0.1356 -0.7632 -0.7845
 1219SOL    HW215294   4.388   2.842   9.880 -0.6347 -0.6436  0.0689
 1220SOL     OW15295   0.360   2.557   7.576  0.4325 -0.3149 -0.1844
 1220SOL    HW115296   0.408   2.640   7.585  1.3604 -0.9333  0.4873
 1220SOL    HW215297   0.398   2.533   7.491  1.6230  5.2399 -1.2512
 1221SOL     OW15298   4.349   0.446   5.381 -0.2552 -0.0559  0.5280
 1221SOL    HW115299   4.417   0.504   5.417  0.4287 -1.4790  1.5540
 1221SOL    HW215300   4.357   0.373   5.442 -0.8087  1.6589  2.6455
 1222SOL     OW15301   3.317   0.938   8.079 -0.2692  0.6166 -0.3986
 1222SOL    HW115302   3.403   0.898   8.087 -2.3435 -3.9660 -1.2184
 1222SOL    HW215303   3.313   0.988   8.161 -1.3326  1.3878 -0.9145
 1223SOL     OW15304   2.390   0.436   5.852  0.3129  0.2748 -0.1373
 1223SOL    HW115305   2.407   0.469   5.940 -1.3833  1.2330 -0.1786
 1223SOL    HW215306   2.312   0.482   5.823  1.1885  1.5945 -0.4286
 1224SOL     OW15307   0.777   4.228  12.369 -0.0692 -0.1358 -0.0392
 1224SOL    HW115308   0.841   4.237  12.440 -1.6192 -0.0610  1.3424
 1224SOL    HW215309   0.729   4.310  12.384  0.0849 -0.2749  1.2316
 1225SOL     OW15310   4.640   2.030   5.802 -0.3023  0.2601 -0.0771
 1225SOL    HW115311   4.649   2.015   5.708  2.1240  1.3806 -0.0248
 1225SOL    HW215312   4.612   2.121   5.800  0.4641  0.5351  1.7054
 1226SOL     OW15313   3.348   1.451   2.988  0.6464  0.2899 -0.7033
 1226SOL    HW115314   3.442   1.442   2.973  1.4834  2.3476  3.3385
 1226SOL    HW215315   3.309   1.370   2.955 -0.3113  0.5776 -0.2844
 1227SOL     OW15316   0.132   4.247   7.461  0.2784  0.8243 -0.4394
 1227SOL    HW115317   0.085   4.299   7.526  3.4106  0.3338  2.2636
 1227SOL    HW215318   0.211   4.301   7.469  0.5339  0.2323  1.1596
 1228SOL     OW15319   4.501   4.662   7.067 -0.2698  0.3460  0.0504
 1228SOL    HW115320   4.444   4.623   7.000 -0.3005 -1.1531  0.9665
 1228SOL    HW215321   4.444   4.725   7.111 -0.4836 -0.0482  0.3423
 1229SOL     OW15322   2.444   3.187   2.986  0.0977  0.7016  0.7059
 1229SOL    HW115323   2.406   3.273   3.002  0.0905  0.9228 -0.5149
 1229SOL    HW215324   2.459   3.189   2.891  0.8178  1.5256  0.8399
 1230SOL     OW15325   1.308   2.728   1.197  0.0984 -0.5427  0.4420
 1230SOL    HW115326   1.388   2.781   1.191 -0.3071 -0.1057 -1.1568
 1230SOL    HW215327   1.310   2.663   1.267  0.2171 -1.0082 -0.0044
 1231SOL     OW15328   0.437   2.457  13.782 -0.5598 -0.0655  0.6106
 1231SOL    HW115329   0.439   2.362  13.790 -2.5194 -0.1533  0.0782
 1231SOL    HW215330   0.510   2.476  13.722 -1.6119  0.6590 -0.4322
 1232SOL     OW15331   2.344   4.668  16.163 -0.0250 -0.2846 -0.6853
 1232SOL    HW115332   2.388   4.724  16.227 -0.5770  0.0712 -0.6121
 1232SOL    HW215333   2.374   4.584  16.195  0.8876  0.5949  0.7518
 1233SOL     OW15334   4.504   3.162   2.425  0.2471  0.5305 -0.2240
 1233SOL    HW115335   4.475   3.152   2.334  0.9026  3.9807 -0.7832
 1233SOL    HW215336   4.432   3.129   2.479  1.6987 -1.5078  0.4789
 1234SOL     OW15337   4.483   1.413   6.726 -0.0087  0.8166  0.0157
 1234SOL    HW115338   4.566   1.375   6.697  0.5677  0.8195  1.6828
 1234SOL    HW215339   4.498   1.407   6.820  3.5685  1.3006 -0.5337
 1235SOL     OW15340   1.506   0.354   5.360  0.1003  0.8684  0.5333
 1235SOL    HW115341   1.486   0.445   5.339 -0.6718  0.4520 -0.4988
 1235SOL    HW215342   1.451   0.310   5.296  1.0400  1.4203 -0.6563
 1236SOL     OW15343   1.332   3.480   4.218  0.0717  0.1796  0.5878
 1236SOL    HW115344   1.260   3.422   4.243 -0.5924  0.3515 -0.9469
 1236SOL    HW215345   1.399   3.444   4.275 -0.0072  0.0513  0.5978
 1237SOL     OW15346   0.160   0.889  12.916 -0.0551  0.1924 -0.7498
 1237SOL    HW115347   0.086   0.868  12.973  1.1882 -0.5353  0.5842
 1237SOL    HW215348   0.214   0.810  12.908  1.5453  1.2324 -0.1209
 1238SOL     OW15349   0.959   0.178   0.473 -0.1049  0.0905 -0.0150
 1238SOL    HW115350   1.028   0.159   0.536 -0.0806 -3.0162 -0.9861
 1238SOL    HW215351   0.903   0.104   0.495 -0.5505  0.7273  0.9776
 1239SOL     OW15352   4.049   1.161  14.296 -0.3306 -0.1599 -0.2504
 1239SOL    HW115353   4.047   1.072  14.262 -0.4338 -0.6494  1.0399
 1239SOL    HW215354   4.037   1.206  14.212 -1.0270 -1.0932 -0.6496
 1240SOL     OW15355   2.759   1.090   8.500  0.8279  0.5030  0.0206
 1240SOL    HW115356   2.849   1.123   8.509  0.2946  1.5515  1.5547
 1240SOL    HW215357   2.718   1.157   8.554  1.4144  0.3046  0.7213
 1241SOL     OW15358   3.682   3.984   7.811  0.0368 -0.1544  0.4466
 1241SOL    HW115359   3.645   3.962   7.897 -1.4131  0.3599 -0.0414
 1241SOL    HW215360   3.754   4.042   7.836  2.1311 -1.8902 -1.5744
 1242SOL     OW15361   0.056   1.149   0.784  0.3757  0.0424 -0.3233
 1242SOL    HW115362   0.067   1.242   0.762  1.0984  0.0928  0.2710
 1242SOL    HW215363   4.712   1.114   0.754  0.9860 -0.1844 -1.7747
 1243SOL     OW15364   3.765   1.928   0.113  0.2417 -0.1343 -0.3584
 1243SOL    HW115365   3.830   1.877   0.160  1.2007  0.3550 -1.1340
 1243SOL    HW215366   3.816   2.007   0.095  0.0870  0.1153  0.2975
 1244SOL     OW15367   3.466   2.763   5.801  0.3171  0.3963  0.0676
 1244SOL    HW115368   3.534   2.704   5.768 -0.4508 -0.0385 -0.7429
 1244SOL    HW215369   3.413   2.759   5.722  0.1283  0.2593  0.2005
 1245SOL     OW15370   1.184   0.845   7.390  0.2399  0.0293  0.3062
 1245SOL    HW115371   1.098   0.877   7.417  0.4992  3.6763 -3.1099
 1245SOL    HW215372   1.173   0.780   7.321 -2.9282  0.5422  0.3352
 1246SOL     OW15373   1.266   4.696   1.726 -0.0094 -0.3794  0.1543
 1246SOL    HW115374   1.279   0.012   1.650  1.1081 -1.2532 -0.3032
 1246SOL    HW215375   1.315   4.616   1.708 -1.2892 -1.1666  0.1655
 1247SOL     OW15376   3.769   2.885  11.375  0.6618 -0.3064 -0.5740
 1247SOL    HW115377   3.774   2.877  11.280  1.2685  0.5869 -0.6181
 1247SOL    HW215378   3.701   2.819  11.385 -0.3312  1.1687  2.6125
 1248SOL     OW15379   2.090   1.858   5.118  0.1395  0.7334 -0.5368
 1248SOL    HW115380   2.169   1.897   5.080  0.5654 -0.4981 -0.8902
 1248SOL    HW215381   2.116   1.813   5.198 -0.2239 -0.0054 -0.8348
 1249SOL     OW15382   0.488   4.079   6.669  0.0319  0.6261 -0.0786
 1249SOL    HW115383   0.566   4.026   6.683 -2.2426 -2.4641  0.7915
 1249SOL    HW215384   0.490   4.129   6.750  2.5398 -0.0020  0.2283
 1250SOL     OW15385   2.074   4.373   1.748  0.5933 -0.7352 -0.3797
 1250SOL    HW115386   2.050   4.389   1.656  0.8423  0.1515 -0.2885
 1250SOL    HW215387   1.998   4.322   1.776  0.2976 -0.6549 -1.0299
 1251SOL     OW15388   4.245   2.011   1.742  0.8488  0.3322  0.1990
 1251SOL    HW115389   4.271   2.037   1.654  1.2623  0.4579  0.3614
 1251SOL    HW215390   4.221   2.096   1.778 -0.4819  0.3637 -0.7788
 1252SOL     OW15391   0.453   0.996   5.815 -0.5664  0.3640 -0.1492
 1252SOL    HW115392   0.542   1.030   5.810  1.0839 -3.2589  4.4880
 1252SOL    HW215393   0.446   0.957   5.902 -1.5741 -0.0060 -0.3957
 1253SOL     OW15394   1.483   0.858  13.885 -0.6057  0.3316  0.1017
 1253SOL    HW115395   1.442   0.930  13.837 -2.5727 -1.5031 -0.9604
 1253SOL    HW215396   1.550   0.830  13.823 -0.3510 -1.5882  1.2601
 1254SOL     OW15397   1.880   1.604   9.276 -0.2283 -0.1305  0.4267
 1254SOL    HW115398   1.917   1.651   9.201  1.8109 -3.3392 -0.6181
 1254SOL    HW215399   1.937   1.625   9.350  2.5907 -0.8955 -1.5026
 1255SOL     OW15400   0.565   4.023   9.533  0.2425  0.4064  0.1332
 1255SOL    HW115401   0.616   3.945   9.513 -0.4856 -0.2722  0.9211
 1255SOL    HW215402   0.476   3.991   9.517  0.1190  0.3263  0.9639
 1256SOL     OW15403   4.630   0.015  15.378 -0.8402 -0.1546 -0.3292
 1256SOL    HW115404   4.686   0.026  15.455 -1.3808  0.5340 -0.0371
 1256SOL    HW215405   4.602   4.666  15.399 -0.3791 -0.1720  0.1935
 1257SOL     OW15406   2.925   4.470  11.163 -0.5615  0.0548  0.0533
 1257SOL    HW115407   2.979   4.396  11.136 -0.4197 -0.0089  0.5175
 1257SOL    HW215408   2.980   4.517  11.225 -1.5808  0.6798  0.4841
 1258SOL     OW15409   0.044   0.605   2.416 -0.1002  0.3429 -0.1680
 1258SOL    HW115410   0.057   0.629   2.324 -4.0554  0.1601 -0.7791
 1258SOL    HW215411   4.690   0.588   2.409  0.0201 -1.0007  1.5332
 1259SOL     OW15412   2.801   4.054   8.981 -0.1738 -0.6206  0.5734
 1259SOL    HW115413   2.708   4.075   8.990  0.5003  2.2282  0.7355
 1259SOL    HW215414   2.844   4.139   8.978 -0.2377 -0.5634  1.3508
 1260SOL     OW15415   3.752   2.852   4.019 -0.0017  0.4972 -0.3921
 1260SOL    HW115416   3.813   2.917   3.984  0.3133  0.8570  0.8255
 1260SOL    HW215417   3.666   2.874   3.983 -0.3642 -0.9603 -0.4225
 1261SOL     OW15418   4.407   0.332  14.024  0.2939 -0.1500 -0.0861
 1261SOL    HW115419   4.318   0.302  14.043 -0.1021  0.6100 -0.7302
 1261SOL    HW215420   4.407   0.412  14.076 -2.4508  0.4777 -1.0529
 1262SOL     OW15421   4.417   3.662   9.327  0.9074 -0.1682  0.4322
 1262SOL    HW115422   4.459   3.635   9.246  1.0072 -0.0277  0.4377
 1262SOL    HW215423   4.393   3.576   9.363  0.7599  0.2543  1.3236
 1263SOL     OW15424   2.507   1.308   5.725 -1.0291  0.3365 -0.0335
 1263SOL    HW115425   2.586   1.254   5.733  0.1023  1.9068 -0.5779
 1263SOL    HW215426   2.510   1.343   5.636 -0.9962 -1.9508 -0.9450
 1264SOL     OW15427   1.095   3.296   1.763 -0.5152  0.5287 -0.0281
 1264SOL    HW115428   1.073   3.283   1.855  2.5553  0.0033  0.6344
 1264SOL    HW215429   1.062   3.219   1.717  1.3529 -0.1074 -0.3216
 1265SOL     OW15430   2.229   3.574   2.612  0.0123  0.2789 -0.0344
 1265SOL    HW115431   2.277   3.656   2.599  0.6015  0.1677  1.4585
 1265SOL    HW215432   2.207   3.585   2.704 -0.1345  0.7560 -0.1233
 1266SOL     OW15433   2.373   3.322   2.176  0.6627  0.6061 -0.4100
 1266SOL    HW115434   2.326   3.246   2.143 -0.7657  1.6743 -0.8647
 1266SOL    HW215435   2.378   3.298   2.268  3.3145  2.4298 -0.0821
 1267SOL     OW15436   0.222   1.030   1.641 -0.3116  0.7439 -0.1869
 1267SOL    HW115437   0.229   1.011   1.547 -1.0806 -1.5709  0.2206
 1267SOL    HW215438   0.175   1.112   1.627 -1.7091  0.1842  1.3329
 1268SOL     OW15439   1.336   2.380   9.218 -0.7146  0.0967  0.0470
 1268SOL    HW115440   1.320   2.448   9.284  0.6259  0.3906  0.0788
 1268SOL    HW215441   1.341   2.298   9.267 -0.4166  0.5756  0.8169
 1269SOL     OW15442   0.660   4.474  15.795  0.2008  0.1628 -0.0246
 1269SOL    HW115443   0.600   4.409  15.757 -0.6842  0.6973  0.4617
 1269SOL    HW215444   0.658   4.544  15.729 -0.7028 -0.0006 -0.1789
 1270SOL     OW15445   0.233   1.474   1.322 -0.0916  0.4498  0.1884
 1270SOL    HW115446   0.141   1.460   1.299 -0.1088  0.9648 -0.0599
 1270SOL    HW215447   0.250   1.557   1.279  0.4338 -0.3625 -1.1675
 1271SOL     OW15448   2.720   0.372  11.699 -0.1183  0.1818 -0.0181
 1271SOL    HW115449   2.713   0.303  11.765  1.2623 -0.7751 -0.8485
 1271SOL    HW215450   2.815   0.386  11.708 -0.2601  1.0648  0.0518
 1272SOL     OW15451   2.516   3.065   6.095 -0.2383 -0.0277  0.3613
 1272SOL    HW115452   2.603   3.041   6.063  0.1954  0.1502  1.3930
 1272SOL    HW215453   2.491   3.134   6.033 -1.2837 -2.5034 -1.9790
 1273SOL     OW15454   1.239   4.643   8.177  0.2497  0.4486  0.3152
 1273SOL    HW115455   1.182   4.566   8.184 -1.0499  1.5188  1.4943
 1273SOL    HW215456   1.188   4.719   8.205 -0.2498  1.1608 -2.5372
 1274SOL     OW15457   0.877   1.387   2.668  0.3527  0.9435 -0.3258
 1274SOL    HW115458   0.785   1.387   2.642  0.2263 -2.7809  0.0224
 1274SOL    HW215459   0.865   1.473   2.708  2.6885  1.3041 -0.4189
 1275SOL     OW15460   0.803   0.556   5.888  0.5536  0.4446  0.0300
 1275SOL    HW115461   0.797   0.488   5.821  2.8295  0.6443 -0.3511
 1275SOL    HW215462   0.744   0.621   5.850 -1.6075 -0.5497  1.6262
 1276SOL     OW15463   3.745   4.394  15.710 -0.0343  0.3032  0.0577
 1276SOL    HW115464   3.706   4.417  15.794  1.9143  3.6291  0.0775
 1276SOL    HW215465   3.743   4.481  15.670 -1.5781  0.5215  0.6136
 1277SOL     OW15466   4.718   3.303   1.503  0.1009  0.0164  0.2236
 1277SOL    HW115467   0.011   3.340   1.422 -1.6780 -1.4026 -1.1629
 1277SOL    HW215468   0.065   3.293   1.543  0.3237 -0.3886 -0.3565
 1278SOL     OW15469   4.100   1.536   7.770 -1.1032 -0.6113 -0.2388
 1278SOL    HW115470   4.055   1.455   7.792  1.2637 -1.8764 -0.1210
 1278SOL    HW215471   4.110   1.544   7.676 -2.5194 -1.2080 -0.4424
 1279SOL     OW15472   3.588   1.841   6.836  0.1887 -0.0065  0.0551
 1279SOL    HW115473   3.630   1.913   6.789  2.0914  0.7385  2.9684
 1279SOL    HW215474   3.659   1.817   6.896  2.0759  0.7805 -1.8561
 1280SOL     OW15475   3.718   2.611   7.778  0.4310  0.4591 -0.1963
 1280SOL    HW115476   3.727   2.665   7.856 -0.9424 -0.8272  0.8588
 1280SOL    HW215477   3.794   2.554   7.789 -1.0692 -1.2016  1.4942
 1281SOL     OW15478   2.351   0.465   6.608 -0.4517 -0.1744 -0.2193
 1281SOL    HW115479   2.380   0.499   6.692 -0.3347  0.3754 -0.4820
 1281SOL    HW215480   2.424   0.404   6.592  0.7778  0.7885  1.7781
 1282SOL     OW15481   4.143   1.722   1.197  0.5611  0.1933 -0.6490
 1282SOL    HW115482   4.170   1.707   1.106 -0.8894  0.2712 -1.0865
 1282SOL    HW215483   4.067   1.667   1.214  1.1171 -0.3467  0.0865
 1283SOL     OW15484   1.762   1.755   3.369 -0.7917 -0.2554 -0.0058
 1283SOL    HW115485   1.839   1.699   3.362  0.2870  1.1452  0.6445
 1283SOL    HW215486   1.705   1.712   3.434  0.6316 -2.4162 -0.1981
 1284SOL     OW15487   2.696   1.370  12.459 -0.2619 -0.1711  0.6660
 1284SOL    HW115488   2.730   1.459  12.454 -1.4355  0.2264 -0.2615
 1284SOL    HW215489   2.611   1.389  12.418  1.7097 -0.5743 -3.6823
 1285SOL     OW15490   1.911   0.535   3.641  0.0091  0.6107  0.3053
 1285SOL    HW115491   1.914   0.446   3.606  2.5452  1.2057 -1.0148
 1285SOL    HW215492   1.972   0.512   3.711 -0.9710  0.6206  1.1723
 1286SOL     OW15493   3.759   2.192  16.244  0.4260 -0.1812 -0.4967
 1286SOL    HW115494   3.766   2.116  16.302  1.2297 -0.7544 -1.3419
 1286SOL    HW215495   3.769   2.149  16.159 -1.3364 -0.7536 -0.4246
 1287SOL     OW15496   1.599   3.463   8.461 -0.2985  0.2883  0.2060
 1287SOL    HW115497   1.548   3.534   8.424  0.5628  1.1056  0.5896
 1287SOL    HW215498   1.592   3.395   8.395 -1.0655 -1.3544  1.9720
 1288SOL     OW15499   3.263   4.666   4.372  0.3201 -0.1605 -0.4055
 1288SOL    HW115500   3.336   4.641   4.430 -1.5239 -0.4011  1.8252
 1288SOL    HW215501   3.253   0.016   4.402  1.3597  0.1827 -1.1038
 1289SOL     OW15502   0.479   0.169   2.716  0.3314 -0.3257  0.5750
 1289SOL    HW115503   0.405   0.228   2.700 -1.1138 -2.6468 -1.1327
 1289SOL    HW215504   0.451   0.092   2.668  0.4169 -0.6411  1.0275
 1290SOL     OW15505   3.477   1.681   5.784 -0.2507 -0.8030 -0.5773
 1290SOL    HW115506   3.391   1.650   5.754 -0.6449 -0.6621  0.3970
 1290SOL    HW215507   3.530   1.669   5.706  0.4341 -1.2831 -0.0414
 1291SOL     OW15508   2.581   0.179   5.065 -0.3601  0.5509  0.3961
 1291SOL    HW115509   2.511   0.150   5.006 -1.7083 -1.0094  2.7374
 1291SOL    HW215510   2.549   0.145   5.149  3.4699 -0.8914  1.2638
 1292SOL     OW15511   3.881   0.367   4.010 -0.1457  0.2112  0.2212
 1292SOL    HW115512   3.881   0.271   4.001 -1.9088  0.1020  1.3181
 1292SOL    HW215513   3.899   0.383   4.102 -1.4589  1.4438  0.2534
 1293SOL     OW15514   3.440   3.269  11.647 -0.2759 -0.1120  0.0509
 1293SOL    HW115515   3.468   3.264  11.738  1.1024 -0.1990 -0.3839
 1293SOL    HW215516   3.470   3.352  11.610  2.7584 -1.2338  0.0146
 1294SOL     OW15517   2.837   4.487   4.536  0.9790 -0.2827 -0.1739
 1294SOL    HW115518   2.763   4.467   4.478  1.1885  0.4587 -0.7097
 1294SOL    HW215519   2.883   4.404   4.538  0.4407 -0.5158  2.3500
 1295SOL     OW15520   0.666   3.863   4.780  0.5990  0.1247  0.5632
 1295SOL    HW115521   0.644   3.785   4.730 -0.3330  1.2465 -0.7766
 1295SOL    HW215522   0.704   3.918   4.712 -1.1934  0.5029 -0.1070
 1296SOL     OW15523   1.484   2.248   8.463 -0.3120  0.3996 -0.3478
 1296SOL    HW115524   1.410   2.223   8.408 -0.0519  0.5194 -0.7513
 1296SOL    HW215525   1.450   2.234   8.551 -1.9749 -1.3547 -1.2848
 1297SOL     OW15526   1.360   4.121  12.661  0.1002 -0.1462  0.0041
 1297SOL    HW115527   1.439   4.160  12.699  1.8612 -3.0284 -0.7051
 1297SOL    HW215528   1.398   4.057  12.601  2.4038 -0.0902  1.4006
 1298SOL     OW15529   4.619   0.096  15.752  0.5356  0.3164 -0.5600
 1298SOL    HW115530   4.542   0.137  15.712  0.8354 -0.4888 -1.9573
 1298SOL    HW215531   4.619   0.145  15.834  0.9666 -1.2581  0.3712
 1299SOL     OW15532   1.838   3.881   0.595  0.0137 -0.3961  0.1547
 1299SOL    HW115533   1.743   3.876   0.599 -0.1631  1.7012 -1.4945
 1299SOL    HW215534   1.839   3.901   0.501 -0.0227 -0.0061  0.2346
 1300SOL     OW15535   4.384   2.137   7.947  0.3844 -0.5496 -0.2422
 1300SOL    HW115536   4.449   2.189   7.901 -1.3389  0.3245 -1.6989
 1300SOL    HW215537   4.416   2.157   8.035  0.2589  3.0459 -1.0210
 1301SOL     OW15538   2.406   4.502   4.661 -0.0774 -0.3115 -0.2425
 1301SOL    HW115539   2.435   4.578   4.610 -0.9487 -0.1608 -0.5171
 1301SOL    HW215540   2.409   4.529   4.752 -0.0571  0.1767 -0.3884
 1302SOL     OW15541   3.660   0.383   0.268 -0.6820 -0.5205 -0.2067
 1302SOL    HW115542   3.683   0.312   0.328  0.4850  0.1070  0.0976
 1302SOL    HW215543   3.709   0.360   0.190 -1.5081 -2.3470 -0.1730
 1303SOL     OW15544   4.152   2.726  17.678 -1.0446  0.2207  1.0917
 1303SOL    HW115545   4.196   2.811  17.687 -1.0115  0.0671  2.4050
 1303SOL    HW215546   4.149   2.689   0.009  0.3799 -0.1662  0.9744
 1304SOL     OW15547   0.207   4.659   7.797  0.0479  0.0253 -0.2668
 1304SOL    HW115548   0.113   4.642   7.788  0.2506 -2.2479  1.8563
 1304SOL    HW215549   0.205   4.738   7.851  1.4996  0.4424 -0.8245
 1305SOL     OW15550   0.740   2.881   4.544  0.5330 -0.4609 -0.2606
 1305SOL    HW115551   0.752   2.914   4.634  0.0314  1.5379 -0.9209
 1305SOL    HW215552   0.665   2.824   4.561  0.6810 -0.9756 -1.3720
 1306SOL     OW15553   2.068   4.381   3.995  0.3861  0.1534  0.5566
 1306SOL    HW115554   2.110   4.455   3.951  2.1001 -1.6072 -0.7893
 1306SOL    HW215555   1.998   4.367   3.931 -0.5039  0.6824  1.4098
 1307SOL     OW15556   2.247   3.368   0.332 -0.8153 -0.4100 -0.4729
 1307SOL    HW115557   2.212   3.303   0.392 -0.7131 -0.0861 -0.0611
 1307SOL    HW215558   2.187   3.363   0.258 -1.5862  0.3324  0.1016
 1308SOL     OW15559   1.866   2.628   5.460  0.3510  0.0448 -0.7045
 1308SOL    HW115560   1.808   2.659   5.530 -1.7512 -0.5765 -2.1787
 1308SOL    HW215561   1.802   2.607   5.391 -0.0061  1.4881 -0.8272
 1309SOL     OW15562   0.941   2.478  13.450 -0.5599 -0.1559 -0.6469
 1309SOL    HW115563   0.983   2.554  13.491  0.8264 -1.9445  1.2400
 1309SOL    HW215564   0.885   2.532  13.394  1.3191  0.7029 -1.6813
 1310SOL     OW15565   1.468   2.141   9.966  0.1172  0.3751 -0.3311
 1310SOL    HW115566   1.412   2.180  10.033  0.1876  0.1875 -0.1635
 1310SOL    HW215567   1.530   2.087  10.015 -0.8376  1.2727  1.8733
 1311SOL     OW15568   3.641   3.279   6.390 -0.0289 -0.6220 -0.0723
 1311SOL    HW115569   3.711   3.214   6.381  1.9488  1.2531  1.6221
 1311SOL    HW215570   3.634   3.312   6.301 -2.4311  1.5152  0.8941
 1312SOL     OW15571   1.855   2.360  12.719  0.0251 -0.2962  0.2398
 1312SOL    HW115572   1.851   2.446  12.760  1.6076  0.7420 -1.7917
 1312SOL    HW215573   1.951   2.353  12.714  0.0662 -1.4836  2.5984
 1313SOL     OW15574   2.050   1.343   4.452  0.0600  0.0338 -0.1210
 1313SOL    HW115575   2.110   1.379   4.517  1.0059  0.6342 -1.3276
 1313SOL    HW215576   2.038   1.259   4.496  1.4124 -0.5084 -0.8196
 1314SOL     OW15577   4.263   3.768  15.670  0.1127 -0.1592  0.2692
 1314SOL    HW115578   4.273   3.861  15.691 -0.5983 -0.9156  4.0674
 1314SOL    HW215579   4.183   3.744  15.717  0.2482 -1.0347  0.0636
 1315SOL     OW15580   0.023   4.540   4.263  0.5969  0.4755  0.0643
 1315SOL    HW115581   0.101   4.501   4.302  1.7127  1.6739 -0.9853
 1315SOL    HW215582   0.022   4.621   4.315 -1.2275 -0.3590  1.3590
 1316SOL     OW15583   4.062   2.514   1.482  0.1834  0.3019 -0.7660
 1316SOL    HW115584   4.152   2.481   1.476  0.2334  0.5102 -1.1964
 1316SOL    HW215585   4.020   2.436   1.446 -1.1675  0.3452  0.7344
 1317SOL     OW15586   2.960   1.104   9.043  0.4293 -0.8110  0.7999
 1317SOL    HW115587   2.995   1.118   8.955 -1.1629 -2.9642 -0.1915
 1317SOL    HW215588   2.870   1.131   9.028  1.3510  1.9274  0.0950
 1318SOL     OW15589   4.252   0.024   6.724  0.8326  0.5139 -0.5854
 1318SOL    HW115590   4.245   4.670   6.710  2.0196  0.4089 -0.5136
 1318SOL    HW215591   4.303   0.065   6.654  1.1934 -1.3298 -1.3915
 1319SOL     OW15592   0.174   1.070  16.288  0.3689 -0.6522 -0.2442
 1319SOL    HW115593   0.104   1.042  16.347 -0.6259  0.4581 -0.9009
 1319SOL    HW215594   0.129   1.132  16.230  0.9543  0.8317  0.8733
 1320SOL     OW15595   4.296   0.587   4.755 -0.0367 -0.3537  0.2518
 1320SOL    HW115596   4.261   0.560   4.839  0.1136  0.5515  0.6090
 1320SOL    HW215597   4.357   0.656   4.783 -1.3797  0.9884 -0.1118
 1321SOL     OW15598   3.350   3.157   6.743 -0.6367  0.0994  0.3312
 1321SOL    HW115599   3.382   3.247   6.752 -0.3357 -0.0395  0.6553
 1321SOL    HW215600   3.257   3.163   6.722 -0.1505  1.9659 -1.2639
 1322SOL     OW15601   3.623   2.727  13.582 -0.2523 -0.0610  0.0232
 1322SOL    HW115602   3.652   2.784  13.653 -0.4592 -1.9092  1.6032
 1322SOL    HW215603   3.688   2.759  13.520 -1.7418  0.5259 -1.2435
 1323SOL     OW15604   3.022   3.953   3.657 -0.0260  0.4913  0.3583
 1323SOL    HW115605   3.115   3.964   3.633 -0.0114  0.7113  0.5185
 1323SOL    HW215606   2.982   4.031   3.619 -1.1120  0.7106  1.9738
 1324SOL     OW15607   4.164   0.429  15.777  0.0945 -0.2802  0.1448
 1324SOL    HW115608   4.098   0.411  15.844  0.1859 -0.5899  0.1549
 1324SOL    HW215609   4.149   0.518  15.745 -1.5484 -0.5351  0.2485
 1325SOL     OW15610   3.694   4.532   3.972  0.1506  0.1230 -0.7915
 1325SOL    HW115611   3.723   4.597   3.908  0.5278 -1.5733 -2.3617
 1325SOL    HW215612   3.761   4.467   3.949  0.1629 -0.0141 -0.3544
 1326SOL     OW15613   1.940   1.017  14.421  0.2887 -0.0289  0.2280
 1326SOL    HW115614   1.871   1.022  14.354 -1.5081 -0.1821  2.0461
 1326SOL    HW215615   2.014   0.985  14.371  1.0792 -0.0049  1.3994
 1327SOL     OW15616   1.535   3.120   4.903 -0.1290 -0.1731  0.6316
 1327SOL    HW115617   1.441   3.101   4.895  0.0189 -1.4414  2.1461
 1327SOL    HW215618   1.521   3.211   4.876  0.0465 -0.0997  0.7870
 1328SOL     OW15619   3.239   3.468  10.316 -0.1161  0.4755  0.4468
 1328SOL    HW115620   3.252   3.468  10.410  1.2774 -2.5716  0.2708
 1328SOL    HW215621   3.185   3.546  10.305 -0.4735  0.1939  0.1477
 1329SOL     OW15622   2.300   2.006   8.861  0.0167  0.7023 -0.0138
 1329SOL    HW115623   2.326   2.035   8.948 -2.6509  1.2265  0.6081
 1329SOL    HW215624   2.349   1.924   8.858 -2.9061 -1.0951  1.4381
 1330SOL     OW15625   4.376   4.419  15.170 -0.4785  0.5284  0.2000
 1330SOL    HW115626   4.345   4.497  15.217  2.0277  1.2304  0.7182
 1330SOL    HW215627   4.466   4.450  15.178 -0.1073 -0.8182  1.2819
 1331SOL     OW15628   2.138   2.481   5.107  0.1826  0.5536  1.0894
 1331SOL    HW115629   2.068   2.526   5.059  1.8222  0.1885 -1.6398
 1331SOL    HW215630   2.218   2.533   5.096  1.0301 -0.9412  0.2265
 1332SOL     OW15631   2.263   1.545   7.568  0.3489 -0.1123 -0.7246
 1332SOL    HW115632   2.289   1.625   7.523  0.3835  1.2790  1.7647
 1332SOL    HW215633   2.344   1.495   7.557  1.0670  0.7471  0.5652
 1333SOL     OW15634   0.303   0.621   8.014  0.4553  0.1711 -0.7811
 1333SOL    HW115635   0.373   0.624   7.949 -0.6725  0.7538 -1.9781
 1333SOL    HW215636   0.303   0.711   8.047  1.1723 -1.1797  2.8307
 1334SOL     OW15637   0.014   2.070   7.926  0.7546  0.2371 -0.0705
 1334SOL    HW115638   0.039   2.049   7.836 -1.6207  3.2330 -1.4193
 1334SOL    HW215639   4.716   2.156   7.911 -0.3065  0.1266  1.8994
 1335SOL     OW15640   0.763   1.845   9.905 -0.6155 -0.6076 -0.0205
 1335SOL    HW115641   0.694   1.911   9.904 -0.1051 -0.0890 -1.7391
 1335SOL    HW215642   0.809   1.878   9.828 -0.3429  0.5277  0.6326
 1336SOL     OW15643   0.532   1.447   2.319 -0.1688 -0.2866 -0.1797
 1336SOL    HW115644   0.622   1.436   2.288  0.8831 -0.6750  3.0243
 1336SOL    HW215645   0.477   1.439   2.242 -1.5503 -2.4351  1.0336
 1337SOL     OW15646   2.502   4.361   5.835 -0.0216 -0.0838  0.1493
 1337SOL    HW115647   2.417   4.349   5.794  0.6277 -0.6318 -1.0329
 1337SOL    HW215648   2.494   4.292   5.902 -0.9475  0.3147  0.4435
 1338SOL     OW15649   3.535   3.203   2.146  0.3387  0.3272  0.1876
 1338SOL    HW115650   3.559   3.231   2.235  3.0999 -0.0867 -0.4341
 1338SOL    HW215651   3.471   3.269   2.119  2.3366  2.8891  1.6185
 1339SOL     OW15652   4.604   1.007   0.437  0.4821  0.4454  0.1308
 1339SOL    HW115653   4.644   1.079   0.388  0.9450  0.1938  0.1360
 1339SOL    HW215654   4.614   0.934   0.376 -1.6059 -0.8099  1.3021
 1340SOL     OW15655   2.745   3.156   5.753 -0.1748 -0.2112 -0.5708
 1340SOL    HW115656   2.799   3.223   5.794  0.2973 -0.1319 -1.3079
 1340SOL    HW215657   2.731   3.090   5.820  3.5585 -0.0690  0.3407
 1341SOL     OW15658   1.477   2.637   8.238 -1.1152 -0.5403  0.7473
 1341SOL    HW115659   1.458   2.686   8.158  0.6018 -1.7448 -0.3838
 1341SOL    HW215660   1.501   2.553   8.200  0.8255 -0.2494  1.3404
 1342SOL     OW15661   2.430   3.748  13.044  0.7331  0.4369  0.6429
 1342SOL    HW115662   2.504   3.701  13.082 -1.6639 -3.2573  0.7239
 1342SOL    HW215663   2.438   3.717  12.953  2.7346  1.7897  0.3544
 1343SOL     OW15664   2.157   1.593   8.895 -0.1281 -0.2919 -0.0389
 1343SOL    HW115665   2.137   1.685   8.914  2.5924  0.7647 -2.1500
 1343SOL    HW215666   2.089   1.539   8.935 -0.3388  0.8107  1.0620
 1344SOL     OW15667   2.692   0.677   6.389 -0.0229 -0.0839 -0.7443
 1344SOL    HW115668   2.692   0.751   6.328 -1.0733  0.5216 -0.0044
 1344SOL    HW215669   2.602   0.645   6.393 -1.0550  3.2544  2.0311
 1345SOL     OW15670   3.595   2.198  15.522 -0.2769  0.5480 -0.0318
 1345SOL    HW115671   3.679   2.157  15.541 -0.1840  0.3588 -0.8204
 1345SOL    HW215672   3.543   2.155  15.590 -2.8645  1.7703 -1.2701
 1346SOL     OW15673   0.783   3.745   5.022  0.0429  0.1885 -0.0615
 1346SOL    HW115674   0.796   3.813   5.088  0.5492  0.3053 -0.2791
 1346SOL    HW215675   0.745   3.795   4.950  0.2857  2.2101  1.2044
 1347SOL     OW15676   3.910   0.711   6.310 -0.3208  0.6932  0.3804
 1347SOL    HW115677   3.986   0.680   6.263  0.6903  0.6453  2.0553
 1347SOL    HW215678   3.945   0.734   6.396  1.1168 -0.1425  0.0051
 1348SOL     OW15679   3.473   3.710   7.865 -0.0537  0.4440 -0.4044
 1348SOL    HW115680   3.421   3.791   7.869 -0.8723  0.0371 -2.6076
 1348SOL    HW215681   3.539   3.732   7.931  0.7356  1.5265 -1.5384
 1349SOL     OW15682   1.710   3.565   8.748  0.1921  0.1812  0.6793
 1349SOL    HW115683   1.716   3.496   8.814 -1.2896 -1.3337 -0.7748
 1349SOL    HW215684   1.727   3.640   8.805  1.6125  0.4333 -0.0811
 1350SOL     OW15685   1.896   1.964   2.431  0.3599 -0.4084  0.4548
 1350SOL    HW115686   1.956   1.942   2.502  1.0202  0.9095  0.3122
 1350SOL    HW215687   1.911   1.912   2.352 -1.5838 -0.1341 -0.0914
 1351SOL     OW15688   4.178   3.675  12.393  0.0696 -0.0558  0.5455
 1351SOL    HW115689   4.176   3.584  12.421 -2.9776  0.0372  0.7018
 1351SOL    HW215690   4.237   3.678  12.318 -0.9487  2.6412 -0.1616
 1352SOL     OW15691   2.353   2.510  15.250 -0.0240  0.0349  0.0385
 1352SOL    HW115692   2.262   2.501  15.221  0.0225 -2.5465  0.6452
 1352SOL    HW215693   2.339   2.507  15.344  0.0947  0.8412  0.0794
 1353SOL     OW15694   3.176   0.980   5.851  0.7209  0.3270  0.2087
 1353SOL    HW115695   3.123   0.935   5.785  0.4969  0.5417  0.2387
 1353SOL    HW215696   3.188   0.907   5.911  1.5429 -0.6166 -1.1314
 1354SOL     OW15697   2.760   2.913   2.604 -0.0948 -0.0225  0.0356
 1354SOL    HW115698   2.829   2.930   2.540  0.1225 -1.6869 -0.1510
 1354SOL    HW215699   2.746   3.006   2.626 -0.6043 -0.1709  0.3401
 1355SOL     OW15700   2.964   1.100   7.963 -0.5245 -0.1623 -0.2063
 1355SOL    HW115701   3.038   1.158   7.947 -0.5511  0.6617  2.6650
 1355SOL    HW215702   2.937   1.119   8.053 -0.9103  1.3287 -0.6431
 1356SOL     OW15703   4.617   2.347   4.626  0.3835 -0.1248  0.1367
 1356SOL    HW115704   4.661   2.395   4.697 -0.3538 -1.3791  1.4476
 1356SOL    HW215705   4.533   2.336   4.672  0.2501 -0.2283 -0.1361
 1357SOL     OW15706   4.227   1.672   2.179  0.0029 -0.5514 -0.0403
 1357SOL    HW115707   4.310   1.653   2.223 -0.9649  0.6545  2.3032
 1357SOL    HW215708   4.189   1.734   2.241  0.8707 -0.4607  0.4112
 1358SOL     OW15709   0.178   0.779   4.290 -0.5764  0.4965  0.6450
 1358SOL    HW115710   0.207   0.694   4.323  0.0981  0.3885 -0.2247
 1358SOL    HW215711   0.259   0.826   4.309  0.2522  0.3993 -2.5988
 1359SOL     OW15712   0.656   3.218   6.043  0.5162  0.1720  0.6105
 1359SOL    HW115713   0.737   3.220   6.093  0.4039 -0.6351  0.8274
 1359SOL    HW215714   0.608   3.294   6.076  0.6661 -0.2161  1.7217
 1360SOL     OW15715   0.587   0.210   6.323 -0.1779 -0.4150  0.1530
 1360SOL    HW115716   0.530   0.180   6.394  1.0381  2.6821  2.4160
 1360SOL    HW215717   0.551   0.299   6.325  0.8492  0.0110 -0.2148
 1361SOL     OW15718   3.758   3.746   8.593 -0.4503 -0.4189 -0.3901
 1361SOL    HW115719   3.718   3.669   8.634  0.5752 -1.1431 -0.7336
 1361SOL    HW215720   3.851   3.722   8.593 -0.3311  0.0358 -1.2026
 1362SOL     OW15721   0.270   1.398   6.016 -0.5675  0.1454  0.2486
 1362SOL    HW115722   0.354   1.377   5.977 -0.3201  1.4882  0.0478
 1362SOL    HW215723   0.282   1.484   6.057  1.1401 -0.1499  0.3622
 1363SOL     OW15724   1.825   4.581  11.401 -0.4144  0.3622 -0.0160
 1363SOL    HW115725   1.838   4.522  11.475  0.3790  0.9529  0.3181
 1363SOL    HW215726   1.736   4.612  11.418 -1.8782 -2.8043 -1.8031
 1364SOL     OW15727   3.468   3.833   6.730 -0.0200 -0.3728  0.0654
 1364SOL    HW115728   3.482   3.921   6.767 -0.2953 -0.1295 -0.4014
 1364SOL    HW215729   3.420   3.795   6.803 -0.9492 -0.2218 -0.4653
 1365SOL     OW15730   3.107   2.069  15.058 -0.2981 -0.8326 -0.6100
 1365SOL    HW115731   3.086   2.078  14.965 -1.9112  0.3340 -0.1420
 1365SOL    HW215732   3.134   1.978  15.065  0.9972 -0.3662  0.4127
 1366SOL     OW15733   2.796   3.023   7.976 -0.3119  0.2965  0.4085
 1366SOL    HW115734   2.773   3.055   8.063  0.4899 -0.7227  0.9946
 1366SOL    HW215735   2.809   2.930   7.991  0.7513  0.3008 -0.5064
 1367SOL     OW15736   2.058   3.045   7.987 -0.2654  0.3601 -0.0449
 1367SOL    HW115737   2.001   2.968   7.982 -0.1584  0.4303 -2.3625
 1367SOL    HW215738   2.037   3.088   8.070  2.8521 -0.7143  1.2917
 1368SOL     OW15739   2.507   0.001   4.562  0.1900 -0.0371  0.2808
 1368SOL    HW115740   2.583   4.698   4.601 -0.3137 -0.6793  0.5661
 1368SOL    HW215741   2.546   0.030   4.479 -0.1525 -2.2572 -0.6645
 1369SOL     OW15742   3.436   2.193   6.872  0.1934  0.3297 -0.3013
 1369SOL    HW115743   3.524   2.182   6.907  0.2915  2.2835  0.0362
 1369SOL    HW215744   3.382   2.169   6.948 -0.2130  0.1138 -0.6552
 1370SOL     OW15745   0.131   0.160   3.723 -0.3435 -0.3535 -0.0749
 1370SOL    HW115746   0.121   0.178   3.630 -1.5018 -2.0793 -0.2811
 1370SOL    HW215747   0.154   0.067   3.726  0.2949 -0.1647  1.0192
 1371SOL     OW15748   2.621   0.100   4.331  0.1401  0.1176 -1.0677
 1371SOL    HW115749   2.550   0.068   4.276 -1.0524  0.0989  0.4653
 1371SOL    HW215750   2.701   0.077   4.285  0.8297 -0.4278  0.4058
 1372SOL     OW15751   1.509   2.973  17.239  0.0232  0.2619 -0.4437
 1372SOL    HW115752   1.518   2.886  17.200  1.8363  0.5174 -0.5836
 1372SOL    HW215753   1.603   2.991  17.230 -0.1505  1.8754  0.9912
 1373SOL     OW15754   4.562   1.139   0.119 -0.4687  0.1100  0.3906
 1373SOL    HW115755   4.590   1.203   0.053 -0.7305  0.5434  0.6947
 1373SOL    HW215756   4.606   1.171   0.198  1.0301 -2.9870  0.7778
 1374SOL     OW15757   0.285   1.019   7.046  0.1916  0.1892 -0.4594
 1374SOL    HW115758   0.291   1.110   7.075 -1.1259 -0.2539  1.1955
 1374SOL    HW215759   0.364   1.014   6.992 -0.1727 -0.3431 -0.9430
 1375SOL     OW15760   4.208   0.968   9.642  0.2555 -0.1348 -0.2830
 1375SOL    HW115761   4.257   1.030   9.588  2.4023 -0.1484  1.5973
 1375SOL    HW215762   4.258   0.887   9.628  0.5929 -0.8102  4.5161
 1376SOL     OW15763   3.541   1.346   6.285 -0.4353 -0.5173 -0.2860
 1376SOL    HW115764   3.551   1.352   6.190  0.8359 -1.1510 -0.1907
 1376SOL    HW215765   3.449   1.370   6.279 -0.1212  0.2198 -1.9799
 1377SOL     OW15766   2.167   2.472   6.057  0.1845 -0.1402 -0.0034
 1377SOL    HW115767   2.098   2.538   6.060  0.8691  0.5499  0.1316
 1377SOL    HW215768   2.248   2.520   6.047 -0.4109  0.6469 -1.0142
 1378SOL     OW15769   4.202   1.777   8.322  0.0472 -0.2097  0.2064
 1378SOL    HW115770   4.166   1.860   8.290 -2.2655 -1.7848 -1.2157
 1378SOL    HW215771   4.125   1.723   8.303 -0.6237  0.8578 -0.0863
 1379SOL     OW15772   4.283   2.736   9.749  0.1290 -0.3665  0.4764
 1379SOL    HW115773   4.202   2.736   9.697  1.4958 -0.1987 -1.6226
 1379SOL    HW215774   4.330   2.653   9.744 -0.0885 -0.4244 -0.6567
 1380SOL     OW15775   2.999   0.423   3.009 -0.0180  0.4956  0.0567
 1380SOL    HW115776   2.915   0.382   2.987 -0.5078  0.0226  2.9110
 1380SOL    HW215777   3.022   0.452   2.920  0.4994 -0.9819 -0.2934
 1381SOL     OW15778   2.170   0.979  16.467  0.6040  0.5000  0.1841
 1381SOL    HW115779   2.100   0.915  16.474  1.2142 -0.4291 -2.4034
 1381SOL    HW215780   2.124   1.050  16.513 -0.8211 -0.6830  0.5595
 1382SOL     OW15781   2.985   1.230   6.719  0.5784 -0.8634 -0.2387
 1382SOL    HW115782   2.946   1.222   6.632  2.1170 -0.7683 -0.9458
 1382SOL    HW215783   2.909   1.233   6.776  2.0277  0.5272  1.6333
 1383SOL     OW15784   1.374   1.821   4.905 -0.3825 -0.2962  0.3377
 1383SOL    HW115785   1.408   1.822   4.994  2.5549 -0.6724 -0.8073
 1383SOL    HW215786   1.386   1.911   4.875 -1.2307  0.0480  0.9883
 1384SOL     OW15787   0.360   3.161  11.482 -0.3142  0.0447 -0.5678
 1384SOL    HW115788   0.302   3.169  11.406 -0.4222 -0.3495 -0.5286
 1384SOL    HW215789   0.359   3.254  11.504 -1.3062 -0.5342  1.8884
 1385SOL     OW15790   1.376   2.363  12.171  0.4697 -0.2744 -0.3650
 1385SOL    HW115791   1.314   2.345  12.241  1.5732  2.3860  1.3161
 1385SOL    HW215792   1.389   2.457  12.185  0.5137 -0.6495  2.0333
 1386SOL     OW15793   1.100   0.418  14.296  1.1700  0.4208 -0.6299
 1386SOL    HW115794   1.041   0.346  14.319  1.4947  0.1888 -0.5267
 1386SOL    HW215795   1.050   0.481  14.243  0.6081 -1.1336 -1.9174
 1387SOL     OW15796   1.949   0.766   5.115 -0.5826 -0.6869  0.4960
 1387SOL    HW115797   1.884   0.731   5.177  1.1921  0.6638  3.1512
 1387SOL    HW215798   1.919   0.712   5.042 -0.9130  1.5868 -1.0573
 1388SOL     OW15799   0.894   2.590   3.440  0.1475 -0.5640 -1.0289
 1388SOL    HW115800   0.906   2.563   3.531 -0.1677  0.8076 -0.5684
 1388SOL    HW215801   0.813   2.640   3.449 -0.8288 -2.1335 -1.0461
 1389SOL     OW15802   2.949   1.259   3.187 -0.1718  0.6287 -0.4768
 1389SOL    HW115803   2.924   1.351   3.188 -0.6917  0.4959 -1.1888
 1389SOL    HW215804   3.001   1.264   3.267 -0.0798 -1.7313 -0.3850
 1390SOL     OW15805   1.472   2.966  13.301  0.6671  0.3839  0.1583
 1390SOL    HW115806   1.489   2.940  13.210 -1.6586  0.5689 -0.3422
 1390SOL    HW215807   1.432   2.885  13.334  1.3722 -0.0028  0.0599
 1391SOL     OW15808   1.017   1.803  12.611  0.0884 -0.1929 -0.0258
 1391SOL    HW115809   0.958   1.859  12.561  0.1539 -1.9786 -2.0979
 1391SOL    HW215810   0.970   1.720  12.620  1.9153 -1.2022  0.2208
 1392SOL     OW15811   2.420   4.099   1.794  0.0457  0.0156 -0.1508
 1392SOL    HW115812   2.394   4.007   1.786 -0.3695  0.0356  0.8884
 1392SOL    HW215813   2.330   4.127   1.814 -1.0397 -1.8235 -2.3796
 1393SOL     OW15814   2.059   2.606   3.028 -0.5154 -0.2370  0.2231
 1393SOL    HW115815   2.040   2.670   2.960 -1.7050 -1.1914 -0.3487
 1393SOL    HW215816   2.059   2.523   2.981 -2.6873 -0.3624  0.4263
 1394SOL     OW15817   4.105   0.431   2.451 -0.0379 -0.5337 -0.4455
 1394SOL    HW115818   4.046   0.355   2.457 -1.5779  0.6344 -0.7433
 1394SOL    HW215819   4.090   0.461   2.362 -2.5422  0.7057  0.3900
 1395SOL     OW15820   0.197   4.168   4.051  0.3722 -0.1023 -0.0203
 1395SOL    HW115821   0.258   4.237   4.076 -2.9813  1.9206  2.5487
 1395SOL    HW215822   0.126   4.204   3.999  0.2538 -0.0185  0.1995
 1396SOL     OW15823   3.997   3.904  16.182 -0.6299 -0.0447 -0.1118
 1396SOL    HW115824   4.064   3.855  16.135 -1.6626  0.1533 -1.8033
 1396SOL    HW215825   3.932   3.834  16.190  0.8126 -0.9648  3.1921
 1397SOL     OW15826   0.165   0.905   6.054 -0.0207  0.5190 -0.2735
 1397SOL    HW115827   0.128   0.837   6.109  0.7062  0.8425  0.6158
 1397SOL    HW215828   0.203   0.854   5.982  2.2626 -0.6371  1.7772
 1398SOL     OW15829   4.710   0.329   6.250 -0.2067  0.4244  0.0724
 1398SOL    HW115830   4.649   0.275   6.199 -0.0029 -0.4616  0.7499
 1398SOL    HW215831   0.041   0.346   6.189  0.4209 -1.0960  0.3710
 1399SOL     OW15832   4.247   2.769   1.886  0.0099  0.2022 -0.1014
 1399SOL    HW115833   4.323   2.714   1.867  0.2645  0.7625 -0.6840
 1399SOL    HW215834   4.248   2.766   1.981  0.4881  0.8299 -0.0897
 1400SOL     OW15835   2.793   1.084   9.570 -0.1918 -0.6460  0.0656
 1400SOL    HW115836   2.873   1.116   9.612  0.6282 -0.1422 -1.9119
 1400SOL    HW215837   2.736   1.160   9.582  0.4197 -0.2227  0.2773
 1401SOL     OW15838   0.067   2.062   6.236  0.4873  0.4797  0.1990
 1401SOL    HW115839   4.736   2.007   6.203  0.5028  0.3632  0.3606
 1401SOL    HW215840   0.142   2.002   6.242 -0.0388 -0.3736 -1.6167
 1402SOL     OW15841   1.089   0.540   3.405  0.4466 -0.2338  0.0619
 1402SOL    HW115842   1.140   0.620   3.415  3.3230 -2.0612 -0.0763
 1402SOL    HW215843   0.999   0.570   3.417  0.8708  2.1879 -3.0686
 1403SOL     OW15844   0.770   2.976  12.720 -0.0712 -0.5658  0.2051
 1403SOL    HW115845   0.714   2.902  12.742  1.4732 -1.1714  2.1323
 1403SOL    HW215846   0.754   3.040  12.789 -2.4637 -0.3245 -0.5776
 1404SOL     OW15847   1.105   1.851   3.655  0.7681 -0.4626  0.0423
 1404SOL    HW115848   1.091   1.886   3.743  0.3829  0.5061 -0.4083
 1404SOL    HW215849   1.082   1.926   3.600 -0.4113 -1.9231 -1.4549
 1405SOL     OW15850   2.620   3.304   0.382 -0.0557 -0.3865 -0.1907
 1405SOL    HW115851   2.581   3.231   0.430 -0.9437  0.1033 -0.1523
 1405SOL    HW215852   2.583   3.292   0.295 -0.3030 -1.6901  0.0940
 1406SOL     OW15853   4.286   1.492   1.810  1.3603 -0.1071 -0.3111
 1406SOL    HW115854   4.219   1.451   1.756  1.7895 -0.6167 -0.4545
 1406SOL    HW215855   4.322   1.412   1.849 -1.8499 -0.7851  1.2632
 1407SOL     OW15856   0.392   1.691   7.380  0.3351 -0.0782  0.0828
 1407SOL    HW115857   0.438   1.608   7.388  0.6977  0.1625  0.5235
 1407SOL    HW215858   0.432   1.735   7.456  1.5563  0.7364 -1.0397
 1408SOL     OW15859   3.192   3.992   1.634  0.3557 -0.0384  0.3921
 1408SOL    HW115860   3.109   4.037   1.644 -0.9496 -2.1055 -1.0318
 1408SOL    HW215861   3.239   4.006   1.716 -0.1142 -0.4467  0.7296
 1409SOL     OW15862   4.416   1.356  14.642  0.3914  0.3312 -1.2347
 1409SOL    HW115863   4.321   1.357  14.628  0.0857  0.7486  0.7546
 1409SOL    HW215864   4.445   1.271  14.609 -0.4918  0.1229 -1.4853
 1410SOL     OW15865   3.317   1.224   8.131  0.4496 -0.0935 -0.0112
 1410SOL    HW115866   3.409   1.250   8.132  0.5393 -0.2800 -4.1236
 1410SOL    HW215867   3.291   1.293   8.192 -0.2746  0.2737 -0.7396
 1411SOL     OW15868   2.743   2.845   2.989  0.1315 -0.0056 -0.4167
 1411SOL    HW115869   2.672   2.792   2.953  0.0507  0.9921 -1.7214
 1411SOL    HW215870   2.712   2.843   3.080 -1.1488  0.0293 -0.8507
 1412SOL     OW15871   2.280   3.251   4.247  0.0786 -0.2107  0.1855
 1412SOL    HW115872   2.269   3.274   4.339 -0.7758  2.1535 -0.5006
 1412SOL    HW215873   2.201   3.287   4.207 -0.0122 -1.1417 -0.4852
 1413SOL     OW15874   3.006   1.087   7.067  0.3770  0.3068 -0.2617
 1413SOL    HW115875   2.951   1.162   7.091  2.1500  1.2289  0.8957
 1413SOL    HW215876   2.943   1.027   7.026  0.7932  0.6104 -1.3252
 1414SOL     OW15877   4.061   0.544   5.391 -0.7029  0.4953 -0.2649
 1414SOL    HW115878   4.150   0.509   5.390 -0.4058  1.1948  1.1381
 1414SOL    HW215879   4.059   0.610   5.460  0.9867 -0.0360  0.2865
 1415SOL     OW15880   2.700   0.630   3.701 -0.8798  0.5989 -0.2368
 1415SOL    HW115881   2.725   0.645   3.609  0.0278 -1.6430 -0.3599
 1415SOL    HW215882   2.776   0.587   3.740  0.9640  1.7288 -2.5652
 1416SOL     OW15883   1.604   1.141  16.847 -0.8265 -0.4053 -0.2508
 1416SOL    HW115884   1.609   1.048  16.868  1.9480 -0.5216 -1.5392
 1416SOL    HW215885   1.698   1.155  16.839 -1.1890  2.2829  0.0770
 1417SOL     OW15886   1.587   3.133   3.392 -0.1169 -0.0156  0.0474
 1417SOL    HW115887   1.504   3.178   3.374 -1.0560 -1.1980  1.4627
 1417SOL    HW215888   1.561   3.087   3.471 -2.1649  0.7445 -0.1848
 1418SOL     OW15889   0.081   3.207   6.359  0.4985  0.0975 -0.0338
 1418SOL    HW115890   0.140   3.273   6.394  0.3274  1.4293 -2.2263
 1418SOL    HW215891   0.035   3.200   6.443  0.2029 -1.4800 -0.3117
 1419SOL     OW15892   3.626   3.568  12.210  0.6601 -0.2833  0.3296
 1419SOL    HW115893   3.590   3.484  12.182  0.2386  0.5138 -1.5122
 1419SOL    HW215894   3.666   3.584  12.125 -2.3001  1.2531 -0.7837
 1420SOL     OW15895   4.296   4.626   2.550  0.5322 -0.2200  0.0930
 1420SOL    HW115896   4.339   4.708   2.527  1.3031 -0.5822  0.2261
 1420SOL    HW215897   4.344   4.605   2.630  0.2629 -0.0841  0.2904
 1421SOL     OW15898   0.279   4.515   5.173 -0.1749 -0.5081 -0.1454
 1421SOL    HW115899   0.328   4.479   5.247 -0.4004 -0.1244  0.1896
 1421SOL    HW215900   0.215   4.573   5.214  0.5529 -0.0338  0.3341
 1422SOL     OW15901   3.495   0.135   3.881 -0.0586 -0.2964  0.5464
 1422SOL    HW115902   3.506   0.210   3.940  3.3429  0.2045 -0.7402
 1422SOL    HW215903   3.442   0.073   3.931 -2.6223  1.3872 -0.0593
 1423SOL     OW15904   1.060   0.084   8.243 -0.0543  0.1059 -0.0558
 1423SOL    HW115905   1.068   0.070   8.337 -1.6726  0.8229  0.1877
 1423SOL    HW215906   0.968   0.106   8.229  0.5074  1.2871 -1.9756
 1424SOL     OW15907   1.814   2.605   5.783 -0.5485 -0.4031 -0.4873
 1424SOL    HW115908   1.823   2.510   5.776  2.3330 -0.0884 -1.2266
 1424SOL    HW215909   1.891   2.639   5.739  0.6738  0.3203  2.2131
 1425SOL     OW15910   0.048   3.329   7.699  0.2111 -0.1394 -0.5900
 1425SOL    HW115911   4.701   3.318   7.662  1.2329  0.5399 -3.2086
 1425SOL    HW215912   0.028   3.394   7.767  2.2193  0.2708 -0.3910
 1426SOL     OW15913   0.763   4.262   9.959 -0.2363  0.4264 -0.7072
 1426SOL    HW115914   0.679   4.268  10.003 -1.4381 -2.6410 -2.5430
 1426SOL    HW215915   0.750   4.343   9.911  0.2887  0.6400 -0.4861
 1427SOL     OW15916   3.570   0.303   1.876 -0.0377  0.4268 -0.2112
 1427SOL    HW115917   3.650   0.333   1.833 -0.0618  1.2020  0.2889
 1427SOL    HW215918   3.607   0.239   1.937 -1.4582  0.8564  1.0808
 1428SOL     OW15919   4.444   1.675   8.362 -0.4024  0.2568 -0.2673
 1428SOL    HW115920   4.361   1.720   8.347 -0.3829  0.2547 -0.3879
 1428SOL    HW215921   4.455   1.628   8.279 -0.4252 -0.0912 -0.0701
 1429SOL     OW15922   0.702   1.094   5.816  0.6163 -0.2593  0.0315
 1429SOL    HW115923   0.788   1.052   5.821 -0.0506 -1.9171 -2.5150
 1429SOL    HW215924   0.716   1.157   5.746  1.2682  2.5762  2.6921
 1430SOL     OW15925   4.005   4.170   6.227  0.0586  0.0494 -0.4329
 1430SOL    HW115926   4.061   4.187   6.151  0.0263 -0.2627 -0.5299
 1430SOL    HW215927   4.011   4.258   6.264 -0.8857  0.2023 -0.6594
 1431SOL     OW15928   1.259   0.737   8.612  0.0243 -0.0431 -0.3609
 1431SOL    HW115929   1.325   0.783   8.663 -1.9124 -0.2650  2.3454
 1431SOL    HW215930   1.291   0.756   8.524 -0.4604  1.1884 -0.2778
 1432SOL     OW15931   2.602   4.388  17.620  0.1328  0.2909  0.6062
 1432SOL    HW115932   2.599   4.465  17.563 -0.6271 -0.4910 -0.4231
 1432SOL    HW215933   2.672   4.422  17.675  0.7871 -0.3488  0.1758
 1433SOL     OW15934   2.312   2.033   5.160 -0.2643 -0.0223  0.4484
 1433SOL    HW115935   2.392   2.002   5.203 -0.6833 -1.2042  0.3733
 1433SOL    HW215936   2.339   2.035   5.068 -1.6489  0.8475  0.0662
 1434SOL     OW15937   4.517   2.156   6.207 -0.9551  0.0133 -0.4242
 1434SOL    HW115938   4.448   2.223   6.199 -0.6977  0.3144 -0.1005
 1434SOL    HW215939   4.551   2.189   6.290 -1.8313  1.2779 -0.5600
 1435SOL     OW15940   4.556   1.163  17.481 -0.1959  0.1014 -0.3010
 1435SOL    HW115941   4.558   1.258  17.491  1.9241 -0.0911  1.2225
 1435SOL    HW215942   4.649   1.147  17.498 -0.6294 -2.0538  0.0456
 1436SOL     OW15943   2.977   0.102   8.727 -0.2249 -0.0953 -0.4916
 1436SOL    HW115944   3.015   0.029   8.678  1.8090 -0.3767  1.4984
 1436SOL    HW215945   2.896   0.064   8.761 -0.3511 -1.2558 -2.1064
 1437SOL     OW15946   0.866   2.453   5.043 -0.0124  0.7344 -0.2943
 1437SOL    HW115947   0.927   2.476   5.112 -0.5629 -0.8831  0.7353
 1437SOL    HW215948   0.783   2.457   5.090 -0.1236  1.3822 -0.5370
 1438SOL     OW15949   0.844   2.537  13.032 -0.0333  0.7177  0.0338
 1438SOL    HW115950   0.832   2.556  13.125 -3.6365  1.2696 -0.5566
 1438SOL    HW215951   0.934   2.505  13.040 -0.2180 -0.0001 -0.6671
 1439SOL     OW15952   1.845   0.907   8.902  0.2296 -0.0769 -0.2396
 1439SOL    HW115953   1.825   0.869   8.987  1.5592  2.1993  1.0971
 1439SOL    HW215954   1.845   0.831   8.845 -1.0006  0.6053 -1.1527
 1440SOL     OW15955   4.708   1.277   4.675  0.0947 -0.0082 -0.2736
 1440SOL    HW115956   0.008   1.197   4.708  2.2089  1.9438  1.8886
 1440SOL    HW215957   0.049   1.327   4.661  0.8636 -0.3399  3.0689
 1441SOL     OW15958   4.395   2.484   9.691 -0.1209  0.0782 -0.0153
 1441SOL    HW115959   4.344   2.410   9.722 -0.0487 -0.4613 -1.1969
 1441SOL    HW215960   4.484   2.452   9.701 -0.6128 -1.1622  0.3484
 1442SOL     OW15961   2.773   0.339   5.406  0.0324 -0.1993 -0.6570
 1442SOL    HW115962   2.682   0.343   5.435 -0.1537  1.1081 -1.3727
 1442SOL    HW215963   2.801   0.251   5.431 -5.0651 -1.5840  0.1262
 1443SOL     OW15964   2.644   2.858   8.952  0.5379  0.5579 -0.4004
 1443SOL    HW115965   2.610   2.947   8.964  1.2086  1.0286 -2.0913
 1443SOL    HW215966   2.644   2.809   9.034  1.9042  1.0599 -0.1075
 1444SOL     OW15967   0.562   1.254   7.237  0.0926  0.3033  0.6310
 1444SOL    HW115968   0.485   1.271   7.182  1.3634  0.3111 -1.1367
 1444SOL    HW215969   0.547   1.185   7.301 -1.2613  1.3405  1.4272
 1445SOL     OW15970   1.557   4.623   6.778 -0.8902  0.1069  0.3392
 1445SOL    HW115971   1.590   4.710   6.800  1.6997 -0.2962 -1.9801
 1445SOL    HW215972   1.603   4.567   6.841  0.8187  1.7427  0.5176
 1446SOL     OW15973   4.550   1.163   5.654  0.2564  0.2986 -0.1256
 1446SOL    HW115974   4.550   1.258   5.656 -0.9649  0.2842  0.5062
 1446SOL    HW215975   4.485   1.158   5.724  1.4132 -0.5098  0.8758
 1447SOL     OW15976   4.358   1.096   0.984  0.3923  0.1765  0.8577
 1447SOL    HW115977   4.385   1.014   1.026  0.2361  0.4644  1.5159
 1447SOL    HW215978   4.289   1.126   1.044 -0.0426  1.5432 -0.3341
 1448SOL     OW15979   2.021   2.424   7.994  0.5738 -0.2654  0.0793
 1448SOL    HW115980   2.036   2.509   8.036  2.7672  0.1916 -1.6454
 1448SOL    HW215981   2.098   2.407   7.939 -0.0608 -2.6743 -0.0706
 1449SOL     OW15982   3.118   4.173   4.311  0.1737 -0.0647 -0.0803
 1449SOL    HW115983   3.188   4.237   4.300 -0.4342  0.2459 -2.2229
 1449SOL    HW215984   3.133   4.103   4.248  1.4628  0.5102 -0.4168
 1450SOL     OW15985   3.467   3.652   4.212 -0.4974 -0.1145 -0.1730
 1450SOL    HW115986   3.493   3.571   4.254  0.0187  0.1225 -0.0302
 1450SOL    HW215987   3.552   3.685   4.182  0.0393 -0.9293  0.4647
 1451SOL     OW15988   4.079   1.311   1.126  0.4700  0.2276 -0.2341
 1451SOL    HW115989   3.992   1.272   1.124  0.3151  0.5917 -0.5346
 1451SOL    HW215990   4.061   1.396   1.167 -0.5460  0.9264 -2.1605
 1452SOL     OW15991   3.165   0.091   2.506 -0.1085  0.2813  0.4621
 1452SOL    HW115992   3.104   0.164   2.501  1.0610  1.2695  0.5237
 1452SOL    HW215993   3.132   0.040   2.580 -0.9806  0.4688  0.1980
 1453SOL     OW15994   3.174   3.569   8.467  0.3139 -0.6882 -0.4136
 1453SOL    HW115995   3.229   3.547   8.542 -0.7725 -0.4708  0.4527
 1453SOL    HW215996   3.095   3.605   8.509 -0.6915 -0.4771 -2.4864
 1454SOL     OW15997   3.813   0.368  17.561  0.4699  0.0273  0.9330
 1454SOL    HW115998   3.868   0.371  17.483 -0.1181  0.0966  0.5196
 1454SOL    HW215999   3.732   0.340  17.520  0.4087  0.5906  0.6701
 1455SOL     OW16000   4.592   1.857   7.329  0.5643  0.0367 -0.5903
 1455SOL    HW116001   4.685   1.869   7.350  0.1997  0.2928  0.9207
 1455SOL    HW216002   4.557   1.799   7.398 -0.8424  2.0547  0.3969
 1456SOL     OW16003   2.868   3.346  11.235  0.2933  0.1396 -0.4656
 1456SOL    HW116004   2.927   3.340  11.310 -0.5012 -3.7116 -0.1299
 1456SOL    HW216005   2.928   3.320  11.165  0.5453  0.0967 -0.2356
 1457SOL     OW16006   1.974   1.500   9.931 -0.0803  0.3459 -0.5185
 1457SOL    HW116007   2.029   1.422   9.932 -0.9198 -0.2322  0.5990
 1457SOL    HW216008   2.015   1.548   9.859 -3.1561  0.3568 -2.2838
 1458SOL     OW16009   2.604   2.706   9.198  0.2008  0.8360 -0.1863
 1458SOL    HW116010   2.610   2.610   9.200 -1.8148  0.7695  2.4588
 1458SOL    HW216011   2.677   2.734   9.253 -1.8062  2.1080  1.8160
 1459SOL     OW16012   1.797   0.115   5.958 -0.1004  0.3227 -0.0409
 1459SOL    HW116013   1.781   0.186   6.020 -3.9508  1.6691 -2.5736
 1459SOL    HW216014   1.704   0.094   5.946 -0.4405  2.1746 -0.6678
 1460SOL     OW16015   0.323   1.054   3.645 -0.1521 -0.4048  0.0167
 1460SOL    HW116016   0.402   1.083   3.599  0.5459 -0.9696  0.8591
 1460SOL    HW216017   0.360   0.980   3.694  2.5877 -0.5949 -2.2462
 1461SOL     OW16018   1.268   2.724   6.782  0.2266  0.2189  0.6702
 1461SOL    HW116019   1.314   2.745   6.863 -0.9927  1.4893  1.0288
 1461SOL    HW216020   1.334   2.743   6.715 -0.7875 -0.1125 -0.4316
 1462SOL     OW16021   2.563   2.899   4.769  0.4529 -0.2037  0.3339
 1462SOL    HW116022   2.545   2.870   4.679  0.1568  0.5127  0.1640
 1462SOL    HW216023   2.658   2.892   4.782  0.5320  0.9554  0.3785
 1463SOL     OW16024   0.287   2.526  11.856 -0.1534 -0.2165  0.2902
 1463SOL    HW116025   0.253   2.608  11.893  3.9593  1.2253  0.8920
 1463SOL    HW216026   0.213   2.467  11.844 -0.7355  0.6107 -0.2595
 1464SOL     OW16027   0.183   4.418  14.893 -0.2151  0.1716 -0.5208
 1464SOL    HW116028   0.123   4.446  14.961 -1.0064  0.1354 -1.2020
 1464SOL    HW216029   0.265   4.439  14.938 -0.3427  0.4860 -0.4410
 1465SOL     OW16030   1.595   1.569   8.239 -0.2830  0.2147  0.1209
 1465SOL    HW116031   1.612   1.475   8.245 -2.3649 -0.0886  1.4846
 1465SOL    HW216032   1.671   1.620   8.212 -0.2623 -0.3738 -0.8892
 1466SOL     OW16033   1.683   0.411   1.138 -0.0245 -0.0119  0.1634
 1466SOL    HW116034   1.640   0.341   1.089 -0.0004 -0.1782  0.3785
 1466SOL    HW216035   1.748   0.435   1.072  1.5414 -1.1799  1.2640
 1467SOL     OW16036   2.005   2.864   1.247  0.3759  0.5981  0.0209
 1467SOL    HW116037   1.962   2.946   1.222 -1.2074  0.4000  2.0249
 1467SOL    HW216038   2.001   2.820   1.162 -0.8937 -1.7949  1.3104
 1468SOL     OW16039   4.584   4.004   9.853  0.1298 -0.1171  0.5040
 1468SOL    HW116040   4.587   4.073   9.787 -0.3823 -0.2851  0.3039
 1468SOL    HW216041   4.666   3.956   9.844 -1.3504 -2.2760 -1.3604
 1469SOL     OW16042   0.063   0.480   2.675 -0.2449  0.4444  0.2102
 1469SOL    HW116043   4.708   0.484   2.660 -0.3077 -0.3393  0.4165
 1469SOL    HW216044   0.077   0.547   2.742  0.2228 -0.1918  0.7464
 1470SOL     OW16045   1.156   1.320   6.972 -0.6229  0.0260 -0.2739
 1470SOL    HW116046   1.151   1.229   7.002  0.4010  0.3200  0.7739
 1470SOL    HW216047   1.204   1.350   7.049 -0.7724 -0.2600 -0.0684
 1471SOL     OW16048   4.449   1.326   6.976  0.2912  0.6007  0.3758
 1471SOL    HW116049   4.361   1.300   6.949 -1.1791  3.1414  2.7432
 1471SOL    HW216050   4.423   1.397   7.034  0.5983  0.2560  0.9431
 1472SOL     OW16051   2.618   1.694   6.394 -0.4460 -0.1896 -0.5754
 1472SOL    HW116052   2.676   1.736   6.331  1.6541 -0.9180  0.8409
 1472SOL    HW216053   2.629   1.602   6.370  0.0719 -0.4439  0.5942
 1473SOL     OW16054   1.275   4.330   9.427  0.2376  0.0339  0.8998
 1473SOL    HW116055   1.338   4.350   9.497  1.0804  1.2243 -0.1918
 1473SOL    HW216056   1.262   4.421   9.398 -0.0577 -0.1837  0.3531
 1474SOL     OW16057   1.779   3.728  11.855 -0.3738  0.0734 -0.1648
 1474SOL    HW116058   1.763   3.679  11.774  1.4124 -0.2628 -0.3138
 1474SOL    HW216059   1.822   3.651  11.893  1.0398  1.1436  0.3769
 1475SOL     OW16060   1.279   3.491  13.085  0.1432 -0.8247 -0.0814
 1475SOL    HW116061   1.336   3.517  13.013  1.5199  1.1758  1.7420
 1475SOL    HW216062   1.200   3.533  13.052  0.0328 -1.1478 -0.2306
 1476SOL     OW16063   4.042   0.121   8.176 -0.1185 -0.2664 -0.1897
 1476SOL    HW116064   3.962   0.090   8.133 -0.6177 -0.5622  0.9313
 1476SOL    HW216065   4.007   0.160   8.256  1.7218 -0.3072  0.6327
 1477SOL     OW16066   3.479   1.646   0.455  0.4660  0.1295  0.0031
 1477SOL    HW116067   3.515   1.558   0.452 -1.9508 -0.8898  0.8817
 1477SOL    HW216068   3.539   1.693   0.396 -0.9404 -0.7697 -2.1454
 1478SOL     OW16069   2.836   2.995   5.550  0.4998  0.0836 -0.2151
 1478SOL    HW116070   2.815   2.909   5.586  1.9718 -0.3685 -0.4246
 1478SOL    HW216071   2.819   3.055   5.622 -0.4501 -1.0796  0.5212
 1479SOL     OW16072   1.775   2.839   9.951  0.2481  0.6639  0.6758
 1479SOL    HW116073   1.744   2.867  10.037 -0.2340 -1.5117  1.2274
 1479SOL    HW216074   1.859   2.883   9.940  1.0432 -1.2173 -0.8672
 1480SOL     OW16075   1.814   2.715   3.831 -0.2242 -0.0825  0.8501
 1480SOL    HW116076   1.880   2.646   3.822  0.9669  1.1612 -0.1746
 1480SOL    HW216077   1.748   2.691   3.766  1.9860 -1.1405 -1.0016
 1481SOL     OW16078   0.624   3.172   3.357 -0.4813 -0.1776  0.0361
 1481SOL    HW116079   0.533   3.179   3.330 -0.5384 -0.1762  0.2306
 1481SOL    HW216080   0.623   3.191   3.450  0.1189 -2.5795  0.5463
 1482SOL     OW16081   3.570   4.536  11.651 -0.1327 -0.0266  0.7354
 1482SOL    HW116082   3.643   4.505  11.597 -1.1633  1.1772 -1.3630
 1482SOL    HW216083   3.627   4.579  11.714  0.1632 -0.8412  1.0275
 1483SOL     OW16084   1.368   1.619  10.524  0.9265 -0.8929 -0.3716
 1483SOL    HW116085   1.337   1.534  10.557 -0.4266 -0.8128 -1.4480
 1483SOL    HW216086   1.439   1.619  10.588  0.9197 -1.5570 -0.3543
 1484SOL     OW16087   0.852   2.105  16.787 -0.0729 -0.0527  0.1030
 1484SOL    HW116088   0.854   2.199  16.801  2.3663  0.1775 -1.9175
 1484SOL    HW216089   0.775   2.089  16.731 -0.9259  2.0466  0.7097
 1485SOL     OW16090   0.207   4.617  16.794 -0.4487  0.8641  0.0701
 1485SOL    HW116091   0.289   4.668  16.793  0.7864 -1.0305  2.7022
 1485SOL    HW216092   0.210   4.587  16.704  1.6904  0.8169  0.1541
 1486SOL     OW16093   0.571   2.496   1.449 -0.7962 -0.1749  0.3617
 1486SOL    HW116094   0.626   2.513   1.372  0.5586 -2.2856  0.8343
 1486SOL    HW216095   0.589   2.402   1.460  0.8802  0.3000  1.6082
 1487SOL     OW16096   3.644   4.416   3.635  0.7519  0.4180 -0.7111
 1487SOL    HW116097   3.679   4.479   3.573  0.8564 -0.2419 -1.3198
 1487SOL    HW216098   3.573   4.472   3.668  0.0377 -1.1325  0.3907
 1488SOL     OW16099   2.147   0.460   7.681 -0.2943  0.9311 -0.4472
 1488SOL    HW116100   2.236   0.430   7.696 -0.1772  1.1907 -0.6078
 1488SOL    HW216101   2.105   0.388   7.633  1.8258 -1.7038  1.7061
 1489SOL     OW16102   4.527   1.356   6.029 -0.2776  0.0423 -0.5511
 1489SOL    HW116103   4.467   1.430   6.039 -0.7891 -0.3957 -0.3550
 1489SOL    HW216104   4.501   1.296   6.099 -2.0036 -1.7048 -2.6946
 1490SOL     OW16105   3.543   3.964   1.981 -0.0540 -0.3623  0.1777
 1490SOL    HW116106   3.634   3.938   1.969 -0.1264 -0.0639 -1.0040
 1490SOL    HW216107   3.524   3.889   2.038 -1.7491 -1.1509 -1.3804
 1491SOL     OW16108   0.269   0.866   8.613 -0.1349 -0.2057  0.2430
 1491SOL    HW116109   0.248   0.932   8.679 -2.2057 -1.5794  0.9538
 1491SOL    HW216110   0.234   0.899   8.531 -1.6918 -0.2268  0.8898
 1492SOL     OW16111   0.578   4.410  16.595  0.0964  0.2001 -0.6359
 1492SOL    HW116112   0.632   4.479  16.558 -0.3201  0.6669 -0.3744
 1492SOL    HW216113   0.535   4.462  16.662 -1.1557 -1.7959  0.1360
 1493SOL     OW16114   2.400   2.940  15.681  0.1478  0.4640 -0.0534
 1493SOL    HW116115   2.457   2.960  15.755 -0.5876 -2.4843  1.3069
 1493SOL    HW216116   2.348   2.873  15.725  0.1296 -0.9182 -2.1758
 1494SOL     OW16117   0.894   3.508   5.663 -0.4272  0.1070  0.4685
 1494SOL    HW116118   0.859   3.546   5.583  0.1931 -0.9954 -0.3153
 1494SOL    HW216119   0.820   3.447   5.673  0.1016 -0.4163  1.2373
 1495SOL     OW16120   2.665   0.586   1.540  0.0053  0.1687 -0.3282
 1495SOL    HW116121   2.749   0.629   1.558  0.2334 -0.4234  0.0281
 1495SOL    HW216122   2.684   0.508   1.592 -1.3519 -0.0965 -0.2416
 1496SOL     OW16123   3.205   4.313   7.607 -0.1412  0.1738  0.5672
 1496SOL    HW116124   3.283   4.360   7.636 -0.7186 -0.1109  2.5750
 1496SOL    HW216125   3.232   4.304   7.516  1.3272  2.8754  0.7230
 1497SOL     OW16126   3.359   1.833   6.995  0.0280 -0.5256  0.3359
 1497SOL    HW116127   3.383   1.743   7.017 -1.0949 -1.0355 -0.4898
 1497SOL    HW216128   3.443   1.853   6.955 -0.6123 -1.8007 -1.6609
 1498SOL     OW16129   0.110   0.469   6.037  0.4537  0.2580  0.5814
 1498SOL    HW116130   0.202   0.452   6.016  1.3119  1.3812  3.3433
 1498SOL    HW216131   0.063   0.461   5.954 -0.7587  1.2776  1.1629
 1499SOL     OW16132   3.106   2.055   9.154  0.1471 -0.2140  0.4315
 1499SOL    HW116133   3.157   2.127   9.190 -0.6532  0.2128  0.7078
 1499SOL    HW216134   3.029   2.051   9.210 -1.2927 -0.8875 -1.6110
 1500SOL     OW16135   0.948   1.938   1.913  0.0276  0.0700 -0.2427
 1500SOL    HW116136   0.969   1.852   1.877 -1.1947 -0.1328 -0.4757
 1500SOL    HW216137   0.853   1.929   1.907  0.1233 -0.7297 -0.6031
 1501SOL     OW16138   0.878   4.018   8.239  0.1625 -0.1868 -0.0672
 1501SOL    HW116139   0.904   3.926   8.237  1.8483  0.2912  0.6449
 1501SOL    HW216140   0.963   4.059   8.220  0.1682 -0.6276 -0.9996
 1502SOL     OW16141   3.488   3.866   9.986  0.2820  0.7703  0.2208
 1502SOL    HW116142   3.450   3.887   9.901  0.4625 -2.2222 -0.6204
 1502SOL    HW216143   3.486   3.950  10.031 -0.9185  0.5269  0.6203
 1503SOL     OW16144   1.287   2.452   7.115  0.0530 -0.1840  0.3703
 1503SOL    HW116145   1.284   2.412   7.028  0.8669 -0.5645  0.5118
 1503SOL    HW216146   1.206   2.503   7.119  0.7467  1.0027 -1.2356
 1504SOL     OW16147   1.221   1.749   0.214  0.0589  0.3301 -0.5280
 1504SOL    HW116148   1.279   1.673   0.215  0.4575  0.6353 -0.7819
 1504SOL    HW216149   1.282   1.814   0.180  1.3661 -0.8384 -0.4376
 1505SOL     OW16150   2.511   1.557   9.321 -0.0595 -0.2866 -0.5876
 1505SOL    HW116151   2.499   1.485   9.260 -1.7874 -0.4269 -0.0879
 1505SOL    HW216152   2.550   1.619   9.259  0.7845  2.1218  2.3091
 1506SOL     OW16153   1.554   1.893  12.143 -0.1417 -0.0205  0.5959
 1506SOL    HW116154   1.531   1.819  12.087  0.7411 -0.9358  1.4624
 1506SOL    HW216155   1.578   1.957  12.076  0.5960 -0.8601  0.0581
 1507SOL     OW16156   0.445   2.744  10.253  0.2575  0.0088 -0.1654
 1507SOL    HW116157   0.457   2.702  10.339 -0.9974  0.3546  0.1813
 1507SOL    HW216158   0.397   2.823  10.277  0.4384  0.2126 -0.4856
 1508SOL     OW16159   4.564   3.070   1.454 -0.7593  0.0698 -0.0055
 1508SOL    HW116160   4.589   3.043   1.543  2.3125 -0.0303 -0.8962
 1508SOL    HW216161   4.631   3.136   1.437 -1.5940  1.7080  3.1261
 1509SOL     OW16162   4.601   1.892   3.595 -0.0142 -0.1994 -0.4836
 1509SOL    HW116163   4.649   1.909   3.514 -0.3268  0.4535 -0.5378
 1509SOL    HW216164   4.514   1.927   3.574 -1.2152 -1.3892  2.5043
 1510SOL     OW16165   3.365   2.163   2.335  0.1383 -0.0585  0.3120
 1510SOL    HW116166   3.299   2.213   2.287  0.3123 -3.0130 -2.9921
 1510SOL    HW216167   3.315   2.138   2.413 -0.4223  2.0081  0.6219
 1511SOL     OW16168   4.419   3.824   6.502 -0.0661  0.3676  0.4204
 1511SOL    HW116169   4.500   3.869   6.529  0.2190  0.6962 -0.9449
 1511SOL    HW216170   4.361   3.855   6.571  0.3878  0.6695  0.6737
 1512SOL     OW16171   3.450   3.960   8.430 -0.1256  0.4304  0.0256
 1512SOL    HW116172   3.446   3.915   8.514 -0.3644  0.4442  0.0208
 1512SOL    HW216173   3.362   3.951   8.394  0.2018 -0.7331 -0.4720
 1513SOL     OW16174   0.408   4.382   3.098 -0.1703 -0.4879  0.6683
 1513SOL    HW116175   0.483   4.339   3.057  0.7520  1.6848  0.0432
 1513SOL    HW216176   0.446   4.458   3.142  0.9956 -1.8985  2.0859
 1514SOL     OW16177   1.747   2.037   6.298 -0.0427 -0.0331 -0.2682
 1514SOL    HW116178   1.699   2.015   6.378  0.9299  2.2989  0.9303
 1514SOL    HW216179   1.740   1.950   6.257  2.4951 -0.7248  0.8179
 1515SOL     OW16180   2.350   1.035   8.345  0.2389 -0.4752  0.0386
 1515SOL    HW116181   2.354   1.119   8.391 -1.0911  0.1663 -1.0122
 1515SOL    HW216182   2.439   1.025   8.312 -0.0024 -1.9807 -0.1632
 1516SOL     OW16183   4.328   3.629   1.348  0.3455  0.7872 -0.0874
 1516SOL    HW116184   4.412   3.666   1.320  1.2925  0.3902  2.2903
 1516SOL    HW216185   4.349   3.556   1.406 -1.4639  0.0490 -0.3619
 1517SOL     OW16186   0.101   3.597   8.335 -0.1643  0.3464 -0.0547
 1517SOL    HW116187   0.121   3.529   8.399  0.7509  2.0146  1.4313
 1517SOL    HW216188   0.190   3.615   8.304 -0.5980  0.8800 -0.9933
 1518SOL     OW16189   3.677   0.692   7.091  0.0352  0.9890  0.2247
 1518SOL    HW116190   3.693   0.599   7.076 -0.7905  1.0484 -1.0432
 1518SOL    HW216191   3.582   0.700   7.092 -0.0439 -0.1158  0.8885
 1519SOL     OW16192   1.785   4.504   5.141 -0.0691 -0.2354  0.2778
 1519SOL    HW116193   1.797   4.536   5.230  2.3621  0.6407 -0.3556
 1519SOL    HW216194   1.691   4.488   5.149 -0.3595  1.5328  0.3373
 1520SOL     OW16195   0.660   4.553   7.987 -0.4863 -0.2543  0.1896
 1520SOL    HW116196   0.636   4.589   7.902  1.3060  2.0362  0.6423
 1520SOL    HW216197   0.583   4.564   8.043  0.1016  1.3154  0.6986
 1521SOL     OW16198   0.478   2.230   3.228  0.0651  0.1488 -0.4565
 1521SOL    HW116199   0.503   2.164   3.164  1.4216  1.1954 -1.0117
 1521SOL    HW216200   0.406   2.191   3.277  0.7353  1.6205  1.6822
 1522SOL     OW16201   2.030   0.198  13.745  0.3831  0.1357 -0.5657
 1522SOL    HW116202   2.060   0.164  13.660  2.8469  2.5485 -0.6579
 1522SOL    HW216203   1.958   0.136  13.758 -1.4348  2.3141 -0.2630
 1523SOL     OW16204   2.240   3.419   5.340  0.1454  0.0701  0.1123
 1523SOL    HW116205   2.157   3.373   5.351 -0.1951  0.6827  0.1269
 1523SOL    HW216206   2.307   3.367   5.383 -0.5044 -0.9961 -0.1605
 1524SOL     OW16207   3.730   1.771   3.798 -0.4159 -0.5320  0.4849
 1524SOL    HW116208   3.811   1.741   3.839 -0.5333  1.6785  2.3777
 1524SOL    HW216209   3.750   1.860   3.769 -3.3493  0.4827  1.5682
 1525SOL     OW16210   0.288   3.408   6.116 -0.0214 -0.0403  0.3030
 1525SOL    HW116211   0.305   3.447   6.202  0.0798 -0.5069  0.4950
 1525SOL    HW216212   0.193   3.416   6.107  0.3207  1.6794 -1.7461
 1526SOL     OW16213   1.685   4.218  13.166 -0.9383 -0.4400  0.0581
 1526SOL    HW116214   1.646   4.221  13.253 -1.3744  0.8228 -0.1958
 1526SOL    HW216215   1.769   4.263  13.169 -1.1206 -0.0320 -0.9505
 1527SOL     OW16216   3.453   0.748   9.318 -0.0875 -0.1880  0.0264
 1527SOL    HW116217   3.453   0.762   9.413 -0.8658 -1.2449  0.1831
 1527SOL    HW216218   3.359   0.755   9.299 -0.2046 -0.8862  0.3635
 1528SOL     OW16219   2.307   0.967   6.375  0.1803  0.0812 -0.0257
 1528SOL    HW116220   2.393   0.962   6.334 -0.0443  2.2657 -0.7258
 1528SOL    HW216221   2.253   0.977   6.296  1.9505 -0.0655 -1.2555
 1529SOL     OW16222   1.145   4.204   7.106 -0.3153 -0.6421  0.2507
 1529SOL    HW116223   1.177   4.198   7.016  1.8496  2.1379  0.8254
 1529SOL    HW216224   1.157   4.295   7.130  3.2997 -0.9918 -0.1276
 1530SOL     OW16225   3.023   0.707  14.144  0.3291  0.5784  0.2039
 1530SOL    HW116226   2.954   0.682  14.084  1.4056 -1.1646 -0.3043
 1530SOL    HW216227   3.008   0.801  14.149  0.9376  0.7670 -1.4684
 1531SOL     OW16228   0.521   4.603  16.793  0.2677 -0.1705  0.2524
 1531SOL    HW116229   0.531   4.537  16.862 -0.6075 -0.7949 -0.2048
 1531SOL    HW216230   0.523   4.680  16.849 -1.6422 -2.0982  2.9488
 1532SOL     OW16231   0.151   1.439   7.533 -0.1597  0.0615 -0.0686
 1532SOL    HW116232   0.235   1.431   7.578 -0.0042 -1.7288 -0.6908
 1532SOL    HW216233   0.090   1.484   7.592 -2.4410 -0.7576 -1.8264
 1533SOL     OW16234   3.005   4.109   4.041 -0.4143  0.4192  0.0625
 1533SOL    HW116235   3.099   4.104   4.060 -0.4800 -1.6815 -0.2415
 1533SOL    HW216236   2.983   4.197   4.071 -1.2070  0.3764 -0.3930
 1534SOL     OW16237   3.040   4.446   8.673  0.2647 -0.2398  0.3299
 1534SOL    HW116238   3.116   4.420   8.621  0.0074 -0.9270  0.2969
 1534SOL    HW216239   3.079   4.505   8.737 -1.0312  1.9072 -0.8577
 1535SOL     OW16240   2.126   4.685  15.942 -0.2094  0.4100  0.2204
 1535SOL    HW116241   2.137   4.642  15.858 -1.9201  1.6157 -0.6175
 1535SOL    HW216242   2.196   4.663  16.004 -1.7629 -0.6816  1.5835
 1536SOL     OW16243   3.492   0.147   3.242 -0.2873 -0.3407  0.2388
 1536SOL    HW116244   3.417   0.107   3.197 -1.1776  1.0883  0.4302
 1536SOL    HW216245   3.469   0.137   3.334 -0.6298 -0.1309  0.1778
 1537SOL     OW16246   3.023   4.695   8.401  0.2987  0.2052  0.5085
 1537SOL    HW116247   2.983   0.000   8.327  1.5779 -0.4884 -0.5999
 1537SOL    HW216248   3.113   4.730   8.406 -0.1123  0.8218  3.5431
 1538SOL     OW16249   1.459   2.069   4.855 -0.3275  0.0537 -0.5072
 1538SOL    HW116250   1.455   2.146   4.798 -3.5562 -0.8322 -1.4705
 1538SOL    HW216251   1.548   2.085   4.886 -0.8552  2.6072 -0.2548
 1539SOL     OW16252   0.782   0.651  10.429 -0.3068 -0.3191 -0.4803
 1539SOL    HW116253   0.712   0.714  10.446 -0.0860 -0.7341  1.8575
 1539SOL    HW216254   0.858   0.689  10.471  0.1647 -0.5068 -1.1624
 1540SOL     OW16255   4.005   0.652  12.738  0.0930 -0.1951 -0.7389
 1540SOL    HW116256   4.081   0.611  12.778 -0.5196  0.4775  1.1429
 1540SOL    HW216257   4.031   0.744  12.735  1.2880 -0.5013  0.3259
 1541SOL     OW16258   2.402   2.137   3.485 -0.0463 -0.2037  0.0668
 1541SOL    HW116259   2.395   2.171   3.396 -0.9921  0.8172  0.5373
 1541SOL    HW216260   2.432   2.049   3.461 -0.8676 -0.0450 -1.4986
 1542SOL     OW16261   0.794   3.434  10.097  0.1336  0.4865 -0.2300
 1542SOL    HW116262   0.700   3.439  10.077  0.5047 -0.3290 -2.1934
 1542SOL    HW216263   0.797   3.355  10.150  1.0238  1.0299  0.5144
 1543SOL     OW16264   3.814   3.137  13.816  0.0724 -0.0157 -0.1233
 1543SOL    HW116265   3.908   3.152  13.817 -0.1140  0.9740  1.3876
 1543SOL    HW216266   3.814   3.042  13.804 -0.1700  0.0791 -0.8830
 1544SOL     OW16267   3.717   3.792   4.141  0.1867  0.3971 -0.6744
 1544SOL    HW116268   3.776   3.835   4.203 -0.4694  0.7681 -0.3157
 1544SOL    HW216269   3.774   3.716   4.127 -1.1864 -1.0444  1.7021
 1545SOL     OW16270   4.600   3.706   1.285  0.3259  0.4109  0.3621
 1545SOL    HW116271   4.695   3.699   1.283  0.2078 -0.3852 -2.1929
 1545SOL    HW216272   4.597   3.726   1.378  4.0362 -1.1383  0.7974
 1546SOL     OW16273   4.528   3.026  11.139  0.4553  0.0369  1.0588
 1546SOL    HW116274   4.622   3.021  11.156  0.3567 -0.5164  1.4306
 1546SOL    HW216275   4.510   3.094  11.205  1.0308  0.6582  0.5781
 1547SOL     OW16276   2.084   3.027   0.912 -0.7085  0.0799  0.5947
 1547SOL    HW116277   2.070   3.050   0.821 -1.6768 -0.5170  0.5956
 1547SOL    HW216278   2.030   3.092   0.957 -1.8408 -0.3993 -0.0824
 1548SOL     OW16279   4.731   1.576   1.658 -0.0647 -0.3675  0.1492
 1548SOL    HW116280   4.657   1.530   1.619  0.1248 -0.8909  0.4181
 1548SOL    HW216281   4.694   1.665   1.659  2.6239  0.7723 -0.9048
 1549SOL     OW16282   3.801   2.219   5.371  0.5787 -0.5929 -0.3692
 1549SOL    HW116283   3.859   2.242   5.444  0.5897 -1.1020 -0.2156
 1549SOL    HW216284   3.831   2.128   5.364  2.1512 -0.0033 -1.2961
 1550SOL     OW16285   4.449   1.624   1.196 -0.0673  0.7041  0.4013
 1550SOL    HW116286   4.474   1.628   1.288  0.1639  1.0953  0.3202
 1550SOL    HW216287   4.387   1.696   1.182  2.4392  2.2088 -3.1027
 1551SOL     OW16288   1.830   2.907   5.630  0.5311 -0.2091  0.1792
 1551SOL    HW116289   1.826   2.966   5.705 -1.9021 -2.0536  1.5071
 1551SOL    HW216290   1.763   2.958   5.584 -1.3789 -0.9684  2.1184
 1552SOL     OW16291   0.915   3.924   7.604  0.4674 -0.0595  0.4379
 1552SOL    HW116292   0.952   3.936   7.692 -0.7607 -1.3571  1.1238
 1552SOL    HW216293   0.860   4.001   7.587  0.9836  0.0309 -0.8546
 1553SOL     OW16294   1.159   2.926   8.099  1.0628 -0.1894  0.0058
 1553SOL    HW116295   1.135   2.874   8.176  0.2238  0.6314  0.2897
 1553SOL    HW216296   1.236   2.881   8.064  1.0616 -0.4634  0.3483
 1554SOL     OW16297   3.811   3.642   6.435  0.2914 -0.5516  0.6342
 1554SOL    HW116298   3.719   3.655   6.412  0.6349  0.3660 -0.1942
 1554SOL    HW216299   3.834   3.574   6.372 -1.5694 -1.5561  1.0264
 1555SOL     OW16300   0.678   3.881   3.119 -0.5470 -0.1484  0.1345
 1555SOL    HW116301   0.646   3.968   3.142 -0.7201 -0.6813  1.8793
 1555SOL    HW216302   0.759   3.910   3.078 -1.1030  1.5170  0.2308
 1556SOL     OW16303   3.857   1.654   1.971  0.5059  0.1483 -0.1800
 1556SOL    HW116304   3.943   1.675   1.934  1.0025  0.6879  1.3050
 1556SOL    HW216305   3.828   1.738   2.007 -2.1522 -0.9911  0.2661
 1557SOL     OW16306   1.927   4.485   4.194 -0.1740 -0.3967 -0.2235
 1557SOL    HW116307   1.870   4.532   4.133  1.4995  0.9302 -0.7531
 1557SOL    HW216308   1.972   4.431   4.129  0.8736  1.3702 -0.9710
 1558SOL     OW16309   3.857   2.884  16.088  0.7077 -0.2885 -0.7177
 1558SOL    HW116310   3.801   2.961  16.093  0.7303 -0.2946 -0.3679
 1558SOL    HW216311   3.832   2.819  16.155  1.0076 -0.1538 -0.4753
 1559SOL     OW16312   4.427   0.888  17.271 -0.1222 -0.0138 -0.1814
 1559SOL    HW116313   4.522   0.894  17.264 -0.3935  2.3304 -2.0099
 1559SOL    HW216314   4.399   0.980  17.269  0.6240  0.2365  1.2834
 1560SOL     OW16315   2.216   4.076   5.884  0.0216  0.3558  0.2389
 1560SOL    HW116316   2.169   4.099   5.964 -1.0202  0.2466 -0.3408
 1560SOL    HW216317   2.146   4.039   5.830 -0.2231  0.1480  0.7080
 1561SOL     OW16318   4.043   0.108  15.089 -0.4809 -0.6998  0.8287
 1561SOL    HW116319   4.136   0.125  15.102 -0.7237  0.1953  1.3822
 1561SOL    HW216320   4.023   0.096  15.181  0.8426  1.3681  1.4049
 1562SOL     OW16321   2.924   3.419   0.267  0.5374  0.7156  0.0197
 1562SOL    HW116322   2.842   3.372   0.284  0.9165 -0.0992 -0.4233
 1562SOL    HW216323   2.922   3.471   0.347  0.3430  0.2080  0.3426
 1563SOL     OW16324   3.422   3.486  12.517 -0.2723 -0.0333  0.5976
 1563SOL    HW116325   3.510   3.460  12.545 -0.6097  0.1939  1.8658
 1563SOL    HW216326   3.436   3.581  12.513 -1.5385  0.1204 -0.0123
 1564SOL     OW16327   1.044   2.808   4.299 -0.1937  0.8959 -0.6149
 1564SOL    HW116328   1.000   2.880   4.345 -3.6849 -0.5949 -1.6868
 1564SOL    HW216329   1.059   2.838   4.210 -0.7844  3.4497  0.1426
 1565SOL     OW16330   2.192   4.208   4.139  0.3067 -0.4437 -0.6103
 1565SOL    HW116331   2.141   4.280   4.102  2.9789  0.5836 -2.2688
 1565SOL    HW216332   2.260   4.259   4.182 -0.4340  0.4165 -0.4523
 1566SOL     OW16333   1.231   3.989  14.261 -0.6681 -0.4826  0.2463
 1566SOL    HW116334   1.222   3.938  14.180 -0.8066  0.1579 -0.1432
 1566SOL    HW216335   1.280   4.058  14.216  1.1542 -0.2871  2.5579
 1567SOL     OW16336   2.511   3.781   3.126 -0.4663 -0.1498 -0.9088
 1567SOL    HW116337   2.585   3.792   3.185 -0.0366  0.4759 -1.5613
 1567SOL    HW216338   2.438   3.815   3.178 -0.2469 -0.3168 -0.5009
 1568SOL     OW16339   4.595   1.396   9.194  0.3200 -0.1981 -0.4640
 1568SOL    HW116340   4.538   1.328   9.158 -3.4743  1.7616  1.8701
 1568SOL    HW216341   4.590   1.376   9.288  1.0932  0.5096 -0.2761
 1569SOL     OW16342   4.214   4.553  16.821  0.1535 -0.4336 -0.2622
 1569SOL    HW116343   4.230   4.458  16.826  0.8222 -0.2760  0.5063
 1569SOL    HW216344   4.302   4.587  16.831  0.5126 -1.3402 -0.3047
 1570SOL     OW16345   2.899   2.804  13.159 -0.3424 -0.2895  0.3934
 1570SOL    HW116346   2.976   2.787  13.213 -0.6102 -2.3774  0.1464
 1570SOL    HW216347   2.826   2.777  13.214 -1.3277  0.4359 -0.5600
 1571SOL     OW16348   1.776   1.839   8.519 -0.8232 -0.4014 -0.0213
 1571SOL    HW116349   1.783   1.891   8.439 -1.3537  1.3307  1.0862
 1571SOL    HW216350   1.734   1.895   8.583  0.6590  2.1872 -1.3229
 1572SOL     OW16351   0.064   4.489   8.736 -0.1952  0.0570  0.0741
 1572SOL    HW116352   0.032   4.410   8.694  0.4487 -1.9029  3.2993
 1572SOL    HW216353   0.041   4.470   8.827  0.2014  0.9479  0.3615
 1573SOL     OW16354   1.785   1.072  14.861 -0.8570  0.2349  0.2831
 1573SOL    HW116355   1.811   1.099  14.773 -0.3072  0.0679  0.3957
 1573SOL    HW216356   1.733   1.147  14.889  0.1942  0.0384  2.6894
 1574SOL     OW16357   0.564   2.689   5.667 -0.7048 -0.7671  0.2415
 1574SOL    HW116358   0.653   2.682   5.633 -0.7886 -2.0098  0.3078
 1574SOL    HW216359   0.536   2.598   5.662 -1.2667 -0.5140 -1.2293
 1575SOL     OW16360   0.549   2.127  14.212  0.1738  0.1765  0.2579
 1575SOL    HW116361   0.475   2.111  14.271  1.1706 -0.9285  1.1956
 1575SOL    HW216362   0.553   2.223  14.209  0.1087  0.1942  0.7322
 1576SOL     OW16363   2.685   1.453   7.779  0.4638  0.1536 -0.0173
 1576SOL    HW116364   2.690   1.358   7.788 -1.1972  0.1303  0.8254
 1576SOL    HW216365   2.702   1.479   7.689  0.0550  3.1211  0.7640
 1577SOL     OW16366   4.683   1.440   1.310 -0.4425 -0.8235 -0.4671
 1577SOL    HW116367   4.634   1.458   1.391  1.1138  2.2071 -0.1645
 1577SOL    HW216368   4.659   1.353   1.280 -1.6047 -0.6850  0.0300
 1578SOL     OW16369   4.537   2.856  12.229  0.0507  0.2993 -0.8639
 1578SOL    HW116370   4.605   2.837  12.294 -2.6338 -0.0178  1.8472
 1578SOL    HW216371   4.459   2.873  12.281  0.0797  1.4342 -1.1942
 1579SOL     OW16372   2.863   2.500   5.150  0.3273  1.0465  0.2572
 1579SOL    HW116373   2.840   2.572   5.091 -1.5630  0.3688  0.1727
 1579SOL    HW216374   2.863   2.540   5.236  2.0857  3.1418 -0.6987
 1580SOL     OW16375   2.530   3.035  16.383 -0.8940 -0.4871 -0.7862
 1580SOL    HW116376   2.443   3.072  16.398 -1.1413 -0.3842 -2.3838
 1580SOL    HW216377   2.577   3.105  16.338 -1.4870  0.1115 -0.4625
 1581SOL     OW16378   1.334   4.617   5.148  0.4921 -0.1538  0.6168
 1581SOL    HW116379   1.246   4.650   5.162 -0.7079 -2.7150 -1.0220
 1581SOL    HW216380   1.371   4.697   5.109  1.1563 -0.9930 -0.4838
 1582SOL     OW16381   1.358   4.001   9.144  0.3866  0.6848 -0.5820
 1582SOL    HW116382   1.335   4.024   9.054 -0.6386 -0.4442 -0.6000
 1582SOL    HW216383   1.275   3.959   9.167 -0.7999  2.7034 -1.1325
 1583SOL     OW16384   3.434   4.599  15.796  0.0336  0.0722  0.6661
 1583SOL    HW116385   3.480   4.680  15.821  1.9376 -1.2931  1.6335
 1583SOL    HW216386   3.505   4.539  15.818  0.3036  0.4239  0.7571
 1584SOL     OW16387   0.019   2.592   5.493  0.5372  0.5225  0.2057
 1584SOL    HW116388   4.702   2.668   5.493  3.4764  2.7449 -4.1654
 1584SOL    HW216389   4.719   2.527   5.435  0.2891 -0.4849  1.5152
 1585SOL     OW16390   3.596   1.148   7.857  0.0424  0.8749  0.0579
 1585SOL    HW116391   3.628   1.229   7.817 -1.2659  1.4306  0.1254
 1585SOL    HW216392   3.562   1.187   7.938 -2.2260  1.2210 -1.0396
 1586SOL     OW16393   3.926   1.240  11.290  0.0926 -0.5959  0.2469
 1586SOL    HW116394   4.009   1.285  11.272  0.1096 -0.6416  0.2086
 1586SOL    HW216395   3.947   1.171  11.353  1.0984 -0.3133  0.2228
 1587SOL     OW16396   1.481   2.157  17.727  0.5395 -0.8892 -0.6023
 1587SOL    HW116397   1.529   2.104   0.034 -0.9635 -1.0310  0.4180
 1587SOL    HW216398   1.457   2.089  17.665  0.9095 -1.7716  0.2212
 1588SOL     OW16399   0.060   0.099   6.719  0.4588  0.8830  0.0787
 1588SOL    HW116400   0.111   0.142   6.788  0.2106  2.1305 -0.5147
 1588SOL    HW216401   0.045   0.164   6.650  2.6802  1.4413  0.1139
 1589SOL     OW16402   0.929   1.460   2.007 -0.5147 -0.2933  0.1663
 1589SOL    HW116403   0.993   1.414   2.062 -0.9706  1.1294  1.8877
 1589SOL    HW216404   0.858   1.457   2.072 -1.5255 -1.9859 -1.0401
 1590SOL     OW16405   0.776   4.518   7.699  0.0544  0.0075  0.8702
 1590SOL    HW116406   0.712   4.451   7.722  1.1547 -1.4065 -0.2431
 1590SOL    HW216407   0.850   4.458   7.697  1.1680  1.4107  0.2959
 1591SOL     OW16408   3.645   4.642   8.611  0.1994 -0.0488  0.6273
 1591SOL    HW116409   3.603   4.671   8.692  1.1276  0.8714  0.7740
 1591SOL    HW216410   3.580   4.579   8.580  0.6068  0.3284 -0.9892
 1592SOL     OW16411   4.664   1.339  11.731  0.2413 -0.3468 -0.0306
 1592SOL    HW116412   4.638   1.301  11.815  2.5895  2.8329  2.0991
 1592SOL    HW216413   4.675   1.431  11.755 -1.9187  0.0250 -0.4384
 1593SOL     OW16414   1.462   3.345   1.541 -0.1165  0.3458  0.1244
 1593SOL    HW116415   1.437   3.431   1.574 -1.9515  0.6707 -2.1817
 1593SOL    HW216416   1.482   3.308   1.627 -3.4311 -1.0522  0.2867
 1594SOL     OW16417   3.734   3.019   9.117  0.5542  0.6367  0.5406
 1594SOL    HW116418   3.827   2.999   9.125  0.7263  0.9755 -0.5935
 1594SOL    HW216419   3.711   3.039   9.208  1.0652 -2.8210  1.4319
 1595SOL     OW16420   3.872   3.261   3.125 -0.0165 -0.0015  0.1264
 1595SOL    HW116421   3.850   3.174   3.160 -0.6669  0.7691  1.6250
 1595SOL    HW216422   3.962   3.252   3.093  0.5747  0.5706  1.6524
 1596SOL     OW16423   1.936   3.292  11.854  0.2787 -0.0810  0.3134
 1596SOL    HW116424   1.997   3.349  11.808  1.9129  0.1779  2.8050
 1596SOL    HW216425   2.002   3.232  11.888 -1.0301 -1.4086  0.5310
 1597SOL     OW16426   3.890   0.738  10.668 -0.4000 -0.3964  0.0786
 1597SOL    HW116427   3.820   0.755  10.731  0.5435 -1.0777  1.3132
 1597SOL    HW216428   3.940   0.673  10.717  1.1535  0.8853  0.1772
 1598SOL     OW16429   1.247   2.897   5.809 -0.0162  0.0367  0.9316
 1598SOL    HW116430   1.263   2.953   5.733  0.4685  3.0450  3.2257
 1598SOL    HW216431   1.305   2.825   5.787 -2.5138 -1.7486  0.0946
 1599SOL     OW16432   2.864   3.841   5.383 -0.4651 -0.1743 -0.0831
 1599SOL    HW116433   2.823   3.767   5.339 -0.8594  1.0764 -1.8319
 1599SOL    HW216434   2.861   3.909   5.316  0.5395  1.8806  1.9386
 1600SOL     OW16435   3.889   2.005   1.593  0.3247  0.3889 -0.3434
 1600SOL    HW116436   3.966   1.986   1.539  0.4977  1.7505 -0.5591
 1600SOL    HW216437   3.831   1.934   1.563  0.6476  0.6719 -1.6158
 1601SOL     OW16438   3.589   2.725  14.295 -0.2614  0.0500 -0.2474
 1601SOL    HW116439   3.653   2.714  14.225 -1.1961  0.6770 -1.1848
 1601SOL    HW216440   3.502   2.718  14.256 -0.0717 -0.0323 -0.6486
 1602SOL     OW16441   2.982   4.545   0.826 -0.7586 -0.4916  0.1583
 1602SOL    HW116442   3.010   4.628   0.864 -1.4583 -0.3449  0.3639
 1602SOL    HW216443   3.066   4.500   0.819  0.5228  1.9513  0.0278
 1603SOL     OW16444   1.780   1.466   2.101 -0.2325 -0.2802 -0.2474
 1603SOL    HW116445   1.849   1.424   2.151  0.4164  0.7777 -0.2570
 1603SOL    HW216446   1.711   1.403   2.081  0.8910 -1.5161 -0.1884
 1604SOL     OW16447   3.208   2.295   4.364  0.1524  0.4152  0.2938
 1604SOL    HW116448   3.288   2.341   4.340 -1.1241  2.3871 -0.2558
 1604SOL    HW216449   3.180   2.254   4.283  0.7363  0.6315 -0.0112
 1605SOL     OW16450   4.078   1.998  15.602  0.0909  0.2482 -0.2465
 1605SOL    HW116451   4.159   2.030  15.560  0.4914 -1.6345 -0.9056
 1605SOL    HW216452   4.049   1.922  15.552 -2.2615 -1.1603  3.3340
 1606SOL     OW16453   4.211   1.310   6.173  0.3812  0.3989 -0.2187
 1606SOL    HW116454   4.161   1.337   6.250 -0.9605 -2.5563 -0.0569
 1606SOL    HW216455   4.245   1.394   6.141  2.2055 -0.1240  0.3938
 1607SOL     OW16456   2.540   0.040   2.262  0.0567 -0.1941  0.0910
 1607SOL    HW116457   2.518   4.693   2.295  0.4206  0.6394  2.5423
 1607SOL    HW216458   2.579   0.019   2.177  0.4613  0.1831  0.1860
 1608SOL     OW16459   4.249   0.963   8.815 -0.2168 -0.3612  0.6195
 1608SOL    HW116460   4.193   0.886   8.818 -1.7514  0.8566  3.2195
 1608SOL    HW216461   4.190   1.037   8.829 -1.1735 -1.5163  2.7786
 1609SOL     OW16462   3.682   1.010   2.394  0.3952 -0.0060 -0.0120
 1609SOL    HW116463   3.660   1.010   2.488 -1.4393  0.3417 -0.4360
 1609SOL    HW216464   3.661   1.097   2.360  0.0619  0.2220  0.7673
 1610SOL     OW16465   0.235   3.972  12.219 -0.0428 -0.4952  0.0004
 1610SOL    HW116466   0.236   3.894  12.275 -2.5922 -2.1459 -2.2223
 1610SOL    HW216467   0.141   3.991  12.208 -0.1290 -0.6999  0.3842
 1611SOL     OW16468   1.620   0.367   7.993 -0.6065 -0.1813  0.6138
 1611SOL    HW116469   1.532   0.346   8.023 -1.0260  1.1218  0.2719
 1611SOL    HW216470   1.657   0.421   8.063  1.2667 -2.0161  1.0346
 1612SOL     OW16471   2.009   2.676   6.076 -0.7531 -0.8099  0.0694
 1612SOL    HW116472   2.029   2.743   6.011  0.0126 -1.1865 -0.0862
 1612SOL    HW216473   1.921   2.702   6.104 -0.6197 -0.9015  0.5634
 1613SOL     OW16474   0.284   1.023   0.848  0.0719  0.4584  0.3580
 1613SOL    HW116475   0.203   1.056   0.807 -0.0124 -0.2463 -0.0390
 1613SOL    HW216476   0.280   1.074   0.929  3.7272  0.6789  0.3921
 1614SOL     OW16477   1.091   2.054   6.132 -0.1018  0.0197 -0.1918
 1614SOL    HW116478   1.124   2.127   6.185  1.3445  1.0842 -2.5679
 1614SOL    HW216479   1.010   2.088   6.095  0.7961 -0.4782 -2.6096
 1615SOL     OW16480   2.352   4.381  12.274 -0.4834  0.4780 -0.1610
 1615SOL    HW116481   2.261   4.395  12.245 -0.6306  1.8466  0.9900
 1615SOL    HW216482   2.332   4.332  12.353  0.9777 -0.6949 -0.5115
 1616SOL     OW16483   1.649   3.661  10.602 -0.1961 -0.1698  0.1578
 1616SOL    HW116484   1.658   3.724  10.673 -0.7985 -0.0596  0.1333
 1616SOL    HW216485   1.728   3.665  10.548 -0.7223  0.1782 -0.5889
 1617SOL     OW16486   1.064   1.362   2.257  0.0567  0.5946  0.4830
 1617SOL    HW116487   1.123   1.304   2.306  1.0780  0.0234 -1.4475
 1617SOL    HW216488   1.112   1.444   2.271 -1.5722  1.4531  1.0400
 1618SOL     OW16489   4.122   4.571   0.487 -0.3963 -0.3913 -0.2621
 1618SOL    HW116490   4.160   4.616   0.562  1.2110  0.8432 -1.8209
 1618SOL    HW216491   4.189   4.544   0.425  1.3136 -0.9732  1.8385
 1619SOL     OW16492   3.332   3.653  15.875 -0.4201 -0.6645 -0.4722
 1619SOL    HW116493   3.403   3.716  15.888  0.0393 -1.1528 -0.6053
 1619SOL    HW216494   3.361   3.623  15.788 -0.3181  1.7962 -1.2726
 1620SOL     OW16495   0.982   3.109   4.672  0.3527 -0.2161 -0.5952
 1620SOL    HW116496   0.964   3.192   4.717 -0.4575 -1.3765  1.2417
 1620SOL    HW216497   0.977   3.138   4.581  0.2018  0.3975 -0.3911
 1621SOL     OW16498   0.715   1.826   2.869  0.0576 -0.0625 -0.1127
 1621SOL    HW116499   0.633   1.825   2.919  0.8668 -1.1584  1.1906
 1621SOL    HW216500   0.722   1.917   2.841 -1.7971  0.5595  1.4158
 1622SOL     OW16501   3.827   4.428   9.225 -0.1662 -0.0407  0.5562
 1622SOL    HW116502   3.769   4.450   9.152  0.6313  0.1455 -0.0249
 1622SOL    HW216503   3.883   4.358   9.190 -4.1273 -1.5687 -2.7348
 1623SOL     OW16504   4.648   0.050   6.364  0.3769 -0.2175 -0.1728
 1623SOL    HW116505   4.670   0.128   6.415  1.8747 -0.3948 -0.5677
 1623SOL    HW216506   4.648   4.733   6.441  0.2115  2.3874  1.7587
 1624SOL     OW16507   2.473   2.165   2.813 -0.6411 -0.9657 -0.4856
 1624SOL    HW116508   2.445   2.151   2.723  3.6960  1.2225 -2.1697
 1624SOL    HW216509   2.568   2.172   2.802 -0.2015  0.5998  4.0829
 1625SOL     OW16510   0.068   1.554  10.166 -0.8633 -0.0207 -0.1991
 1625SOL    HW116511   4.726   1.603  10.169 -0.4861  0.5249  1.3255
 1625SOL    HW216512   0.096   1.563  10.257  2.4858  1.0222 -1.3346
 1626SOL     OW16513   0.228   3.573   0.893  0.2505  0.2383  0.1505
 1626SOL    HW116514   0.302   3.610   0.942 -0.4577 -1.4790  2.5452
 1626SOL    HW216515   0.228   3.485   0.932  0.7082  0.2589  0.1983
 1627SOL     OW16516   3.256   1.317   5.205 -0.2600  0.0856 -0.3182
 1627SOL    HW116517   3.262   1.365   5.122  1.4062 -0.6755 -0.6368
 1627SOL    HW216518   3.164   1.329   5.227 -0.6133  0.6002 -2.0968
 1628SOL     OW16519   1.763   3.083  17.037 -0.4840 -0.8546  0.4861
 1628SOL    HW116520   1.814   3.127  17.105 -0.1773 -0.5368  0.0570
 1628SOL    HW216521   1.733   3.159  16.986 -0.5283  0.4035  2.3830
 1629SOL     OW16522   4.121   0.469   8.915 -0.5379  0.9821 -0.5067
 1629SOL    HW116523   4.039   0.441   8.874 -1.1763  3.7567 -1.1537
 1629SOL    HW216524   4.090   0.517   8.993 -0.9492  1.7662 -1.1488
 1630SOL     OW16525   2.277   2.474   3.149  0.0395 -0.0720  0.5486
 1630SOL    HW116526   2.299   2.467   3.057 -1.1343 -2.2505  0.4347
 1630SOL    HW216527   2.191   2.515   3.137  0.3633 -0.4607 -2.9627
 1631SOL     OW16528   3.996   4.169   1.484 -0.6535 -0.4021 -0.1747
 1631SOL    HW116529   3.954   4.137   1.404  0.5301  0.5128 -1.1524
 1631SOL    HW216530   3.927   4.156   1.549  0.1977 -3.0304  0.2265
 1632SOL     OW16531   2.186   2.313   1.862  0.5612  0.4946 -0.1273
 1632SOL    HW116532   2.244   2.238   1.871 -0.1338  0.0059  0.2181
 1632SOL    HW216533   2.160   2.318   1.954 -1.4888  1.3835 -0.7458
 1633SOL     OW16534   4.687   2.097   7.077 -0.3999 -0.2099 -0.3312
 1633SOL    HW116535   4.637   2.108   7.158 -0.2569 -0.8355 -0.1595
 1633SOL    HW216536   4.725   2.010   7.088 -0.8326 -0.3244  0.2610
 1634SOL     OW16537   4.460   1.809   5.653 -0.8787 -0.5590  0.8031
 1634SOL    HW116538   4.490   1.796   5.743  0.8083  2.5259  0.6915
 1634SOL    HW216539   4.420   1.724   5.636  1.5998 -1.3801 -0.7591
 1635SOL     OW16540   0.520   3.051   8.140  0.0241 -0.5754  0.5730
 1635SOL    HW116541   0.529   3.014   8.228  1.3092  1.5964  1.3503
 1635SOL    HW216542   0.457   3.122   8.149  0.6903  0.4286 -2.7985
 1636SOL     OW16543   1.922   4.627   1.781 -0.2493  0.2570 -0.3658
 1636SOL    HW116544   2.000   4.643   1.729  0.6240 -0.9868  0.5445
 1636SOL    HW216545   1.952   4.617   1.872 -0.6765 -0.1128 -0.2613
 1637SOL     OW16546   4.159   0.256  10.325  0.0121 -0.1231  0.1530
 1637SOL    HW116547   4.180   0.271  10.417  1.4814  0.3679 -0.2543
 1637SOL    HW216548   4.079   0.309  10.330  0.4897  0.7649 -1.5515
 1638SOL     OW16549   1.393   4.615   5.791 -0.4562  0.7668 -0.4350
 1638SOL    HW116550   1.394   4.685   5.856  1.3636  1.7843 -1.5804
 1638SOL    HW216551   1.343   4.545   5.833  0.2725  0.6048  0.1545
 1639SOL     OW16552   4.267   1.526   4.438 -0.0486 -0.0983  0.4171
 1639SOL    HW116553   4.330   1.464   4.474  0.7082  1.2500  1.4411
 1639SOL    HW216554   4.248   1.481   4.356 -1.9564 -0.9721  1.3485
 1640SOL     OW16555   1.049   2.770   4.029  0.1423 -0.0247 -0.9966
 1640SOL    HW116556   0.965   2.816   4.034  1.8243  3.3988 -4.0136
 1640SOL    HW216557   1.044   2.735   3.940  1.3852 -0.9010 -0.7120
 1641SOL     OW16558   2.203   1.024   4.269  0.2758  0.2802  0.2017
 1641SOL    HW116559   2.240   1.024   4.180 -0.3099  2.7502 -0.0398
 1641SOL    HW216560   2.281   1.061   4.309  1.2912 -0.0489 -1.4615
 1642SOL     OW16561   2.088   4.039   5.629  0.7110 -0.0867  0.1196
 1642SOL    HW116562   2.036   4.067   5.554 -0.2269 -1.4913  0.2496
 1642SOL    HW216563   2.155   4.108   5.626  1.3348 -0.7574 -0.9762
 1643SOL     OW16564   2.885   4.349   7.157 -0.4648 -0.1009  0.5206
 1643SOL    HW116565   2.818   4.391   7.210 -0.1747 -0.7187  1.3632
 1643SOL    HW216566   2.962   4.370   7.210 -0.9343  0.1563  1.0960
 1644SOL     OW16567   2.188   3.407   5.934  0.0034 -0.0352  0.3367
 1644SOL    HW116568   2.229   3.408   6.020 -1.4455  1.1263  1.0209
 1644SOL    HW216569   2.230   3.483   5.894  0.4961 -0.5110 -0.0480
 1645SOL     OW16570   3.647   3.497   8.298  0.1107 -0.2933 -0.0019
 1645SOL    HW116571   3.622   3.586   8.322  0.2533 -0.7455  1.7803
 1645SOL    HW216572   3.586   3.488   8.224 -0.1371 -0.7483  0.2554
 1646SOL     OW16573   0.528   0.714   0.151 -0.2960 -0.0991 -0.8098
 1646SOL    HW116574   0.525   0.620   0.170 -0.0250 -0.4197 -2.3708
 1646SOL    HW216575   0.464   0.748   0.214 -1.8394 -0.1488 -2.3333
 1647SOL     OW16576   1.755   0.686  17.396  0.0316  0.3991 -0.1289
 1647SOL    HW116577   1.722   0.603  17.362 -1.0656  0.5135  0.6647
 1647SOL    HW216578   1.694   0.735  17.340 -1.2248 -0.4694  0.4853
 1648SOL     OW16579   1.077   4.329   3.771  0.0835  0.2079 -0.6506
 1648SOL    HW116580   1.096   4.255   3.714  0.9484  0.2576 -0.4190
 1648SOL    HW216581   1.143   4.397   3.757 -0.4085  0.5065 -1.5390
 1649SOL     OW16582   0.562   3.410  16.417 -0.4243 -0.4584 -0.4768
 1649SOL    HW116583   0.656   3.418  16.429 -0.5861 -0.2439  0.7447
 1649SOL    HW216584   0.537   3.479  16.479 -0.1927 -0.6602 -0.1589
 1650SOL     OW16585   3.414   1.483   8.519  0.0282 -0.1024  0.2108
 1650SOL    HW116586   3.365   1.449   8.594  1.3512  0.1062  1.1741
 1650SOL    HW216587   3.505   1.484   8.551  0.2969 -0.2597 -0.5567
 1651SOL     OW16588   2.852   1.408   9.020 -0.0421 -0.6177 -0.8599
 1651SOL    HW116589   2.943   1.397   8.992 -0.0067  0.5049 -1.1918
 1651SOL    HW216590   2.814   1.404   8.932 -0.9775  3.1588 -0.6347
 1652SOL     OW16591   2.309   0.635   7.520  0.1104 -0.5795 -0.2696
 1652SOL    HW116592   2.245   0.573   7.554 -1.0277  1.1078  0.6032
 1652SOL    HW216593   2.257   0.714   7.510 -0.1929 -0.5973  1.1705
 1653SOL     OW16594   4.435   1.854  16.837  0.5053 -0.0901 -0.0327
 1653SOL    HW116595   4.484   1.936  16.826 -1.6252  1.0586 -0.8823
 1653SOL    HW216596   4.500   1.784  16.833 -0.6728 -1.1365 -0.8149
 1654SOL     OW16597   4.202   0.472   7.451  0.4095 -0.0291  0.0695
 1654SOL    HW116598   4.224   0.565   7.439 -0.0484  0.1029  0.2516
 1654SOL    HW216599   4.137   0.482   7.520 -0.1961 -0.1071 -0.4878
 1655SOL     OW16600   3.227   4.707   2.939 -0.0088  0.1489  0.2644
 1655SOL    HW116601   3.142   0.008   2.956 -0.2865 -0.2170 -0.2311
 1655SOL    HW216602   3.278   0.047   2.949 -0.9767  0.7486  0.4862
 1656SOL     OW16603   2.832   0.274   3.712  0.3846 -0.1581 -0.1490
 1656SOL    HW116604   2.782   0.258   3.792 -0.1315 -3.0521 -1.0293
 1656SOL    HW216605   2.887   0.349   3.734  0.3332 -1.0638  3.0263
 1657SOL     OW16606   0.657   3.802   1.454  0.4171 -0.0374 -0.1776
 1657SOL    HW116607   0.567   3.796   1.486 -0.6217  2.6172 -2.4814
 1657SOL    HW216608   0.696   3.809   1.541  2.1665  1.0482 -1.0562
 1658SOL     OW16609   3.471   4.162   0.263 -0.5606  0.1220 -0.7771
 1658SOL    HW116610   3.492   4.096   0.198 -0.1027  0.0850 -0.5891
 1658SOL    HW216611   3.432   4.111   0.334  0.0331 -1.2778 -1.4625
 1659SOL     OW16612   4.078   2.656   0.419  0.1393 -0.3393 -0.3829
 1659SOL    HW116613   4.080   2.570   0.461  0.4382  0.3513  1.0084
 1659SOL    HW216614   4.013   2.703   0.472 -0.6615 -0.0903 -1.5824
 1660SOL     OW16615   0.752   4.022   5.949 -0.1498 -0.3704 -0.1216
 1660SOL    HW116616   0.798   3.946   5.986  1.8718  1.0643  0.2755
 1660SOL    HW216617   0.721   3.989   5.865 -1.7061 -0.5358  0.4983
 1661SOL     OW16618   2.497   2.862  17.003 -0.3265  0.1199  0.4777
 1661SOL    HW116619   2.413   2.820  17.022  0.0617 -1.0129 -0.3218
 1661SOL    HW216620   2.509   2.928  17.072 -0.7100 -0.7388  1.3583
 1662SOL     OW16621   4.708   2.059   2.373 -0.1843  0.5930 -0.0721
 1662SOL    HW116622   4.731   2.066   2.280  2.3069 -2.7982  0.2462
 1662SOL    HW216623   4.643   2.126   2.393  1.2720  2.3322 -1.1282
 1663SOL     OW16624   2.003   3.961   6.566  0.7439 -0.9105 -0.7997
 1663SOL    HW116625   2.051   4.040   6.541 -1.6091  1.1723  1.2957
 1663SOL    HW216626   1.982   3.970   6.659 -1.7976 -0.6686 -1.4071
 1664SOL     OW16627   3.447   0.226   5.329  0.1690 -0.4633 -0.7390
 1664SOL    HW116628   3.481   0.138   5.316  2.2168 -0.1602  2.4118
 1664SOL    HW216629   3.429   0.246   5.237  3.0189  0.1564 -1.1740
 1665SOL     OW16630   3.004   2.061   8.881  0.2823  0.0578  0.0703
 1665SOL    HW116631   3.070   2.029   8.819  1.8480  0.3603  1.5834
 1665SOL    HW216632   3.038   2.058   8.970 -2.4520  1.6024  1.1526
 1666SOL     OW16633   2.885   2.545   6.370 -0.2643 -0.4955 -0.0081
 1666SOL    HW116634   2.965   2.590   6.344 -0.3252  1.4774  3.2240
 1666SOL    HW216635   2.839   2.525   6.288  1.4811  0.4268 -1.2033
 1667SOL     OW16636   1.954   1.866   9.696  0.4488  0.6796  0.3123
 1667SOL    HW116637   1.876   1.864   9.752  1.0361  2.6817  1.2137
 1667SOL    HW216638   1.924   1.925   9.627 -0.8414  0.1440  0.4026
 1668SOL     OW16639   4.052   2.778   4.541 -0.3543 -0.0245 -0.2860
 1668SOL    HW116640   3.987   2.777   4.470 -1.9223  0.2759  1.1338
 1668SOL    HW216641   4.134   2.803   4.500  0.0871  2.4084  2.0927
 1669SOL     OW16642   4.374   3.100   4.282 -0.0541 -0.0162  0.3970
 1669SOL    HW116643   4.436   3.033   4.254  0.0167  0.3852 -0.4089
 1669SOL    HW216644   4.396   3.127   4.371 -0.0687  0.6667  0.1956
 1670SOL     OW16645   2.513   1.188   4.696  0.5330 -0.1217 -0.0231
 1670SOL    HW116646   2.590   1.131   4.696 -0.1620 -1.0383  1.6961
 1670SOL    HW216647   2.441   1.127   4.713  1.2962 -1.1032 -0.3183
 1671SOL     OW16648   2.862   4.398   7.854 -0.2298  0.4454  0.0750
 1671SOL    HW116649   2.871   4.333   7.784 -2.2653 -0.6641  0.8519
 1671SOL    HW216650   2.790   4.454   7.827  0.2345  1.1057  0.2060
 1672SOL     OW16651   1.861   1.195  14.629 -0.1045 -0.5363 -0.0674
 1672SOL    HW116652   1.889   1.124  14.571  0.1791 -0.8126  0.4061
 1672SOL    HW216653   1.822   1.253  14.563 -2.1760 -1.8465 -0.0084
 1673SOL     OW16654   1.705   1.291  13.421  0.0057  0.1353  0.7621
 1673SOL    HW116655   1.741   1.379  13.433 -0.6484  0.5113 -0.0142
 1673SOL    HW216656   1.721   1.263  13.331 -0.2636 -0.3310  0.8647
 1674SOL     OW16657   4.449   3.976  12.143  0.0338  0.1694 -0.1198
 1674SOL    HW116658   4.356   3.991  12.159  0.4908  0.8956  1.8207
 1674SOL    HW216659   4.460   4.067  12.113 -0.0928  0.5297  0.9225
 1675SOL     OW16660   3.376   2.925   5.301 -0.1045 -0.2972  0.3661
 1675SOL    HW116661   3.338   2.930   5.213 -3.2516 -0.6549  1.6931
 1675SOL    HW216662   3.386   3.014   5.335  2.1762 -0.0567 -0.9481
 1676SOL     OW16663   3.077   3.697   9.659  0.6626  0.4782 -0.5047
 1676SOL    HW116664   3.129   3.772   9.631 -0.3311  0.2075 -3.0485
 1676SOL    HW216665   3.069   3.640   9.583 -2.6079 -0.9460  0.9082
 1677SOL     OW16666   0.428   0.854  12.389 -0.1237  0.0266 -0.1442
 1677SOL    HW116667   0.354   0.833  12.446 -1.4094  0.6112 -1.6235
 1677SOL    HW216668   0.443   0.947  12.406 -1.5548 -0.2796  2.7569
 1678SOL     OW16669   1.852   2.124  10.036  0.0477 -0.0630 -0.0384
 1678SOL    HW116670   1.942   2.099  10.013  0.0960 -1.2052  1.3851
 1678SOL    HW216671   1.813   2.105   9.950  0.8075  0.7664 -0.5662
 1679SOL     OW16672   1.582   4.720  12.660 -0.1966  0.2254 -0.4599
 1679SOL    HW116673   1.493   4.689  12.644 -0.2719 -0.3079  1.0064
 1679SOL    HW216674   1.589   4.716  12.755  0.5777  2.9082 -0.4119
 1680SOL     OW16675   4.082   3.116   4.475  0.2709  0.1375 -0.2834
 1680SOL    HW116676   4.139   3.184   4.509 -1.3229  1.6190 -0.6033
 1680SOL    HW216677   3.998   3.140   4.514  0.5850 -0.6779  0.9222
 1681SOL     OW16678   1.559   4.431   9.025 -0.3206  0.5760  0.0297
 1681SOL    HW116679   1.509   4.492   9.080 -0.1018  0.4680  0.3471
 1681SOL    HW216680   1.494   4.391   8.967  0.9021 -1.0595 -0.2024
 1682SOL     OW16681   4.208   2.653   3.010  0.2970 -0.0952  0.1794
 1682SOL    HW116682   4.200   2.735   2.960 -1.8608 -0.4675 -0.0588
 1682SOL    HW216683   4.156   2.603   2.948 -0.0024  1.0248 -0.4792
 1683SOL     OW16684   1.633   1.562   8.563 -0.2173  0.6545 -0.1805
 1683SOL    HW116685   1.638   1.647   8.519  0.7192  0.0173 -1.3211
 1683SOL    HW216686   1.579   1.515   8.499 -1.2668  0.8208  0.5880
 1684SOL     OW16687   2.635   3.441   1.528  0.0522 -0.4742  0.5799
 1684SOL    HW116688   2.670   3.471   1.612  2.2794  2.7804 -1.5068
 1684SOL    HW216689   2.709   3.445   1.467 -0.8497  0.7147 -0.4593
 1685SOL     OW16690   2.151   3.097   9.272 -0.2940 -0.3483  0.1483
 1685SOL    HW116691   2.239   3.085   9.236 -0.8188  0.6895 -1.4790
 1685SOL    HW216692   2.120   3.171   9.220 -0.3435  0.5197  1.4100
 1686SOL     OW16693   3.655   4.252  14.434 -0.5437 -0.3366 -0.1404
 1686SOL    HW116694   3.559   4.255  14.425 -0.7985 -0.1922  2.7424
 1686SOL    HW216695   3.658   4.262  14.529 -1.3799 -0.0189 -0.1478
 1687SOL     OW16696   1.306   4.236   5.602 -0.2446 -0.4223  0.0276
 1687SOL    HW116697   1.361   4.162   5.629 -2.3353 -2.1926 -0.5137
 1687SOL    HW216698   1.242   4.202   5.539 -0.7794  0.6815 -0.0197
 1688SOL     OW16699   2.144   0.904   3.194 -0.2663 -0.0913 -0.0226
 1688SOL    HW116700   2.068   0.945   3.236  0.6215  2.9966 -1.4311
 1688SOL    HW216701   2.204   0.978   3.201  1.0016 -1.1464  0.1481
 1689SOL     OW16702   3.182   1.645   3.306 -0.3088  0.1117 -0.0293
 1689SOL    HW116703   3.274   1.649   3.333 -0.6050  2.0149  0.7401
 1689SOL    HW216704   3.140   1.605   3.382 -2.0197  0.5367 -0.7483
 1690SOL     OW16705   2.835   3.975   7.780  0.6779  0.0868  0.4604
 1690SOL    HW116706   2.887   3.895   7.779  0.3631 -0.1230  0.5522
 1690SOL    HW216707   2.911   4.026   7.808 -0.0025  0.0677  2.3674
 1691SOL     OW16708   0.107   0.385   1.734  1.0182  0.4100  0.6614
 1691SOL    HW116709   0.128   0.384   1.641 -0.3487  1.6377  0.3308
 1691SOL    HW216710   0.175   0.442   1.770 -0.0682  0.6562  2.3159
 1692SOL     OW16711   0.856   2.917   8.252  0.6408 -0.0052  0.5040
 1692SOL    HW116712   0.843   2.999   8.206 -0.3430 -0.2389  0.3616
 1692SOL    HW216713   0.900   2.869   8.182  0.4620 -0.7850  0.9205
 1693SOL     OW16714   1.572   2.337  12.680 -0.2372  0.2362  0.2571
 1693SOL    HW116715   1.565   2.395  12.605 -0.7326 -0.1722 -0.0134
 1693SOL    HW216716   1.665   2.315  12.674 -0.2816  0.0266  0.3190
 1694SOL     OW16717   1.435   1.900   6.152 -0.0233 -0.2185 -0.4620
 1694SOL    HW116718   1.413   1.919   6.244 -2.0493  1.7425 -1.3534
 1694SOL    HW216719   1.352   1.922   6.109 -0.1675  0.8950  0.3806
 1695SOL     OW16720   3.886   4.649   4.749 -0.0852 -0.4684 -0.1473
 1695SOL    HW116721   3.972   4.606   4.750 -0.1539 -0.5621  1.4821
 1695SOL    HW216722   3.826   4.601   4.692 -1.4752  2.2042 -0.9333
 1696SOL     OW16723   1.249   1.047   5.950 -0.3261 -0.8729  0.1975
 1696SOL    HW116724   1.327   1.097   5.973 -0.6384 -0.6603  0.7845
 1696SOL    HW216725   1.190   1.073   6.020 -1.1038  0.5103 -0.9662
 1697SOL     OW16726   0.066   4.578   3.375 -0.0166  0.7525 -0.0383
 1697SOL    HW116727   0.137   4.634   3.344 -1.2155  1.6297 -1.2487
 1697SOL    HW216728   0.020   4.633   3.439 -0.8752 -1.6387  1.3809
 1698SOL     OW16729   3.074   3.197   8.568 -0.0663 -0.0845 -0.0816
 1698SOL    HW116730   3.053   3.148   8.648 -0.4785 -0.2881 -0.3140
 1698SOL    HW216731   2.992   3.242   8.548  0.1933 -0.4028 -1.8562
 1699SOL     OW16732   3.717   2.684   8.147 -0.1811 -0.8111 -0.0415
 1699SOL    HW116733   3.772   2.626   8.199 -0.0069 -1.1585 -0.6225
 1699SOL    HW216734   3.765   2.767   8.142  0.1127 -1.1068 -2.0557
 1700SOL     OW16735   1.913   4.297  10.135  0.1625 -0.4512  0.6525
 1700SOL    HW116736   1.991   4.331  10.178  0.4584 -0.2585 -0.0334
 1700SOL    HW216737   1.947   4.224  10.085  1.1371  1.1860 -1.0769
 1701SOL     OW16738   0.082   3.174   3.181 -0.8527 -0.1109 -0.5003
 1701SOL    HW116739   0.130   3.152   3.260 -0.8904  1.6116  0.0014
 1701SOL    HW216740   0.083   3.095   3.127 -0.3917  0.1113 -0.8213
 1702SOL     OW16741   0.458   2.224   2.499 -0.2465 -0.2121  0.0441
 1702SOL    HW116742   0.502   2.146   2.532 -0.8025 -0.1950  0.8442
 1702SOL    HW216743   0.369   2.188   2.504 -0.0161 -0.8066 -0.1434
 1703SOL     OW16744   0.974   3.575   0.521 -0.4411 -0.0643  0.9679
 1703SOL    HW116745   0.901   3.611   0.471  0.4290  0.8132  0.3455
 1703SOL    HW216746   1.034   3.545   0.453 -0.4114  0.7093  0.6576
 1704SOL     OW16747   1.889   2.443   4.374 -0.3551 -0.4744 -0.1520
 1704SOL    HW116748   1.949   2.465   4.303 -1.9998 -0.5864 -1.5931
 1704SOL    HW216749   1.858   2.357   4.345  0.5844 -0.9452  0.2609
 1705SOL     OW16750   1.738   0.208   6.319  0.6933 -0.1673 -0.1348
 1705SOL    HW116751   1.645   0.207   6.297  1.1519  0.1350 -2.0651
 1705SOL    HW216752   1.764   0.300   6.308 -1.5291  0.5376  0.5979
 1706SOL     OW16753   2.801   3.453   3.860 -0.3935  0.6693  0.4428
 1706SOL    HW116754   2.718   3.424   3.823 -1.5391  3.9779  0.4729
 1706SOL    HW216755   2.814   3.389   3.931  1.0023 -0.5693 -0.9299
 1707SOL     OW16756   4.231   4.106  15.544 -0.4555 -0.5402 -0.3601
 1707SOL    HW116757   4.145   4.102  15.586  0.0776 -1.3735  0.6461
 1707SOL    HW216758   4.290   4.074  15.613 -0.2493 -3.4710 -1.9154
 1708SOL     OW16759   0.411   1.323   8.961  0.0580 -0.3805 -0.2375
 1708SOL    HW116760   0.358   1.317   9.040 -1.5341 -1.3047 -1.3825
 1708SOL    HW216761   0.397   1.414   8.937  1.0507 -0.4842 -1.2389
 1709SOL     OW16762   2.114   2.244  17.022  0.0831  0.2668  0.5820
 1709SOL    HW116763   2.086   2.218  16.934  3.3644  1.7091 -0.9015
 1709SOL    HW216764   2.153   2.158  17.039 -0.1514 -0.2106 -1.2530
 1710SOL     OW16765   0.253   4.335   8.878 -0.0651  0.0106  0.2757
 1710SOL    HW116766   0.212   4.378   8.803  2.1083  1.4639 -0.0714
 1710SOL    HW216767   0.204   4.377   8.948  0.5558  3.4338 -1.3119
 1711SOL     OW16768   0.168   1.809   6.443  0.2892  1.0649  0.1208
 1711SOL    HW116769   0.122   1.883   6.484 -0.4739 -0.0174  1.2399
 1711SOL    HW216770   0.217   1.850   6.372  0.6665  0.3592 -0.0318
 1712SOL     OW16771   2.755   3.108   7.665 -0.2163 -0.0114  0.1309
 1712SOL    HW116772   2.819   3.166   7.706  0.3014 -1.0594  0.8115
 1712SOL    HW216773   2.775   3.127   7.574 -1.6145 -0.4275 -0.2756
 1713SOL     OW16774   1.187   2.287   4.614  0.0547  0.2279 -0.3970
 1713SOL    HW116775   1.217   2.235   4.539  0.3024  1.5786 -1.2316
 1713SOL    HW216776   1.112   2.331   4.575  0.5620 -0.1927 -1.8469
 1714SOL     OW16777   3.989   1.074   7.904  0.2529  0.4786 -0.8192
 1714SOL    HW116778   4.069   1.074   7.956 -1.2361 -4.0984  1.4805
 1714SOL    HW216779   3.922   1.051   7.969  0.6079  0.7102 -0.3773
 1715SOL     OW16780   2.460   4.550   4.980  0.5464 -0.0748  0.5960
 1715SOL    HW116781   2.462   4.645   4.967 -1.8996 -0.2225 -0.8217
 1715SOL    HW216782   2.366   4.537   4.992 -0.0454  1.9136 -1.8818
 1716SOL     OW16783   2.029   3.866   0.021 -0.0190 -0.1405  0.5064
 1716SOL    HW116784   1.943   3.824   0.026 -0.5385  1.1139  2.2074
 1716SOL    HW216785   2.044   3.897   0.111 -2.0842 -0.5799  1.0050
 1717SOL     OW16786   4.130   3.232  11.336 -0.2669  0.2718  0.1074
 1717SOL    HW116787   4.085   3.205  11.257  0.7653  1.5410 -0.9193
 1717SOL    HW216788   4.126   3.328  11.334 -3.5119  0.1659  0.5629
 1718SOL     OW16789   3.333   0.468   9.532 -0.0655 -0.2261  0.2902
 1718SOL    HW116790   3.389   0.439   9.604 -0.2462  0.7019  0.8003
 1718SOL    HW216791   3.322   0.560   9.555  3.2933 -0.1749  1.6791
 1719SOL     OW16792   2.377   3.729   1.206 -0.2369  0.2548 -0.0241
 1719SOL    HW116793   2.444   3.706   1.269 -2.6519 -0.4069  2.2923
 1719SOL    HW216794   2.392   3.823   1.196 -1.8954  0.2916 -2.0949
 1720SOL     OW16795   4.218   0.905   8.173  0.1720 -0.1345  0.3109
 1720SOL    HW116796   4.210   0.991   8.132  2.5835 -0.4341 -0.7896
 1720SOL    HW216797   4.249   0.854   8.098  0.0873 -1.7673  1.3776
 1721SOL     OW16798   2.435   1.366   6.618 -0.4026 -0.3320  0.7032
 1721SOL    HW116799   2.490   1.288   6.622 -1.1113 -0.9087 -0.7547
 1721SOL    HW216800   2.465   1.396   6.703  1.4751  1.6634 -0.6736
 1722SOL     OW16801   3.880   2.359  10.223  0.7759  0.0498  0.0828
 1722SOL    HW116802   3.915   2.291  10.281 -2.6513 -2.5623 -0.8698
 1722SOL    HW216803   3.941   2.432  10.214  0.9264 -0.0665  0.1707
 1723SOL     OW16804   1.065   1.427  14.441  0.2679 -0.4732  0.1986
 1723SOL    HW116805   1.160   1.424  14.431 -0.0519 -0.0677 -3.0089
 1723SOL    HW216806   1.031   1.397  14.357 -1.7896 -2.4134  1.7270
 1724SOL     OW16807   3.989   0.772   1.821 -0.1473  0.0740 -0.3145
 1724SOL    HW116808   3.976   0.757   1.914  1.8160  0.5941  0.0372
 1724SOL    HW216809   4.014   0.684   1.791 -0.9491 -0.0479 -0.6155
 1725SOL     OW16810   3.299   0.527  11.008  0.0264 -0.1095 -0.1362
 1725SOL    HW116811   3.217   0.523  11.057  0.3001 -2.5963  0.1155
 1725SOL    HW216812   3.291   0.460  10.941  1.5520  0.0140 -0.4389
 1726SOL     OW16813   1.606   0.277   6.573 -0.0681  0.1390 -0.0517
 1726SOL    HW116814   1.690   0.299   6.532 -1.3595  1.7989 -1.7827
 1726SOL    HW216815   1.583   0.188   6.545 -0.4217 -0.2850  1.5906
 1727SOL     OW16816   2.254   1.754   7.338  0.3808 -0.4266  0.8481
 1727SOL    HW116817   2.320   1.713   7.283  1.0468  0.7803  0.7528
 1727SOL    HW216818   2.282   1.845   7.332  0.9830 -0.6590  0.1678
 1728SOL     OW16819   1.237   4.377   4.356 -0.1005 -0.3579  0.4977
 1728SOL    HW116820   1.214   4.393   4.448 -0.0024 -4.5362  1.2629
 1728SOL    HW216821   1.324   4.418   4.354  0.4718 -1.3817  2.8924
 1729SOL     OW16822   0.858   4.022   9.832  0.3214 -0.2756 -0.3439
 1729SOL    HW116823   0.831   4.109   9.859 -0.2063 -0.4810 -0.2219
 1729SOL    HW216824   0.881   3.985   9.918  0.7503 -0.7333 -0.6549
 1730SOL     OW16825   3.647   2.905   4.838 -0.4084 -0.1324 -0.6553
 1730SOL    HW116826   3.710   2.878   4.904 -0.5793  2.8011  0.7301
 1730SOL    HW216827   3.575   2.849   4.866 -1.6349  2.2093  0.8665
 1731SOL     OW16828   0.365   3.530   1.314 -0.1050  0.5019  0.2924
 1731SOL    HW116829   0.388   3.438   1.325 -0.2076  0.5563  0.9569
 1731SOL    HW216830   0.377   3.524   1.219 -0.7155  1.1664  0.1677
 1732SOL     OW16831   1.152   4.081   3.647 -0.2605  0.0489  0.1996
 1732SOL    HW116832   1.247   4.080   3.632 -0.4729 -1.7561 -1.0132
 1732SOL    HW216833   1.117   4.007   3.598  0.6545  1.2105 -2.1726
 1733SOL     OW16834   0.337   0.820  16.374  0.2005 -0.2476  0.3502
 1733SOL    HW116835   0.281   0.897  16.360  0.3510 -0.6322 -2.3272
 1733SOL    HW216836   0.410   0.835  16.315  0.0270  1.9998  0.7188
 1734SOL     OW16837   1.033   0.901   4.081  0.3201  0.7126 -0.2824
 1734SOL    HW116838   1.119   0.887   4.121  1.3935  1.9642 -2.1549
 1734SOL    HW216839   1.017   0.996   4.079 -1.2050  0.4207 -1.6854
 1735SOL     OW16840   2.841   4.599  15.422  0.4120  0.0021  0.1378
 1735SOL    HW116841   2.901   4.660  15.380 -1.6788  2.1537  0.2490
 1735SOL    HW216842   2.889   4.581  15.503 -0.8846  1.2344  1.1905
 1736SOL     OW16843   2.324   2.645  16.968  0.4232  0.0580  0.3957
 1736SOL    HW116844   2.320   2.558  17.008  0.9214 -0.4800 -0.7278
 1736SOL    HW216845   2.236   2.654  16.929 -0.4423 -1.6791  1.9473
 1737SOL     OW16846   0.607   3.143   9.475  0.5740 -0.2497 -0.3169
 1737SOL    HW116847   0.665   3.142   9.399 -0.9784  1.0189 -1.5420
 1737SOL    HW216848   0.670   3.175   9.540  1.2766  0.0449 -1.1451
 1738SOL     OW16849   4.339   0.111   6.370 -0.1743 -0.7031 -0.2195
 1738SOL    HW116850   4.414   0.130   6.425  1.1851 -3.9772 -0.9117
 1738SOL    HW216851   4.295   0.196   6.367 -0.0805 -0.7003 -1.4839
 1739SOL     OW16852   4.428   3.469   1.910  0.3991  0.5172 -0.2702
 1739SOL    HW116853   4.489   3.510   1.972  0.4061 -1.0286  0.7336
 1739SOL    HW216854   4.455   3.377   1.904  0.2032  0.3473  1.3352
 1740SOL     OW16855   1.642   4.611   1.943 -0.3738 -0.2487  0.1354
 1740SOL    HW116856   1.561   4.561   1.958 -0.9770  0.7922  0.3691
 1740SOL    HW216857   1.629   4.652   1.857  1.6783 -1.7284 -0.8610
 1741SOL     OW16858   1.236   1.290  17.083  0.0170 -0.3164  0.4111
 1741SOL    HW116859   1.259   1.382  17.066 -0.5580 -0.5778 -1.8232
 1741SOL    HW216860   1.204   1.266  16.996 -0.7216  0.0652  0.5822
 1742SOL     OW16861   1.917   2.858   5.232  0.0492  0.1106  0.0100
 1742SOL    HW116862   1.864   2.791   5.187  0.3936 -0.4192  0.4030
 1742SOL    HW216863   1.959   2.808   5.302 -1.7894  1.7837  2.3267
 1743SOL     OW16864   0.566   0.598   3.388  0.2382  0.2876  0.6685
 1743SOL    HW116865   0.660   0.586   3.394 -0.1250 -1.7511  2.0446
 1743SOL    HW216866   0.557   0.681   3.435  0.9561 -0.9808  3.0519
 1744SOL     OW16867   1.449   4.596   3.167  0.2340  0.1858 -0.3852
 1744SOL    HW116868   1.542   4.586   3.143  0.4375  2.1212 -0.3545
 1744SOL    HW216869   1.465   4.663   3.232 -0.0707  0.8291 -0.9747
 1745SOL     OW16870   1.515   2.555   3.009 -0.2295 -0.1895  0.0466
 1745SOL    HW116871   1.437   2.570   2.956 -0.4233  0.7906  0.6061
 1745SOL    HW216872   1.574   2.627   2.984 -0.5774  0.2121  0.3903
 1746SOL     OW16873   1.981   1.762  10.290 -0.2172  0.0110  0.1756
 1746SOL    HW116874   2.064   1.785  10.333 -0.9700  1.3683  0.9222
 1746SOL    HW216875   1.921   1.806  10.350  0.3936  2.6139 -1.1045
 1747SOL     OW16876   0.876   0.340   7.980 -0.1691  0.2864 -0.5126
 1747SOL    HW116877   0.934   0.343   7.904  1.8670  1.3696  1.0839
 1747SOL    HW216878   0.793   0.308   7.942 -1.1156  0.2847  1.5738
 1748SOL     OW16879   0.363   3.771   7.278  0.6236  0.0328 -0.0051
 1748SOL    HW116880   0.412   3.848   7.307  0.9395 -0.2836  0.3039
 1748SOL    HW216881   0.274   3.785   7.310  0.8847  0.6428  0.4510
 1749SOL     OW16882   4.163   0.893  10.314 -0.4920  0.0163 -0.1474
 1749SOL    HW116883   4.253   0.871  10.288 -1.0886  1.3590 -3.2773
 1749SOL    HW216884   4.165   0.960  10.383 -0.0990 -1.2901  1.1352
 1750SOL     OW16885   0.001   3.042   4.327 -0.1310 -0.4306 -0.3790
 1750SOL    HW116886   4.723   3.110   4.262 -1.0298  1.4822  1.8767
 1750SOL    HW216887   0.001   2.967   4.269 -0.1720 -1.0572  0.4263
 1751SOL     OW16888   1.530   2.676   4.851  0.3674 -0.2334 -0.0975
 1751SOL    HW116889   1.517   2.742   4.919  1.0153 -0.4263  0.2096
 1751SOL    HW216890   1.598   2.717   4.799  0.0925  1.2246  0.6985
 1752SOL     OW16891   3.057   0.225   1.682 -0.5081 -0.1253  0.0710
 1752SOL    HW116892   3.040   0.143   1.635 -1.7956  0.5985 -0.7503
 1752SOL    HW216893   3.149   0.214   1.706 -0.7035  0.2324  1.0030
 1753SOL     OW16894   2.095   2.902   5.865  0.0316 -0.3076  0.3019
 1753SOL    HW116895   2.189   2.891   5.879  0.5050  1.6435 -1.2667
 1753SOL    HW216896   2.087   2.918   5.771  2.9988  0.2674  0.1543
 1754SOL     OW16897   2.151   4.149   7.676  0.0298 -0.4086  0.1062
 1754SOL    HW116898   2.081   4.121   7.734 -0.3688 -1.1328 -0.7213
 1754SOL    HW216899   2.133   4.091   7.602  2.3964  0.9524 -1.5753
 1755SOL     OW16900   3.657   2.929   7.023  0.0174  1.0541  0.3631
 1755SOL    HW116901   3.680   2.844   6.987 -1.0058  0.6130  0.7384
 1755SOL    HW216902   3.597   2.904   7.093  0.3615  0.4908  0.4593
 1756SOL     OW16903   0.241   1.300  14.964 -0.3736 -0.3718  0.1610
 1756SOL    HW116904   0.246   1.211  14.930 -0.7386 -0.6602  0.8836
 1756SOL    HW216905   0.228   1.360  14.890  1.7872  0.4529  0.4279
 1757SOL     OW16906   4.389   0.390   5.100 -0.3561 -0.1177  0.5129
 1757SOL    HW116907   4.350   0.472   5.067 -0.8846 -0.2519  0.8029
 1757SOL    HW216908   4.384   0.410   5.193 -1.3636  0.5235  0.3245
 1758SOL     OW16909   2.732   1.121  12.636 -0.0956  0.2966  0.4041
 1758SOL    HW116910   2.746   1.195  12.577 -1.1283  0.6922  0.6597
 1758SOL    HW216911   2.661   1.144  12.696  0.6610 -0.0666  1.4362
 1759SOL     OW16912   0.586   2.287  12.469  0.3891 -0.4752  0.2121
 1759SOL    HW116913   0.676   2.261  12.450  0.2674 -2.6624  2.6276
 1759SOL    HW216914   0.592   2.372  12.514 -0.5755 -0.7377  0.8362
 1760SOL     OW16915   3.432   2.526   3.504  0.0271  0.2992  0.5950
 1760SOL    HW116916   3.426   2.609   3.551 -1.7001  0.6119 -0.1643
 1760SOL    HW216917   3.341   2.496   3.514 -0.7083  2.0891 -0.5786
 1761SOL     OW16918   1.039   4.337  11.460 -0.1176  0.3225  0.2133
 1761SOL    HW116919   0.974   4.312  11.526  0.4815 -0.0367  0.6548
 1761SOL    HW216920   1.065   4.253  11.423 -2.7946 -1.1733  1.6664
 1762SOL     OW16921   1.139   2.549   8.776 -0.5272  0.6756  0.7521
 1762SOL    HW116922   1.137   2.460   8.812  1.0837 -0.8427 -2.9201
 1762SOL    HW216923   1.045   2.563   8.791 -0.8522  0.8495 -1.3938
 1763SOL     OW16924   1.513   0.289   3.602 -0.2361 -0.4751 -0.8627
 1763SOL    HW116925   1.558   0.290   3.518 -0.3345  0.7180 -0.8981
 1763SOL    HW216926   1.481   0.379   3.609  1.6949  0.1256  0.4844
 1764SOL     OW16927   0.713   3.273   4.041  0.0104  0.2967 -0.2846
 1764SOL    HW116928   0.724   3.334   3.969  0.2956 -0.7617 -1.1351
 1764SOL    HW216929   0.794   3.223   4.033  0.6980  1.4147 -0.2688
 1765SOL     OW16930   2.151   0.238  16.326 -0.3129  0.1980  0.2640
 1765SOL    HW116931   2.230   0.187  16.345 -0.2730 -0.5609 -1.9112
 1765SOL    HW216932   2.156   0.232  16.230  0.4970  1.6834  0.2027
 1766SOL     OW16933   3.981   1.134   2.957 -0.4853  0.2333  0.6891
 1766SOL    HW116934   3.978   1.105   2.866  2.4118  1.6599  0.1446
 1766SOL    HW216935   3.892   1.169   2.966 -1.5265 -2.6960  1.9815
 1767SOL     OW16936   2.085   0.541   9.360  0.2584 -0.5977 -0.4414
 1767SOL    HW116937   2.115   0.609   9.420  1.8344 -0.9877 -0.7866
 1767SOL    HW216938   2.005   0.503   9.397 -0.2930  1.3589  0.4015
 1768SOL     OW16939   4.321   2.014   6.700  0.5604 -0.3882  0.2360
 1768SOL    HW116940   4.329   2.105   6.672  0.9549 -0.9930 -1.6015
 1768SOL    HW216941   4.394   1.981   6.648  1.4646  1.3827  0.3832
 1769SOL     OW16942   1.185   3.204   7.769 -0.1961 -0.1981 -0.0012
 1769SOL    HW116943   1.277   3.208   7.793  0.2500 -0.4654 -1.6845
 1769SOL    HW216944   1.138   3.181   7.850 -0.9293  1.2034 -0.0264
 1770SOL     OW16945   0.164   1.577  16.253 -0.2150  0.0994  0.2807
 1770SOL    HW116946   0.224   1.652  16.245  0.0918 -0.0592  1.0912
 1770SOL    HW216947   0.160   1.563  16.348 -1.0442  1.4136  0.4397
 1771SOL     OW16948   4.388   1.167   7.815 -0.5193 -0.1747 -0.1580
 1771SOL    HW116949   4.330   1.182   7.740  2.0261  0.3106 -2.0138
 1771SOL    HW216950   4.473   1.138   7.783 -1.3302 -1.7418 -0.9156
 1772SOL     OW16951   4.176   2.602   0.178  0.3141 -0.1820  0.0498
 1772SOL    HW116952   4.246   2.556   0.225 -0.4845 -0.1374  1.2895
 1772SOL    HW216953   4.113   2.625   0.246 -0.0632 -0.7295 -0.1134
 1773SOL     OW16954   0.135   4.562   6.416 -0.2007 -1.1242 -0.0188
 1773SOL    HW116955   0.120   4.591   6.506  0.2203 -1.5563  0.1854
 1773SOL    HW216956   0.045   4.546   6.387 -0.5870  2.4239 -0.8911
 1774SOL     OW16957   1.207   3.912  15.831 -0.6666 -0.1222 -0.1584
 1774SOL    HW116958   1.156   3.951  15.902  0.0969 -0.0911  0.3724
 1774SOL    HW216959   1.171   3.950  15.751 -2.2087  1.3102  1.2164
 1775SOL     OW16960   2.802   0.928   2.539  0.5982  0.3025  0.3176
 1775SOL    HW116961   2.854   1.007   2.529  1.9294 -0.4904  0.9742
 1775SOL    HW216962   2.723   0.946   2.488  0.8029 -0.3626 -0.2494
 1776SOL     OW16963   0.419   1.153  15.238  0.4092  0.1512  0.2371
 1776SOL    HW116964   0.400   1.103  15.318  0.8751  1.2818  1.0617
 1776SOL    HW216965   0.337   1.194  15.212  0.3434 -1.0030 -1.3712
 1777SOL     OW16966   1.338   1.099   8.751  0.0260  0.1398  0.8898
 1777SOL    HW116967   1.368   1.009   8.757  1.1846  0.4320 -0.5728
 1777SOL    HW216968   1.349   1.127   8.842 -0.6388  1.2945  0.6284
 1778SOL     OW16969   1.142   1.587   7.855  0.3253 -0.0394 -0.7798
 1778SOL    HW116970   1.161   1.552   7.768 -1.1921 -1.0657 -0.7026
 1778SOL    HW216971   1.111   1.503   7.891  1.8181 -0.4768 -0.5233
 1779SOL     OW16972   0.739   1.401  17.724 -0.5301  0.1051 -0.4924
 1779SOL    HW116973   0.765   1.330   0.025  1.8128 -0.6136 -2.3962
 1779SOL    HW216974   0.808   1.396  17.658  1.6783  1.2764  1.7377
 1780SOL     OW16975   4.634   2.871   5.740  0.7105 -0.0622  0.3390
 1780SOL    HW116976   4.615   2.922   5.819  0.3373 -2.8287  2.0348
 1780SOL    HW216977   4.698   2.926   5.695 -0.3139 -1.0386 -2.3297
 1781SOL     OW16978   4.312   3.224   3.774  0.2029  0.0565  0.0598
 1781SOL    HW116979   4.357   3.299   3.813 -1.0233 -0.4232  2.4031
 1781SOL    HW216980   4.236   3.260   3.728 -0.2580 -0.2700  0.5638
 1782SOL     OW16981   2.205   0.807   9.284  0.0391  0.6641  0.1420
 1782SOL    HW116982   2.282   0.781   9.335 -1.0369 -0.2487  1.3164
 1782SOL    HW216983   2.244   0.834   9.201 -0.7622 -3.3227 -1.5263
 1783SOL     OW16984   1.261   0.951  13.320 -0.0239 -0.0125  0.2831
 1783SOL    HW116985   1.238   0.885  13.254  2.0999 -0.9026  0.4447
 1783SOL    HW216986   1.228   0.906  13.398 -0.4460 -1.3612 -0.6590
 1784SOL     OW16987   3.527   3.807  15.932  0.1020  0.9254 -0.1034
 1784SOL    HW116988   3.487   3.893  15.947  0.0524  0.9057 -0.1249
 1784SOL    HW216989   3.587   3.820  15.858  1.0606 -2.2338  0.1149
 1785SOL     OW16990   1.687   3.394   6.123 -0.3475  0.0641 -0.6200
 1785SOL    HW116991   1.762   3.371   6.067  0.1185 -0.9329  0.4108
 1785SOL    HW216992   1.689   3.318   6.181 -2.3790 -1.0003 -1.9649
 1786SOL     OW16993   4.279   2.789  10.264  0.1673 -0.1715 -0.0805
 1786SOL    HW116994   4.196   2.768  10.306  0.5098 -1.8182 -0.2240
 1786SOL    HW216995   4.262   2.881  10.242 -0.2966 -0.0779  0.6694
 1787SOL     OW16996   3.074   1.604   8.475 -0.2699 -0.8757 -0.1879
 1787SOL    HW116997   2.985   1.584   8.504 -1.1897  3.5343 -0.0169
 1787SOL    HW216998   3.080   1.699   8.490  0.4759 -1.0406  0.5629
 1788SOL     OW16999   3.732   0.435   2.495  0.2015  0.7074 -0.6305
 1788SOL    HW117000   3.713   0.523   2.527 -1.3615  1.0481 -2.4642
 1788SOL    HW217001   3.658   0.403   2.444  0.0969  0.4970 -0.3455
 1789SOL     OW17002   0.510   3.338  16.725  0.3676 -0.6695 -0.5861
 1789SOL    HW117003   0.557   3.291  16.794 -0.0166 -1.2401 -0.7107
 1789SOL    HW217004   0.453   3.269  16.691  1.4882 -1.4773 -0.7938
 1790SOL     OW17005   1.579   0.465  11.360  0.0574  0.1981  0.1544
 1790SOL    HW117006   1.622   0.473  11.275 -1.5690  3.6097 -0.3296
 1790SOL    HW217007   1.488   0.441  11.340  0.0232  1.4753 -1.1874
 1791SOL     OW17008   3.559   0.086  13.328  0.1545  0.1776 -0.5151
 1791SOL    HW117009   3.535   0.016  13.267 -0.0553  1.3456 -1.7650
 1791SOL    HW217010   3.622   0.034  13.379 -1.4789 -1.0694  0.2187
 1792SOL     OW17011   4.259   4.071   8.443  0.6101 -0.3282 -0.1249
 1792SOL    HW117012   4.217   3.987   8.425  2.2032 -1.0121 -0.6581
 1792SOL    HW217013   4.203   4.118   8.381  1.3823  1.3068  0.4279
 1793SOL     OW17014   1.187   4.370   4.631 -0.2114  0.0910 -0.4522
 1793SOL    HW117015   1.191   4.364   4.726  1.1568  4.3275 -0.2313
 1793SOL    HW217016   1.156   4.282   4.612 -2.4930  0.7145  0.3080
 1794SOL     OW17017   3.250   3.834   7.448 -0.1131  0.3753 -0.0285
 1794SOL    HW117018   3.300   3.802   7.522 -0.2865  1.2395  0.4585
 1794SOL    HW217019   3.164   3.850   7.487 -1.5537 -2.8113 -1.8868
 1795SOL     OW17020   1.656   1.479   9.299 -0.6874 -0.2434 -0.0995
 1795SOL    HW117021   1.742   1.521   9.298  0.2071 -2.0866  0.4933
 1795SOL    HW217022   1.644   1.473   9.204 -0.3114 -1.1458 -0.0828
 1796SOL     OW17023   2.049   3.585   1.416 -0.4847 -0.0654  0.8352
 1796SOL    HW117024   2.104   3.663   1.404  0.2791 -0.5716  1.0967
 1796SOL    HW217025   2.037   3.570   1.322 -0.1549  2.2100  0.4202
 1797SOL     OW17026   2.564   2.215   7.283 -0.0391 -0.3598 -0.5817
 1797SOL    HW117027   2.600   2.219   7.372  0.8226  1.3283 -1.0004
 1797SOL    HW217028   2.591   2.128   7.252  0.7960 -0.4882  0.4949
 1798SOL     OW17029   1.032   0.611   4.878 -0.2247  0.4666 -0.5336
 1798SOL    HW117030   0.976   0.557   4.934 -0.5545  0.1052 -1.2203
 1798SOL    HW217031   1.012   0.564   4.797 -0.2015  0.4951 -0.5558
 1799SOL     OW17032   1.279   3.131   5.001 -0.1133 -0.3425  0.3570
 1799SOL    HW117033   1.220   3.206   4.991 -1.6786 -1.7498 -1.1377
 1799SOL    HW217034   1.219   3.057   4.987 -1.5599  0.5748  1.8376
 1800SOL     OW17035   3.563   1.467   0.037  0.3959 -0.6156  0.3702
 1800SOL    HW117036   3.609   1.405   0.095 -1.4513 -1.3248  1.0802
 1800SOL    HW217037   3.615   1.452  17.716  2.1049 -0.3455  1.4578
 1801SOL     OW17038   3.263   3.578   7.277 -0.2918 -0.5388  0.0350
 1801SOL    HW117039   3.262   3.654   7.335  0.7422 -3.1019  3.4163
 1801SOL    HW217040   3.308   3.517   7.336 -0.6917 -0.9026 -0.0366
 1802SOL     OW17041   0.498   2.067   6.775 -0.8988 -0.0994 -0.4175
 1802SOL    HW117042   0.429   2.009   6.744  0.2479 -2.1775  0.9476
 1802SOL    HW217043   0.479   2.139   6.714  1.2889 -1.0521 -2.2312
 1803SOL     OW17044   2.450   0.809   6.142  0.0301  0.2329  0.6437
 1803SOL    HW117045   2.537   0.848   6.151  0.6141 -0.9969  0.2799
 1803SOL    HW217046   2.414   0.859   6.068 -3.0000 -1.4646  0.9822
 1804SOL     OW17047   1.476   3.663   8.289 -0.4388  0.0188  0.5273
 1804SOL    HW117048   1.403   3.701   8.337  1.2523  1.6806  1.8231
 1804SOL    HW217049   1.451   3.671   8.197  0.5002 -1.1028  0.1602
 1805SOL     OW17050   1.840   3.314   1.693 -0.4470  0.1401  0.0102
 1805SOL    HW117051   1.928   3.336   1.725 -0.8320 -0.9408  1.8174
 1805SOL    HW217052   1.833   3.219   1.691 -0.2569  0.1664 -1.5874
 1806SOL     OW17053   3.454   2.353   7.583  0.3314 -0.0656 -0.7838
 1806SOL    HW117054   3.394   2.283   7.607  0.0885  0.6235  0.6174
 1806SOL    HW217055   3.455   2.410   7.659  0.9533 -1.1222 -0.0026
 1807SOL     OW17056   3.817   0.888  10.892  0.5289  0.4583 -0.1702
 1807SOL    HW117057   3.879   0.953  10.925  2.7059  0.4544 -4.1986
 1807SOL    HW217058   3.802   0.830  10.966 -1.5186  0.0695 -0.8864
 1808SOL     OW17059   1.900   3.709   5.708  0.6281  0.7562 -0.3011
 1808SOL    HW117060   1.867   3.633   5.755  1.8795  0.9632  0.9028
 1808SOL    HW217061   1.920   3.670   5.623 -1.2270 -1.7466  0.4104
 1809SOL     OW17062   3.995   1.253   4.899  0.2775 -0.6984  0.1088
 1809SOL    HW117063   4.015   1.174   4.949  0.6234 -0.0698  0.9829
 1809SOL    HW217064   4.027   1.316   4.965 -0.8890  0.0002  0.0018
 1810SOL     OW17065   4.084   4.032   5.479  0.3338  0.1271 -0.2442
 1810SOL    HW117066   4.000   4.028   5.525  0.1311  0.9413 -0.5524
 1810SOL    HW217067   4.079   4.127   5.469 -0.1816  0.0042 -1.1183
 1811SOL     OW17068   2.932   1.662   7.208  0.2865 -0.3927  0.3007
 1811SOL    HW117069   2.974   1.725   7.150 -1.6686  0.2927 -0.3673
 1811SOL    HW217070   2.899   1.709   7.284 -0.8101 -0.2267 -0.2741
 1812SOL     OW17071   0.696   1.239   4.329 -0.3402  0.0466  0.2017
 1812SOL    HW117072   0.691   1.211   4.420  0.2378  0.7807  0.4626
 1812SOL    HW217073   0.756   1.314   4.328 -0.6578  0.2925 -1.1348
 1813SOL     OW17074   1.541   2.090   5.708  0.0022  0.1024  0.0078
 1813SOL    HW117075   1.546   2.030   5.782 -0.9165  0.8834  0.7062
 1813SOL    HW217076   1.606   2.150   5.744  1.2536  0.0323 -2.1220
 1814SOL     OW17077   3.108   0.809   0.774  0.6275 -0.6662 -0.4282
 1814SOL    HW117078   3.141   0.736   0.826 -0.2132 -1.4720 -1.0359
 1814SOL    HW217079   3.173   0.877   0.793 -0.4980  0.2716  0.0672
 1815SOL     OW17080   1.078   1.914   5.728  0.5500  0.1347 -0.2883
 1815SOL    HW117081   1.107   1.863   5.653  1.2731 -1.5420  1.1103
 1815SOL    HW217082   1.104   2.002   5.702  0.5177  0.2581  0.0940
 1816SOL     OW17083   0.728   0.842  16.721 -0.1604 -0.1039  0.0951
 1816SOL    HW117084   0.800   0.778  16.719  1.8298  2.1421 -0.2095
 1816SOL    HW217085   0.762   0.917  16.674  2.1831 -1.9658 -1.1707
 1817SOL     OW17086   1.687   4.150   9.320 -0.3328  0.7084 -0.0576
 1817SOL    HW117087   1.716   4.213   9.254  1.4694  0.7647  0.7784
 1817SOL    HW217088   1.772   4.115   9.349 -0.3727  0.6729  0.0146
 1818SOL     OW17089   3.625   2.457  10.214  0.4269  0.0184 -0.1059
 1818SOL    HW117090   3.567   2.382  10.224 -0.9508  1.3309  1.7235
 1818SOL    HW217091   3.710   2.416  10.229  0.5418  0.5905  0.7707
 1819SOL     OW17092   2.095   2.146   7.071 -0.3085  0.2473  0.2761
 1819SOL    HW117093   2.162   2.105   7.017 -1.4555 -1.2967  0.0170
 1819SOL    HW217094   2.138   2.221   7.111  0.3286 -0.8514  1.6641
 1820SOL     OW17095   2.672   0.049   7.761 -0.1435 -0.3932  0.2037
 1820SOL    HW117096   2.622   0.084   7.688  1.3718 -1.2126 -1.2269
 1820SOL    HW217097   2.725   0.124   7.785  0.1967 -0.1620 -1.3091
 1821SOL     OW17098   1.104   3.952   9.733  0.0338  0.0551  0.8237
 1821SOL    HW117099   1.018   3.991   9.748 -1.0329 -1.2001 -2.1248
 1821SOL    HW217100   1.138   4.018   9.673  1.5096 -1.1360  0.3567
 1822SOL     OW17101   3.823   1.400   7.438  0.2643 -0.3612  0.2184
 1822SOL    HW117102   3.803   1.310   7.411  2.3703 -0.4316 -1.1403
 1822SOL    HW217103   3.829   1.428   7.347 -1.1704 -0.2503  0.1613
 1823SOL     OW17104   3.309   3.834   0.319  0.5559 -0.0553 -0.2138
 1823SOL    HW117105   3.334   3.748   0.353 -0.1733  1.1327  3.2214
 1823SOL    HW217106   3.340   3.897   0.383  1.8375 -0.5306 -0.3537
 1824SOL     OW17107   2.389   3.076   3.228 -0.1798  0.2071  0.3534
 1824SOL    HW117108   2.347   3.149   3.274 -0.3837  0.0475  0.4190
 1824SOL    HW217109   2.395   3.106   3.138 -3.5941  0.2310  0.1399
 1825SOL     OW17110   2.926   4.210   2.276  0.1555  0.5608  0.3364
 1825SOL    HW117111   2.904   4.256   2.358  0.9169 -0.3780  1.0690
 1825SOL    HW217112   3.004   4.162   2.301 -0.8133 -1.6768 -0.9792
 1826SOL     OW17113   4.345   3.675   4.194 -0.1103  0.2680  0.3690
 1826SOL    HW117114   4.414   3.610   4.213 -0.9470 -1.1643 -1.4482
 1826SOL    HW217115   4.337   3.658   4.100  1.4709  0.6484  0.1640
 1827SOL     OW17116   2.102   3.908   3.899 -0.4360 -0.0884 -0.4803
 1827SOL    HW117117   2.073   3.858   3.823  0.2809 -2.2105  0.6435
 1827SOL    HW217118   2.138   3.975   3.840 -0.5715 -2.2472 -3.0050
 1828SOL     OW17119   1.832   4.667  15.931  0.1730 -0.1163  0.8214
 1828SOL    HW117120   1.863   4.651  16.020  0.8232  0.3260  0.6775
 1828SOL    HW217121   1.909   4.651  15.875  0.6434  1.8611  0.9003
 1829SOL     OW17122   3.596   3.312  11.866  0.2467  0.6343  0.3495
 1829SOL    HW117123   3.560   3.316  11.955  0.1313 -2.8965  0.4421
 1829SOL    HW217124   3.670   3.253  11.866  1.5850  2.3097  1.5740
 1830SOL     OW17125   2.727   2.828  15.505  0.3959  0.5348 -0.1749
 1830SOL    HW117126   2.778   2.908  15.517  1.0575 -0.0157  0.6569
 1830SOL    HW217127   2.653   2.862  15.455 -1.0620 -0.0640  1.6087
 1831SOL     OW17128   0.827   1.245   3.900  0.2470 -0.0886 -0.4394
 1831SOL    HW117129   0.911   1.241   3.854 -0.5650  0.6773 -2.0015
 1831SOL    HW217130   0.846   1.209   3.986 -0.5472 -3.0439 -1.4987
 1832SOL     OW17131   3.851   3.199   6.728  0.2941 -0.0254  0.7886
 1832SOL    HW117132   3.822   3.286   6.700  2.3957 -0.4153 -2.5789
 1832SOL    HW217133   3.767   3.155   6.712  0.3781  0.8289 -1.8522
 1833SOL     OW17134   4.536   2.273   8.557  0.2755  0.2590  0.1049
 1833SOL    HW117135   4.517   2.181   8.575  1.0727 -0.0698 -0.7017
 1833SOL    HW217136   4.511   2.317   8.638  0.8491  0.7401  0.0234
 1834SOL     OW17137   3.269   0.524   7.104  0.0901 -0.0591 -0.3059
 1834SOL    HW117138   3.318   0.594   7.062  1.4875 -0.2999  0.9426
 1834SOL    HW217139   3.198   0.583   7.128  0.3944  0.2774 -0.2477
 1835SOL     OW17140   1.995   0.713   3.899 -0.1631 -0.2553 -0.1425
 1835SOL    HW117141   2.072   0.767   3.916  0.4100 -1.3654  0.7828
 1835SOL    HW217142   2.040   0.630   3.882 -0.2247 -0.0926 -1.1228
 1836SOL     OW17143   4.655   2.133  11.321 -0.1228 -0.5046 -0.1005
 1836SOL    HW117144   4.667   2.135  11.415 -0.3218 -0.5906 -0.0736
 1836SOL    HW217145   4.612   2.049  11.309 -1.1546  0.0146 -0.0411
 1837SOL     OW17146   3.453   3.548  11.874 -0.7694 -0.0888  0.2653
 1837SOL    HW117147   3.512   3.621  11.855  1.6114 -2.2086 -0.6568
 1837SOL    HW217148   3.515   3.476  11.858 -1.5397 -0.9937  1.3184
 1838SOL     OW17149   2.923   2.071   6.131  0.2298 -0.7639  0.2608
 1838SOL    HW117150   2.929   2.142   6.196 -0.1934 -1.4966  1.0992
 1838SOL    HW217151   3.004   2.082   6.081  0.4190  0.4301  0.8111
 1839SOL     OW17152   0.634   4.204   4.928 -0.1531  0.1602  0.5469
 1839SOL    HW117153   0.614   4.177   5.018  0.3008  0.2799  0.6839
 1839SOL    HW217154   0.729   4.212   4.922 -0.1914 -1.3211 -2.3530
 1840SOL     OW17155   2.856   0.784   2.054  0.0837  0.2682  0.0808
 1840SOL    HW117156   2.940   0.773   2.097 -0.1837  0.0065  0.5429
 1840SOL    HW217157   2.808   0.747   2.128 -1.5513 -0.2466 -1.2320
 1841SOL     OW17158   2.291   3.798   4.554  0.6723 -0.0593  0.1499
 1841SOL    HW117159   2.257   3.791   4.643  2.3405 -1.9840  0.6409
 1841SOL    HW217160   2.264   3.884   4.520 -0.8528 -0.3505  0.6248
 1842SOL     OW17161   2.713   3.543  13.567  0.0814  0.1608 -0.0204
 1842SOL    HW117162   2.649   3.477  13.593 -1.5602  2.1619  1.0568
 1842SOL    HW217163   2.687   3.616  13.623 -0.3118 -1.1159  1.4773
 1843SOL     OW17164   0.926   0.647  14.990 -0.1426 -0.2763 -0.1276
 1843SOL    HW117165   1.003   0.606  14.950 -1.6506 -1.5577 -1.7341
 1843SOL    HW217166   0.939   0.740  15.004 -1.4770  0.0116 -0.7855
 1844SOL     OW17167   3.795   0.194   1.520 -0.1489  0.5371 -0.1940
 1844SOL    HW117168   3.767   0.116   1.569  0.1949  1.7477  1.9335
 1844SOL    HW217169   3.824   0.258   1.585 -1.1988  2.1734 -1.3438
 1845SOL     OW17170   2.640   1.967   6.025  0.0111 -0.4351 -0.0197
 1845SOL    HW117171   2.602   2.035   5.969  0.0783 -1.8692 -1.8047
 1845SOL    HW217172   2.731   1.991   6.011  0.1309 -0.5695  0.5291
 1846SOL     OW17173   0.545   4.653   4.353  0.2056 -0.1692 -0.1465
 1846SOL    HW117174   0.505   4.722   4.301  1.0886  1.3648  1.2098
 1846SOL    HW217175   0.473   4.591   4.346 -0.4541  0.5873  0.0260
 1847SOL     OW17176   3.416   3.024   3.229  0.0388 -0.2283  0.0821
 1847SOL    HW117177   3.437   3.080   3.303  0.5126  1.1395 -1.0854
 1847SOL    HW217178   3.442   2.939   3.265  2.3652 -0.0284 -1.0754
 1848SOL     OW17179   3.310   1.017  16.893  0.0656 -0.0513 -0.7246
 1848SOL    HW117180   3.371   1.086  16.864  1.0577 -1.1790 -1.3130
 1848SOL    HW217181   3.250   1.030  16.819 -4.1508  0.5506  2.8354
 1849SOL     OW17182   3.642   0.864   2.827  0.2679 -0.2420 -1.1029
 1849SOL    HW117183   3.712   0.804   2.798  3.3891  2.0407  1.6618
 1849SOL    HW217184   3.699   0.920   2.881 -0.9629  0.5617 -0.6299
 1850SOL     OW17185   4.651   1.892  17.372  0.4185 -0.1099  0.4157
 1850SOL    HW117186   4.576   1.932  17.327  1.7580  0.5229 -1.2225
 1850SOL    HW217187   4.649   1.804  17.334  1.1592 -0.0504  0.2428
 1851SOL     OW17188   2.139   1.912  13.719 -0.3216  0.2874  0.3377
 1851SOL    HW117189   2.111   1.897  13.629  2.6121 -0.6747 -0.4148
 1851SOL    HW217190   2.081   1.851  13.765  1.2084  0.5731  2.6630
 1852SOL     OW17191   0.268   1.519   1.575  0.2046 -0.4242 -0.4481
 1852SOL    HW117192   0.187   1.542   1.621 -0.1476 -0.1064 -1.2134
 1852SOL    HW217193   0.243   1.502   1.484 -1.1950  0.8583 -0.3154
 1853SOL     OW17194   0.451   3.473   5.923  0.2087  0.2028 -0.3552
 1853SOL    HW117195   0.379   3.416   5.948 -0.9776  2.0524  0.4533
 1853SOL    HW217196   0.496   3.483   6.007 -1.5838  2.8196  0.3152
 1854SOL     OW17197   1.255   2.963   7.066  0.5152  0.6424  0.2499
 1854SOL    HW117198   1.188   2.990   7.128 -2.3331  0.0799 -2.5993
 1854SOL    HW217199   1.335   2.998   7.106 -0.8619 -0.6277  4.0403
 1855SOL     OW17200   4.572   3.935  15.154  0.0990 -0.1151  0.0257
 1855SOL    HW117201   4.499   3.934  15.216 -0.6765  0.4555 -0.8764
 1855SOL    HW217202   4.579   4.027  15.130  0.1278  0.2299  1.3651
 1856SOL     OW17203   3.389   2.658   2.143  0.4854 -0.5534 -0.5002
 1856SOL    HW117204   3.458   2.695   2.199  0.0340  0.2328 -0.4589
 1856SOL    HW217205   3.435   2.663   2.059  0.5146  1.5490 -0.3632
 1857SOL     OW17206   0.693   3.082   6.927 -0.4863  0.1892  0.3989
 1857SOL    HW117207   0.668   3.023   6.999 -1.9836 -0.1973 -0.4305
 1857SOL    HW217208   0.614   3.106   6.879 -1.9311 -0.5882  2.3668
 1858SOL     OW17209   2.350   2.015  12.911  0.1734 -0.2908  0.2707
 1858SOL    HW117210   2.402   2.090  12.882  4.6496 -3.8007 -0.9230
 1858SOL    HW217211   2.395   1.936  12.880  2.1875  0.1906  1.9477
 1859SOL     OW17212   3.906   1.252  12.519  0.6448 -0.0982 -0.2771
 1859SOL    HW117213   3.859   1.249  12.435  0.6709 -2.6193 -0.2142
 1859SOL    HW217214   3.917   1.167  12.561  2.8237  0.0601 -0.5274
 1860SOL     OW17215   2.886   0.354   7.978 -0.3585  0.0693 -0.4156
 1860SOL    HW117216   2.963   0.340   8.034 -2.0909  0.4141  2.0910
 1860SOL    HW217217   2.921   0.416   7.915  0.8796  0.2251  0.4226
 1861SOL     OW17218   1.833   2.854   3.166 -0.5820  0.2893 -0.1416
 1861SOL    HW117219   1.919   2.826   3.135 -0.8259 -1.4188  0.7506
 1861SOL    HW217220   1.840   2.950   3.161  0.8735  0.2870  1.5715
 1862SOL     OW17221   1.712   3.177  11.970 -0.3047 -0.2031  0.0193
 1862SOL    HW117222   1.798   3.199  11.934  0.5524 -1.9680  0.9693
 1862SOL    HW217223   1.735   3.178  12.063  2.1267  2.7392 -0.6310
 1863SOL     OW17224   3.821   0.677   2.745  0.2842 -0.0011  0.3023
 1863SOL    HW117225   3.824   0.626   2.826 -1.0394 -1.5913 -0.6625
 1863SOL    HW217226   3.909   0.663   2.711  0.4566  2.0278 -0.0511
 1864SOL     OW17227   4.435   2.444   8.342  0.7168  0.8935 -0.3142
 1864SOL    HW117228   4.487   2.408   8.414 -1.2220  1.3585  1.3148
 1864SOL    HW217229   4.442   2.538   8.359  2.5881  0.5097  0.9934
 1865SOL     OW17230   3.203   0.383   4.774 -0.2645  0.2700 -0.0370
 1865SOL    HW117231   3.193   0.298   4.731 -0.5440 -0.5748  1.7046
 1865SOL    HW217232   3.136   0.367   4.840 -0.2657  0.2519 -0.0427
 1866SOL     OW17233   2.433   1.541   3.321  0.2654  0.1978  0.0241
 1866SOL    HW117234   2.442   1.600   3.246 -1.8138  0.6196  0.0981
 1866SOL    HW217235   2.501   1.569   3.382 -0.5122  0.9486  0.5472
 1867SOL     OW17236   0.881   4.231   2.862 -0.0044 -0.4162  0.2703
 1867SOL    HW117237   0.898   4.169   2.934  0.0110 -0.9889 -0.2218
 1867SOL    HW217238   0.968   4.266   2.842 -0.8726  1.7733  0.3287
 1868SOL     OW17239   1.243   1.441   2.802 -0.2049 -0.5389  0.3200
 1868SOL    HW117240   1.195   1.504   2.748  2.1909 -1.0564 -2.3941
 1868SOL    HW217241   1.288   1.496   2.866 -1.0537  1.1966 -0.5670
 1869SOL     OW17242   0.182   4.269   3.689 -0.1399 -0.1168 -0.4880
 1869SOL    HW117243   0.114   4.283   3.755 -0.4145 -0.9707 -0.5923
 1869SOL    HW217244   0.261   4.243   3.736 -1.1520  1.1457  1.9176
 1870SOL     OW17245   0.832   3.004  15.178  0.1738  0.2768 -0.0137
 1870SOL    HW117246   0.792   3.080  15.221  0.7155  0.0017  0.9823
 1870SOL    HW217247   0.899   2.979  15.242 -1.3076 -0.8869  1.0830
 1871SOL     OW17248   0.802   2.017   7.947 -0.0427  0.6476  0.4094
 1871SOL    HW117249   0.791   1.938   7.894 -1.4797  0.7902  0.4757
 1871SOL    HW217250   0.804   1.995   8.040  2.1401  0.5335  0.3294
 1872SOL     OW17251   3.800   4.602  16.902  0.2721  0.8500 -0.0658
 1872SOL    HW117252   3.852   4.622  16.979  0.3730  1.2845 -0.2493
 1872SOL    HW217253   3.715   4.579  16.940 -0.5997  1.4743 -1.6053
 1873SOL     OW17254   0.007   0.284   4.391 -0.2106  0.1418  0.4363
 1873SOL    HW117255   0.001   0.309   4.298 -0.1371  1.3525  0.7587
 1873SOL    HW217256   4.686   0.350   4.424 -1.4892 -0.2284 -1.1563
 1874SOL     OW17257   3.439   0.688   3.718 -0.1372 -0.2272 -0.3064
 1874SOL    HW117258   3.446   0.659   3.809  0.0175  1.3138  0.1716
 1874SOL    HW217259   3.371   0.755   3.723  0.1239  0.0234 -0.1306
 1875SOL     OW17260   4.582   3.237   1.891  0.6342  0.1337  0.1742
 1875SOL    HW117261   4.599   3.166   1.830  0.1783  0.9665 -0.9297
 1875SOL    HW217262   4.659   3.234   1.947  0.2730  0.4378  0.6915
 1876SOL     OW17263   0.883   1.981   9.691 -0.4193  0.2420 -0.3239
 1876SOL    HW117264   0.921   1.948   9.610  1.0449 -0.9837  0.8488
 1876SOL    HW217265   0.966   1.988   9.739  0.9162 -1.2489 -2.4130
 1877SOL     OW17266   3.342   4.168   8.038  0.0459  0.6365 -0.2455
 1877SOL    HW117267   3.254   4.199   8.017 -0.3528  0.2032  0.7930
 1877SOL    HW217268   3.368   4.232   8.104  0.1115 -1.2293  1.5274
 1878SOL     OW17269   2.127   0.079  13.522  0.1898  0.8616  0.3903
 1878SOL    HW117270   2.150   0.054  13.432  0.4599 -1.5558  1.1514
 1878SOL    HW217271   2.091   4.738  13.556 -0.0238  0.6142 -0.4249
 1879SOL     OW17272   0.817   0.776  14.473  0.1993  0.0714  0.2600
 1879SOL    HW117273   0.783   0.744  14.556  1.9620  1.0951  1.3722
 1879SOL    HW217274   0.771   0.859  14.460 -0.5687 -0.2704  0.8441
 1880SOL     OW17275   3.906   3.829  14.155 -0.0963  0.2463  0.5725
 1880SOL    HW117276   3.996   3.859  14.143 -0.0209 -0.2314 -0.0371
 1880SOL    HW217277   3.861   3.908  14.188 -3.4123 -0.7372 -1.5918
 1881SOL     OW17278   3.855   2.144  15.585  0.2028 -0.4993 -0.0765
 1881SOL    HW117279   3.942   2.105  15.599  0.9703  1.5432  0.9301
 1881SOL    HW217280   3.864   2.220  15.643  0.2672  0.2660 -1.1020
 1882SOL     OW17281   1.908   1.036   3.284  0.5068  0.0799 -0.2400
 1882SOL    HW117282   1.940   1.063   3.370  0.2285 -0.6503  0.0942
 1882SOL    HW217283   1.865   1.119   3.265  2.0860  0.3663 -2.5591
 1883SOL     OW17284   1.017   3.504   0.765  0.2680  0.0442  0.3814
 1883SOL    HW117285   0.994   3.415   0.737  1.3270 -0.9293  2.5517
 1883SOL    HW217286   1.000   3.554   0.686 -1.3964 -1.7064 -0.3822
 1884SOL     OW17287   1.264   3.156   2.700  0.2808  0.1666 -0.2750
 1884SOL    HW117288   1.327   3.085   2.703 -1.6521 -1.5412 -0.2296
 1884SOL    HW217289   1.177   3.124   2.676  0.6189  0.7546 -2.3663
 1885SOL     OW17290   0.579   0.487   0.293 -0.0449  0.3252  0.2283
 1885SOL    HW117291   0.498   0.438   0.296 -1.5414  2.6962 -0.9446
 1885SOL    HW217292   0.596   0.498   0.386 -1.2473  0.4712  0.4250
 1886SOL     OW17293   0.340   1.228   6.390 -0.5283 -0.3282 -0.1039
 1886SOL    HW117294   0.403   1.223   6.318 -0.2651 -0.7667  0.1571
 1886SOL    HW217295   0.260   1.238   6.339  0.4899  0.3573 -1.5903
 1887SOL     OW17296   4.620   1.183  12.203 -0.3233 -0.1671 -0.1884
 1887SOL    HW117297   4.691   1.118  12.203 -2.2120 -2.2474 -1.5331
 1887SOL    HW217298   4.567   1.155  12.278 -0.0556  1.7923  0.7340
 1888SOL     OW17299   1.864   1.019   2.801 -0.1532  0.6826 -0.1188
 1888SOL    HW117300   1.888   1.042   2.711 -0.5562  3.5586  0.5001
 1888SOL    HW217301   1.909   1.090   2.847 -2.1324  0.8024  1.6213
 1889SOL     OW17302   4.427   1.309   2.940  0.0703  0.3962  0.3949
 1889SOL    HW117303   4.406   1.331   3.031 -0.4924 -0.8371  0.5762
 1889SOL    HW217304   4.400   1.217   2.945  2.6786 -0.3690  0.3517
 1890SOL     OW17305   0.158   0.426  10.689 -0.2148 -0.7680 -0.4220
 1890SOL    HW117306   0.194   0.348  10.732  2.2940  0.3338 -0.5481
 1890SOL    HW217307   0.113   0.470  10.761  1.3335  2.3922 -1.4131
 1891SOL     OW17308   0.230   2.687   4.258  0.4998  0.2889 -0.1217
 1891SOL    HW117309   0.298   2.647   4.311 -1.3892  0.2625  2.2772
 1891SOL    HW217310   0.263   2.777   4.263 -2.4122  1.4345 -1.3572
 1892SOL     OW17311   4.392   4.435   6.049  0.1089 -0.1715  0.3125
 1892SOL    HW117312   4.334   4.503   6.083 -0.2527  0.1455 -0.9397
 1892SOL    HW217313   4.466   4.433   6.109  0.3824 -1.0436 -0.0571
 1893SOL     OW17314   1.068   4.020  14.505  0.2712  0.5512  0.3823
 1893SOL    HW117315   1.132   4.020  14.435  0.0009  1.8373  0.1280
 1893SOL    HW217316   1.041   3.929  14.498 -2.9683  1.5719 -0.7196
 1894SOL     OW17317   1.425   2.027   3.978  0.0014  0.0453 -0.1261
 1894SOL    HW117318   1.407   2.068   4.063 -1.6441 -0.2480 -0.3377
 1894SOL    HW217319   1.357   2.070   3.927  1.4510  3.0465  0.4279
 1895SOL     OW17320   3.629   0.029   4.550  0.7427 -0.0281 -0.1753
 1895SOL    HW117321   3.667   0.100   4.499 -2.3366  0.3413 -1.9433
 1895SOL    HW217322   3.714   0.007   4.589  0.3765 -2.3379 -0.7086
 1896SOL     OW17323   1.102   3.894   2.066 -0.3935 -0.2773  0.2978
 1896SOL    HW117324   1.152   3.973   2.046 -1.0627  0.7914  2.8903
 1896SOL    HW217325   1.058   3.926   2.145 -0.0458 -1.3603  0.9296
 1897SOL     OW17326   3.414   1.560   7.060  0.1873 -0.4149  0.0488
 1897SOL    HW117327   3.506   1.548   7.081 -0.2686  0.6122  2.5694
 1897SOL    HW217328   3.408   1.502   6.984  1.6231  0.4034 -0.6981
 1898SOL     OW17329   3.916   4.469   3.600 -0.2178 -0.2711 -0.6336
 1898SOL    HW117330   3.961   4.407   3.544  1.0774 -0.9212  1.1190
 1898SOL    HW217331   3.878   4.413   3.668  1.3019 -0.2145  0.2461
 1899SOL     OW17332   0.046   3.260   7.318  0.0323 -0.8676  0.2720
 1899SOL    HW117333   0.121   3.246   7.375  1.1745 -0.1320 -1.0551
 1899SOL    HW217334   0.002   3.337   7.356  0.6470 -1.1602  1.5773
 1900SOL     OW17335   3.786   4.491   5.366  0.0554  0.0959  0.2496
 1900SOL    HW117336   3.822   4.579   5.371 -0.1348  0.2170 -0.4349
 1900SOL    HW217337   3.733   4.489   5.286 -0.1865  0.6152  0.3954
 1901SOL     OW17338   1.563   4.395   6.019  0.0271 -0.0179  0.5403
 1901SOL    HW117339   1.477   4.390   5.978  0.4970  0.1528 -0.4672
 1901SOL    HW217340   1.534   4.345   6.096 -1.4678  1.3715  0.8902
 1902SOL     OW17341   3.720   3.936   5.737 -0.0400 -0.0597  1.1167
 1902SOL    HW117342   3.736   3.992   5.814  1.5846 -0.5268  1.1179
 1902SOL    HW217343   3.776   3.983   5.675  2.4511 -1.2751  2.4444
 1903SOL     OW17344   2.394   2.541   2.604 -0.3415 -0.3691  0.2651
 1903SOL    HW117345   2.371   2.591   2.525  0.0319 -1.8571 -0.7693
 1903SOL    HW217346   2.487   2.536   2.586 -0.7247 -3.3594 -0.8135
 1904SOL     OW17347   2.033   3.455   3.250 -0.4325 -0.3446 -0.0278
 1904SOL    HW117348   1.971   3.405   3.303  1.6391 -0.8875  1.9067
 1904SOL    HW217349   1.988   3.464   3.167  0.7225  1.4759 -0.4460
 1905SOL     OW17350   1.867   4.295  13.661 -0.3238  0.0162  0.2996
 1905SOL    HW117351   1.862   4.374  13.714 -0.5417 -0.5246  1.0877
 1905SOL    HW217352   1.776   4.265  13.665  0.2593 -1.4973  2.3130
 1906SOL     OW17353   0.752   0.507   4.946  0.3730  0.8208  0.3412
 1906SOL    HW117354   0.685   0.574   4.934 -1.4037 -1.1842 -0.9066
 1906SOL    HW217355   0.782   0.530   5.034  0.5943  0.5229  0.3447
 1907SOL     OW17356   3.545   3.484  11.493 -0.2986 -0.0791  0.4641
 1907SOL    HW117357   3.554   3.551  11.560  0.1511 -1.4739  1.7838
 1907SOL    HW217358   3.506   3.544  11.429 -1.1541 -0.1109  0.9642
 1908SOL     OW17359   2.310   4.566   3.419  0.0208 -0.1600 -0.1315
 1908SOL    HW117360   2.329   4.537   3.508  1.7457  0.8637 -0.1579
 1908SOL    HW217361   2.345   4.494   3.367 -0.2575  0.3772 -1.0836
 1909SOL     OW17362   3.621   3.997   2.919 -0.4056 -0.0628  0.2635
 1909SOL    HW117363   3.608   4.091   2.924  0.4042  0.1492 -1.6573
 1909SOL    HW217364   3.655   3.980   3.007  0.2704 -1.5295 -0.2710
 1910SOL     OW17365   3.493   1.779  12.212 -0.2560  0.1169 -0.3053
 1910SOL    HW117366   3.578   1.823  12.222 -0.4609 -0.3243  3.2240
 1910SOL    HW217367   3.435   1.852  12.236  1.6390  2.0707 -1.5904
 1911SOL     OW17368   2.205   0.936   8.114  0.1010 -0.3328 -0.1914
 1911SOL    HW117369   2.227   0.843   8.107 -0.5261 -0.5170  0.1901
 1911SOL    HW217370   2.267   0.964   8.181  0.0626 -2.1493  0.6029
 1912SOL     OW17371   1.024   2.456  17.189 -0.0957 -0.1633  0.4162
 1912SOL    HW117372   0.935   2.481  17.214  0.4648  0.0650  2.1705
 1912SOL    HW217373   1.060   2.507  17.116  1.2159 -0.8409  0.5806
 1913SOL     OW17374   4.234   2.640   8.003 -0.1065 -0.0055  0.2215
 1913SOL    HW117375   4.307   2.686   8.045  0.1692 -0.6881  0.4940
 1913SOL    HW217376   4.159   2.672   8.054 -1.9155 -0.4974 -2.1221
 1914SOL     OW17377   2.371   1.166   0.998 -0.0558 -0.4516 -0.3423
 1914SOL    HW117378   2.299   1.160   1.061  1.8525  3.0312  2.1977
 1914SOL    HW217379   2.328   1.112   0.933  0.7317 -0.6443 -0.7028
 1915SOL     OW17380   4.040   1.444   2.185  0.0465 -0.2580  0.3987
 1915SOL    HW117381   3.983   1.442   2.108  0.1386 -0.7086  0.3445
 1915SOL    HW217382   4.077   1.532   2.176 -3.9574  1.4403  0.4574
 1916SOL     OW17383   3.697   4.369   2.835 -0.2628  0.0939 -0.1441
 1916SOL    HW117384   3.635   4.393   2.904 -0.5978 -2.0113  0.2834
 1916SOL    HW217385   3.770   4.355   2.895 -0.6472 -0.4311  0.2022
 1917SOL     OW17386   2.497   2.672  12.170 -0.4627 -0.2360  0.0651
 1917SOL    HW117387   2.458   2.586  12.155 -2.5832  0.8652 -0.7958
 1917SOL    HW217388   2.505   2.684  12.265  0.1708 -0.4353  0.0341
 1918SOL     OW17389   1.129   2.258  13.427  0.3364 -0.5815 -0.3527
 1918SOL    HW117390   1.102   2.195  13.495 -1.0128  2.1399  1.6401
 1918SOL    HW217391   1.054   2.318  13.427  2.6255  2.2780 -2.4090
 1919SOL     OW17392   3.361   2.066   0.134  0.0246  0.6294  0.0697
 1919SOL    HW117393   3.395   1.996   0.079  1.6456  2.7796 -1.6845
 1919SOL    HW217394   3.417   2.056   0.211 -0.4590 -1.1359  0.1907
 1920SOL     OW17395   2.872   4.235   1.388  0.0854  0.3425  0.2076
 1920SOL    HW117396   2.817   4.160   1.411  0.3657  0.5320  1.5077
 1920SOL    HW217397   2.839   4.264   1.303  1.3651  0.9526 -0.0934
 1921SOL     OW17398   0.647   2.319   1.771  0.4896  0.0812 -0.5474
 1921SOL    HW117399   0.612   2.266   1.699  2.5927 -1.2212 -0.5918
 1921SOL    HW217400   0.587   2.302   1.843 -1.4492  1.9282 -1.7108
 1922SOL     OW17401   0.832   2.246   8.402 -0.8460 -0.0012 -0.2646
 1922SOL    HW117402   0.744   2.207   8.398 -0.1966 -1.4632 -0.4091
 1922SOL    HW217403   0.819   2.330   8.360  0.9221  0.2450 -0.3004
 1923SOL     OW17404   4.127   0.896   2.779 -0.8164  0.4022 -0.3326
 1923SOL    HW117405   4.196   0.833   2.799  0.7725  1.8724 -1.1305
 1923SOL    HW217406   4.133   0.906   2.684 -1.2625  2.4748 -0.1298
 1924SOL     OW17407   0.352   0.964  15.458  0.4867 -0.0331 -0.8071
 1924SOL    HW117408   0.429   0.908  15.467 -0.2403 -0.4944  2.6601
 1924SOL    HW217409   0.354   1.021  15.535  1.4351  0.0770 -0.9195
 1925SOL     OW17410   0.531   3.381   8.368  0.3383  0.4471  0.3733
 1925SOL    HW117411   0.558   3.298   8.408 -0.4612  1.0973  2.2506
 1925SOL    HW217412   0.619   3.404   8.338 -0.3858  0.4922 -1.6916
 1926SOL     OW17413   1.588   2.666   9.817 -0.3875  0.6474  0.6238
 1926SOL    HW117414   1.518   2.657   9.882 -0.4623 -0.2668  0.4154
 1926SOL    HW217415   1.644   2.734   9.855  1.4204 -1.4963  1.7904
 1927SOL     OW17416   1.772   2.176   5.881  0.0532  0.1330 -0.2567
 1927SOL    HW117417   1.837   2.242   5.857  1.2361 -1.0673 -0.3685
 1927SOL    HW217418   1.768   2.180   5.977  0.3916  2.1079 -0.3263
 1928SOL     OW17419   0.027   2.191  16.409  0.2512  0.7419  0.4314
 1928SOL    HW117420   4.709   2.218  16.481 -0.9076 -0.0778 -0.1941
 1928SOL    HW217421   4.712   2.211  16.334 -0.0527 -0.9949  0.1913
 1929SOL     OW17422   3.904   2.342   9.463 -0.1562  0.5262 -0.2288
 1929SOL    HW117423   3.860   2.374   9.384  0.3681  2.8769  0.4505
 1929SOL    HW217424   3.849   2.265   9.483  0.2487  0.7622  1.7831
 1930SOL     OW17425   0.235   2.315   7.692  0.1432 -0.4712 -0.1009
 1930SOL    HW117426   0.315   2.262   7.693  0.3212 -0.1823  0.7243
 1930SOL    HW217427   0.263   2.393   7.644  1.1061 -0.4527  0.4996
 1931SOL     OW17428   0.477   1.184   6.144  0.5579  0.7379  0.4228
 1931SOL    HW117429   0.547   1.123   6.123 -1.7840 -1.4375 -1.0442
 1931SOL    HW217430   0.454   1.224   6.059  1.2332  1.5679  0.6332
 1932SOL     OW17431   1.964   1.804  14.176 -0.3308  0.3315  0.0259
 1932SOL    HW117432   1.985   1.810  14.083  0.4330 -2.3555 -0.0008
 1932SOL    HW217433   2.053   1.819  14.207 -0.7479 -0.2272  1.5430
 1933SOL     OW17434   3.368   2.044   4.995  0.3488 -0.0549  0.1416
 1933SOL    HW117435   3.372   2.133   5.028 -1.5182  0.0834 -0.0386
 1933SOL    HW217436   3.445   2.048   4.938  0.7962  3.4612  1.0224
 1934SOL     OW17437   3.864   2.715   2.430 -0.0120  0.4017 -0.0061
 1934SOL    HW117438   3.835   2.806   2.434  3.3425  1.5286 -1.4784
 1934SOL    HW217439   3.903   2.709   2.517  2.4383  0.6129 -1.0974
 1935SOL     OW17440   4.035   0.930   0.167  0.4990  0.0506  0.1858
 1935SOL    HW117441   4.117   0.972   0.193 -0.5735  3.0975 -1.2762
 1935SOL    HW217442   4.052   0.907   0.075  1.0663  0.1200  0.2715
 1936SOL     OW17443   2.007   4.290   6.620 -0.0192 -0.3085 -0.4007
 1936SOL    HW117444   1.956   4.340   6.684 -0.9263 -1.2847 -0.3602
 1936SOL    HW217445   2.071   4.238   6.669  1.7410  1.3490 -0.9075
 1937SOL     OW17446   0.028   1.607   4.330  0.4602 -0.3773 -0.2990
 1937SOL    HW117447   4.705   1.539   4.305  0.9287 -0.6667 -0.6963
 1937SOL    HW217448   0.096   1.573   4.271  2.5165  0.4260  1.6406
 1938SOL     OW17449   4.733   3.266  16.347  0.3024  0.6174 -0.3537
 1938SOL    HW117450   0.044   3.196  16.385  0.7125  0.6710 -0.8018
 1938SOL    HW217451   0.023   3.283  16.257  1.4349 -0.2932 -0.1400
 1939SOL     OW17452   3.656   3.102   4.181  0.2979  0.2176 -0.2028
 1939SOL    HW117453   3.708   3.139   4.110 -1.4209  2.2772 -0.3959
 1939SOL    HW217454   3.587   3.057   4.133 -0.6806  0.7731  0.6884
 1940SOL     OW17455   2.511   0.954   9.220  0.0145  0.6150 -0.0311
 1940SOL    HW117456   2.598   0.980   9.188 -0.1791 -1.9241 -2.5461
 1940SOL    HW217457   2.465   0.916   9.146  1.9233  1.0491 -1.4622
 1941SOL     OW17458   2.163   2.623   0.802  0.5886 -0.3383 -0.1948
 1941SOL    HW117459   2.186   2.532   0.783 -1.6929 -0.1942 -3.6756
 1941SOL    HW217460   2.075   2.625   0.765  0.1298 -0.4775  0.8767
 1942SOL     OW17461   2.682   1.625   9.063 -0.1214  0.0801 -0.0661
 1942SOL    HW117462   2.607   1.595   9.012  0.2560 -2.5595  0.9290
 1942SOL    HW217463   2.733   1.545   9.053  0.3044  0.6421 -2.5948
 1943SOL     OW17464   1.864   2.125   1.956  0.2043 -0.1943 -0.2656
 1943SOL    HW117465   1.863   2.129   1.861 -1.3083  2.4163 -0.1279
 1943SOL    HW217466   1.913   2.045   1.977 -2.0376 -1.4513  0.1695
 1944SOL     OW17467   2.975   1.886   6.777 -0.0097 -0.4315 -0.2527
 1944SOL    HW117468   2.986   1.933   6.695 -0.0066  2.1282  1.2123
 1944SOL    HW217469   2.880   1.878   6.780 -0.1920  1.1869 -1.8957
 1945SOL     OW17470   3.879   2.048   6.032  0.8126  0.3717 -0.5089
 1945SOL    HW117471   3.800   2.041   5.978  0.1155 -1.5112  0.7556
 1945SOL    HW217472   3.885   1.962   6.073 -0.0803  0.7888  0.4990
 1946SOL     OW17473   3.141   1.650  12.447  0.0022 -0.0846 -0.5748
 1946SOL    HW117474   3.092   1.571  12.468  0.2661  0.1643  0.9570
 1946SOL    HW217475   3.078   1.717  12.472  0.0760 -0.0920 -0.3735
 1947SOL     OW17476   1.613   0.834  11.199  0.3705 -0.1276 -0.2873
 1947SOL    HW117477   1.543   0.835  11.133  1.3024 -0.5220 -1.2841
 1947SOL    HW217478   1.682   0.828  11.132  1.8750  0.8125  1.1776
 1948SOL     OW17479   0.866   2.225   6.029  0.2374  0.2252  0.5294
 1948SOL    HW117480   0.862   2.321   6.037  2.0724  0.3782 -0.4587
 1948SOL    HW217481   0.782   2.204   6.070  0.3878 -1.9125 -0.2469
 1949SOL     OW17482   2.520   0.250   3.392  0.0321  0.4522  0.1935
 1949SOL    HW117483   2.445   0.265   3.334 -0.7947  0.4802  1.2829
 1949SOL    HW217484   2.497   0.162   3.422  1.5904  0.3012  0.9513
 1950SOL     OW17485   3.324   0.320  12.586  0.3875  0.6617 -0.4053
 1950SOL    HW117486   3.356   0.390  12.642 -0.8298  0.0895  1.0272
 1950SOL    HW217487   3.339   0.358  12.500  0.7086 -2.4952 -1.7356
 1951SOL     OW17488   1.549   2.687  15.075 -0.4611  0.1230  0.7058
 1951SOL    HW117489   1.464   2.651  15.052 -0.1892  0.7413 -1.2996
 1951SOL    HW217490   1.600   2.615  15.111 -0.0861 -0.5114 -1.0630
 1952SOL     OW17491   3.078   2.820   5.911  0.0327 -0.3061 -0.4084
 1952SOL    HW117492   3.060   2.829   5.817  1.2309 -0.3175 -0.6334
 1952SOL    HW217493   3.014   2.752   5.934 -0.9825  0.4169 -1.1006
 1953SOL     OW17494   3.875   2.395   2.377 -0.6460 -0.0508  0.0152
 1953SOL    HW117495   3.906   2.485   2.381  0.3150 -0.4893  2.1523
 1953SOL    HW217496   3.882   2.373   2.284 -0.0926 -1.1950  0.3303
 1954SOL     OW17497   0.957   2.707   1.876 -0.5968  0.6932  0.5622
 1954SOL    HW117498   1.033   2.757   1.907 -0.6343  0.5464  0.8910
 1954SOL    HW217499   0.996   2.619   1.879  0.7081  1.2458 -0.0916
 1955SOL     OW17500   0.286   4.111   7.859 -0.2583  0.1098 -0.8232
 1955SOL    HW117501   0.353   4.103   7.926 -1.0229  1.4278  0.1142
 1955SOL    HW217502   0.218   4.056   7.898 -0.5584 -0.3427 -1.9908
 1956SOL     OW17503   0.744   0.814   6.670 -0.3900 -0.0968  0.2930
 1956SOL    HW117504   0.673   0.830   6.733 -1.2041 -0.6856 -0.4754
 1956SOL    HW217505   0.809   0.783   6.733 -0.5338 -0.5275  0.2244
 1957SOL     OW17506   3.797   2.922  11.082  0.2608 -1.1410  0.6347
 1957SOL    HW117507   3.877   2.959  11.045 -0.7783  0.7599  0.2926
 1957SOL    HW217508   3.718   2.970  11.057  0.4713 -0.6582  0.8976
 1958SOL     OW17509   0.997   1.549   4.597 -0.0763 -0.2405  0.1482
 1958SOL    HW117510   1.082   1.593   4.594 -0.4900  0.5899  0.7754
 1958SOL    HW217511   0.955   1.593   4.671  3.8255  3.0036  0.4056
 1959SOL     OW17512   4.064   4.225   3.517  0.2588  0.0178  0.3861
 1959SOL    HW117513   4.134   4.290   3.525  1.0384 -0.4108 -3.1587
 1959SOL    HW217514   4.115   4.155   3.477 -0.0410  0.9443 -1.6137
 1960SOL     OW17515   2.939   4.097   1.692 -0.4205  0.0375  0.2228
 1960SOL    HW117516   2.854   4.091   1.648 -0.1642  0.3180 -0.2979
 1960SOL    HW217517   2.922   4.070   1.783 -0.3860  0.5201  0.3749
 1961SOL     OW17518   2.336   0.005   1.727 -0.0966  0.0371 -0.1868
 1961SOL    HW117519   2.301   0.038   1.810 -0.4372  0.9838 -0.7089
 1961SOL    HW217520   2.407   0.066   1.706 -1.0394  0.9899 -0.5522
 1962SOL     OW17521   2.752   3.748   9.693  0.4417  0.1863  0.1810
 1962SOL    HW117522   2.767   3.669   9.746  0.9374  1.1615  1.4963
 1962SOL    HW217523   2.840   3.772   9.664 -0.1271  0.6484 -1.1740
 1963SOL     OW17524   2.128   3.101   8.478  0.0631 -0.5296 -0.3717
 1963SOL    HW117525   2.107   3.114   8.385 -1.1510 -0.4020 -0.0852
 1963SOL    HW217526   2.200   3.163   8.480 -0.6509  0.3259 -0.9867
 1964SOL     OW17527   4.248   1.959  17.002 -0.3602 -0.2435  0.0830
 1964SOL    HW117528   4.320   1.909  16.963  1.4446  2.5286 -0.1595
 1964SOL    HW217529   4.259   2.048  16.967  0.4515 -0.7039 -0.8247
 1965SOL     OW17530   2.180   3.288   1.226 -0.6543 -0.9700  0.1108
 1965SOL    HW117531   2.095   3.255   1.254 -0.6406 -1.6306 -0.6440
 1965SOL    HW217532   2.223   3.203   1.221 -1.5023 -1.5837  3.4785
 1966SOL     OW17533   3.670   3.432   4.837 -0.5972 -0.2284 -0.7896
 1966SOL    HW117534   3.595   3.490   4.854  0.6027  1.4326 -1.1657
 1966SOL    HW217535   3.623   3.358   4.800 -0.8654 -0.7821  0.6728
 1967SOL     OW17536   3.615   3.765   8.354  0.3448 -0.6601  0.1951
 1967SOL    HW117537   3.655   3.753   8.440  1.1313  0.6199  0.0045
 1967SOL    HW217538   3.570   3.849   8.364 -1.8694 -1.5972 -1.7882
 1968SOL     OW17539   1.089   4.026   4.863 -0.2529  0.2229 -0.0609
 1968SOL    HW117540   1.084   4.061   4.774 -2.7936  3.9189  1.5265
 1968SOL    HW217541   1.154   3.960   4.838 -0.9241 -0.3112 -0.3972
 1969SOL     OW17542   0.051   4.376   9.993  0.3697 -0.1578  0.2429
 1969SOL    HW117543   0.013   4.458  10.024  0.2489  0.4212 -1.4694
 1969SOL    HW217544   4.736   4.353   9.918 -1.3306  0.6271  1.2395
 1970SOL     OW17545   0.734   0.462   7.159  0.6794  0.0210  0.4374
 1970SOL    HW117546   0.811   0.461   7.215  1.4727  1.6467 -0.6530
 1970SOL    HW217547   0.691   0.541   7.193 -0.0328  0.3056 -1.1551
 1971SOL     OW17548   0.871   0.653   8.333 -0.0939  0.6297 -0.1750
 1971SOL    HW117549   0.924   0.673   8.410 -0.8575 -0.1487  0.5638
 1971SOL    HW217550   0.910   0.567   8.313  0.4248  0.7205  0.4769
 1972SOL     OW17551   3.538   1.614   6.616 -0.4332  0.1626  0.1681
 1972SOL    HW117552   3.574   1.695   6.578 -1.3118  0.6051  0.2702
 1972SOL    HW217553   3.450   1.620   6.579  0.4464 -0.2330 -2.0433
 1973SOL     OW17554   1.009   1.433   8.682  0.1672  0.1703  0.4307
 1973SOL    HW117555   1.039   1.342   8.682  0.3938  0.2451 -0.9644
 1973SOL    HW217556   0.995   1.440   8.777  0.4388 -2.5905  0.6568
 1974SOL     OW17557   0.144   3.275  11.767  0.2185 -0.3143 -0.3758
 1974SOL    HW117558   0.186   3.345  11.718 -0.8285  1.1823  0.8617
 1974SOL    HW217559   0.202   3.202  11.747  0.7307 -0.3856  1.3607
 1975SOL     OW17560   0.008   2.144   7.657 -0.3533  0.5164  0.3243
 1975SOL    HW117561   0.059   2.127   7.579  0.7062  2.7576  0.5129
 1975SOL    HW217562   0.062   2.206   7.705  0.3273 -0.9491  1.4422
 1976SOL     OW17563   1.031   0.196   4.195 -0.5397 -0.2560  0.0143
 1976SOL    HW117564   1.043   0.141   4.272  1.0150  0.1198  0.0326
 1976SOL    HW217565   0.940   0.168   4.182 -1.0199  1.5806 -0.6550
 1977SOL     OW17566   1.226   4.341   5.213 -0.3424  0.3925 -0.4828
 1977SOL    HW117567   1.212   4.412   5.276  0.5388 -0.5035  0.7039
 1977SOL    HW217568   1.320   4.350   5.198 -0.0064  0.8387  1.9155
 1978SOL     OW17569   2.159   4.011   4.478  0.4871  0.6630  0.7275
 1978SOL    HW117570   2.097   4.000   4.406  0.6634  3.1713  0.1891
 1978SOL    HW217571   2.124   4.081   4.533 -2.9442  1.0353 -1.9189
 1979SOL     OW17572   0.910   4.014   9.372 -0.6837  0.4187 -0.0583
 1979SOL    HW117573   0.923   4.099   9.414 -0.1649  0.8200 -1.0262
 1979SOL    HW217574   0.912   4.046   9.282 -1.2018 -2.1383 -0.9832
 1980SOL     OW17575   0.712   4.278   9.653  0.2189 -0.3054 -0.0673
 1980SOL    HW117576   0.735   4.201   9.602 -1.6646 -1.7768  1.2962
 1980SOL    HW217577   0.796   4.287   9.697  0.4251  1.0765 -0.7336
 1981SOL     OW17578   3.802   3.033   5.804  0.4655  0.0494  0.1263
 1981SOL    HW117579   3.738   3.105   5.799  0.0873 -0.3313 -0.5945
 1981SOL    HW217580   3.881   3.084   5.787 -0.3316  1.0725 -0.5215
 1982SOL     OW17581   4.579   3.681  15.008 -0.0627  0.1485  0.3920
 1982SOL    HW117582   4.551   3.743  15.075 -0.0055  0.6764 -0.0679
 1982SOL    HW217583   4.659   3.720  14.971 -0.0505  1.5616  1.9046
 1983SOL     OW17584   1.205   0.088   1.982 -0.0623  0.3942 -0.2580
 1983SOL    HW117585   1.219   0.041   1.900  2.7680 -0.5407  0.7793
 1983SOL    HW217586   1.150   0.167   1.975 -1.8494 -0.9124 -1.1189
 1984SOL     OW17587   1.303   2.735   9.005 -0.7685  0.5598 -0.8940
 1984SOL    HW117588   1.330   2.691   8.925  0.6657  3.2974 -1.9245
 1984SOL    HW217589   1.387   2.764   9.039 -0.5076 -1.3858  0.1162
 1985SOL     OW17590   2.483   3.734   2.383  0.1487  0.4277  0.1655
 1985SOL    HW117591   2.439   3.767   2.461 -2.4596 -0.0198 -1.1069
 1985SOL    HW217592   2.526   3.815   2.356  0.0981  0.4086  0.0300
 1986SOL     OW17593   1.616   2.447   1.936  0.1201  0.5851  0.5909
 1986SOL    HW117594   1.625   2.506   1.862 -0.4773 -1.3791 -1.0692
 1986SOL    HW217595   1.576   2.504   2.001 -0.5261  0.8169 -0.0158
 1987SOL     OW17596   1.722   1.875   2.229 -0.1110 -0.9186  0.0868
 1987SOL    HW117597   1.766   1.831   2.156  0.6432  1.8896 -1.1491
 1987SOL    HW217598   1.635   1.833   2.231 -1.4538  1.9661  1.6097
 1988SOL     OW17599   3.072   3.228  15.789  0.0764 -0.2116  0.3459
 1988SOL    HW117600   3.073   3.316  15.751 -0.7597 -0.5720 -0.5155
 1988SOL    HW217601   3.126   3.251  15.865 -0.3516 -1.5706  1.0626
 1989SOL     OW17602   1.711   1.371   4.015 -0.1266 -0.0871 -0.1147
 1989SOL    HW117603   1.647   1.306   3.985  2.2639 -2.7838  0.6132
 1989SOL    HW217604   1.680   1.380   4.105  0.1089 -0.7995  0.0384
 1990SOL     OW17605   0.927   0.859   2.567 -0.1561  0.1308  0.4589
 1990SOL    HW117606   0.992   0.880   2.501 -2.6564  1.6837 -1.5188
 1990SOL    HW217607   0.977   0.873   2.648 -1.6373  2.8120  0.9349
 1991SOL     OW17608   2.535   1.039   2.372 -0.0455 -0.2755  0.2310
 1991SOL    HW117609   2.583   1.122   2.371 -0.2491 -0.1695 -0.5362
 1991SOL    HW217610   2.515   1.025   2.280 -1.9736  0.1794  0.5721
 1992SOL     OW17611   1.246   3.853   6.530  0.4852 -0.1506 -0.2280
 1992SOL    HW117612   1.336   3.875   6.503  0.2260  0.4466 -0.5999
 1992SOL    HW217613   1.194   3.865   6.451 -3.1009 -1.2483  1.9585
 1993SOL     OW17614   3.704   0.110  14.004  1.0431  0.0620  0.0818
 1993SOL    HW117615   3.742   0.173  13.943  0.0748 -0.6094 -1.2184
 1993SOL    HW217616   3.618   0.152  14.015  2.0361  2.2634 -0.4857
 1994SOL     OW17617   3.891   0.150   9.931  0.1771 -0.4258  0.4089
 1994SOL    HW117618   3.974   0.117   9.897  0.1198 -0.1335 -0.0086
 1994SOL    HW217619   3.922   0.201  10.006  0.3766  1.2824 -0.8206
 1995SOL     OW17620   3.531   1.896   9.529 -0.2011  0.2078  0.1746
 1995SOL    HW117621   3.444   1.934   9.512  0.1285  1.0742  0.4429
 1995SOL    HW217622   3.521   1.825   9.466 -1.3343 -0.7153  1.4086
 1996SOL     OW17623   2.189   0.830   1.897  0.0365  0.8066  0.1283
 1996SOL    HW117624   2.110   0.803   1.850  0.9091 -0.8701 -0.3698
 1996SOL    HW217625   2.226   0.886   1.829  1.7660  2.8230  2.7582
 1997SOL     OW17626   3.966   0.978   1.622  0.0090 -0.4231  0.0105
 1997SOL    HW117627   3.884   1.024   1.641 -0.6974 -2.1119  1.1429
 1997SOL    HW217628   3.946   0.898   1.672  0.5966 -0.0494  0.8490
 1998SOL     OW17629   1.002   4.490   6.936 -0.0566 -0.5117  0.4126
 1998SOL    HW117630   1.084   4.522   6.898 -0.9031 -0.0237 -1.0120
 1998SOL    HW217631   0.944   4.565   6.945 -0.3075 -1.0215  2.9817
 1999SOL     OW17632   3.399   4.548   3.603  0.3118  0.1475 -0.1832
 1999SOL    HW117633   3.342   4.537   3.526  0.2337 -2.2347  0.2321
 1999SOL    HW217634   3.419   4.642   3.606 -1.6332  0.5630 -0.0466
 2000SOL     OW17635   3.257   0.370  14.531  0.2376 -0.1497  0.1431
 2000SOL    HW117636   3.254   0.275  14.526  0.0280 -0.2388  1.9575
 2000SOL    HW217637   3.226   0.389  14.442  1.7927 -1.1140 -0.6045
 2001SOL     OW17638   1.019   1.217   2.502  0.2165 -0.8355  0.7485
 2001SOL    HW117639   0.940   1.179   2.463 -0.1617 -0.2062  0.9045
 2001SOL    HW217640   0.983   1.289   2.555 -2.5269 -1.4622 -0.2740
 2002SOL     OW17641   1.541   4.061   4.976 -0.2408 -0.1941  0.1509
 2002SOL    HW117642   1.520   4.152   4.997  0.0284 -1.0011  3.9996
 2002SOL    HW217643   1.474   4.056   4.908  0.3574 -1.1981 -0.3533
 2003SOL     OW17644   2.438   3.815   0.752 -0.8076 -0.1572 -0.2535
 2003SOL    HW117645   2.385   3.822   0.831  2.4831 -0.5013  1.9608
 2003SOL    HW217646   2.453   3.909   0.741  1.2448 -0.5511 -0.9542
 2004SOL     OW17647   2.139   3.017   4.605  0.3987  0.0099  0.6862
 2004SOL    HW117648   2.045   3.031   4.612 -0.0198 -1.9708 -1.0334
 2004SOL    HW217649   2.140   2.973   4.520  3.6120  1.0581  0.1819
 2005SOL     OW17650   4.365   4.171   2.538  0.0810  0.1652 -0.6671
 2005SOL    HW117651   4.419   4.238   2.582 -1.1576  0.0422  1.0551
 2005SOL    HW217652   4.308   4.222   2.481 -0.1695 -0.1598 -0.7073
 2006SOL     OW17653   0.695   0.889   6.308 -0.2062 -0.2365 -0.0866
 2006SOL    HW117654   0.709   0.946   6.233 -2.4122  1.4748  0.8077
 2006SOL    HW217655   0.772   0.878   6.364  1.0304 -1.5258 -2.0702
 2007SOL     OW17656   0.649   0.785   5.817  0.1776 -0.2014 -0.7004
 2007SOL    HW117657   0.574   0.833   5.782  0.8271  0.4837 -1.1575
 2007SOL    HW217658   0.621   0.778   5.908  0.2503 -2.3831 -0.8422
 2008SOL     OW17659   4.512   2.402  15.378 -0.3389  0.5738  0.2484
 2008SOL    HW117660   4.486   2.387  15.469  0.3134  1.2897  0.5513
 2008SOL    HW217661   4.425   2.416  15.342 -1.3660  0.2071  2.6429
 2009SOL     OW17662   4.208   2.348  11.061 -0.2831 -0.8133 -0.1878
 2009SOL    HW117663   4.198   2.313  10.973 -1.0234 -0.6678 -0.1611
 2009SOL    HW217664   4.271   2.289  11.102 -0.3843 -1.2477 -0.6713
 2010SOL     OW17665   3.504   1.488  10.051 -0.1030  0.6914  1.0345
 2010SOL    HW117666   3.529   1.535  10.131  0.5830  0.2263  1.0899
 2010SOL    HW217667   3.592   1.470  10.017 -0.7249  1.6198 -1.0861
 2011SOL     OW17668   2.093   1.769   3.163 -0.2044 -0.3453  0.2417
 2011SOL    HW117669   2.026   1.837   3.171  2.0389  1.7833  1.2420
 2011SOL    HW217670   2.054   1.701   3.217 -0.8357 -0.4322 -0.3282
 2012SOL     OW17671   2.522   3.382  15.302  0.3316  0.0508 -0.1150
 2012SOL    HW117672   2.487   3.315  15.361 -2.2078  1.5220  0.0665
 2012SOL    HW217673   2.495   3.454  15.359  2.8403  0.5860  0.3842
 2013SOL     OW17674   4.317   2.212  10.096 -0.2734 -0.2632  0.0139
 2013SOL    HW117675   4.368   2.164  10.031  0.7078  0.4268  0.2779
 2013SOL    HW217676   4.229   2.196  10.062 -0.3726 -1.7342  0.9731
 2014SOL     OW17677   3.061   1.349  15.870 -0.1570  0.4375  0.1825
 2014SOL    HW117678   3.066   1.434  15.825  1.0329  0.0039 -0.5171
 2014SOL    HW217679   3.146   1.306  15.858 -0.0056  0.7804  0.0363
 2015SOL     OW17680   4.257   1.699   7.919  0.2930 -0.0093  0.2962
 2015SOL    HW117681   4.253   1.785   7.878 -1.1951  0.1364  0.7589
 2015SOL    HW217682   4.215   1.645   7.852 -0.9074 -0.2917  1.2821
 2016SOL     OW17683   0.769   0.935   3.735 -0.1260 -0.2266 -0.3807
 2016SOL    HW117684   0.858   0.902   3.728  1.4283  3.6479  1.0593
 2016SOL    HW217685   0.775   1.020   3.691 -0.9921  0.4146  0.7548
 2017SOL     OW17686   3.967   3.725  12.232 -0.1996 -0.0011  0.0898
 2017SOL    HW117687   4.031   3.703  12.300 -1.0423  1.3199  1.2921
 2017SOL    HW217688   4.000   3.672  12.159  2.3520  1.7720 -0.0347
 2018SOL     OW17689   3.426   4.455   0.544 -0.0658 -0.1221 -0.3779
 2018SOL    HW117690   3.387   4.447   0.457 -0.7169 -1.2495  0.0151
 2018SOL    HW217691   3.346   4.464   0.595 -0.8188  1.2769 -1.7978
 2019SOL     OW17692   3.509   4.719   5.385 -0.2075  0.0062 -0.2112
 2019SOL    HW117693   3.444   4.671   5.333  1.7331 -1.0334 -1.6846
 2019SOL    HW217694   3.464   4.722   5.470 -0.6503 -1.5941 -0.3840
 2020SOL     OW17695   3.316   0.944   7.739  0.4356  1.0110 -0.3426
 2020SOL    HW117696   3.319   0.865   7.685 -0.6495  0.6591  0.1098
 2020SOL    HW217697   3.405   0.978   7.736  0.6471  0.5426  0.4245
 2021SOL     OW17698   3.235   2.634   0.012  0.1330 -0.2124  0.1031
 2021SOL    HW117699   3.166   2.669  17.714 -0.2388  0.2622  0.8539
 2021SOL    HW217700   3.229   2.540  17.753 -1.1683 -0.2306  0.6383
 2022SOL     OW17701   2.385   4.734   4.224  0.1471 -0.2015 -0.2775
 2022SOL    HW117702   2.384   4.680   4.146  2.4848  0.9501 -1.1094
 2022SOL    HW217703   2.325   4.680   4.276 -0.9900  1.4548  0.1418
 2023SOL     OW17704   1.160   3.558  10.930 -0.0835  0.1859 -0.5170
 2023SOL    HW117705   1.154   3.576  11.024  1.1562  0.1992 -0.4371
 2023SOL    HW217706   1.105   3.480  10.927 -1.7506  1.3039  0.8998
 2024SOL     OW17707   4.634   3.049  11.621 -0.2413  0.0917  0.1808
 2024SOL    HW117708   4.729   3.045  11.611 -0.3376 -0.2664 -0.6164
 2024SOL    HW217709   4.614   3.140  11.644  0.2057  0.0800  0.6016
 2025SOL     OW17710   1.308   3.218   5.789 -0.0658 -0.5381 -0.0152
 2025SOL    HW117711   1.244   3.205   5.720  1.0591  0.7095 -1.2734
 2025SOL    HW217712   1.361   3.138   5.785 -0.9838 -1.0761 -1.2463
 2026SOL     OW17713   2.145   1.416  16.107 -0.0566 -0.5896  0.2454
 2026SOL    HW117714   2.229   1.380  16.136  0.7660  2.1679  1.3116
 2026SOL    HW217715   2.102   1.437  16.190  1.9114 -0.1673  1.1816
 2027SOL     OW17716   1.172   2.515   6.053  0.6433 -0.0271  0.5899
 2027SOL    HW117717   1.168   2.488   6.144 -1.3815  0.2251  0.5922
 2027SOL    HW217718   1.250   2.568   6.067  1.1039 -1.0202  1.7446
 2028SOL     OW17719   1.586   3.274   8.280  0.8892 -0.0826 -0.5877
 2028SOL    HW117720   1.608   3.216   8.208 -0.6243  1.5482 -2.3798
 2028SOL    HW217721   1.491   3.260   8.283  0.9054  0.2911  1.6506
 2029SOL     OW17722   3.273   0.905  10.473 -0.2229 -0.0208  0.2304
 2029SOL    HW117723   3.326   0.983  10.490 -0.4002  0.2789 -0.6100
 2029SOL    HW217724   3.339   0.837  10.486  1.1826  1.9309  3.4683
 2030SOL     OW17725   2.869   2.746   8.016  0.2856  0.7354  0.0554
 2030SOL    HW117726   2.895   2.764   8.106  0.7829 -1.6314  0.3880
 2030SOL    HW217727   2.921   2.667   8.001 -0.6803 -0.3708  2.5899
 2031SOL     OW17728   4.001   4.154  14.926  0.3492  0.8518  0.2429
 2031SOL    HW117729   3.958   4.169  14.842  3.1515  2.3389 -0.9569
 2031SOL    HW217730   3.926   4.129  14.979 -0.6337  0.4789 -1.3449
 2032SOL     OW17731   3.472   3.976   9.693 -0.9258 -0.4688 -0.2091
 2032SOL    HW117732   3.548   4.019   9.653 -0.7332  0.0124  0.6778
 2032SOL    HW217733   3.412   3.968   9.619 -0.4977  0.4868 -0.6572
 2033SOL     OW17734   2.289   3.580   8.027 -0.2784 -0.2214  0.8811
 2033SOL    HW117735   2.290   3.674   8.046  2.7753 -0.9038  4.0237
 2033SOL    HW217736   2.205   3.565   7.984  0.2874 -1.4583  0.2064
 2034SOL     OW17737   3.713   2.072   4.288  0.5273  0.3398  0.1201
 2034SOL    HW117738   3.648   2.109   4.348  0.3577 -0.7717  0.6223
 2034SOL    HW217739   3.750   1.999   4.338  0.7987 -0.4130 -1.1746
 2035SOL     OW17740   0.783   0.010   3.278 -0.1564 -0.2061 -0.5164
 2035SOL    HW117741   0.757   0.094   3.316  0.9956 -0.5334  0.9867
 2035SOL    HW217742   0.825   0.039   3.197 -1.8191 -0.4748 -1.4576
 2036SOL     OW17743   0.839   4.431   4.736 -0.0887  0.0487 -0.6102
 2036SOL    HW117744   0.876   4.387   4.812  1.3679  1.5621 -0.4267
 2036SOL    HW217745   0.801   4.508   4.780  0.5730 -0.4370  0.8130
 2037SOL     OW17746   0.134   3.693   5.295 -0.0050  0.1292 -0.2167
 2037SOL    HW117747   0.160   3.786   5.295  1.4596 -0.2878 -3.2195
 2037SOL    HW217748   0.051   3.687   5.341 -0.8072  1.0716 -1.5388
 2038SOL     OW17749   4.631   1.722   9.264  0.0703  0.2513 -0.0121
 2038SOL    HW117750   4.561   1.760   9.318  1.5469  1.6490  0.9132
 2038SOL    HW217751   4.714   1.729   9.311 -0.8322 -1.7936  1.8954
 2039SOL     OW17752   2.332   1.688  10.593 -0.5120 -0.0311  0.5988
 2039SOL    HW117753   2.335   1.618  10.659  0.3530  0.5562  1.1807
 2039SOL    HW217754   2.406   1.739  10.624 -0.3186  1.0290 -1.6647
 2040SOL     OW17755   0.247   3.519  14.342 -0.4292  0.5503 -0.0456
 2040SOL    HW117756   0.216   3.529  14.432  0.0820  0.7913  0.0996
 2040SOL    HW217757   0.193   3.448  14.306  0.2253  0.0527 -0.0332
 2041SOL     OW17758   1.166   1.646   0.492  0.4038  0.1500 -0.3751
 2041SOL    HW117759   1.142   1.705   0.421  0.8413 -1.8816 -2.1812
 2041SOL    HW217760   1.148   1.706   0.564  0.0559 -0.4587  0.0470
 2042SOL     OW17761   0.909   3.624  15.096 -0.4418  0.3630  0.3347
 2042SOL    HW117762   0.887   3.547  15.149  1.5229 -1.6283 -1.7578
 2042SOL    HW217763   0.844   3.691  15.121 -3.1563 -1.4539 -1.8197
 2043SOL     OW17764   0.468   0.621   5.276  0.2962  0.6509  0.6533
 2043SOL    HW117765   0.423   0.684   5.332 -2.6810 -1.0885  0.2009
 2043SOL    HW217766   0.412   0.622   5.199  0.1695  0.6163  0.7434
 2044SOL     OW17767   3.074   4.397   3.804 -0.3353  0.0722  0.3267
 2044SOL    HW117768   3.168   4.379   3.808 -0.1923  0.6601 -0.3414
 2044SOL    HW217769   3.050   4.383   3.895 -1.7495  1.1595  0.1156
 2045SOL     OW17770   0.928   3.454  11.799  0.5943  0.2993 -0.1601
 2045SOL    HW117771   0.871   3.380  11.779  0.3523 -0.4271  3.2482
 2045SOL    HW217772   0.909   3.518  11.730 -0.0786  2.2687  1.8394
 2046SOL     OW17773   1.681   2.775  16.366  0.5411 -0.2919  0.6661
 2046SOL    HW117774   1.714   2.712  16.431 -0.4118 -0.0079  1.4228
 2046SOL    HW217775   1.589   2.771  16.392  0.1943 -1.7590 -0.7729
 2047SOL     OW17776   0.465   3.793  15.130 -0.4261  0.0159 -0.3885
 2047SOL    HW117777   0.399   3.827  15.191 -0.7790  0.9734 -1.2931
 2047SOL    HW217778   0.432   3.829  15.047 -0.3107  1.3586  0.1482
 2048SOL     OW17779   2.089   1.228  16.581  0.6141  0.3821  0.0208
 2048SOL    HW117780   2.029   1.301  16.567 -1.0663 -1.4195 -2.2362
 2048SOL    HW217781   2.059   1.210  16.669 -0.2693  2.0852  0.0517
 2049SOL     OW17782   2.968   0.340   8.525  0.4373 -0.0305 -0.2489
 2049SOL    HW117783   2.951   0.300   8.610  0.7205  0.5503  0.0796
 2049SOL    HW217784   2.887   0.314   8.480  0.5389  1.3134 -1.2366
 2050SOL     OW17785   3.342   4.130  14.421 -0.3383  0.1858  0.2067
 2050SOL    HW117786   3.284   4.168  14.354  1.5482  0.4111 -1.2957
 2050SOL    HW217787   3.301   4.045  14.436 -0.3346  0.4835  1.9396
 2051SOL     OW17788   2.091   1.180  17.250  0.5615  0.0775 -0.1568
 2051SOL    HW117789   2.136   1.156  17.331 -1.1948 -0.3450  0.6756
 2051SOL    HW217790   2.094   1.274  17.270  0.3127  0.0075  0.2109
 2052SOL     OW17791   3.402   2.910   6.046 -0.7192  0.4483 -0.5129
 2052SOL    HW117792   3.444   2.857   6.114  1.3594  0.0247 -2.1073
 2052SOL    HW217793   3.442   2.875   5.966 -1.5615 -1.5372 -0.0765
 2053SOL     OW17794   1.258   0.090   9.775  0.0590 -0.3394  0.0660
 2053SOL    HW117795   1.236   0.181   9.795 -0.0845 -0.0545 -1.3687
 2053SOL    HW217796   1.328   0.101   9.712  1.4954 -4.2754  0.9725
 2054SOL     OW17797   0.307   1.150   5.329  0.0288 -1.0621  0.2456
 2054SOL    HW117798   0.212   1.164   5.329  0.3354  1.0270 -0.7460
 2054SOL    HW217799   0.329   1.237   5.297 -3.7616 -0.1553  0.0972
 2055SOL     OW17800   1.977   1.132   6.403  0.9381  1.0210  0.0526
 2055SOL    HW117801   2.057   1.165   6.445  1.4180  1.0805 -0.8966
 2055SOL    HW217802   2.019   1.088   6.329  2.8445  2.4696  0.2568
 2056SOL     OW17803   1.604   3.073   5.494  0.2682 -0.4097  0.8581
 2056SOL    HW117804   1.620   3.086   5.400  0.0911  0.8628  1.0094
 2056SOL    HW217805   1.631   3.159   5.525 -0.8269  0.2026  0.1022
 2057SOL     OW17806   0.836   4.241   6.341 -0.2100 -0.2714 -0.1097
 2057SOL    HW117807   0.759   4.220   6.288 -0.7613  1.4403 -0.0012
 2057SOL    HW217808   0.850   4.323   6.294  0.1687 -0.6428 -0.6361
 2058SOL     OW17809   1.169   4.323   8.544 -0.3508  0.1289 -0.1141
 2058SOL    HW117810   1.111   4.247   8.539  2.4911 -2.0976  0.7640
 2058SOL    HW217811   1.133   4.370   8.619  1.8375 -0.9858  1.6406
 2059SOL     OW17812   4.063   1.637   5.869  0.1624  0.5466 -0.0966
 2059SOL    HW117813   4.004   1.697   5.916 -3.0800 -1.5506 -1.4925
 2059SOL    HW217814   4.104   1.706   5.817 -1.0447  0.7847 -0.7346
 2060SOL     OW17815   1.983   3.527   3.558 -0.3684 -0.2565 -0.0479
 2060SOL    HW117816   2.033   3.491   3.630  0.4840  0.3243 -0.3543
 2060SOL    HW217817   1.944   3.442   3.535 -0.4058 -0.8289  2.1822
 2061SOL     OW17818   3.446   3.800   4.465 -0.2595  0.0532 -0.3338
 2061SOL    HW117819   3.429   3.738   4.394  1.8903  0.2993 -1.0383
 2061SOL    HW217820   3.401   3.880   4.438 -2.0232 -0.7095  0.2774
 2062SOL     OW17821   3.654   4.739   3.700  0.4076  0.1729  0.5024
 2062SOL    HW117822   3.726   0.035   3.752  0.2081  0.5448  0.5215
 2062SOL    HW217823   3.585   0.047   3.745  0.8566  0.3180  1.0412
 2063SOL     OW17824   2.932   0.942   5.636  0.3329 -0.1035 -0.0215
 2063SOL    HW117825   2.944   0.847   5.646  0.8309  0.1799  2.0188
 2063SOL    HW217826   2.906   0.932   5.544 -2.1010  0.3649  0.6252
 2064SOL     OW17827   4.079   1.348   7.526 -0.2326  0.6194  0.2719
 2064SOL    HW117828   4.028   1.338   7.606 -1.8786  3.5854 -0.4358
 2064SOL    HW217829   4.011   1.382   7.468  0.0830 -1.1623 -1.1579
 2065SOL     OW17830   1.417   2.618   8.494  0.4052 -0.4946  0.1041
 2065SOL    HW117831   1.460   2.654   8.416  0.4901 -1.9043 -0.5054
 2065SOL    HW217832   1.449   2.528   8.501 -2.9353 -1.5718  1.2530
 2066SOL     OW17833   1.835   1.282   6.579  0.0169 -0.4977 -0.5170
 2066SOL    HW117834   1.855   1.373   6.556 -1.8091  0.1872  0.6179
 2066SOL    HW217835   1.875   1.240   6.503 -0.9359 -1.0587 -0.7159
 2067SOL     OW17836   0.750   3.905   2.466 -0.0248  0.9012  0.0331
 2067SOL    HW117837   0.783   3.832   2.518  0.1659  0.5681 -0.5638
 2067SOL    HW217838   0.775   3.978   2.524  0.8259  0.1760  0.5713
 2068SOL     OW17839   2.124   1.067   8.906 -0.2644 -0.4863 -0.5576
 2068SOL    HW117840   2.083   1.152   8.890  0.2185 -0.1410  0.0104
 2068SOL    HW217841   2.049   1.007   8.911  0.1726 -0.9746  0.2017
 2069SOL     OW17842   3.254   1.133   9.678  0.2188 -0.3189  0.2347
 2069SOL    HW117843   3.280   1.042   9.693  1.7464  0.2306  1.0069
 2069SOL    HW217844   3.295   1.175   9.754  0.2274  1.0956 -0.5496
 2070SOL     OW17845   3.342   3.361   2.281 -0.0909  0.0712 -0.1469
 2070SOL    HW117846   3.292   3.279   2.276 -0.3287  0.1246  1.3051
 2070SOL    HW217847   3.314   3.418   2.210 -1.7447  0.3777  0.7542
 2071SOL     OW17848   4.060   4.729   5.354 -0.6332  0.3965 -0.1466
 2071SOL    HW117849   4.118   0.045   5.302 -0.4106  0.3988  0.1029
 2071SOL    HW217850   3.986   4.714   5.295 -1.3901  2.2933  0.3123
 2072SOL     OW17851   0.286   2.640   5.090 -0.5355  0.2635  0.3081
 2072SOL    HW117852   0.362   2.594   5.053 -1.0697 -0.1511 -0.2745
 2072SOL    HW217853   0.300   2.628   5.184 -2.0956  2.8681  0.8851
 2073SOL     OW17854   1.740   0.233   0.702  0.2495 -0.1787  0.5782
 2073SOL    HW117855   1.807   0.172   0.670 -1.9622 -1.2111 -2.0538
 2073SOL    HW217856   1.776   0.245   0.790 -1.7296 -0.0120  1.3742
 2074SOL     OW17857   2.059   0.076   5.406  0.4563  0.3598  0.0137
 2074SOL    HW117858   2.035   0.168   5.398  1.8070  0.5943 -1.4515
 2074SOL    HW217859   2.012   0.049   5.485 -0.8766  0.9067 -0.5994
 2075SOL     OW17860   0.982   4.319  16.137  0.0130 -0.5049 -0.2553
 2075SOL    HW117861   1.024   4.404  16.135 -1.3936  0.2080  0.8553
 2075SOL    HW217862   1.001   4.280  16.052 -0.0821 -2.0127  0.4083
 2076SOL     OW17863   3.647   1.600   3.118 -0.2605 -0.1250 -0.0813
 2076SOL    HW117864   3.643   1.559   3.031  1.5117 -1.4480  0.4418
 2076SOL    HW217865   3.740   1.588   3.136 -0.6266 -1.7060  0.7519
 2077SOL     OW17866   0.300   4.038   4.732  0.2464  0.2526 -1.1158
 2077SOL    HW117867   0.362   4.038   4.805 -0.6607  1.9630 -0.3501
 2077SOL    HW217868   0.224   4.082   4.771  0.7890 -0.6606  0.9564
 2078SOL     OW17869   1.989   0.191   2.958  0.3354 -0.2167  0.1286
 2078SOL    HW117870   1.972   0.207   2.866  2.4394 -0.4734 -0.3131
 2078SOL    HW217871   2.054   0.260   2.973 -0.2319  0.0204  1.5346
 2079SOL     OW17872   2.490   1.368   1.946 -0.4882  0.4778  0.3390
 2079SOL    HW117873   2.527   1.439   1.894 -0.8148  0.0263 -0.5091
 2079SOL    HW217874   2.397   1.374   1.924 -0.1680  0.2588 -1.0360
 2080SOL     OW17875   4.641   0.976   8.327  0.6473 -0.2972  0.1749
 2080SOL    HW117876   4.607   0.887   8.315  0.3393 -0.2844  0.9331
 2080SOL    HW217877   4.579   1.035   8.284  1.1613  0.6572  0.7338
 2081SOL     OW17878   4.120   3.641   3.388 -0.3788  0.7973  0.9439
 2081SOL    HW117879   4.174   3.600   3.320 -1.8353 -0.4541  0.5526
 2081SOL    HW217880   4.088   3.719   3.343 -2.2787  1.3821  3.2994
 2082SOL     OW17881   2.737   1.231   6.848 -0.0674 -0.0850 -0.0073
 2082SOL    HW117882   2.655   1.195   6.813  0.4820 -1.5243  0.1593
 2082SOL    HW217883   2.718   1.274   6.931  1.0476 -0.6774  0.5530
 2083SOL     OW17884   3.395   0.374   0.286  0.0856 -0.4427 -0.4365
 2083SOL    HW117885   3.413   0.396   0.195 -0.1690  1.2102 -0.0769
 2083SOL    HW217886   3.487   0.382   0.311  0.5754 -0.9156 -2.0834
 2084SOL     OW17887   0.270   1.075   2.386  0.3038 -0.3357  0.7735
 2084SOL    HW117888   0.236   1.031   2.308 -1.0784 -1.3966  1.9523
 2084SOL    HW217889   0.304   1.000   2.435  2.8727 -0.2888 -0.9293
 2085SOL     OW17890   0.216   0.762   0.943  0.3800 -0.7329 -0.2072
 2085SOL    HW117891   0.129   0.774   0.905 -0.7732 -0.2815  2.6154
 2085SOL    HW217892   0.261   0.846   0.936 -2.0270  0.7030  1.7114
 2086SOL     OW17893   2.447   1.510   8.975 -0.0171  0.2516 -0.2444
 2086SOL    HW117894   2.361   1.537   9.007 -0.3755  1.9238 -2.6022
 2086SOL    HW217895   2.454   1.427   9.020  0.1904  0.1777 -0.4082
 2087SOL     OW17896   1.806   1.845  12.211  0.4813  0.2406 -0.2836
 2087SOL    HW117897   1.791   1.761  12.254  0.1370  0.0210 -0.8397
 2087SOL    HW217898   1.717   1.875  12.192  0.4253 -1.3924 -2.6350
 2088SOL     OW17899   1.901   1.996  14.567  0.4505  0.1887  0.2495
 2088SOL    HW117900   1.990   2.002  14.531  0.3323 -1.0057 -0.2214
 2088SOL    HW217901   1.910   2.002  14.662 -1.4358 -1.7229  0.5254
 2089SOL     OW17902   4.593   3.928   2.044 -0.0052  1.1976 -0.4543
 2089SOL    HW117903   4.647   3.873   1.986 -0.2861  0.5015 -0.0537
 2089SOL    HW217904   4.665   3.965   2.095 -0.4238  0.4831  0.6508
 2090SOL     OW17905   3.802   3.825   0.404 -0.0121 -0.0784  0.5942
 2090SOL    HW117906   3.706   3.820   0.396  0.2756 -1.3726 -2.0102
 2090SOL    HW217907   3.818   3.896   0.467 -3.1156  1.6214 -0.5244
 2091SOL     OW17908   1.889   1.967   3.758  0.2253 -0.4811 -0.2054
 2091SOL    HW117909   1.852   1.880   3.742 -0.9575  0.0621 -0.4847
 2091SOL    HW217910   1.949   1.971   3.685 -0.5269  0.3484 -0.7810
 2092SOL     OW17911   1.902   3.198   6.547  0.0013  0.3897 -0.0418
 2092SOL    HW117912   1.994   3.214   6.567  0.2841 -1.1500 -0.0435
 2092SOL    HW217913   1.900   3.183   6.452 -0.7807  0.0059  0.0348
 2093SOL     OW17914   0.627   0.733   8.462  0.3265 -0.0633 -0.0710
 2093SOL    HW117915   0.698   0.707   8.404 -0.9222 -0.6510 -1.3442
 2093SOL    HW217916   0.663   0.789   8.532 -0.0078  0.8881 -0.6519
 2094SOL     OW17917   0.275   3.291   7.495 -0.1634 -0.3232 -0.2736
 2094SOL    HW117918   0.303   3.382   7.488  1.6883 -1.0584 -2.4588
 2094SOL    HW217919   0.228   3.291   7.578 -0.3792  0.7418 -0.3998
 2095SOL     OW17920   2.862   2.174   6.455 -0.0300  0.7830  0.1925
 2095SOL    HW117921   2.830   2.192   6.543 -0.0577 -0.3318  0.4080
 2095SOL    HW217922   2.793   2.210   6.400  0.7992  1.6825 -0.2556
 2096SOL     OW17923   1.414   2.754  16.468 -0.3172 -0.2571 -0.4181
 2096SOL    HW117924   1.373   2.670  16.485  0.5578 -0.6690 -0.3319
 2096SOL    HW217925   1.345   2.794  16.415  0.3757  2.8974  1.0195
 2097SOL     OW17926   1.621   1.338   4.277 -0.1176  0.0091  0.1558
 2097SOL    HW117927   1.635   1.342   4.372  2.1267  1.3290 -0.2131
 2097SOL    HW217928   1.605   1.244   4.271  1.2984  0.0399 -4.2842
 2098SOL     OW17929   2.324   0.352  17.347 -0.0020 -0.4076  0.1155
 2098SOL    HW117930   2.339   0.446  17.333  0.8082 -0.4773  0.5303
 2098SOL    HW217931   2.263   0.366  17.420  1.3426  3.2142  0.5339
 2099SOL     OW17932   0.295   0.557   1.865 -0.5974 -0.4486 -0.0690
 2099SOL    HW117933   0.319   0.590   1.951 -1.1267 -0.2287 -0.0005
 2099SOL    HW217934   0.242   0.632   1.837 -2.0383 -2.2932 -2.2879
 2100SOL     OW17935   3.636   0.871   0.952 -0.1847  0.0914  0.2289
 2100SOL    HW117936   3.551   0.864   0.995 -0.5637  1.0970 -0.3576
 2100SOL    HW217937   3.613   0.923   0.876  0.4481 -0.5263 -0.3902
 2101SOL     OW17938   0.415   1.724   2.388 -0.0675  0.3675  0.0122
 2101SOL    HW117939   0.486   1.669   2.355  0.6000  0.6345  1.0148
 2101SOL    HW217940   0.341   1.668   2.364  0.2478  0.0726 -0.2839
 2102SOL     OW17941   1.539   2.897   3.158 -0.0792  0.2987 -0.0656
 2102SOL    HW117942   1.602   2.964   3.185 -1.0153  2.3157 -2.9069
 2102SOL    HW217943   1.579   2.873   3.075  0.7149 -1.5919  0.8612
 2103SOL     OW17944   3.389   0.733   1.639  0.3844  0.0997 -0.3274
 2103SOL    HW117945   3.335   0.662   1.673 -0.7277  0.6294 -1.0042
 2103SOL    HW217946   3.476   0.693   1.644  1.0524  1.3932 -2.0490
 2104SOL     OW17947   2.167   1.409   4.953 -0.3851  0.4318  0.5883
 2104SOL    HW117948   2.159   1.334   5.012 -1.0023 -0.3368 -0.4581
 2104SOL    HW217949   2.084   1.405   4.905 -0.7815 -0.1278  1.3147
 2105SOL     OW17950   1.045   3.399   3.505 -0.0205 -0.1272 -0.1049
 2105SOL    HW117951   0.962   3.402   3.553  1.1953 -0.0335  2.0292
 2105SOL    HW217952   1.076   3.489   3.518 -0.7642  0.1512 -0.2721
 2106SOL     OW17953   3.208   3.705   4.148  0.3718  0.1955 -0.8268
 2106SOL    HW117954   3.298   3.695   4.179  0.0949 -1.8835 -0.6896
 2106SOL    HW217955   3.212   3.728   4.055 -0.7550  0.7010 -0.7505
 2107SOL     OW17956   3.813   0.141  10.902 -1.0019 -1.0620 -0.7101
 2107SOL    HW117957   3.901   0.107  10.920 -0.5946  0.8593  0.9067
 2107SOL    HW217958   3.797   0.087  10.824 -1.9095 -1.4720 -0.2321
 2108SOL     OW17959   4.611   1.323   3.563  0.5643  0.1404 -0.2086
 2108SOL    HW117960   4.560   1.322   3.644 -1.4575  0.5276 -1.4675
 2108SOL    HW217961   4.682   1.263   3.587  0.4959 -0.0981 -0.6113
 2109SOL     OW17962   0.331   3.563   2.557 -0.5841 -0.2572  0.7923
 2109SOL    HW117963   0.246   3.555   2.601 -0.4907  0.6500  1.1407
 2109SOL    HW217964   0.362   3.653   2.558  1.4687 -0.9574  0.4046
 2110SOL     OW17965   1.853   2.440   9.068  0.6697  0.3821  0.4433
 2110SOL    HW117966   1.888   2.521   9.105 -1.1866  0.8653  1.1448
 2110SOL    HW217967   1.839   2.458   8.975 -1.9637 -1.1086  0.5265
 2111SOL     OW17968   2.031   3.813  16.380 -0.0398  0.3982  0.1935
 2111SOL    HW117969   1.980   3.880  16.336 -0.9422 -0.1277  0.4310
 2111SOL    HW217970   1.961   3.748  16.369 -0.6891  0.8239  1.8917
 2112SOL     OW17971   0.314   0.738  12.618 -0.3586 -0.2360 -0.4132
 2112SOL    HW117972   0.382   0.675  12.642 -0.1402  0.3011  0.3869
 2112SOL    HW217973   0.245   0.710  12.678 -1.8054  0.5663 -1.6918
 2113SOL     OW17974   1.270   0.881  12.687 -0.0285  0.5876  0.7722
 2113SOL    HW117975   1.346   0.933  12.661 -0.5919  1.0701  0.0925
 2113SOL    HW217976   1.284   0.796  12.644 -0.7263  1.3838 -1.0503
 2114SOL     OW17977   2.457   1.413   2.516  0.5614 -0.2342  0.0923
 2114SOL    HW117978   2.370   1.388   2.546  0.1623  0.6264 -0.3639
 2114SOL    HW217979   2.513   1.343   2.550 -1.0432 -1.4598  0.1455
 2115SOL     OW17980   1.870   1.366   9.457 -0.4164 -0.1549 -0.2034
 2115SOL    HW117981   1.915   1.450   9.457  0.9700 -0.9062 -1.6368
 2115SOL    HW217982   1.777   1.388   9.449 -0.9272 -2.6288 -1.1132
 2116SOL     OW17983   3.490   2.994   2.903 -0.3005 -0.2239  0.2439
 2116SOL    HW117984   3.487   2.966   2.995  0.0207 -0.9924  0.0203
 2116SOL    HW217985   3.415   3.054   2.912 -1.2007 -1.0531 -1.6281
 2117SOL     OW17986   2.558   3.828   8.393 -0.5576  0.1062 -0.3989
 2117SOL    HW117987   2.638   3.813   8.444 -0.9025  2.4125  0.8133
 2117SOL    HW217988   2.501   3.783   8.454 -0.5071 -0.7709 -0.9994
 2118SOL     OW17989   2.896   1.113   5.181 -0.4131  0.2466  0.0073
 2118SOL    HW117990   2.869   1.043   5.240  1.5298 -1.7526 -1.4968
 2118SOL    HW217991   2.961   1.166   5.228  1.5908 -0.7182 -1.7164
 2119SOL     OW17992   2.933   3.848   7.302  0.4473  0.0499 -0.0983
 2119SOL    HW117993   2.902   3.758   7.311  1.4065 -0.5320 -2.5080
 2119SOL    HW217994   2.879   3.892   7.367  0.5526  1.0175 -0.6728
 2120SOL     OW17995   2.311   4.428   3.650 -0.4220 -0.3262  0.3032
 2120SOL    HW117996   2.290   4.387   3.735  1.1629  0.2095  0.9415
 2120SOL    HW217997   2.323   4.354   3.590  0.0133  0.6582 -0.7988
 2121SOL     OW17998   4.058   0.092   2.095  0.4875  0.8411 -0.4078
 2121SOL    HW117999   3.979   0.040   2.076 -0.3405  2.0665 -0.2981
 2121SOL    HW218000   4.044   0.120   2.185 -2.1612 -1.1788 -0.1821
 2122SOL     OW18001   1.647   3.541  11.450  0.3095  0.1497 -0.3608
 2122SOL    HW118002   1.710   3.509  11.385  1.6643  1.0131  0.5027
 2122SOL    HW218003   1.598   3.460  11.463  0.0351  0.5185  0.8526
 2123SOL     OW18004   3.155   0.269   0.398 -0.1156 -0.4629 -0.4531
 2123SOL    HW118005   3.231   0.269   0.341 -0.8841  1.9468 -1.4594
 2123SOL    HW218006   3.141   0.362   0.416 -0.6816 -0.7433  0.5726
 2124SOL     OW18007   2.419   3.303   7.187  0.0812 -0.4717 -0.0663
 2124SOL    HW118008   2.451   3.262   7.267 -0.2463 -1.3578 -0.3907
 2124SOL    HW218009   2.355   3.234   7.169 -0.8722  0.9220 -2.0335
 2125SOL     OW18010   3.726   4.099  12.715  0.0150  0.6060  0.2468
 2125SOL    HW118011   3.645   4.134  12.751 -0.1794  1.4096 -0.9425
 2125SOL    HW218012   3.769   4.182  12.690 -1.0953  0.5848 -1.7582
 2126SOL     OW18013   3.083   0.796  17.546 -0.1766 -0.1815  0.4072
 2126SOL    HW118014   3.110   0.741  17.473 -0.0078 -2.3356  2.0845
 2126SOL    HW218015   3.065   0.877  17.499 -0.1251 -0.3507  0.0998
 2127SOL     OW18016   2.345   2.049   3.017 -0.7560  0.3209 -1.1337
 2127SOL    HW118017   2.382   2.094   2.942 -0.3459  0.9834 -0.5271
 2127SOL    HW218018   2.252   2.070   3.002 -0.8561  1.5950  1.4139
 2128SOL     OW18019   1.831   4.403   7.923  0.1786 -0.5250 -0.4386
 2128SOL    HW118020   1.794   4.486   7.951  1.9384  0.7628 -1.9150
 2128SOL    HW218021   1.906   4.392   7.981 -1.3689 -2.8324  1.1092
 2129SOL     OW18022   4.491   3.505   3.719 -0.4530  0.5506 -0.9639
 2129SOL    HW118023   4.495   3.521   3.624  0.4629 -2.4237 -1.4229
 2129SOL    HW218024   4.566   3.559   3.744 -0.2144 -0.5212  0.5897
 2130SOL     OW18025   4.365   3.158   2.147 -0.0325  0.8957 -0.0282
 2130SOL    HW118026   4.409   3.166   2.062 -1.8536  0.4207 -1.0244
 2130SOL    HW218027   4.274   3.168   2.118 -0.5068  0.6637  1.3598
 2131SOL     OW18028   3.961   2.966   3.870  0.6389  0.0259  0.3540
 2131SOL    HW118029   3.946   3.043   3.815 -0.5441 -1.9235 -2.0743
 2131SOL    HW218030   4.034   2.998   3.924 -0.4433  0.7100  1.4062
 2132SOL     OW18031   1.350   0.686  12.076  0.1539 -0.0646 -0.5551
 2132SOL    HW118032   1.359   0.640  12.160  1.4538  0.2381 -0.5184
 2132SOL    HW218033   1.406   0.627  12.025 -0.4573 -2.1660  1.1930
 2133SOL     OW18034   2.473   1.590   8.680 -0.0832 -0.0874 -0.0954
 2133SOL    HW118035   2.440   1.540   8.755 -2.8788  0.7328 -0.7760
 2133SOL    HW218036   2.411   1.662   8.669  0.7734  1.0982  2.6809
 2134SOL     OW18037   0.716   4.231  16.439  0.0795  0.1515  0.0928
 2134SOL    HW118038   0.681   4.267  16.521  0.1582  0.6580 -0.0929
 2134SOL    HW218039   0.661   4.265  16.368  0.2425  0.2866  0.0301
 2135SOL     OW18040   3.002   0.299   4.059 -0.0780 -0.0096 -0.9565
 2135SOL    HW118041   2.912   0.323   4.041  0.7554  0.3707 -4.5792
 2135SOL    HW218042   3.011   0.217   4.009 -1.3107  0.1662 -1.4476
 2136SOL     OW18043   1.299   4.193  15.138 -0.4606  0.1734  0.1136
 2136SOL    HW118044   1.245   4.244  15.078  1.4608  0.1456 -1.6469
 2136SOL    HW218045   1.235   4.123  15.150  0.2215 -0.3984  0.4381
 2137SOL     OW18046   1.608   0.659   1.200  0.0714  0.1890  0.2910
 2137SOL    HW118047   1.671   0.668   1.271 -1.1527  1.5462  1.1944
 2137SOL    HW218048   1.633   0.570   1.175 -0.2285 -0.0515  0.8495
 2138SOL     OW18049   1.745   4.439  17.642 -0.2145  0.2841  0.7856
 2138SOL    HW118050   1.751   4.368  17.705  1.5843  0.7140  1.1022
 2138SOL    HW218051   1.807   4.404  17.578 -2.3730  2.0436 -2.3199
 2139SOL     OW18052   1.926   2.632   1.701 -0.9309  0.2031 -0.4082
 2139SOL    HW118053   1.947   2.540   1.685  1.6123  0.6487  0.3849
 2139SOL    HW218054   1.962   2.683   1.628  1.1603 -2.0537 -0.9511
 2140SOL     OW18055   2.441   3.481  17.313  0.0649 -0.1878 -0.2883
 2140SOL    HW118056   2.397   3.565  17.327  0.7603 -0.0421  1.0263
 2140SOL    HW218057   2.518   3.496  17.258  0.5830 -1.5659  0.0589
 2141SOL     OW18058   0.731   1.630   6.612  0.1830 -0.0565 -0.0115
 2141SOL    HW118059   0.653   1.652   6.561  1.2877  1.1352 -1.1854
 2141SOL    HW218060   0.704   1.555   6.664  0.5260  0.3230  0.7078
 2142SOL     OW18061   1.401   3.724   8.039 -0.3792  0.3007 -0.1415
 2142SOL    HW118062   1.439   3.663   7.975  1.2177  1.7982 -0.6247
 2142SOL    HW218063   1.396   3.803   7.986 -1.4658 -1.0170 -1.9809
 2143SOL     OW18064   2.034   2.949   8.951 -0.3641 -0.0706 -0.1788
 2143SOL    HW118065   2.041   2.868   8.901  0.9431 -0.4083  0.5556
 2143SOL    HW218066   2.014   3.014   8.884 -0.5429 -0.9285 -0.9604
 2144SOL     OW18067   3.190   1.421  15.411 -0.3488  1.3068  0.2415
 2144SOL    HW118068   3.160   1.434  15.501 -3.8348 -0.4470 -0.6801
 2144SOL    HW218069   3.124   1.443  15.346 -0.9472  0.7855  0.6731
 2145SOL     OW18070   0.523   1.488   3.852 -0.1719  0.1385 -0.1717
 2145SOL    HW118071   0.519   1.425   3.780  0.8922 -0.3303  0.1783
 2145SOL    HW218072   0.445   1.540   3.832 -0.3550 -0.6369 -1.4929
 2146SOL     OW18073   1.148   3.786   9.962 -0.1968  0.4000 -0.0844
 2146SOL    HW118074   1.119   3.874   9.987  0.3326  0.7413 -0.6929
 2146SOL    HW218075   1.172   3.807   9.872 -1.2581  0.6142 -0.3189
 2147SOL     OW18076   2.641   0.639   1.899  0.2307 -0.7387 -0.3807
 2147SOL    HW118077   2.574   0.704   1.920 -1.1268 -2.2948  0.2037
 2147SOL    HW218078   2.720   0.693   1.907 -0.3532  0.1244 -0.5129
 2148SOL     OW18079   2.454   3.173   9.153  0.0983  0.2140  0.0721
 2148SOL    HW118080   2.548   3.170   9.171 -0.2455 -1.2644  1.6213
 2148SOL    HW218081   2.441   3.118   9.075  0.1283 -0.7278  0.7378
 2149SOL     OW18082   0.332   3.188   9.113 -0.2202  0.1714  0.3022
 2149SOL    HW118083   0.425   3.173   9.094 -0.3183  0.7949 -0.7143
 2149SOL    HW218084   0.326   3.144   9.197 -1.8371 -1.2302 -0.5536
 2150SOL     OW18085   0.169   0.363   2.450 -0.0137  0.4989  0.1688
 2150SOL    HW118086   0.164   0.399   2.538 -0.3191 -0.7800  0.6638
 2150SOL    HW218087   0.161   0.445   2.401 -0.8909  0.1661 -0.2303
 2151SOL     OW18088   1.185   2.237  17.287 -0.3562  0.5783  0.4165
 2151SOL    HW118089   1.148   2.324  17.280  1.9978  1.7525  2.4715
 2151SOL    HW218090   1.276   2.260  17.271 -0.1100  0.0615  1.0421
 2152SOL     OW18091   0.842   4.325  11.619 -0.0385  0.0941 -0.6401
 2152SOL    HW118092   0.805   4.276  11.692 -0.7602  1.4972 -0.0516
 2152SOL    HW218093   0.820   4.417  11.636  1.8177  0.5393 -0.6365
 2153SOL     OW18094   0.345   0.927   7.309 -0.3478 -0.3021 -0.5280
 2153SOL    HW118095   0.331   0.956   7.219 -0.1723  2.0298  0.2027
 2153SOL    HW218096   0.334   0.832   7.303  0.0388 -0.3717 -0.1817
 2154SOL     OW18097   0.667   4.567   3.092 -0.6183 -0.0695 -0.4260
 2154SOL    HW118098   0.669   4.630   3.020  1.8146  0.5416  0.2043
 2154SOL    HW218099   0.695   4.614   3.170  0.5436 -1.8291  0.2005
 2155SOL     OW18100   2.907   0.624  17.334  0.3438 -0.6673 -0.0273
 2155SOL    HW118101   2.995   0.650  17.307  0.5231 -1.9490 -0.6838
 2155SOL    HW218102   2.906   0.533  17.304 -0.0605 -1.0263  1.0625
 2156SOL     OW18103   2.393   0.211   6.083  0.1657 -0.2903  0.0778
 2156SOL    HW118104   2.475   0.167   6.058 -1.0023 -2.2908 -0.2783
 2156SOL    HW218105   2.427   0.300   6.084 -0.3689 -0.0584 -1.3483
 2157SOL     OW18106   0.442   2.607   7.301  0.2103 -0.3040  0.4761
 2157SOL    HW118107   0.519   2.631   7.352  1.3143 -3.2002  0.1609
 2157SOL    HW218108   0.483   2.540   7.246 -1.1261  0.1754 -1.0971
 2158SOL     OW18109   2.879   3.468   1.893 -0.8487  0.2690  0.1348
 2158SOL    HW118110   2.876   3.470   1.989 -2.1983  0.5166  0.0841
 2158SOL    HW218111   2.902   3.376   1.879 -0.5651  0.0556  1.9726
 2159SOL     OW18112   3.351   0.002   5.595  0.1022 -0.3724 -0.1564
 2159SOL    HW118113   3.369   0.082   5.644 -1.8962 -0.9839  1.5550
 2159SOL    HW218114   3.256   0.010   5.588  0.0170  1.4354  3.1605
 2160SOL     OW18115   1.390   0.053   7.252  0.0321  0.2029  0.1153
 2160SOL    HW118116   1.428   0.111   7.318  0.4402  2.1287 -1.8281
 2160SOL    HW218117   1.453   4.721   7.257  0.2252  0.4307  1.0335
 2161SOL     OW18118   0.794   3.794   6.465  0.3051 -0.3239 -0.4781
 2161SOL    HW118119   0.799   3.703   6.436 -0.4413  0.2778 -2.4868
 2161SOL    HW218120   0.869   3.829   6.416  0.2195 -0.3214 -0.6069
 2162SOL     OW18121   1.991   4.415  14.815  0.0888 -0.2007  0.0096
 2162SOL    HW118122   1.902   4.444  14.837  0.6326  1.1659  0.3937
 2162SOL    HW218123   2.025   4.399  14.903  0.0489 -0.4224 -0.0157
 2163SOL     OW18124   1.883   0.616   4.877 -0.6441 -0.1485  0.4519
 2163SOL    HW118125   1.912   0.550   4.814 -0.2182  0.6938 -0.2394
 2163SOL    HW218126   1.798   0.640   4.838  0.3936  1.3701 -0.8878
 2164SOL     OW18127   2.653   4.727   2.039  0.5805 -0.6486 -0.1637
 2164SOL    HW118128   2.608   4.645   2.018  0.5414 -0.4722 -0.7870
 2164SOL    HW218129   2.744   4.705   2.021  0.3322 -2.0217  0.2547
 2165SOL     OW18130   3.224   3.269   8.198  0.2609 -0.0443 -0.1472
 2165SOL    HW118131   3.281   3.245   8.271 -1.1126  0.5903  1.1418
 2165SOL    HW218132   3.150   3.213   8.221  1.5657 -0.7343  2.4451
 2166SOL     OW18133   1.098   2.985   7.599 -0.0013 -0.0898 -0.2345
 2166SOL    HW118134   1.129   3.072   7.625  1.3738 -0.2982 -1.1834
 2166SOL    HW218135   1.061   2.964   7.685 -1.0038 -0.3487 -0.7329
 2167SOL     OW18136   2.940   3.438   3.239  0.3011  0.2160  0.1109
 2167SOL    HW118137   2.875   3.423   3.308  2.1170 -2.4488  1.2356
 2167SOL    HW218138   2.949   3.354   3.194  0.4468  0.6705 -0.6905
 2168SOL     OW18139   2.199   2.844   8.553 -0.2805  0.5291  0.9593
 2168SOL    HW118140   2.184   2.937   8.533 -0.6545  1.1816  4.2690
 2168SOL    HW218141   2.266   2.858   8.620  1.3292 -0.4321 -0.4494
 2169SOL     OW18142   0.701   0.921   4.789  0.3250  0.5858  0.2827
 2169SOL    HW118143   0.684   0.937   4.882  0.3408 -0.1047  0.4049
 2169SOL    HW218144   0.650   0.842   4.772 -1.6318  1.7617  0.6600
 2170SOL     OW18145   1.602   4.073   2.605  0.1199  0.1011 -0.8290
 2170SOL    HW118146   1.588   4.026   2.522 -1.2755  0.9761 -1.0852
 2170SOL    HW218147   1.616   4.163   2.576 -0.6087  0.3901 -0.2639
 2171SOL     OW18148   4.567   2.305  12.449  0.3086 -0.1818 -0.3037
 2171SOL    HW118149   4.550   2.354  12.369  0.6028 -0.1006 -0.3196
 2171SOL    HW218150   4.491   2.250  12.462 -0.8778  1.1879 -1.4727
 2172SOL     OW18151   1.609   4.106  13.964 -0.2587  0.2027  0.0481
 2172SOL    HW118152   1.684   4.086  14.020 -0.8266  0.9818  1.0875
 2172SOL    HW218153   1.539   4.126  14.027 -0.2115 -0.6397  0.3673
 2173SOL     OW18154   3.439   1.335  17.049  0.3320 -0.3420 -0.2202
 2173SOL    HW118155   3.391   1.415  17.073  1.2514  0.4875 -1.1427
 2173SOL    HW218156   3.416   1.319  16.958 -2.1504 -0.2856  0.3879
 2174SOL     OW18157   0.907   3.254   0.713  0.3781  0.2438  0.4404
 2174SOL    HW118158   0.853   3.255   0.634 -0.1543 -0.4500  0.7900
 2174SOL    HW218159   0.837   3.274   0.775 -0.9696  1.9163 -1.6125
 2175SOL     OW18160   2.579   2.228   1.899  0.3322  0.1949  0.7150
 2175SOL    HW118161   2.645   2.213   1.968 -0.5835 -3.3293  0.8298
 2175SOL    HW218162   2.540   2.311   1.925  0.0759  0.9316 -2.0336
 2176SOL     OW18163   0.900   3.585  11.579 -0.5069 -0.5237  0.1915
 2176SOL    HW118164   0.811   3.617  11.598 -0.0307 -1.0275  3.2582
 2176SOL    HW218165   0.929   3.663  11.531  1.2406  0.0881  2.2220
 2177SOL     OW18166   4.309   3.598   8.654  0.0950  0.2174  0.1203
 2177SOL    HW118167   4.378   3.558   8.602 -0.2492  0.5336 -0.5858
 2177SOL    HW218168   4.340   3.686   8.676  0.1380 -0.5625  3.2567
 2178SOL     OW18169   1.477   3.449   2.471  0.2244 -0.2141  0.6989
 2178SOL    HW118170   1.499   3.432   2.380  0.5866 -0.9142  0.9179
 2178SOL    HW218171   1.429   3.371   2.500 -0.6401 -0.3190 -1.0656
 2179SOL     OW18172   3.493   1.928  16.679 -0.2063 -0.0598  0.4840
 2179SOL    HW118173   3.466   1.937  16.770 -2.5509 -1.4318 -0.0627
 2179SOL    HW218174   3.414   1.970  16.643  0.3485  1.2914  0.8441
 2180SOL     OW18175   0.740   3.042   9.217  0.2930 -0.2368  0.2632
 2180SOL    HW118176   0.672   3.045   9.150 -1.5157 -1.0203  2.0788
 2180SOL    HW218177   0.816   3.082   9.174 -0.2838  1.2336  0.6172
 2181SOL     OW18178   0.928   2.323   6.924 -0.1225  0.2743 -0.2996
 2181SOL    HW118179   0.960   2.413   6.921  0.1692  0.2187  1.1873
 2181SOL    HW218180   0.926   2.308   6.830  0.2603 -1.4357 -0.0335
 2182SOL     OW18181   0.228   1.460  12.777 -0.4688 -0.9370  0.1674
 2182SOL    HW118182   0.194   1.390  12.721  2.2042 -0.1875 -2.4062
 2182SOL    HW218183   0.291   1.502  12.718  1.2455 -1.1171  1.8497
 2183SOL     OW18184   1.479   0.084   7.736  0.1777 -0.1568  0.1050
 2183SOL    HW118185   1.545   0.021   7.707  2.0255  2.2410 -0.9235
 2183SOL    HW218186   1.504   0.098   7.827 -1.1237 -1.0336  0.5885
 2184SOL     OW18187   3.448   2.598   5.168 -0.2791 -0.0838  0.0154
 2184SOL    HW118188   3.380   2.618   5.231 -0.3666  2.3305 -0.8520
 2184SOL    HW218189   3.525   2.635   5.210 -1.3267  1.3902  0.6002
 2185SOL     OW18190   2.726   2.355   8.430 -0.6342 -0.1883  0.9527
 2185SOL    HW118191   2.720   2.276   8.376 -0.0660  0.8884 -0.7075
 2185SOL    HW218192   2.769   2.402   8.358 -0.9317  2.1519  2.3140
 2186SOL     OW18193   3.782   0.716   7.502 -0.2953 -0.6781  0.4552
 2186SOL    HW118194   3.717   0.777   7.538  2.5256  1.0398  2.6154
 2186SOL    HW218195   3.732   0.693   7.423 -0.5138 -0.8263  0.6375
 2187SOL     OW18196   0.943   0.994  16.849  0.2259 -0.2696 -0.0647
 2187SOL    HW118197   0.856   1.010  16.884 -0.1732  0.5713 -1.4307
 2187SOL    HW218198   0.936   0.903  16.820 -3.4772 -0.7758  2.4488
 2188SOL     OW18199   1.839   3.095   1.182 -0.1303  0.0013  0.1055
 2188SOL    HW118200   1.841   3.158   1.254 -0.5333  0.6266 -0.4282
 2188SOL    HW218201   1.816   3.158   1.114  0.2716 -0.7468 -0.7171
 2189SOL     OW18202   0.591   4.097   0.094 -0.7560  0.2852  0.0066
 2189SOL    HW118203   0.507   4.118   0.054 -0.4193  3.4762  1.0215
 2189SOL    HW218204   0.610   4.021   0.038  2.0128 -0.2306  1.6525
 2190SOL     OW18205   4.529   1.154   8.164  0.0523  0.2415 -0.4251
 2190SOL    HW118206   4.464   1.214   8.127 -2.7214 -1.6239  1.3365
 2190SOL    HW218207   4.604   1.173   8.109 -0.0416  3.4328  0.5204
 2191SOL     OW18208   2.534   0.202  14.616 -0.1088  0.4679 -0.7308
 2191SOL    HW118209   2.585   0.136  14.663 -0.1818 -1.0284 -2.7615
 2191SOL    HW218210   2.491   0.256  14.683  2.9514  1.0919  0.7262
 2192SOL     OW18211   3.553   0.609   7.367 -0.0208  0.1079 -0.1417
 2192SOL    HW118212   3.537   0.674   7.298  0.6341 -0.5872 -0.9528
 2192SOL    HW218213   3.478   0.629   7.423 -0.3255  2.0672 -1.2569
 2193SOL     OW18214   1.419   2.708   5.699  0.1333 -0.2693 -0.2104
 2193SOL    HW118215   1.356   2.739   5.634 -0.5881  0.4427  0.8205
 2193SOL    HW218216   1.423   2.615   5.677  0.2966 -0.5907  1.1752
 2194SOL     OW18217   0.021   0.785   3.074 -0.3027 -0.2102 -0.5733
 2194SOL    HW118218   0.043   0.756   3.163 -1.5202 -0.6742 -0.4159
 2194SOL    HW218219   4.736   0.877   3.087  0.3313 -0.0540 -0.4767
 2195SOL     OW18220   1.423   0.540   9.229  0.9419  0.5171  0.3481
 2195SOL    HW118221   1.370   0.491   9.166  0.0614  1.3747  0.4232
 2195SOL    HW218222   1.350   0.579   9.276 -0.8741  1.0031 -2.8616
 2196SOL     OW18223   4.092   3.594   7.411  0.1472  0.0941 -0.7571
 2196SOL    HW118224   4.029   3.667   7.412  0.5997  0.4668  0.5500
 2196SOL    HW218225   4.037   3.530   7.367  1.2048 -0.5926 -1.0650
 2197SOL     OW18226   2.209   3.061   6.797  0.1185  0.0221  0.3255
 2197SOL    HW118227   2.179   3.076   6.707  1.2395  0.7538  0.0694
 2197SOL    HW218228   2.225   3.153   6.819  0.2032  0.2810 -0.8260
 2198SOL     OW18229   0.026   4.315   3.407 -0.3565  0.3140  0.3193
 2198SOL    HW118230   0.054   4.303   3.497  2.8005  0.6084 -0.6289
 2198SOL    HW218231   0.044   4.409   3.397  2.0523 -0.0915  0.8696
 2199SOL     OW18232   0.070   3.250   2.712 -0.3330 -0.0419  0.2670
 2199SOL    HW118233   0.063   3.227   2.619 -3.8788  0.4414  0.4004
 2199SOL    HW218234   0.164   3.236   2.725 -0.7693 -2.6666  0.5250
 2200SOL     OW18235   2.187   3.010   6.531 -0.4720  0.2099 -0.3790
 2200SOL    HW118236   2.147   2.925   6.548  0.0139  0.2737  0.9987
 2200SOL    HW218237   2.188   3.011   6.435 -1.1896 -3.1306 -0.4231
 2201SOL     OW18238   1.215   0.949   1.861 -0.3236 -0.0997 -0.3171
 2201SOL    HW118239   1.177   1.036   1.847  0.5609  0.0990 -1.5233
 2201SOL    HW218240   1.180   0.911   1.780 -2.2905  1.4255 -0.1741
 2202SOL     OW18241   1.405   1.086   3.795  0.2102  0.7509  0.1988
 2202SOL    HW118242   1.368   0.998   3.783 -0.3421  1.1790 -1.1081
 2202SOL    HW218243   1.476   1.066   3.734 -1.4883  1.0025 -1.8481
 2203SOL     OW18244   3.447   0.592   5.161  0.0811  0.2008 -0.1732
 2203SOL    HW118245   3.353   0.580   5.150 -0.0595 -0.6537  2.1053
 2203SOL    HW218246   3.474   0.505   5.190 -0.0932  0.3599  0.4465
 2204SOL     OW18247   3.682   1.047   6.643  0.0427 -0.1195  0.1560
 2204SOL    HW118248   3.662   0.955   6.660  0.4076 -0.6117 -2.1543
 2204SOL    HW218249   3.677   1.056   6.548  0.2818 -2.7558 -0.1123
 2205SOL     OW18250   3.252   2.655   0.613 -0.0123  0.3193 -0.2968
 2205SOL    HW118251   3.170   2.607   0.615 -0.5209  1.2638  1.4376
 2205SOL    HW218252   3.311   2.615   0.549  1.3450  1.0209  0.5253
 2206SOL     OW18253   4.563   2.291   8.121  0.1193 -0.1651  0.7017
 2206SOL    HW118254   4.620   2.367   8.135 -2.5266  2.3339 -2.0498
 2206SOL    HW218255   4.545   2.255   8.207 -0.6212  0.3415  0.7557
 2207SOL     OW18256   3.140   3.593   1.276  0.1979 -0.0885 -0.7430
 2207SOL    HW118257   3.142   3.642   1.193 -0.8888  0.5146 -0.4125
 2207SOL    HW218258   3.138   3.657   1.347  1.4103 -0.3168 -0.5135
 2208SOL     OW18259   1.209   3.506   3.965 -1.2130 -0.1051  0.1682
 2208SOL    HW118260   1.264   3.489   4.041  0.1996  0.8814 -0.6488
 2208SOL    HW218261   1.221   3.600   3.954  1.5347 -0.4831  0.0198
 2209SOL     OW18262   0.640   1.121  15.487  0.1671 -0.4747 -0.7214
 2209SOL    HW118263   0.670   1.177  15.559 -1.2096  2.4557 -2.4169
 2209SOL    HW218264   0.555   1.082  15.507 -1.1279  1.9692 -1.4095
 2210SOL     OW18265   0.148   1.081   8.746  0.0567  0.4298 -0.3996
 2210SOL    HW118266   0.056   1.077   8.721  0.1839 -0.1111 -0.7975
 2210SOL    HW218267   0.160   1.172   8.721  2.2268 -0.2684 -1.9949
 2211SOL     OW18268   3.967   0.431   5.137  0.0549  0.3823  0.7196
 2211SOL    HW118269   3.964   0.495   5.207 -0.8840  1.6374 -0.4562
 2211SOL    HW218270   3.877   0.396   5.137  0.4996 -0.7638  1.7812
 2212SOL     OW18271   0.334   1.258  11.995 -0.3459  0.5633  0.1847
 2212SOL    HW118272   0.414   1.235  11.948 -1.1054 -1.6960 -0.0123
 2212SOL    HW218273   0.305   1.328  11.937 -1.6469 -0.4118 -0.3236
 2213SOL     OW18274   2.956   2.833   9.058  0.6209 -0.2402 -0.3799
 2213SOL    HW118275   2.892   2.772   9.021  1.1449 -0.4265 -0.9696
 2213SOL    HW218276   2.918   2.916   9.028  1.3196 -0.2822 -1.3804
 2214SOL     OW18277   3.574   0.480  11.058  0.1213  0.7396  0.1376
 2214SOL    HW118278   3.486   0.514  11.070  0.4662  1.2643  1.1759
 2214SOL    HW218279   3.629   0.551  11.026  1.5665 -0.5124 -0.1907
 2215SOL     OW18280   1.943   1.272   1.699 -0.3101 -0.4590  0.2238
 2215SOL    HW118281   1.891   1.344   1.663  1.6792  1.6608  1.5554
 2215SOL    HW218282   1.884   1.198   1.709 -4.5031  3.1021  1.6948
 2216SOL     OW18283   2.960   0.133   0.220 -0.4415  0.4511  0.4402
 2216SOL    HW118284   2.961   0.206   0.283  1.2457  2.3646 -1.8031
 2216SOL    HW218285   3.008   0.159   0.141 -2.5428 -2.6073 -1.8306
 2217SOL     OW18286   2.628   4.191   7.283  0.1442  0.2035 -0.6567
 2217SOL    HW118287   2.677   4.138   7.346  1.0739  1.2697 -0.4786
 2217SOL    HW218288   2.656   4.279   7.306  2.9646 -0.4542 -1.5908
 2218SOL     OW18289   0.540   3.630   7.080 -0.6956  0.0514 -0.1912
 2218SOL    HW118290   0.511   3.701   7.136  3.5062  1.6508 -0.0157
 2218SOL    HW218291   0.473   3.562   7.082 -0.7011  0.0500 -0.4987
 2219SOL     OW18292   0.659   2.493   5.182 -0.6305 -0.1791 -0.4362
 2219SOL    HW118293   0.579   2.469   5.135 -0.3005  1.0375 -1.6034
 2219SOL    HW218294   0.618   2.560   5.237 -0.1344  1.6003 -2.2358
 2220SOL     OW18295   1.261   1.288   1.745 -0.7089  0.1195 -0.0374
 2220SOL    HW118296   1.340   1.239   1.769 -1.5627 -1.0848  0.2804
 2220SOL    HW218297   1.195   1.271   1.812 -0.3326 -1.9417 -0.2162
 2221SOL     OW18298   3.088   3.097   5.441 -0.3503 -0.4673  0.3054
 2221SOL    HW118299   3.033   3.073   5.517 -0.9463 -0.5274 -0.1443
 2221SOL    HW218300   3.048   3.184   5.435  1.3764  0.2337 -0.7055
 2222SOL     OW18301   4.674   2.868  12.008  0.0947  0.1811 -0.3326
 2222SOL    HW118302   4.671   2.961  11.984  1.7308  0.2161 -0.4109
 2222SOL    HW218303   4.622   2.869  12.088  0.5326 -0.7613 -0.0354
 2223SOL     OW18304   3.149   2.167   2.115  0.3950 -0.9051 -0.1358
 2223SOL    HW118305   3.232   2.198   2.078 -0.2763  1.4981  0.4122
 2223SOL    HW218306   3.099   2.183   2.035 -0.4454 -2.3621  0.0904
 2224SOL     OW18307   4.321   4.018   7.075  0.2012 -0.2791 -0.1083
 2224SOL    HW118308   4.274   3.957   7.132  1.0812 -0.6057  0.2582
 2224SOL    HW218309   4.392   4.041   7.135  0.6446 -3.2035  0.4599
 2225SOL     OW18310   1.093   2.241   9.642  0.1156 -0.7441  0.4964
 2225SOL    HW118311   1.124   2.212   9.556  2.2434 -0.0839  1.0251
 2225SOL    HW218312   1.161   2.216   9.705  3.7206  1.5443 -2.4972
 2226SOL     OW18313   4.429   0.079   4.724  0.1185 -0.0352  0.1326
 2226SOL    HW118314   4.368   0.038   4.785 -2.0454  1.2397 -1.1881
 2226SOL    HW218315   4.510   0.082   4.775 -0.5588  1.7014  1.1025
 2227SOL     OW18316   4.329   0.528  17.147  0.2756  0.1371  0.3720
 2227SOL    HW118317   4.242   0.502  17.120  1.3195 -1.0029 -1.9106
 2227SOL    HW218318   4.318   0.549  17.240  1.5055  0.1480  0.5240
 2228SOL     OW18319   0.733   1.585   7.187  0.1378 -0.3174 -0.3905
 2228SOL    HW118320   0.801   1.522   7.160 -0.5933 -1.7297  1.0517
 2228SOL    HW218321   0.739   1.576   7.282  1.5857 -0.4620 -0.4838
 2229SOL     OW18322   2.166   2.285   5.314 -0.0420  0.0887  0.1186
 2229SOL    HW118323   2.161   2.350   5.243  0.5819 -0.1730 -0.1643
 2229SOL    HW218324   2.092   2.310   5.370 -0.0985  0.6862 -0.2208
 2230SOL     OW18325   1.838   4.622   4.781  0.5190  0.1827  0.0296
 2230SOL    HW118326   1.864   4.666   4.862 -0.8642 -1.2874  1.2730
 2230SOL    HW218327   1.860   4.686   4.714  0.3572  0.0874 -0.1144
 2231SOL     OW18328   0.281   2.418  17.154 -0.0013  0.1679  0.0338
 2231SOL    HW118329   0.296   2.505  17.191 -2.6850  0.2774  0.8886
 2231SOL    HW218330   0.295   2.360  17.228 -2.3037  0.0246  0.3793
 2232SOL     OW18331   3.846   1.983   2.582  0.2017  0.3231  0.3829
 2232SOL    HW118332   3.787   2.016   2.515  2.0903  3.2442  0.1798
 2232SOL    HW218333   3.809   1.898   2.607 -0.6335 -0.1526 -2.4893
 2233SOL     OW18334   0.172   4.190   6.496 -0.3442  0.1616 -0.4587
 2233SOL    HW118335   0.246   4.161   6.443  1.1826  3.1954  0.0050
 2233SOL    HW218336   0.181   4.134   6.573 -0.4935 -1.3086 -1.5062
 2234SOL     OW18337   1.890   2.700   8.446  0.2898 -0.1540 -0.1540
 2234SOL    HW118338   1.971   2.691   8.496  1.2975  0.2407 -1.6993
 2234SOL    HW218339   1.881   2.609   8.417 -2.0248  0.3617 -1.0268
 2235SOL     OW18340   3.524   0.401   3.162  0.9432  0.5682  0.2364
 2235SOL    HW118341   3.565   0.444   3.237 -0.0064  2.0644 -0.1091
 2235SOL    HW218342   3.510   0.311   3.194  2.3049  0.1849 -0.2591
 2236SOL     OW18343   2.460   2.461   1.973 -0.0872  0.4906  0.0359
 2236SOL    HW118344   2.392   2.526   1.958  0.1023  0.5945 -0.3824
 2236SOL    HW218345   2.467   2.462   2.068 -1.9232  1.5532  0.1618
 2237SOL     OW18346   3.972   1.318   0.079  0.1871  0.1344  0.3829
 2237SOL    HW118347   4.016   1.376   0.141  0.3316  0.4821 -0.0471
 2237SOL    HW218348   4.007   1.232   0.103  1.0536  0.3118 -0.2672
 2238SOL     OW18349   0.009   3.793   2.471  0.4490  0.3959  0.0478
 2238SOL    HW118350   0.025   3.726   2.536 -0.0012  0.3733  0.1380
 2238SOL    HW218351   4.662   3.830   2.489 -0.5977 -1.0208 -2.1258
 2239SOL     OW18352   1.761   1.222   2.374  0.5356 -0.1269 -0.6729
 2239SOL    HW118353   1.728   1.196   2.288  0.1699 -0.1021 -0.5389
 2239SOL    HW218354   1.719   1.308   2.385 -0.3024 -0.5096 -0.9204
 2240SOL     OW18355   0.750   0.556   2.207 -0.1632  0.3971 -0.0937
 2240SOL    HW118356   0.690   0.629   2.222  0.0214  0.8055 -1.3528
 2240SOL    HW218357   0.740   0.512   2.292  1.3150  0.9896  0.3897
 2241SOL     OW18358   0.070   1.026  14.912  0.0074 -0.3275  0.3977
 2241SOL    HW118359   0.151   1.022  14.965 -0.3272 -1.4724  0.8304
 2241SOL    HW218360   0.100   1.077  14.838  1.6985  0.6334  1.7331
 2242SOL     OW18361   1.136   0.038   6.273  0.9241  0.2705 -0.3972
 2242SOL    HW118362   1.084   4.712   6.319  0.3572  1.1113  0.1762
 2242SOL    HW218363   1.071   0.109   6.269 -0.6110 -0.9641  2.3278
 2243SOL     OW18364   4.651   4.622   7.748  0.2768 -0.7131  0.1456
 2243SOL    HW118365   4.627   4.685   7.680 -0.2564 -2.3098 -1.1411
 2243SOL    HW218366   4.610   4.674   7.817  2.9907  0.8686  0.6082
 2244SOL     OW18367   2.013   2.989   4.912 -0.1019 -0.0609 -0.5210
 2244SOL    HW118368   1.938   3.044   4.890  0.2296  0.1603 -1.0935
 2244SOL    HW218369   2.080   3.053   4.889  0.8599 -1.1064 -0.6489
 2245SOL     OW18370   3.697   1.257   5.181 -0.3877 -0.0369  0.4656
 2245SOL    HW118371   3.674   1.297   5.096  0.3964  1.1999  0.8352
 2245SOL    HW218372   3.708   1.168   5.147  1.2269  0.0361  0.7995
 2246SOL     OW18373   0.956   0.025   5.382  0.0238  0.4023 -0.4287
 2246SOL    HW118374   0.909   4.686   5.407 -0.4878  1.4148  1.8006
 2246SOL    HW218375   0.988   0.063   5.464 -0.8309  3.3576 -1.4536
 2247SOL     OW18376   4.012   0.212   7.316  0.1863 -0.1165 -0.1500
 2247SOL    HW118377   4.100   0.240   7.338  1.0350 -0.6463 -2.8605
 2247SOL    HW218378   3.992   0.285   7.258 -1.4874  0.7385  1.5043
 2248SOL     OW18379   4.036   2.467   6.587 -0.1624  0.1292 -0.4518
 2248SOL    HW118380   3.980   2.522   6.642 -0.1614 -0.8325  0.5035
 2248SOL    HW218381   4.095   2.533   6.550 -0.3397  1.5880  1.8907
 2249SOL     OW18382   0.403   3.333   9.538  0.0659  0.1721 -0.0928
 2249SOL    HW118383   0.409   3.350   9.632 -1.2280  0.1958 -0.0135
 2249SOL    HW218384   0.416   3.240   9.522  0.1647 -0.3060  2.7133
 2250SOL     OW18385   1.344   0.882   6.442 -0.6410  0.4605 -0.0588
 2250SOL    HW118386   1.296   0.893   6.524 -0.1625 -0.0280  0.2875
 2250SOL    HW218387   1.331   0.793   6.410  0.3204  0.9255 -1.7401
 2251SOL     OW18388   0.923   3.649   7.548 -0.2240 -1.1883  0.4160
 2251SOL    HW118389   0.898   3.625   7.459  0.8187 -1.1369  0.1139
 2251SOL    HW218390   0.910   3.744   7.551  0.6095 -1.1004  1.2111
 2252SOL     OW18391   0.756   2.343   3.277  0.0137 -0.2499 -0.3253
 2252SOL    HW118392   0.729   2.373   3.363  2.9942 -1.7184  1.1350
 2252SOL    HW218393   0.678   2.296   3.249 -0.0129 -0.9070  0.8548
 2253SOL     OW18394   3.696   0.625   5.021  0.3984  0.0799 -0.0187
 2253SOL    HW118395   3.773   0.617   4.965 -0.3443 -1.2283 -0.8326
 2253SOL    HW218396   3.691   0.540   5.063  1.5490 -0.6724 -1.4260
 2254SOL     OW18397   1.277   3.072   3.949 -0.2537 -0.2569  0.3029
 2254SOL    HW118398   1.257   3.082   4.042  1.4587 -1.6477  0.8196
 2254SOL    HW218399   1.208   3.116   3.900  0.4891 -0.9421 -1.3491
 2255SOL     OW18400   2.091   1.619  13.014 -0.2899 -0.4143  0.2654
 2255SOL    HW118401   2.049   1.629  13.100  0.3890  1.2742  0.4129
 2255SOL    HW218402   2.110   1.526  13.009  0.0336 -0.3716  0.7020
 2256SOL     OW18403   0.234   1.690  10.722 -0.0776 -0.0107 -0.6636
 2256SOL    HW118404   0.205   1.771  10.764 -0.1310  0.0623 -0.8453
 2256SOL    HW218405   0.306   1.725  10.670  0.7258 -1.1692 -0.3324
 2257SOL     OW18406   4.191   1.779  10.592  0.6701 -0.2899  0.0613
 2257SOL    HW118407   4.260   1.844  10.607  0.0236  0.4795 -0.2945
 2257SOL    HW218408   4.246   1.700  10.594  1.2909  0.1114 -1.1567
 2258SOL     OW18409   2.359   0.079  15.795  0.8490 -0.1901  0.6179
 2258SOL    HW118410   2.272   0.119  15.802  1.5699  1.6549 -0.9530
 2258SOL    HW218411   2.343   0.025  15.718  1.6452  0.3374  0.0918
 2259SOL     OW18412   2.596   3.734   4.673  0.0455 -0.0624  0.5249
 2259SOL    HW118413   2.649   3.711   4.596  0.1841 -0.6017  0.7887
 2259SOL    HW218414   2.556   3.813   4.635 -1.1603 -0.8060  0.2747
 2260SOL     OW18415   0.527   1.462   7.415  0.7320  0.0478  0.3038
 2260SOL    HW118416   0.619   1.484   7.425 -0.0872  2.3719  2.8318
 2260SOL    HW218417   0.541   1.383   7.363  1.8037  0.5055 -0.1077
 2261SOL     OW18418   1.439   4.244   7.525 -0.7462 -0.0184  0.7892
 2261SOL    HW118419   1.389   4.306   7.579 -1.8937 -0.8558  0.7036
 2261SOL    HW218420   1.374   4.215   7.461  1.8210  0.4824 -2.0567
 2262SOL     OW18421   1.946   0.996   4.897  0.1610 -0.3245  0.0088
 2262SOL    HW118422   1.875   1.048   4.935 -0.1018  1.0646 -2.3779
 2262SOL    HW218423   1.904   0.909   4.905  0.8119 -0.4261  2.2742
 2263SOL     OW18424   2.389   1.443   4.196  0.5032 -0.3511 -0.5310
 2263SOL    HW118425   2.332   1.414   4.125 -2.8067  0.9905  1.5654
 2263SOL    HW218426   2.405   1.369   4.255 -1.0171 -0.3747 -0.1416
 2264SOL     OW18427   1.367   4.349  15.916 -0.5516 -0.3427  0.3050
 2264SOL    HW118428   1.327   4.372  15.832 -0.1851 -2.8386 -0.5620
 2264SOL    HW218429   1.332   4.417  15.974 -0.9565  0.1437 -0.5073
 2265SOL     OW18430   0.685   4.721   2.202 -0.5925 -0.5495  0.3534
 2265SOL    HW118431   0.708   0.074   2.212 -0.3092 -0.5011 -0.8100
 2265SOL    HW218432   0.595   4.726   2.233 -0.1485 -1.6261  1.8140
 2266SOL     OW18433   1.477   1.335   2.690 -0.0394 -0.1669 -0.6622
 2266SOL    HW118434   1.391   1.364   2.721  1.2631  1.2762  1.5446
 2266SOL    HW218435   1.460   1.247   2.657  1.7740  0.3147 -2.8789
 2267SOL     OW18436   4.350   2.484  10.073  0.1352  0.0616 -0.4151
 2267SOL    HW118437   4.425   2.463  10.129 -1.4153 -0.1177  1.6185
 2267SOL    HW218438   4.304   2.400  10.075  0.0753  0.1026  0.0741
 2268SOL     OW18439   1.730   0.119  11.151  0.0399  0.0364  0.7997
 2268SOL    HW118440   1.819   0.135  11.118 -0.4249 -1.0041 -0.9278
 2268SOL    HW218441   1.732   0.024  11.157 -0.3490 -0.1064 -1.5131
 2269SOL     OW18442   1.863   2.665   0.339 -0.0968 -0.2511 -0.7967
 2269SOL    HW118443   1.824   2.632   0.259  0.9736  2.4429 -2.4481
 2269SOL    HW218444   1.832   2.596   0.397  1.5782 -2.0456 -2.0400
 2270SOL     OW18445   3.805   4.714   0.176 -0.6023 -0.2023 -0.3419
 2270SOL    HW118446   3.807   4.684   0.267  2.1778  0.8307 -0.0481
 2270SOL    HW218447   3.796   0.069   0.182 -0.6281 -0.2019 -0.3886
 2271SOL     OW18448   4.209   4.302   2.362  0.6618 -0.4797 -0.0532
 2271SOL    HW118449   4.202   4.385   2.316  2.0323  1.0305  2.4610
 2271SOL    HW218450   4.117   4.276   2.356  0.3765  0.1082  1.6132
 2272SOL     OW18451   0.855   4.668   0.492  0.0738 -0.4070 -0.7389
 2272SOL    HW118452   0.917   4.611   0.537  1.7094  1.7345 -0.3111
 2272SOL    HW218453   0.880   4.651   0.401  1.1678 -0.6084 -0.3985
 2273SOL     OW18454   1.206   4.028  13.858  0.6971 -0.3532 -0.1239
 2273SOL    HW118455   1.216   3.947  13.908  0.2156 -0.1302  0.3317
 2273SOL    HW218456   1.223   4.101  13.917  2.4939  2.1525 -3.7515
 2274SOL     OW18457   3.038   3.112   7.905  0.0329  0.0169 -0.9496
 2274SOL    HW118458   2.950   3.120   7.942  0.4405 -0.2275  0.0626
 2274SOL    HW218459   3.039   3.189   7.848 -0.5558  0.2386 -0.6619
 2275SOL     OW18460   3.914   3.598   4.137 -0.2564 -0.1729  0.1129
 2275SOL    HW118461   3.881   3.510   4.157  0.1069 -0.2871  0.1962
 2275SOL    HW218462   3.957   3.622   4.219 -1.2987 -0.1149  0.6446
 2276SOL     OW18463   3.842   4.102   5.563  0.3440  0.0035 -0.0944
 2276SOL    HW118464   3.906   4.168   5.535 -0.5621  1.0144  0.2085
 2276SOL    HW218465   3.760   4.153   5.565 -0.7875 -1.8044 -0.1884
 2277SOL     OW18466   0.016   0.335   7.048 -0.1803  0.5821  0.6995
 2277SOL    HW118467   4.720   0.271   7.109  0.5491 -0.4982 -0.0007
 2277SOL    HW218468   4.680   0.374   7.006 -1.2794 -0.6760  1.5079
 2278SOL     OW18469   0.870   1.310  16.531  0.5973 -0.4002  0.2617
 2278SOL    HW118470   0.899   1.385  16.582 -0.4262 -0.8661  1.5472
 2278SOL    HW218471   0.776   1.331  16.530  0.5768 -0.3981  2.0180
 2279SOL     OW18472   1.907   3.349   8.621  0.0257 -0.0859 -0.2488
 2279SOL    HW118473   1.845   3.387   8.559 -0.6712 -2.8104 -1.2147
 2279SOL    HW218474   1.904   3.256   8.598 -1.6785 -0.4843  1.5178
 2280SOL     OW18475   0.986   3.358   2.782 -0.3078  0.1243 -0.1350
 2280SOL    HW118476   0.893   3.373   2.762 -1.1029 -0.0353  3.4523
 2280SOL    HW218477   0.977   3.367   2.877 -1.8282 -4.6602  0.1334
 2281SOL     OW18478   1.184   0.445   1.407  0.0141 -0.5963 -0.2053
 2281SOL    HW118479   1.238   0.421   1.483  0.4754 -0.4753 -0.4948
 2281SOL    HW218480   1.138   0.365   1.382  2.2310 -2.4419  1.6536
 2282SOL     OW18481   0.635   4.650   6.403  0.2566  0.1103 -0.2383
 2282SOL    HW118482   0.557   4.605   6.371  0.2088 -0.0833  0.1441
 2282SOL    HW218483   0.636   4.729   6.350  2.7333  2.1339  2.7946
 2283SOL     OW18484   3.767   4.580  16.613 -0.3520  0.5497 -0.4702
 2283SOL    HW118485   3.765   4.606  16.705 -0.8069  0.8075 -0.5531
 2283SOL    HW218486   3.861   4.563  16.603 -0.6228 -0.9622 -0.4519
 2284SOL     OW18487   1.381   1.853   9.606  0.2708 -0.0332 -0.1822
 2284SOL    HW118488   1.438   1.792   9.560  0.2877 -1.4177  1.6319
 2284SOL    HW218489   1.407   1.940   9.575  1.4931 -0.2038  0.3599
 2285SOL     OW18490   2.988   1.196   9.695 -0.1552  0.2567 -0.2800
 2285SOL    HW118491   2.997   1.235   9.782  1.4914 -1.3325  0.2450
 2285SOL    HW218492   3.078   1.203   9.664  0.0582 -2.1489 -0.1690
 2286SOL     OW18493   1.033   3.655   1.657  0.3580  0.0525  1.0295
 2286SOL    HW118494   1.113   3.687   1.699 -0.5092  0.8913  2.0337
 2286SOL    HW218495   0.970   3.720   1.687  0.2211  0.7544 -0.7914
 2287SOL     OW18496   3.654   1.412   0.654  0.1299  0.2645 -0.7040
 2287SOL    HW118497   3.632   1.373   0.570 -0.3439  0.2073 -0.5543
 2287SOL    HW218498   3.576   1.466   0.668 -0.8696 -1.8370  1.8120
 2288SOL     OW18499   3.352   0.325   6.004 -0.1151  0.1327  0.4382
 2288SOL    HW118500   3.423   0.305   6.065  0.0996  1.8891  0.7488
 2288SOL    HW218501   3.274   0.316   6.059  0.9264 -0.1080  1.9046
 2289SOL     OW18502   1.322   0.302   2.382 -0.0991  0.1076 -0.3370
 2289SOL    HW118503   1.294   0.251   2.459 -2.7211 -0.3876 -1.6331
 2289SOL    HW218504   1.378   0.241   2.333  0.3219  1.2960 -1.3121
 2290SOL     OW18505   1.982   1.317   2.270 -0.6088 -0.4125 -0.2303
 2290SOL    HW118506   1.914   1.264   2.312 -1.2886  0.9628  0.3972
 2290SOL    HW218507   2.034   1.250   2.226  0.7115  0.8321 -0.5744
 2291SOL     OW18508   4.063   1.432   4.706  0.4048  0.3558 -0.4142
 2291SOL    HW118509   4.019   1.368   4.762  0.7625  1.6002  1.3266
 2291SOL    HW218510   4.057   1.379   4.627 -0.1913 -2.9183  1.8494
 2292SOL     OW18511   2.374   3.158   4.692 -0.6705  1.1149  0.0504
 2292SOL    HW118512   2.405   3.144   4.603  0.2947  3.4491  0.0246
 2292SOL    HW218513   2.284   3.133   4.669  0.5422 -2.8823 -0.2633
 2293SOL     OW18514   0.857   0.088   9.043 -0.0176 -0.2528  0.0075
 2293SOL    HW118515   0.837   0.179   9.022  2.4559  0.6386  1.4697
 2293SOL    HW218516   0.948   0.072   9.017 -0.3495  0.3952 -1.5643
 2294SOL     OW18517   3.909   4.115   3.874 -0.0117  0.1832 -0.3848
 2294SOL    HW118518   3.972   4.047   3.850 -0.3693  0.0699 -1.0243
 2294SOL    HW218519   3.899   4.098   3.967 -2.1071  1.6275 -0.3390
 2295SOL     OW18520   0.305   0.691   5.048  0.7683  0.9729  0.2441
 2295SOL    HW118521   0.221   0.651   5.026  1.5416 -2.1073  2.8907
 2295SOL    HW218522   0.288   0.782   5.024  1.1196  1.3442  1.4051
 2296SOL     OW18523   3.849   0.885  17.210 -0.1890 -0.2763  0.0739
 2296SOL    HW118524   3.825   0.909  17.121 -0.6556 -0.6039  0.1118
 2296SOL    HW218525   3.776   0.918  17.264 -1.0836 -1.9385 -0.1231
 2297SOL     OW18526   1.476   1.552   0.523  0.2347  0.1283  0.1332
 2297SOL    HW118527   1.431   1.544   0.607 -0.8784 -0.1348 -0.4947
 2297SOL    HW218528   1.411   1.605   0.477  0.0194 -0.3805 -0.1441
 2298SOL     OW18529   0.389   2.138   9.589 -0.0292 -0.0379 -0.5587
 2298SOL    HW118530   0.393   2.165   9.497  1.2428 -1.2591 -0.8568
 2298SOL    HW218531   0.473   2.166   9.625 -0.0006  0.0819 -0.7199
 2299SOL     OW18532   3.028   0.392   2.700  0.3084  0.4054 -0.8797
 2299SOL    HW118533   2.981   0.452   2.642 -0.6253 -0.1854 -0.7405
 2299SOL    HW218534   3.114   0.380   2.660  0.2488  1.7145 -1.3821
 2300SOL     OW18535   3.882   0.855  13.009 -0.6957 -0.7276  0.5322
 2300SOL    HW118536   3.852   0.767  13.032 -1.9513 -0.7126 -1.0193
 2300SOL    HW218537   3.830   0.855  12.928  0.1670  0.3360 -0.0214
 2301SOL     OW18538   2.056   3.457   2.847  0.1296 -0.0242  0.3596
 2301SOL    HW118539   2.000   3.387   2.881 -0.9579  0.6798  0.0102
 2301SOL    HW218540   1.990   3.524   2.831  1.7989  1.2587 -1.1416
 2302SOL     OW18541   0.182   1.787   4.783 -0.1967  0.6688  0.0229
 2302SOL    HW118542   0.192   1.879   4.759  2.8608  0.5055  0.6686
 2302SOL    HW218543   0.146   1.751   4.702  1.0320  0.6851 -0.5232
 2303SOL     OW18544   0.079   2.838  16.367  0.2497 -0.8964  0.1262
 2303SOL    HW118545   0.102   2.925  16.399 -2.1581 -0.3450  0.3807
 2303SOL    HW218546   4.728   2.824  16.393  0.4081 -0.9281  0.6523
 2304SOL     OW18547   3.164   2.922   6.230 -0.2603 -0.1480  0.0886
 2304SOL    HW118548   3.203   2.851   6.281  0.3378  0.2839  0.2308
 2304SOL    HW218549   3.212   2.902   6.150  0.1497 -1.5361  0.6797
 2305SOL     OW18550   4.549   3.294  11.739 -0.3814 -0.2357 -0.3558
 2305SOL    HW118551   4.463   3.305  11.699 -1.4189 -1.2668  1.5950
 2305SOL    HW218552   4.559   3.372  11.793  0.1944 -0.4487 -0.1533
 2306SOL     OW18553   0.311   3.423   3.408  0.5854 -0.0724  0.2317
 2306SOL    HW118554   0.326   3.419   3.502  0.5208 -1.9393  0.1653
 2306SOL    HW218555   0.305   3.329   3.392 -1.7175 -0.3559  2.7526
 2307SOL     OW18556   3.993   2.573   5.452  0.0445  0.1137 -0.1187
 2307SOL    HW118557   3.993   2.484   5.485 -1.5817 -0.8016 -2.5782
 2307SOL    HW218558   4.026   2.561   5.363  2.1672 -0.2688  0.7198
 2308SOL     OW18559   3.881   1.743   8.657 -0.3543  0.0726  0.4708
 2308SOL    HW118560   3.907   1.800   8.585  0.8580  0.9710  1.6205
 2308SOL    HW218561   3.921   1.661   8.628  3.4050  1.7390  0.8912
 2309SOL     OW18562   3.674   1.557   2.179  0.0862  0.0720 -0.1224
 2309SOL    HW118563   3.688   1.627   2.242 -0.0622 -0.1462  0.1528
 2309SOL    HW218564   3.725   1.591   2.105  0.0593  0.0846 -0.1349
 2310SOL     OW18565   3.677   1.904   7.498 -0.7839 -0.5024 -0.2171
 2310SOL    HW118566   3.679   1.905   7.594 -1.1583  0.8798 -0.2265
 2310SOL    HW218567   3.653   1.813   7.481 -2.2706  0.1561 -1.5834
 2311SOL     OW18568   3.168   3.463  10.780 -0.2548  0.2554 -0.3201
 2311SOL    HW118569   3.264   3.466  10.786 -0.2418 -2.3293  0.7922
 2311SOL    HW218570   3.154   3.468  10.686 -0.4935  1.8575 -0.2017
 2312SOL     OW18571   3.489   3.994  11.439 -0.6133 -0.3583  0.6747
 2312SOL    HW118572   3.440   4.072  11.412 -0.6652 -1.3065 -1.9572
 2312SOL    HW218573   3.541   4.030  11.511  1.5164  0.1093 -1.0763
 2313SOL     OW18574   3.793   2.987   2.256  0.0492  0.4213 -0.3821
 2313SOL    HW118575   3.809   3.081   2.265  1.1637  0.5083 -3.1674
 2313SOL    HW218576   3.726   2.997   2.189 -0.9306 -1.5974  0.3241
 2314SOL     OW18577   3.508   1.120  16.523 -0.6363 -0.5086  0.0913
 2314SOL    HW118578   3.501   1.026  16.539  2.0902 -0.3765  1.9542
 2314SOL    HW218579   3.599   1.130  16.496 -0.8009  0.1429 -0.2170
 2315SOL     OW18580   4.149   0.266   4.614  0.0500 -0.0109 -0.0448
 2315SOL    HW118581   4.212   0.204   4.577  0.7404  1.1440 -0.7883
 2315SOL    HW218582   4.161   0.258   4.709 -0.2793  0.1609  0.0119
 2316SOL     OW18583   0.257   0.478  13.731 -0.3070 -0.0099  0.2296
 2316SOL    HW118584   0.235   0.390  13.761  1.3085  0.3801  2.5952
 2316SOL    HW218585   0.222   0.524  13.807 -3.0139 -0.3271 -0.8179
 2317SOL     OW18586   2.144   2.863  12.441 -0.2685  0.1896  0.1187
 2317SOL    HW118587   2.157   2.779  12.485 -0.4960 -0.2362 -0.6345
 2317SOL    HW218588   2.200   2.858  12.363 -0.0678  0.6863  0.2326
 2318SOL     OW18589   1.563   0.832   3.939 -0.2149  0.0243 -0.7185
 2318SOL    HW118590   1.500   0.771   3.979 -0.3119  0.0480 -0.8363
 2318SOL    HW218591   1.627   0.769   3.907 -0.2979 -0.7525  0.6305
 2319SOL     OW18592   3.990   3.683   3.051 -0.3368 -0.1060  0.2273
 2319SOL    HW118593   3.973   3.775   3.067 -1.2006  0.0775 -1.8429
 2319SOL    HW218594   4.081   3.675   3.081  0.3859 -1.6656 -2.3538
 2320SOL     OW18595   0.677   2.906  15.469  0.6275  0.5579 -0.4294
 2320SOL    HW118596   0.637   2.992  15.454  0.3949  0.6128  0.5454
 2320SOL    HW218597   0.764   2.930  15.439 -0.0548  3.7633  0.1701
 2321SOL     OW18598   1.467   2.950   8.755 -0.4799 -0.0148 -0.7287
 2321SOL    HW118599   1.433   2.886   8.693 -4.0506  1.4984 -0.3712
 2321SOL    HW218600   1.455   3.031   8.705  0.0573  2.0904  2.5126
 2322SOL     OW18601   3.162   1.353  16.736  0.2362  0.0222  0.0583
 2322SOL    HW118602   3.070   1.346  16.710  0.2432 -0.2791  0.1114
 2322SOL    HW218603   3.180   1.447  16.743  0.4056 -0.0964  1.0999
 2323SOL     OW18604   1.680   1.958   4.019 -0.6436 -0.4657  0.1411
 2323SOL    HW118605   1.589   1.967   3.994 -1.2003  1.5614  2.8656
 2323SOL    HW218606   1.689   2.048   4.049 -0.6770  0.4271 -2.5600
 2324SOL     OW18607   4.464   3.108   8.966  0.5831 -0.2214 -0.5478
 2324SOL    HW118608   4.453   3.190   8.918 -2.3610 -0.6147 -0.5819
 2324SOL    HW218609   4.516   3.134   9.042 -0.2385  0.5236 -0.2346
 2325SOL     OW18610   4.323   0.586   6.883 -0.8870 -0.3755 -0.0820
 2325SOL    HW118611   4.382   0.613   6.813  0.7236  3.2829  2.6999
 2325SOL    HW218612   4.237   0.610   6.849 -0.9273  0.8164  0.8731
 2326SOL     OW18613   3.320   3.105   1.412  0.5625 -0.2736  0.1107
 2326SOL    HW118614   3.296   3.104   1.505  0.9676  0.1964  0.2221
 2326SOL    HW218615   3.258   3.172   1.382  0.6930 -0.7206 -1.1395
 2327SOL     OW18616   0.341   2.512   5.899  0.0948  0.4715  0.0362
 2327SOL    HW118617   0.294   2.594   5.882 -0.6886  0.0571  0.2400
 2327SOL    HW218618   0.380   2.527   5.985  1.8201 -0.2715 -0.6118
 2328SOL     OW18619   3.748   2.664  11.687  0.6993  0.0028 -0.0145
 2328SOL    HW118620   3.680   2.732  11.692  0.5234 -0.1509 -0.2972
 2328SOL    HW218621   3.832   2.708  11.676  0.9067 -1.0896 -2.8462
 2329SOL     OW18622   0.717   3.033   7.382  0.3636 -0.2002  0.4209
 2329SOL    HW118623   0.730   3.111   7.328  0.9933 -1.2690 -0.9857
 2329SOL    HW218624   0.624   3.038   7.406  0.4459  0.1445  0.6610
 2330SOL     OW18625   4.006   0.005  11.798 -0.1595  0.2829 -0.2025
 2330SOL    HW118626   3.948   0.080  11.814 -0.6793 -0.4743  1.4026
 2330SOL    HW218627   4.081   0.052  11.759 -0.6109  2.8010  1.9132
 2331SOL     OW18628   1.273   0.475   7.074 -0.3138  0.0759 -0.3722
 2331SOL    HW118629   1.250   0.543   7.010 -1.9724 -0.2889 -0.1590
 2331SOL    HW218630   1.340   0.424   7.030 -0.8241 -1.6064  0.8308
 2332SOL     OW18631   2.047   0.648   7.851 -0.2391 -0.2007  0.4164
 2332SOL    HW118632   1.990   0.698   7.793  0.0780  0.2262  0.4769
 2332SOL    HW218633   2.079   0.569   7.807 -1.5532  0.0102 -0.9083
 2333SOL     OW18634   2.066   2.274   6.221  0.5998 -0.4971  0.2269
 2333SOL    HW118635   2.049   2.337   6.151 -0.3573 -1.0832 -0.0582
 2333SOL    HW218636   2.160   2.284   6.211  0.3337  0.1078 -1.6956
 2334SOL     OW18637   0.307   1.413   0.855 -0.1790  0.3104 -0.0596
 2334SOL    HW118638   0.375   1.451   0.800  0.7624 -0.6282  0.4392
 2334SOL    HW218639   0.328   1.443   0.943 -1.2789  1.1448 -0.0875
 2335SOL     OW18640   2.158   2.840   3.616  0.0043  0.5591 -0.7185
 2335SOL    HW118641   2.142   2.746   3.625 -3.2116  1.0833 -1.0874
 2335SOL    HW218642   2.124   2.862   3.703  0.5706 -1.1451 -0.0713
 2336SOL     OW18643   2.471   0.840   7.846 -0.0844  0.4446 -0.0560
 2336SOL    HW118644   2.500   0.898   7.917 -0.0977  1.2991 -0.7468
 2336SOL    HW218645   2.551   0.804   7.808 -2.1803 -1.8173 -2.3141
 2337SOL     OW18646   1.371   1.604   3.725 -0.3085  0.1084  0.3176
 2337SOL    HW118647   1.312   1.630   3.654  1.8749  1.7762 -0.8808
 2337SOL    HW218648   1.328   1.528   3.764 -1.1544  0.1851 -0.4446
 2338SOL     OW18649   4.370   2.484   0.365 -0.1193 -0.1731 -0.1148
 2338SOL    HW118650   4.302   2.465   0.430 -0.9651  0.9787 -0.6658
 2338SOL    HW218651   4.438   2.515   0.424  0.5812  2.1916 -2.1856
 2339SOL     OW18652   2.278   3.528   2.027  0.0141 -0.0845 -0.2370
 2339SOL    HW118653   2.341   3.548   1.957 -2.3022  0.4657 -2.1607
 2339SOL    HW218654   2.316   3.452   2.071  2.0506  2.0810  1.7582
 2340SOL     OW18655   3.738   0.000  10.676 -0.4635 -0.2631 -0.3031
 2340SOL    HW118656   3.788   4.662  10.698 -1.3674 -1.1896 -1.5997
 2340SOL    HW218657   3.804   0.036  10.617 -0.3294  0.5825  0.3449
 2341SOL     OW18658   0.941   3.525  14.271  0.2772 -0.4768  0.0407
 2341SOL    HW118659   0.864   3.502  14.323  1.5369 -1.4496  1.4946
 2341SOL    HW218660   0.972   3.439  14.243  0.0692 -0.8042  0.8232
 2342SOL     OW18661   2.142   0.705  13.144  0.0405 -0.5201 -0.8483
 2342SOL    HW118662   2.165   0.630  13.199  0.1569  1.9708  2.4681
 2342SOL    HW218663   2.212   0.765  13.171  0.4064 -1.6625  0.7613
 2343SOL     OW18664   1.591   0.300  14.668  0.3810  0.2801  0.6056
 2343SOL    HW118665   1.632   0.232  14.722 -0.9013 -1.0100 -0.0379
 2343SOL    HW218666   1.556   0.358  14.736  1.3770  0.7643  0.7206
 2344SOL     OW18667   1.521   1.965  13.379  0.7504 -0.1770 -0.2377
 2344SOL    HW118668   1.567   1.968  13.295 -0.6636  0.1730 -1.0097
 2344SOL    HW218669   1.461   1.892  13.361 -1.0712  1.5018 -1.0073
 2345SOL     OW18670   2.314   2.600   1.447  0.2188 -0.0184  0.2339
 2345SOL    HW118671   2.363   2.570   1.523  0.0291 -0.0895  0.3275
 2345SOL    HW218672   2.255   2.527   1.430 -2.6860  2.4288 -0.3456
 2346SOL     OW18673   1.136   2.728  13.375  0.2787 -0.1172 -0.0537
 2346SOL    HW118674   1.229   2.704  13.372  0.3357  0.0911  0.0815
 2346SOL    HW218675   1.142   2.791  13.447 -0.2308 -0.5361  0.3551
 2347SOL     OW18676   1.008   3.337  10.922 -0.2176  0.0538 -0.1986
 2347SOL    HW118677   0.914   3.320  10.923  0.1751 -1.9906  2.5489
 2347SOL    HW218678   1.045   3.267  10.868 -1.2754  1.0360 -2.1811
 2348SOL     OW18679   4.079   2.338  17.096  0.5123 -0.1208 -0.1980
 2348SOL    HW118680   4.047   2.253  17.127 -2.0706  0.1878 -2.0301
 2348SOL    HW218681   4.030   2.393  17.158  0.0799  0.9055 -1.4458
 2349SOL     OW18682   1.684   1.120  17.434  0.5120 -0.7027 -0.2439
 2349SOL    HW118683   1.770   1.081  17.418  0.9753  0.6308 -0.9245
 2349SOL    HW218684   1.675   1.149  17.344  0.0839 -1.2320 -0.3721
 2350SOL     OW18685   1.611   1.002   9.130 -0.1877  0.3564 -0.1562
 2350SOL    HW118686   1.554   0.928   9.109 -1.0008  0.3052  2.2209
 2350SOL    HW218687   1.657   0.960   9.203  0.4187  2.1115  0.4639
 2351SOL     OW18688   3.678   0.436   8.268 -0.3417 -0.4987  0.4555
 2351SOL    HW118689   3.610   0.377   8.234  0.7448 -1.3590 -0.2057
 2351SOL    HW218690   3.749   0.408   8.211 -2.0210 -0.5168 -1.6220
 2352SOL     OW18691   3.934   0.799   7.788  0.1339  0.1914  0.1093
 2352SOL    HW118692   4.000   0.868   7.790  0.4474 -0.0976 -0.3750
 2352SOL    HW218693   3.847   0.836   7.773 -1.4178 -1.4673  4.9405
 2353SOL     OW18694   2.307   4.027   9.441 -0.3061  0.2166  0.6724
 2353SOL    HW118695   2.313   4.111   9.485  0.5321  0.7027 -0.3616
 2353SOL    HW218696   2.373   4.017   9.372 -0.2377  1.4689  0.5729
 2354SOL     OW18697   3.767   3.567  15.687  0.0295 -0.2538 -0.4284
 2354SOL    HW118698   3.706   3.539  15.619 -0.9121 -1.1248  0.7713
 2354SOL    HW218699   3.839   3.505  15.675  0.6276  0.4091 -0.2685
 2355SOL     OW18700   4.023   3.852   1.500 -0.0879 -0.2528 -0.5549
 2355SOL    HW118701   3.979   3.915   1.442  1.5970 -0.2750 -1.8455
 2355SOL    HW218702   3.962   3.872   1.571  0.0888 -1.8085  0.0289
 2356SOL     OW18703   4.073   0.014   1.790 -0.3030  0.3431  0.7163
 2356SOL    HW118704   4.009   4.711   1.734  1.8036  0.4923 -1.8093
 2356SOL    HW218705   4.100   4.683   1.849  2.4179  1.0545  0.3460
 2357SOL     OW18706   4.648   4.500  10.974 -0.3580 -0.2829  0.2231
 2357SOL    HW118707   4.702   4.426  10.944  0.8220  0.1703  1.1809
 2357SOL    HW218708   4.569   4.477  10.927  0.0668  0.4116 -0.8134
 2358SOL     OW18709   3.384   1.354   1.219 -0.1418  0.2783 -0.5561
 2358SOL    HW118710   3.390   1.447   1.198 -0.2639  0.2211 -0.8391
 2358SOL    HW218711   3.458   1.335   1.277 -1.7915 -4.5550 -0.0659
 2359SOL     OW18712   1.393   4.472   1.598 -0.2301 -0.0977 -0.1870
 2359SOL    HW118713   1.467   4.522   1.564  0.8241 -1.8516 -0.4673
 2359SOL    HW218714   1.367   4.424   1.520 -0.9076  1.9867 -1.2377
 2360SOL     OW18715   3.800   0.352   2.132  0.0107  0.5684 -0.3703
 2360SOL    HW118716   3.741   0.426   2.116 -0.6046  0.0705 -0.4046
 2360SOL    HW218717   3.757   0.279   2.087 -1.3466  0.9391  0.3191
 2361SOL     OW18718   0.304   1.907   6.247 -0.0081  0.1072  0.4295
 2361SOL    HW118719   0.299   1.838   6.181  1.1899 -0.4341  0.8984
 2361SOL    HW218720   0.399   1.899   6.256  0.0209 -0.0750 -0.0439
 2362SOL     OW18721   2.762   0.001  10.239 -0.4739 -0.1344  0.9343
 2362SOL    HW118722   2.697   0.064  10.271 -0.2324  0.9282 -0.6602
 2362SOL    HW218723   2.703   4.667  10.245  0.0974 -0.7797 -1.4860
 2363SOL     OW18724   3.882   0.398  13.350  0.1379 -0.1366 -0.0348
 2363SOL    HW118725   3.833   0.380  13.269 -2.3619  2.0319  0.9774
 2363SOL    HW218726   3.929   0.318  13.370  0.1286  0.4469  2.2928
 2364SOL     OW18727   3.655   4.288  11.428 -0.0311 -0.4358  0.2304
 2364SOL    HW118728   3.714   4.307  11.355 -0.2162  1.3415  0.5411
 2364SOL    HW218729   3.718   4.282  11.501 -0.1181  1.7152  0.4910
 2365SOL     OW18730   4.369   4.668   2.825  0.3511  0.9505  1.1794
 2365SOL    HW118731   4.459   4.676   2.856 -0.4670  2.2017  3.2405
 2365SOL    HW218732   4.342   0.018   2.806 -2.3488  0.1691  1.2783
 2366SOL     OW18733   3.119   4.481   9.340  0.1759  0.5347 -0.0303
 2366SOL    HW118734   3.177   4.423   9.291 -1.0629 -0.7414  0.0073
 2366SOL    HW218735   3.136   4.565   9.300 -1.3668  1.8589  2.0723
 2367SOL     OW18736   3.644   2.544   8.583 -0.1056  0.0497  0.3640
 2367SOL    HW118737   3.701   2.620   8.571  0.1574 -0.5176 -2.0147
 2367SOL    HW218738   3.593   2.533   8.503  1.3255 -3.2288 -0.0935
 2368SOL     OW18739   0.516   3.638   8.676 -0.0135  0.0260 -0.0291
 2368SOL    HW118740   0.598   3.589   8.679  1.1976  2.1554  1.9559
 2368SOL    HW218741   0.464   3.593   8.743 -0.6437 -1.0899 -1.2516
 2369SOL     OW18742   0.560   1.878  15.874  0.0439 -0.7756 -0.2315
 2369SOL    HW118743   0.477   1.833  15.884  0.7550 -1.7582  1.1446
 2369SOL    HW218744   0.529   1.961  15.837  1.7621 -0.1841 -0.3404
 2370SOL     OW18745   2.305   2.417   4.433 -0.7063  0.3643  0.0935
 2370SOL    HW118746   2.366   2.464   4.377 -2.2839  0.1498 -1.7891
 2370SOL    HW218747   2.314   2.473   4.510 -3.3313  0.6716  0.1527
 2371SOL     OW18748   0.702   3.751   9.270 -0.0467  0.5437  0.1433
 2371SOL    HW118749   0.729   3.756   9.361 -0.0235 -1.5414  0.2400
 2371SOL    HW218750   0.655   3.832   9.248 -2.0141 -0.6253  0.0708
 2372SOL     OW18751   1.366   0.698   8.370  0.4348  0.0331  0.1764
 2372SOL    HW118752   1.398   0.609   8.384 -2.1158 -1.4883 -3.6422
 2372SOL    HW218753   1.359   0.686   8.276  1.2207  1.6833 -0.0930
 2373SOL     OW18754   2.042   2.475  10.071  0.2467  0.4219 -0.0228
 2373SOL    HW118755   2.029   2.441  10.159 -2.1709  1.8966  0.1983
 2373SOL    HW218756   2.070   2.565  10.086  1.5277 -0.1563  1.0736
 2374SOL     OW18757   3.722   3.813  12.176 -0.5040 -0.0009 -0.5176
 2374SOL    HW118758   3.659   3.743  12.190  0.1340 -0.0751  1.8596
 2374SOL    HW218759   3.803   3.777  12.211 -1.5583 -1.3397  0.4972
 2375SOL     OW18760   3.972   3.285   5.332  0.5709  0.6380 -0.2246
 2375SOL    HW118761   3.961   3.372   5.370  0.1705  0.2673  0.4952
 2375SOL    HW218762   4.016   3.240   5.404  1.7518  0.7160 -0.8901
 2376SOL     OW18763   2.724   4.439   4.101  0.3693 -0.2539  0.4764
 2376SOL    HW118764   2.650   4.417   4.044  0.0503  0.1231  0.7456
 2376SOL    HW218765   2.778   4.359   4.104  2.7701  1.2433 -2.5413
 2377SOL     OW18766   2.613   1.033   7.073  0.5498 -0.3897  0.4852
 2377SOL    HW118767   2.691   1.070   7.114  0.2514 -1.0746  1.6722
 2377SOL    HW218768   2.556   1.061   7.145 -0.1033  2.0123 -0.9818
 2378SOL     OW18769   4.260   3.252  15.047 -0.0858  0.2578  0.0951
 2378SOL    HW118770   4.345   3.233  15.086 -0.4256 -1.5578 -0.0582
 2378SOL    HW218771   4.290   3.326  14.995 -0.9032 -0.3643 -1.2525
 2379SOL     OW18772   0.374   1.928   7.547 -0.1575  0.3401  0.0418
 2379SOL    HW118773   0.467   1.908   7.557 -0.4226  0.0825  1.9660
 2379SOL    HW218774   0.373   2.019   7.515  0.1643  1.5224  3.3253
 2380SOL     OW18775   1.335   0.292  15.908 -0.2888  0.3995 -0.2851
 2380SOL    HW118776   1.267   0.356  15.932 -0.7291 -0.3442  0.4525
 2380SOL    HW218777   1.394   0.296  15.983 -1.5928  1.9125  0.6732
 2381SOL     OW18778   0.543   2.929   6.663 -0.3425  0.1606  0.4940
 2381SOL    HW118779   0.549   2.946   6.569 -1.4760 -0.1348  0.3768
 2381SOL    HW218780   0.532   3.015   6.704 -0.0519  0.9764 -1.1115
 2382SOL     OW18781   3.880   0.566   0.281 -0.1890  0.4420 -0.5994
 2382SOL    HW118782   3.911   0.477   0.293 -1.2165  0.1514 -0.1358
 2382SOL    HW218783   3.786   0.547   0.290 -0.4278  0.8864 -2.1957
 2383SOL     OW18784   1.168   0.638   2.858  0.0492  0.1434  0.1476
 2383SOL    HW118785   1.195   0.608   2.771  0.1741 -0.9134  0.5566
 2383SOL    HW218786   1.234   0.703   2.883  0.6380 -1.1049  1.7921
 2384SOL     OW18787   4.245   0.733   7.384 -0.0229 -0.2661  0.1338
 2384SOL    HW118788   4.237   0.709   7.291 -0.2869  3.2271 -0.7679
 2384SOL    HW218789   4.168   0.790   7.384  0.9186  1.0051 -0.0444
 2385SOL     OW18790   0.272   0.819   4.012 -0.0978 -0.2826  0.6274
 2385SOL    HW118791   0.253   0.907   3.980 -0.3127 -0.5081  0.1372
 2385SOL    HW218792   0.243   0.829   4.103 -0.5479 -0.2297  0.4782
 2386SOL     OW18793   0.301   2.547   7.877 -0.2125 -0.0466 -0.2641
 2386SOL    HW118794   0.309   2.457   7.909 -0.6930  0.2494  0.6827
 2386SOL    HW218795   0.315   2.531   7.783 -1.5849  2.8813 -0.9544
 2387SOL     OW18796   3.564   0.976   7.224  0.0277 -0.0478  0.1712
 2387SOL    HW118797   3.492   1.016   7.176 -0.0747 -1.5162 -0.8899
 2387SOL    HW218798   3.619   0.939   7.155  0.8225  0.3333  0.5941
 2388SOL     OW18799   2.700   0.193  11.916 -0.0680  0.3129 -0.5292
 2388SOL    HW118800   2.762   0.141  11.967 -0.2671  0.4533 -0.1461
 2388SOL    HW218801   2.624   0.161  11.964  0.4729  1.7800  1.3091
 2389SOL     OW18802   1.951   1.160   9.300  0.5878 -0.6210  0.1791
 2389SOL    HW118803   1.934   1.222   9.371 -1.5935 -0.8929 -0.0827
 2389SOL    HW218804   1.898   1.186   9.225 -0.5965 -2.4683  0.3682
 2390SOL     OW18805   4.306   4.615  10.956 -0.2464  0.3873  0.0205
 2390SOL    HW118806   4.290   4.706  10.980  1.2567  0.4155  0.9262
 2390SOL    HW218807   4.330   4.618  10.863  2.2108 -2.6795  0.5481
 2391SOL     OW18808   3.497   0.295   6.235  0.0271 -0.1872  0.0619
 2391SOL    HW118809   3.586   0.262   6.218  0.7184  1.5056  0.3521
 2391SOL    HW218810   3.508   0.362   6.303  1.6325 -0.5362  0.1527
 2392SOL     OW18811   4.386   1.247   1.623  0.0091 -0.1293  0.5388
 2392SOL    HW118812   4.325   1.267   1.552  0.2517  3.1517  1.2446
 2392SOL    HW218813   4.358   1.156   1.632 -1.6938  0.2950 -0.4393
 2393SOL     OW18814   0.458   4.414  10.480 -0.4455 -0.5635 -0.1115
 2393SOL    HW118815   0.372   4.449  10.457 -0.3520 -0.2258  0.0592
 2393SOL    HW218816   0.444   4.351  10.551 -0.0497  0.8229  1.1893
 2394SOL     OW18817   1.417   3.584  15.268  0.1851  0.0516 -0.2441
 2394SOL    HW118818   1.342   3.634  15.238 -0.3612 -0.2811  0.5509
 2394SOL    HW218819   1.488   3.627  15.221  0.0635  0.6973  0.1605
 2395SOL     OW18820   4.721   1.521   3.898 -0.4513 -0.3960 -0.8600
 2395SOL    HW118821   4.697   1.555   3.812 -0.4715 -1.2251 -1.1747
 2395SOL    HW218822   4.665   1.581   3.947 -0.5251 -0.9010 -0.3236
 2396SOL     OW18823   1.050   0.065   0.727 -0.2357  0.2893 -0.4725
 2396SOL    HW118824   1.073   0.117   0.804  0.9684  0.5268 -0.9979
 2396SOL    HW218825   1.074   4.716   0.752 -0.3259  0.0784 -1.1283
 2397SOL     OW18826   0.096   1.794  15.342  0.0331 -0.4284 -0.2641
 2397SOL    HW118827   0.082   1.704  15.370 -2.3741 -0.1754 -0.5831
 2397SOL    HW218828   0.028   1.808  15.276 -0.0335 -1.1812 -0.3516
 2398SOL     OW18829   1.848   4.328   3.804 -0.5738 -0.0494 -0.1418
 2398SOL    HW118830   1.775   4.266   3.795 -0.7420 -0.1316  1.7981
 2398SOL    HW218831   1.804   4.396   3.855 -1.5846  0.9400 -2.3289
 2399SOL     OW18832   3.023   4.672  10.200 -0.5190 -0.0115 -0.6175
 2399SOL    HW118833   3.009   4.610  10.128  0.3261 -0.5982 -0.2801
 2399SOL    HW218834   2.963   0.004  10.178 -0.4900  0.5901  1.3182
 2400SOL     OW18835   4.312   0.996   0.702  0.4635 -0.3020  0.0667
 2400SOL    HW118836   4.273   0.951   0.777 -0.2809  1.0647  0.5062
 2400SOL    HW218837   4.247   1.060   0.671  0.8892  0.1773  0.1738
 2401SOL     OW18838   2.776   1.558   6.636 -0.6105  0.1248  0.3600
 2401SOL    HW118839   2.708   1.548   6.702  0.2691 -0.3819  1.1773
 2401SOL    HW218840   2.761   1.649   6.611 -0.0350 -0.4582 -2.1542
 2402SOL     OW18841   2.673   1.486   2.108  0.3081 -0.2320  0.2182
 2402SOL    HW118842   2.750   1.431   2.096  1.1929  1.0476  0.0341
 2402SOL    HW218843   2.601   1.441   2.064  1.6173 -2.7876  0.6375
 2403SOL     OW18844   2.567   4.034  11.182  0.2596 -0.1576 -0.1644
 2403SOL    HW118845   2.538   3.973  11.115  0.4346  0.1430 -0.5099
 2403SOL    HW218846   2.482   4.059  11.220 -0.2059 -0.7818 -0.8042
 2404SOL     OW18847   0.048   2.223   0.115 -0.0273  1.0338 -0.3421
 2404SOL    HW118848   4.730   2.247   0.187 -1.4453  0.3190 -1.2592
 2404SOL    HW218849   4.729   2.218   0.040  0.3642  0.7790 -0.6360
 2405SOL     OW18850   1.630   4.232   7.835  0.1109  0.0489  0.6251
 2405SOL    HW118851   1.709   4.265   7.879  0.1022 -0.1282  0.7765
 2405SOL    HW218852   1.564   4.277   7.889 -2.2156 -3.2043  0.4561
 2406SOL     OW18853   0.607   2.676   1.675  0.1902 -0.1139  0.0072
 2406SOL    HW118854   0.598   2.606   1.610 -2.4991 -1.4889  1.8351
 2406SOL    HW218855   0.701   2.691   1.662 -0.0023  0.6376 -0.4968
 2407SOL     OW18856   2.354   2.780   8.334 -0.3074 -0.3326  0.1284
 2407SOL    HW118857   2.392   2.698   8.366  0.1904  0.3304  1.2136
 2407SOL    HW218858   2.287   2.799   8.400 -0.7157 -0.4328 -0.2532
 2408SOL     OW18859   2.878   4.273   0.598  0.2740 -0.1580 -0.4449
 2408SOL    HW118860   2.958   4.220   0.590  0.3949  0.1058 -1.0163
 2408SOL    HW218861   2.882   4.318   0.513  1.2716  1.3448  0.4123
 2409SOL     OW18862   2.386   0.409   8.826 -0.0373  0.0620  0.1189
 2409SOL    HW118863   2.292   0.408   8.810 -0.0811  1.9558  0.2233
 2409SOL    HW218864   2.419   0.454   8.748 -1.2019  0.2715 -0.2378
 2410SOL     OW18865   1.651   0.060   0.023  0.5687  0.4788  0.2231
 2410SOL    HW118866   1.628   0.027   0.110  0.8414 -1.1925 -0.3323
 2410SOL    HW218867   1.600   0.139   0.040  3.4367  2.1830  0.8657
 2411SOL     OW18868   3.001   4.176   8.796 -0.5653 -0.1266  0.2726
 2411SOL    HW118869   2.942   4.225   8.739  1.4655 -1.4187 -2.9300
 2411SOL    HW218870   2.971   4.211   8.880 -0.6889  1.9112 -0.6167
 2412SOL     OW18871   2.546   3.702   6.806  0.6097 -0.2811  0.1197
 2412SOL    HW118872   2.539   3.794   6.779 -1.6362 -0.2983  0.6207
 2412SOL    HW218873   2.533   3.656   6.723  1.1842  1.1684 -0.7912
 2413SOL     OW18874   2.478   1.061  16.307  0.0044 -0.0569 -0.1923
 2413SOL    HW118875   2.500   1.041  16.216  0.7211 -0.6011  0.0947
 2413SOL    HW218876   2.451   0.978  16.345  0.8719  0.4001  1.4718
 2414SOL     OW18877   4.541   4.081  14.420  0.3544  0.3796  0.1756
 2414SOL    HW118878   4.512   3.995  14.451  0.0038  0.0549 -1.0292
 2414SOL    HW218879   4.610   4.063  14.356  0.3451 -0.6191  0.4393
 2415SOL     OW18880   2.483   4.352  15.451  0.1268  0.2137  0.6918
 2415SOL    HW118881   2.527   4.436  15.462  1.6315 -0.8134  2.4545
 2415SOL    HW218882   2.495   4.319  15.540  1.8226 -1.7046 -0.2501
 2416SOL     OW18883   0.911   3.493   7.293 -0.2103  0.5760 -0.5907
 2416SOL    HW118884   0.906   3.496   7.198 -3.9169  0.1840 -0.3922
 2416SOL    HW218885   0.824   3.513   7.326  0.1358  1.4892 -0.2279
 2417SOL     OW18886   1.054   0.003  12.605 -0.2066 -0.3161  0.7136
 2417SOL    HW118887   1.004   0.044  12.534  0.2118  0.0295  0.6130
 2417SOL    HW218888   1.026   4.653  12.614 -0.6827 -0.1298  1.0916
 2418SOL     OW18889   0.119   3.953   8.552 -0.8456  0.0004 -0.0616
 2418SOL    HW118890   0.203   3.907   8.540 -1.8526 -1.8926  0.0830
 2418SOL    HW218891   0.106   3.941   8.646 -2.9369  1.1096 -0.2074
 2419SOL     OW18892   1.094   4.421   5.644 -0.4349  0.3388  0.0385
 2419SOL    HW118893   1.166   4.360   5.630 -1.3246 -0.7460  0.0880
 2419SOL    HW218894   1.122   4.470   5.721 -1.6289 -0.0880  0.7555
 2420SOL     OW18895   3.526   2.216  10.164 -0.1764 -0.4837 -0.0265
 2420SOL    HW118896   3.608   2.185  10.124  0.4102  2.0257 -0.7673
 2420SOL    HW218897   3.516   2.156  10.238 -0.6867  0.9400  1.0657
 2421SOL     OW18898   3.310   0.232   6.726 -0.4082 -0.0409 -0.4878
 2421SOL    HW118899   3.297   0.319   6.690 -2.1568  0.6062  1.7315
 2421SOL    HW218900   3.395   0.237   6.768 -0.0986  0.4519 -1.1727
 2422SOL     OW18901   4.318   0.464   0.318 -0.1092  0.2861 -0.1413
 2422SOL    HW118902   4.310   0.555   0.289  2.5741  1.1562  1.9256
 2422SOL    HW218903   4.298   0.469   0.411 -1.1143  0.2418 -0.3586
 2423SOL     OW18904   1.933   0.307   8.158  0.0319 -0.4758  0.3698
 2423SOL    HW118905   1.889   0.392   8.156  2.9700  1.0571  0.4439
 2423SOL    HW218906   1.942   0.289   8.064  1.8228 -1.1853  0.6672
 2424SOL     OW18907   2.366   2.663   5.075  0.2014 -0.8104  0.0782
 2424SOL    HW118908   2.452   2.620   5.079  0.4509 -0.2520  0.7968
 2424SOL    HW218909   2.387   2.748   5.114  1.8715 -1.4434  0.5762
 2425SOL     OW18910   1.883   2.594  12.454  0.1821  0.0867  1.0303
 2425SOL    HW118911   1.789   2.579  12.456  0.2633 -0.5134  0.1213
 2425SOL    HW218912   1.919   2.516  12.498  0.9473  0.9654  1.9700
 2426SOL     OW18913   1.063   1.338  13.070 -0.3164  0.5421  0.0759
 2426SOL    HW118914   1.143   1.287  13.060  0.3374  1.5776  0.1032
 2426SOL    HW218915   1.006   1.294  13.007 -1.5270  0.1951  1.4053
 2427SOL     OW18916   1.464   0.419  12.668 -0.6068 -0.5579 -0.2845
 2427SOL    HW118917   1.430   0.337  12.634  0.6386 -2.3596  2.7753
 2427SOL    HW218918   1.541   0.398  12.721 -1.8384  0.6693  1.9961
 2428SOL     OW18919   4.326   1.558   5.331  0.4196  0.0739 -0.5142
 2428SOL    HW118920   4.330   1.468   5.299  0.1221  0.3445 -1.3122
 2428SOL    HW218921   4.305   1.617   5.259 -1.7408 -0.1764 -0.0724
 2429SOL     OW18922   1.821   3.011  16.275 -0.1703 -0.0740 -0.2593
 2429SOL    HW118923   1.793   2.920  16.282 -0.8795  0.4557  3.9572
 2429SOL    HW218924   1.812   3.021  16.370 -1.4549 -0.1773 -0.3663
 2430SOL     OW18925   2.588   3.034   6.643 -0.0079  0.1704  0.3774
 2430SOL    HW118926   2.590   3.127   6.622 -0.3210  0.1461  0.2372
 2430SOL    HW218927   2.658   2.999   6.587 -2.5042 -0.0195 -2.6560
 2431SOL     OW18928   1.489   4.113  11.800  0.6818 -0.1513 -0.3879
 2431SOL    HW118929   1.524   4.033  11.838 -0.2078  1.0666  3.0190
 2431SOL    HW218930   1.410   4.091  11.751  0.5096  1.0147 -0.6337
 2432SOL     OW18931   2.208   0.528  11.158 -0.5824 -0.0842 -0.1997
 2432SOL    HW118932   2.150   0.600  11.184  1.0789  1.2956 -0.2947
 2432SOL    HW218933   2.291   0.569  11.134 -0.3172  0.7561  2.1418
 2433SOL     OW18934   0.678   4.671   5.537 -0.1577  0.2995 -0.2742
 2433SOL    HW118935   0.726   4.620   5.602 -0.4408  1.3820  0.7865
 2433SOL    HW218936   0.700   4.619   5.459 -0.5250 -0.0765 -0.1325
 2434SOL     OW18937   3.823   2.225   8.273  0.1275  0.0536  0.1532
 2434SOL    HW118938   3.739   2.265   8.296 -1.7744 -0.9467 -5.0643
 2434SOL    HW218939   3.807   2.163   8.202  2.2421 -2.0385  1.5046
 2435SOL     OW18940   1.247   2.175   1.009  0.7253 -0.2602 -0.4253
 2435SOL    HW118941   1.210   2.186   1.097  1.7616 -0.2419  0.0050
 2435SOL    HW218942   1.198   2.242   0.961  0.5081  0.1667  0.4023
 2436SOL     OW18943   1.880   2.848   8.186  1.1713 -0.4804 -0.0529
 2436SOL    HW118944   1.846   2.764   8.156  0.2289  0.7303 -2.3345
 2436SOL    HW218945   1.924   2.815   8.265  1.1295 -2.1316 -0.7134
 2437SOL     OW18946   0.412   0.943   7.830  0.2942 -0.4655  0.2701
 2437SOL    HW118947   0.383   0.943   7.921 -1.2799  0.2583 -0.2198
 2437SOL    HW218948   0.400   1.034   7.802 -2.2550 -0.6394  0.8527
 2438SOL     OW18949   4.272   0.746  16.655  0.1618  0.0391 -0.7110
 2438SOL    HW118950   4.208   0.721  16.721  2.5590  2.0673  2.3688
 2438SOL    HW218951   4.334   0.803  16.700 -1.1445  0.9273 -0.0469
 2439SOL     OW18952   2.454   0.698   4.687  0.0432 -0.3244  0.5621
 2439SOL    HW118953   2.410   0.630   4.738 -0.2163 -1.8629 -1.7150
 2439SOL    HW218954   2.545   0.687   4.715  0.4391 -0.4492 -0.8159
 2440SOL     OW18955   0.791   0.871   8.713 -0.0223  0.0033  0.5058
 2440SOL    HW118956   0.705   0.836   8.735 -1.1506  1.4638 -1.5971
 2440SOL    HW218957   0.772   0.965   8.718 -1.8117 -0.3818  0.7678
 2441SOL     OW18958   1.976   4.678  16.765 -0.7954 -0.3203 -0.5511
 2441SOL    HW118959   2.055   4.709  16.809  0.0552  0.9846 -3.0047
 2441SOL    HW218960   1.987   4.705  16.674 -1.2668  0.4165 -0.3889
 2442SOL     OW18961   3.934   1.597   6.941 -0.4083  0.4672 -0.0999
 2442SOL    HW118962   3.991   1.621   6.868 -0.8131 -1.9250 -1.2092
 2442SOL    HW218963   3.863   1.557   6.890 -1.4632  1.8926  0.2539
 2443SOL     OW18964   1.660   2.475  17.163 -0.5542  0.2899  0.1856
 2443SOL    HW118965   1.718   2.426  17.106 -1.6291  1.2497 -1.7333
 2443SOL    HW218966   1.706   2.458  17.245  0.5199  1.8566 -0.0895
 2444SOL     OW18967   1.303   1.153   2.228 -0.2950  0.0328  0.7552
 2444SOL    HW118968   1.300   1.114   2.315  4.0074 -2.0677 -0.0296
 2444SOL    HW218969   1.342   1.083   2.176 -0.7826  0.9572 -0.8517
 2445SOL     OW18970   0.031   1.363  16.157 -0.0509 -0.0643  0.8077
 2445SOL    HW118971   4.706   1.396  16.095 -1.0206 -1.0316  1.3261
 2445SOL    HW218972   0.081   1.441  16.183  2.4985 -1.3511 -0.2425
 2446SOL     OW18973   0.181   3.428  12.011  0.0673  0.2258 -0.3459
 2446SOL    HW118974   0.096   3.451  12.048 -0.2493 -2.2694  0.5077
 2446SOL    HW218975   0.160   3.375  11.934 -2.2156  0.7679 -0.0924
 2447SOL     OW18976   2.190   3.326   6.220 -0.1058  0.5117 -0.1501
 2447SOL    HW118977   2.108   3.308   6.268 -0.3270 -2.4795 -1.6173
 2447SOL    HW218978   2.172   3.264   6.149  0.5483 -0.6354  0.6767
 2448SOL     OW18979   4.069   0.037  10.903 -0.3979 -0.1360 -0.5963
 2448SOL    HW118980   4.093   4.685  10.915  2.1574  0.2962 -2.5211
 2448SOL    HW218981   4.108   0.046  10.816 -0.3820 -2.1953 -0.8145
 2449SOL     OW18982   3.219   1.372  17.287  0.9454 -0.5084  0.5825
 2449SOL    HW118983   3.307   1.374  17.324  0.2962  2.7866  1.9228
 2449SOL    HW218984   3.227   1.282  17.258  2.1649  0.7344 -2.9689
 2450SOL     OW18985   1.937   1.782  11.981  0.0620  0.3720 -0.0348
 2450SOL    HW118986   1.972   1.869  11.963  0.5944 -0.2889 -2.1915
 2450SOL    HW218987   1.894   1.801  12.064 -2.1994 -0.8010 -0.9389
 2451SOL     OW18988   4.639   3.887   3.652  0.0416  0.2418  0.2727
 2451SOL    HW118989   4.728   3.917   3.631  0.5541 -1.2398  0.3286
 2451SOL    HW218990   4.593   3.965   3.619  2.6003  2.1314  1.1816
 2452SOL     OW18991   1.241   0.700  13.184  0.3099  0.5013 -0.2073
 2452SOL    HW118992   1.249   0.615  13.139  0.4516  0.2735  0.2480
 2452SOL    HW218993   1.146   0.697  13.194  0.4342 -0.5829  0.7003
 2453SOL     OW18994   2.373   2.375   8.038 -0.2102 -0.3447 -0.2107
 2453SOL    HW118995   2.453   2.401   7.993  0.2196 -2.9590 -0.9394
 2453SOL    HW218996   2.313   2.446   8.017  1.3220  1.9381  3.0759
 2454SOL     OW18997   1.725   1.996  16.939 -0.3958  0.1979 -0.2122
 2454SOL    HW118998   1.633   1.974  16.951  0.0615 -0.5194  2.0197
 2454SOL    HW218999   1.741   1.954  16.854 -0.6410 -1.2228  0.4405
 2455SOL     OW19000   1.521   0.464   6.763 -0.1964  0.4976 -0.0567
 2455SOL    HW119001   1.563   0.393   6.713 -1.5937 -0.2153 -0.2186
 2455SOL    HW219002   1.523   0.526   6.690 -0.2018  0.7097  0.1265
 2456SOL     OW19003   2.610   0.204   7.443 -0.5755 -0.1256  0.2860
 2456SOL    HW119004   2.605   0.286   7.394 -1.6329 -1.7921 -2.4060
 2456SOL    HW219005   2.685   0.170   7.394  0.4796  0.1481  1.7344
 2457SOL     OW19006   0.984   4.655   0.260 -0.0786 -0.2041 -0.5816
 2457SOL    HW119007   1.068   4.629   0.298 -1.0440  1.0929  2.3927
 2457SOL    HW219008   1.012   4.728   0.206 -0.2731 -1.2919 -2.1588
 2458SOL     OW19009   0.115   2.640   2.870 -0.3764 -0.5676  0.1511
 2458SOL    HW119010   0.051   2.711   2.882 -0.2723 -0.2376 -1.1472
 2458SOL    HW219011   0.053   2.573   2.842 -0.0896 -1.7964  2.5545
 2459SOL     OW19012   2.558   1.487   3.624  0.0984 -0.3180  0.1151
 2459SOL    HW119013   2.484   1.511   3.681  0.4713  0.8913  0.0849
 2459SOL    HW219014   2.614   1.440   3.686  0.8949 -0.5088 -0.7704
 2460SOL     OW19015   1.391   1.915  10.383  0.6591 -0.3154  0.3063
 2460SOL    HW119016   1.340   1.837  10.407 -0.7644  0.4092 -0.3626
 2460SOL    HW219017   1.421   1.952  10.465  2.7690  0.5933 -0.8723
 2461SOL     OW19018   4.580   3.942   5.294 -0.7555  0.2702 -0.3228
 2461SOL    HW119019   4.581   3.856   5.335  1.3714 -0.0990 -1.1154
 2461SOL    HW219020   4.491   3.947   5.261 -1.0259  1.1062  0.5332
 2462SOL     OW19021   1.658   4.328  16.568 -0.2183 -0.2448 -0.1188
 2462SOL    HW119022   1.721   4.259  16.549  0.7900  0.3040  1.2149
 2462SOL    HW219023   1.587   4.298  16.512 -1.7463  3.1784 -0.0160
 2463SOL     OW19024   4.615   2.127  10.144 -0.6106 -0.1553  0.1501
 2463SOL    HW119025   4.570   2.211  10.133  0.6537  0.4413 -0.5356
 2463SOL    HW219026   4.648   2.126  10.234  1.4132 -0.0936 -0.5753
 2464SOL     OW19027   1.353   1.391   9.081 -0.0038  0.2720  0.6484
 2464SOL    HW119028   1.367   1.302   9.048  1.6961  0.4574  0.8787
 2464SOL    HW219029   1.303   1.429   9.009  2.3636  1.2445 -0.4717
 2465SOL     OW19030   3.093   0.200  17.731  0.9381 -0.0216  0.5780
 2465SOL    HW119031   3.097   0.261   0.046 -1.0974 -0.1775  0.8041
 2465SOL    HW219032   3.180   0.204  17.689  0.0793  0.9949 -1.1116
 2466SOL     OW19033   2.280   4.527   1.591  0.2079 -0.5023 -0.2635
 2466SOL    HW119034   2.245   4.466   1.656  1.4128  0.4707  1.2963
 2466SOL    HW219035   2.296   4.609   1.638 -2.2274 -0.8025  1.0700
 2467SOL     OW19036   0.662   0.429  10.745 -0.0216 -0.7550  0.5615
 2467SOL    HW119037   0.585   0.484  10.736  1.0393  0.8349  1.1390
 2467SOL    HW219038   0.723   0.495  10.779 -0.7094  0.0146  0.2842
 2468SOL     OW19039   0.141   0.851  17.553 -0.9187 -0.3067  0.0468
 2468SOL    HW119040   0.165   0.789  17.484 -0.9253 -1.0882  0.7438
 2468SOL    HW219041   0.207   0.837  17.620 -0.2081 -1.6056 -0.9242
 2469SOL     OW19042   3.338   2.570  12.828 -0.5768  0.5063 -0.6358
 2469SOL    HW119043   3.398   2.641  12.803  0.5236 -0.4692 -0.7572
 2469SOL    HW219044   3.389   2.494  12.800 -0.5024  0.8261 -1.3692
 2470SOL     OW19045   4.428   3.515   8.359 -0.1283 -0.1365 -0.1544
 2470SOL    HW119046   4.358   3.559   8.310 -1.0727 -0.7778  0.6140
 2470SOL    HW219047   4.387   3.429   8.367 -1.9308  0.5277 -2.4083
 2471SOL     OW19048   4.310   3.848   4.506 -0.2793  0.4097  0.1061
 2471SOL    HW119049   4.253   3.844   4.583 -1.5098  0.6026 -0.8028
 2471SOL    HW219050   4.287   3.932   4.465 -0.8973 -1.0544 -2.5232
 2472SOL     OW19051   3.169   2.488   2.113 -0.0864 -0.4093  0.2856
 2472SOL    HW119052   3.241   2.549   2.132 -0.7966  0.8419 -1.0833
 2472SOL    HW219053   3.217   2.413   2.079 -0.7393 -0.7580  0.1368
 2473SOL     OW19054   0.838   3.634   7.047 -0.1329 -0.1867  0.0806
 2473SOL    HW119055   0.743   3.637   7.030 -0.1064  0.8607  0.1226
 2473SOL    HW219056   0.869   3.725   7.043 -0.0757 -0.1640  1.0191
 2474SOL     OW19057   3.477   0.695  17.630  0.7705  1.2536 -0.8580
 2474SOL    HW119058   3.565   0.731  17.639  2.5923 -2.8557 -2.2266
 2474SOL    HW219059   3.426   0.755  17.685  1.6863  0.0944  1.2356
 2475SOL     OW19060   1.155   4.307   7.728 -0.3553  0.8817 -0.0884
 2475SOL    HW119061   1.219   4.378   7.727 -1.4015  1.8521  1.4393
 2475SOL    HW219062   1.113   4.314   7.814  1.6313 -2.1036  1.1081
 2476SOL     OW19063   3.215   2.530   7.062  0.2102  0.1973  0.2319
 2476SOL    HW119064   3.187   2.476   7.136  0.1700  0.8152  0.6654
 2476SOL    HW219065   3.220   2.466   6.991 -1.9022  0.0011  0.2480
 2477SOL     OW19066   1.040   3.352  12.144 -0.4547 -0.0961  0.3555
 2477SOL    HW119067   1.066   3.403  12.221 -2.6578  1.7391 -0.0972
 2477SOL    HW219068   1.122   3.306  12.130  0.2787  0.2806  3.3350
 2478SOL     OW19069   3.844   2.180   7.968 -0.3707  0.2446 -0.2538
 2478SOL    HW119070   3.893   2.129   7.904 -0.7295  1.1367 -1.2207
 2478SOL    HW219071   3.839   2.104   8.026  0.5158  1.1919  1.0813
 2479SOL     OW19072   3.560   4.041   8.081 -0.2444  0.4388  0.2323
 2479SOL    HW119073   3.474   4.072   8.054 -0.6437 -0.0834  0.9005
 2479SOL    HW219074   3.608   4.123   8.091  1.3569 -0.3770 -0.7891
 2480SOL     OW19075   1.592   0.737   7.896 -0.3943  0.6258 -0.0587
 2480SOL    HW119076   1.551   0.807   7.845 -0.2013 -0.5265 -1.8047
 2480SOL    HW219077   1.679   0.739   7.858 -0.4550  1.5636 -0.1355
 2481SOL     OW19078   2.006   4.614  13.623  0.0330  0.3305 -0.2558
 2481SOL    HW119079   1.949   4.586  13.695  2.3926 -1.6246  0.8624
 2481SOL    HW219080   2.080   4.555  13.638 -1.4512 -1.3434  0.5475
 2482SOL     OW19081   4.606   4.512   1.446  0.3668 -1.1560 -0.1684
 2482SOL    HW119082   4.659   4.435   1.464 -0.7517 -1.5548  1.4637
 2482SOL    HW219083   4.521   4.477   1.474  0.0355 -1.3672 -1.4050
 2483SOL     OW19084   3.671   3.320  11.142  0.3475 -0.3935  0.1621
 2483SOL    HW119085   3.603   3.383  11.118 -0.2675 -0.7888  0.8445
 2483SOL    HW219086   3.738   3.352  11.083  2.2026 -1.6123  1.5902
 2484SOL     OW19087   3.908   4.583   4.376  0.9229  0.1237  0.5605
 2484SOL    HW119088   3.940   4.667   4.408  0.6118  0.8559 -1.0891
 2484SOL    HW219089   3.976   4.527   4.415  0.0534 -1.0035  0.4598
 2485SOL     OW19090   3.696   0.998  17.394  0.0779  0.5422  0.0495
 2485SOL    HW119091   3.734   0.923  17.439  1.0884  0.6190 -0.6901
 2485SOL    HW219092   3.683   1.049  17.474 -1.6795 -0.3218  0.3100
 2486SOL     OW19093   3.490   3.537   5.580 -0.6683  0.3058  0.0432
 2486SOL    HW119094   3.442   3.494   5.509  0.1487 -0.0734 -0.2822
 2486SOL    HW219095   3.509   3.622   5.542 -1.7952 -0.1735 -1.6565
 2487SOL     OW19096   0.962   2.943  15.387 -0.3635 -0.2911  0.0862
 2487SOL    HW119097   1.047   2.903  15.370 -0.8662 -0.7585 -1.3570
 2487SOL    HW219098   0.978   3.008  15.455 -1.5566  1.1691 -1.0041
 2488SOL     OW19099   0.131   2.415   0.356 -0.2967  0.0614 -0.1385
 2488SOL    HW119100   0.187   2.350   0.313  0.3226  0.5088 -0.0123
 2488SOL    HW219101   0.154   2.400   0.447 -1.1116 -0.1619  0.0292
 2489SOL     OW19102   1.875   1.878   5.587 -0.7269  0.1659  0.4462
 2489SOL    HW119103   1.938   1.898   5.518 -1.6338 -1.6361 -0.9233
 2489SOL    HW219104   1.902   1.949   5.645 -0.1226  1.4437 -1.4104
 2490SOL     OW19105   4.452   1.044  15.223 -0.4214  0.3247 -0.2409
 2490SOL    HW119106   4.504   1.121  15.245  0.3585  0.0189 -0.9737
 2490SOL    HW219107   4.513   0.971  15.230 -2.2460 -1.1760  0.0178
 2491SOL     OW19108   3.018   3.178   2.621  0.0401  0.6906  0.0614
 2491SOL    HW119109   2.979   3.173   2.709  1.9221  1.8770  0.9680
 2491SOL    HW219110   3.004   3.090   2.588  0.5318  0.1262  1.3451
 2492SOL     OW19111   0.467   2.460   4.066  0.1057  0.2454  0.1492
 2492SOL    HW119112   0.433   2.377   4.099  1.5989 -0.3040  0.3075
 2492SOL    HW219113   0.539   2.470   4.127  1.1152  1.2655 -1.2248
 2493SOL     OW19114   0.142   2.802   2.183  0.0985 -0.4225 -0.1020
 2493SOL    HW119115   0.176   2.731   2.237  0.2646 -0.8972 -0.8320
 2493SOL    HW219116   0.050   2.776   2.192  0.4924 -1.6525  0.4314
 2494SOL     OW19117   1.693   0.501  10.860 -0.4999  0.0840  0.3071
 2494SOL    HW119118   1.716   0.581  10.906  2.9245 -0.6677 -0.1091
 2494SOL    HW219119   1.777   0.476  10.822 -0.8322  1.7116 -1.4933
 2495SOL     OW19120   0.738   0.746   2.930  0.8183  0.0532 -0.4886
 2495SOL    HW119121   0.809   0.689   2.901  1.3843  0.3763  0.2372
 2495SOL    HW219122   0.665   0.686   2.946 -1.0571  1.9186 -1.9840
 2496SOL     OW19123   1.478   0.761  13.326  0.6167 -0.0179 -0.0517
 2496SOL    HW119124   1.489   0.846  13.285  0.1082 -0.0152 -0.1804
 2496SOL    HW219125   1.399   0.734  13.280  0.8323  0.9615 -0.9930
 2497SOL     OW19126   2.776   4.611   8.963  0.4251  0.4592 -0.0012
 2497SOL    HW119127   2.767   4.651   8.876  0.8271 -1.2048 -0.8101
 2497SOL    HW219128   2.829   4.677   9.010  0.6956  1.0728 -1.1532
 2498SOL     OW19129   1.943   1.435  16.464  0.2126 -0.3470  0.2986
 2498SOL    HW119130   2.032   1.462  16.442 -0.0323  0.5021  0.3465
 2498SOL    HW219131   1.904   1.417  16.378  2.6509 -0.4007 -0.8122
 2499SOL     OW19132   4.469   2.681  12.000 -0.0035 -0.0653  0.2434
 2499SOL    HW119133   4.487   2.670  12.094 -1.3069  1.6102  0.7074
 2499SOL    HW219134   4.551   2.725  11.979 -0.5242  0.3358 -0.9130
 2500SOL     OW19135   2.246   2.749  15.417  0.6916  0.1879 -0.1893
 2500SOL    HW119136   2.191   2.690  15.468  2.1407 -0.1456  0.9759
 2500SOL    HW219137   2.202   2.741  15.333  0.1487 -2.6849  0.3815
 2501SOL     OW19138   0.075   3.901  16.151 -0.5154 -0.2479  0.2194
 2501SOL    HW119139   0.063   3.806  16.157 -0.3816 -0.0448  3.7997
 2501SOL    HW219140   0.061   3.930  16.241 -1.8282 -0.4267  0.0791
 2502SOL     OW19141   0.807   2.196   9.114 -0.8999 -0.2645  0.5677
 2502SOL    HW119142   0.728   2.247   9.128 -0.0420  0.1985  3.7741
 2502SOL    HW219143   0.807   2.204   9.019  0.9795  0.9852  0.6633
 2503SOL     OW19144   3.078   3.189   3.458 -0.1620  0.6172  0.2523
 2503SOL    HW119145   3.157   3.243   3.453  0.8185 -0.6637  1.8474
 2503SOL    HW219146   3.104   3.117   3.400  0.6310  2.6487 -1.9185
 2504SOL     OW19147   4.102   2.435   8.598 -0.7369  0.3013  0.5269
 2504SOL    HW119148   4.038   2.438   8.669  0.5241  0.0933  1.6626
 2504SOL    HW219149   4.082   2.348   8.564 -1.0536  0.6972 -0.3034
 2505SOL     OW19150   0.765   0.482   6.328  0.5285  0.0654  0.3477
 2505SOL    HW119151   0.787   0.459   6.418  0.3033 -1.7952 -0.0819
 2505SOL    HW219152   0.669   0.491   6.335  0.5556  1.9199 -1.5407
 2506SOL     OW19153   4.045   1.084   0.595 -0.0373 -0.0406  0.3785
 2506SOL    HW119154   4.071   1.083   0.503 -1.0904 -3.5149  0.0852
 2506SOL    HW219155   3.952   1.104   0.583  0.4357 -0.5963 -4.1749
 2507SOL     OW19156   3.018   2.828   8.269 -0.3941 -0.3919  0.0040
 2507SOL    HW119157   3.056   2.915   8.284  0.8366 -0.8958 -0.1692
 2507SOL    HW219158   3.019   2.797   8.359 -0.8529 -0.6684 -0.0856
 2508SOL     OW19159   1.381   2.961   7.493 -0.0669  0.1460  0.3603
 2508SOL    HW119160   1.369   2.867   7.480 -0.7565  0.3343 -0.3363
 2508SOL    HW219161   1.290   2.985   7.506 -0.7552 -3.0518  1.3845
 2509SOL     OW19162   1.748   3.314   7.628 -0.0857  0.8557 -0.1607
 2509SOL    HW119163   1.711   3.239   7.581  1.6260 -1.1278  1.6259
 2509SOL    HW219164   1.687   3.315   7.702 -1.7948  0.8529 -1.5731
 2510SOL     OW19165   2.429   0.453   9.662 -0.1826  0.3108 -0.4587
 2510SOL    HW119166   2.455   0.518   9.727  0.3060  2.9139 -3.2719
 2510SOL    HW219167   2.513   0.409   9.650 -0.1754 -0.5018  2.7049
 2511SOL     OW19168   1.322   3.656   5.477  0.0992  0.2349  0.2810
 2511SOL    HW119169   1.322   3.571   5.435  0.6183  0.5761 -0.4108
 2511SOL    HW219170   1.273   3.640   5.557 -0.3333 -0.0404 -0.0435
 2512SOL     OW19171   1.102   3.080   4.202 -0.0086  0.6634 -0.2067
 2512SOL    HW119172   1.014   3.082   4.239 -0.0229  2.1391 -0.3186
 2512SOL    HW219173   1.150   3.131   4.268  3.1340 -3.2201  0.4635
 2513SOL     OW19174   1.245   0.982  17.100 -0.1483  0.1325 -0.5442
 2513SOL    HW119175   1.313   1.003  17.164 -0.4594 -0.8170  0.1018
 2513SOL    HW219176   1.228   1.073  17.075  0.1530  0.3258 -0.0689
 2514SOL     OW19177   3.367   3.678   3.728  0.3895 -0.2412  0.0639
 2514SOL    HW119178   3.316   3.744   3.776  0.7786  0.8156 -0.9665
 2514SOL    HW219179   3.368   3.715   3.639  1.1965 -0.1925  0.0927
 2515SOL     OW19180   2.563   2.198   0.199 -0.2996 -0.2807  0.2518
 2515SOL    HW119181   2.626   2.258   0.239 -1.8973  0.9260  1.0059
 2515SOL    HW219182   2.490   2.255   0.174  1.3122  0.5580 -2.4619
 2516SOL     OW19183   0.944   4.387   0.847  0.1951  0.2579  0.2209
 2516SOL    HW119184   0.983   4.431   0.772 -0.0708  0.5003  0.2258
 2516SOL    HW219185   0.854   4.420   0.843  0.3066  0.6863  1.1575
 2517SOL     OW19186   1.245   1.859   1.772  0.1617 -0.2471  0.3711
 2517SOL    HW119187   1.224   1.897   1.857 -0.8890 -2.3640  1.0566
 2517SOL    HW219188   1.237   1.766   1.794  1.3777 -0.1727  1.1010
 2518SOL     OW19189   3.321   0.610  10.738 -0.1489 -0.0010  0.0724
 2518SOL    HW119190   3.280   0.526  10.718 -1.6504  0.9600 -0.8961
 2518SOL    HW219191   3.315   0.613  10.833  1.9144  0.1950  0.2001
 2519SOL     OW19192   0.488   4.355  14.228 -0.4139  0.2886  0.3946
 2519SOL    HW119193   0.466   4.327  14.139 -1.2957  1.4278  0.2606
 2519SOL    HW219194   0.577   4.380  14.202  0.2057  0.1721  2.4177
 2520SOL     OW19195   3.216   0.655  14.515  0.0041 -0.1353 -0.3694
 2520SOL    HW119196   3.231   0.714  14.589  1.4409 -0.6604 -0.2372
 2520SOL    HW219197   3.229   0.569  14.554 -2.0895 -0.5152 -0.4925
 2521SOL     OW19198   2.751   0.601  11.191 -0.5236 -0.1317  0.5785
 2521SOL    HW119199   2.833   0.591  11.240  0.5272 -0.6879 -1.2963
 2521SOL    HW219200   2.684   0.626  11.254  2.4225  2.0351  2.8617
 2522SOL     OW19201   4.313   4.625   3.802  0.1582 -0.0662  0.3107
 2522SOL    HW119202   4.381   4.647   3.866 -0.0528  0.5536  0.3148
 2522SOL    HW219203   4.254   4.698   3.824  1.8270  0.6169  2.5758
 2523SOL     OW19204   4.402   3.826   0.421 -0.2522  0.8779 -0.1441
 2523SOL    HW119205   4.366   3.873   0.496 -1.3440  1.7481 -1.2125
 2523SOL    HW219206   4.391   3.735   0.446 -0.3996  1.1802  0.8974
 2524SOL     OW19207   3.895   2.190   4.789  0.2588 -0.3486 -0.4781
 2524SOL    HW119208   3.884   2.254   4.718  0.6711  1.2289  0.8651
 2524SOL    HW219209   3.989   2.175   4.778  0.0597 -0.3656 -2.1652
 2525SOL     OW19210   4.638   4.557   9.781 -0.0060 -0.2338  0.2863
 2525SOL    HW119211   4.550   4.533   9.810 -1.2568  1.9316 -1.7268
 2525SOL    HW219212   4.683   4.572   9.864  0.1093  0.5878  0.0749
 2526SOL     OW19213   2.845   2.434  15.337  0.3660  0.0596 -0.1240
 2526SOL    HW119214   2.887   2.350  15.316  1.0285  0.1626  0.8045
 2526SOL    HW219215   2.867   2.482  15.257 -0.3314 -0.0945 -0.4064
 2527SOL     OW19216   1.533   1.357  14.343  0.5281 -0.4278  0.3331
 2527SOL    HW119217   1.462   1.412  14.376 -0.4154 -0.5433 -1.5300
 2527SOL    HW219218   1.504   1.269  14.367 -1.9726  0.3952  0.3524
 2528SOL     OW19219   3.315   0.996   7.093  0.3825 -0.2917 -0.6328
 2528SOL    HW119220   3.319   1.070   7.031  1.6149 -0.9578 -1.3432
 2528SOL    HW219221   3.254   1.041   7.152  0.8301 -0.1206 -0.3006
 2529SOL     OW19222   3.478   0.605  16.999 -0.3924 -0.1760 -0.4691
 2529SOL    HW119223   3.528   0.605  16.917  1.7738 -0.5541  0.8374
 2529SOL    HW219224   3.548   0.578  17.059  0.7731  1.4896 -1.0781
 2530SOL     OW19225   1.996   1.294   8.812 -0.1192 -0.6090  0.3784
 2530SOL    HW119226   1.901   1.299   8.824 -0.0665  1.8049 -0.2211
 2530SOL    HW219227   2.015   1.338   8.729  2.9666 -0.9215  0.9314
 2531SOL     OW19228   0.073   1.281   5.600 -0.0740  0.2874  0.2321
 2531SOL    HW119229   0.027   1.200   5.620  0.4858  0.0787  0.6881
 2531SOL    HW219230   0.112   1.309   5.683 -0.0270  0.3069  0.2035
 2532SOL     OW19231   0.356   0.095   1.660 -0.0943  0.2986 -0.1627
 2532SOL    HW119232   0.345   0.067   1.751 -0.6944  1.7509  0.2139
 2532SOL    HW219233   0.310   0.030   1.607  2.6114 -2.1088  0.3977
 2533SOL     OW19234   4.140   1.709   6.221  0.3870 -0.3894  0.3389
 2533SOL    HW119235   4.205   1.777   6.206 -1.9780  1.5147 -1.2258
 2533SOL    HW219236   4.093   1.746   6.296 -1.5226 -0.4469 -0.8477
 2534SOL     OW19237   1.525   3.794   4.775 -0.4470  0.1998 -0.5225
 2534SOL    HW119238   1.557   3.868   4.723  0.3518  1.0733  1.1975
 2534SOL    HW219239   1.590   3.725   4.761 -1.0463 -0.9139  2.1953
 2535SOL     OW19240   1.448   0.404   5.857  0.3026  0.1306 -0.4465
 2535SOL    HW119241   1.476   0.465   5.789  2.3393  0.0589  0.3373
 2535SOL    HW219242   1.355   0.404   5.835  0.3525 -3.8222 -0.6360
 2536SOL     OW19243   2.210   2.324   5.595 -0.5202  0.5200 -0.1378
 2536SOL    HW119244   2.283   2.329   5.656 -0.4077 -0.3910 -0.1979
 2536SOL    HW219245   2.246   2.267   5.527  1.9965  0.9304  0.8763
 2537SOL     OW19246   0.541   1.433   6.256 -0.6609  0.1358 -0.2774
 2537SOL    HW119247   0.506   1.349   6.226 -1.7922  0.1589  0.9581
 2537SOL    HW219248   0.596   1.458   6.182 -0.7561 -0.1257 -0.4361
 2538SOL     OW19249   0.143   3.869   7.943 -0.1481  0.1572 -0.4188
 2538SOL    HW119250   0.115   3.876   8.034 -1.4898 -1.8205 -0.6567
 2538SOL    HW219251   0.110   3.782   7.918  1.0996 -0.3793 -0.2149
 2539SOL     OW19252   1.301   1.225  17.508 -0.3070 -0.2496  0.2039
 2539SOL    HW119253   1.383   1.249  17.552  0.1585  0.2071 -0.8939
 2539SOL    HW219254   1.268   1.167  17.576 -0.9071 -1.2126 -0.9212
 2540SOL     OW19255   1.081   0.451  12.833  0.3357  0.4965 -0.3233
 2540SOL    HW119256   1.039   0.368  12.812  0.7986  0.6353 -1.8231
 2540SOL    HW219257   1.003   0.494  12.867  0.4349 -0.1761  0.7471
 2541SOL     OW19258   0.125   4.651   5.340 -0.4747 -0.0139 -0.9489
 2541SOL    HW119259   0.123   4.727   5.399 -0.3583 -0.0981 -0.8357
 2541SOL    HW219260   0.058   4.594   5.377  1.3868 -1.5057  0.0936
 2542SOL     OW19261   4.406   0.275  17.252  0.4158  0.1772 -0.6051
 2542SOL    HW119262   4.479   0.261  17.191  2.6054 -2.1451  2.5465
 2542SOL    HW219263   4.374   0.358  17.217 -1.4681 -0.8244 -1.2657
 2543SOL     OW19264   0.628   0.326   4.402 -0.5403 -0.0367  1.1983
 2543SOL    HW119265   0.597   0.281   4.322 -0.4103 -1.4102  1.9114
 2543SOL    HW219266   0.704   0.272   4.424 -0.7540 -0.5760  0.6202
 2544SOL     OW19267   3.766   2.050  10.181  0.6049  0.4776  0.4910
 2544SOL    HW119268   3.828   1.981  10.157  4.2363  3.6712  0.5679
 2544SOL    HW219269   3.806   2.074  10.265 -0.1416  0.9160  0.7127
 2545SOL     OW19270   2.121   3.091  11.866  0.0924 -0.4818  0.1547
 2545SOL    HW119271   2.174   3.087  11.946 -1.1427 -0.6475  0.9677
 2545SOL    HW219272   2.180   3.053  11.801  2.2168  2.1188  0.5918
 2546SOL     OW19273   1.851   0.261   2.368 -0.0722  0.5419 -0.3966
 2546SOL    HW119274   1.945   0.257   2.351 -0.0086  2.2100 -0.5042
 2546SOL    HW219275   1.817   0.259   2.278 -0.9531 -1.5018 -0.0016
 2547SOL     OW19276   4.237   2.858   2.839 -0.4333  0.3503 -0.5444
 2547SOL    HW119277   4.277   2.932   2.885 -0.6378 -0.5240  1.0545
 2547SOL    HW219278   4.320   2.820   2.808 -0.2750 -0.1625  0.5107
 2548SOL     OW19279   4.092   1.686   4.140 -0.2339 -0.5046  0.1965
 2548SOL    HW119280   4.062   1.718   4.055  0.5755  0.1126  0.1393
 2548SOL    HW219281   4.178   1.729   4.142 -0.6918  0.4749 -1.7353
 2549SOL     OW19282   0.818   4.341   6.620 -0.1070  0.3726 -0.1931
 2549SOL    HW119283   0.829   4.312   6.529 -0.1222 -2.7564  0.7944
 2549SOL    HW219284   0.873   4.419   6.620  1.1511 -0.5260  0.4440
 2550SOL     OW19285   2.279   1.472   6.998 -0.5417 -0.6439 -0.4647
 2550SOL    HW119286   2.281   1.453   7.092  0.2464  2.3395  0.1007
 2550SOL    HW219287   2.195   1.516   6.994 -0.7540 -1.0271 -0.2532
 2551SOL     OW19288   3.190   1.354   7.398  0.4575  0.1701  0.3082
 2551SOL    HW119289   3.187   1.439   7.440  0.5779  0.4779 -0.3009
 2551SOL    HW219290   3.275   1.367   7.356  0.7101  0.5675  0.9538
 2552SOL     OW19291   0.114   2.634  13.689 -0.0418 -0.2680  0.0672
 2552SOL    HW119292   0.111   2.728  13.706 -0.2095  0.1051 -2.0304
 2552SOL    HW219293   0.021   2.612  13.683 -0.5705  1.6207  1.2072
 2553SOL     OW19294   0.398   4.093  10.024 -0.6997 -0.5135  0.6547
 2553SOL    HW119295   0.417   4.118   9.934 -0.3069 -1.3224  0.5185
 2553SOL    HW219296   0.450   4.153  10.077 -0.2210 -0.6521  0.3410
 2554SOL     OW19297   1.409   2.056   2.257 -0.2945 -0.1167 -0.1878
 2554SOL    HW119298   1.498   2.085   2.236 -0.2616 -0.2789 -0.2796
 2554SOL    HW219299   1.378   2.010   2.179  3.8904  0.4412 -2.1809
 2555SOL     OW19300   0.090   2.824   3.551 -0.3650  0.1338  0.5031
 2555SOL    HW119301   0.151   2.893   3.576 -1.3687  0.6453  1.5346
 2555SOL    HW219302   0.029   2.875   3.498 -0.8940  1.3792  2.2936
 2556SOL     OW19303   1.692   2.986   9.672  0.3995 -0.3685  0.1158
 2556SOL    HW119304   1.682   3.076   9.642 -0.3595 -1.0022 -1.5387
 2556SOL    HW219305   1.785   2.986   9.695 -0.0697 -1.5089  2.0381
 2557SOL     OW19306   1.053   0.849  11.869 -0.1797 -0.0003  0.2309
 2557SOL    HW119307   1.007   0.812  11.944 -0.1459  1.2907  0.8787
 2557SOL    HW219308   1.039   0.791  11.794 -0.7764  0.9639 -0.4023
 2558SOL     OW19309   2.330   3.570  16.263  0.4448 -0.0159  0.8204
 2558SOL    HW119310   2.316   3.651  16.213 -0.5778  0.7912  2.4107
 2558SOL    HW219311   2.241   3.539  16.252  0.4371  0.1084  0.5315
 2559SOL     OW19312   1.254   0.470  13.036 -0.3590 -0.0118 -0.1945
 2559SOL    HW119313   1.187   0.475  12.968 -1.3583 -3.2781  0.5424
 2559SOL    HW219314   1.290   0.383  13.021  1.4515  0.0805  3.5149
 2560SOL     OW19315   1.403   1.659   1.235 -0.2248  0.5637  0.2209
 2560SOL    HW119316   1.326   1.638   1.287  0.4043 -2.4418 -0.0606
 2560SOL    HW219317   1.464   1.598   1.277 -0.4037  0.6155  0.5592
 2561SOL     OW19318   1.207   1.395  10.601 -0.0296 -0.4653  0.3923
 2561SOL    HW119319   1.216   1.342  10.680  2.6123 -0.7963 -0.1320
 2561SOL    HW219320   1.114   1.417  10.596 -0.4079 -2.0781  0.1533
 2562SOL     OW19321   1.078   4.207   4.175  0.2441  0.2808 -0.1637
 2562SOL    HW119322   1.146   4.257   4.220  2.1512  0.0581 -2.7706
 2562SOL    HW219323   1.040   4.281   4.127  1.2663  0.7843 -0.1880
 2563SOL     OW19324   1.470   3.274   9.254 -0.0427 -0.1864  0.7756
 2563SOL    HW119325   1.531   3.211   9.216 -2.5058 -1.4135 -1.1509
 2563SOL    HW219326   1.542   3.311   9.304 -1.8167 -1.0940  4.0190
 2564SOL     OW19327   4.269   2.433  15.270  0.4829  0.5304 -0.4004
 2564SOL    HW119328   4.182   2.396  15.283  0.0792  1.6771  0.2149
 2564SOL    HW219329   4.252   2.524  15.244 -2.2970  0.3624  0.7390
 2565SOL     OW19330   4.613   0.726  17.518 -0.3227 -0.0764  0.2370
 2565SOL    HW119331   4.633   0.734  17.425 -1.1940 -0.8714 -0.0203
 2565SOL    HW219332   4.668   0.791  17.563 -1.0615  1.5170 -1.1614
 2566SOL     OW19333   3.114   3.544   2.912 -0.0830 -0.2369 -0.1089
 2566SOL    HW119334   3.030   3.520   2.951 -0.0179  3.8274  2.4665
 2566SOL    HW219335   3.090   3.555   2.820  1.0066 -1.5131 -0.5648
 2567SOL     OW19336   0.580   0.188  17.665  0.0582  0.0607 -0.0691
 2567SOL    HW119337   0.537   0.260  17.618  0.6147  0.2845 -0.2359
 2567SOL    HW219338   0.646   0.235  17.716 -0.2195 -0.3332  0.6489
 2568SOL     OW19339   2.930   4.599   5.343  0.9862  0.3963  0.2127
 2568SOL    HW119340   2.959   4.541   5.413 -0.0126 -0.6030 -0.2025
 2568SOL    HW219341   2.864   4.547   5.297 -0.0650  1.1634  0.8487
 2569SOL     OW19342   0.383   3.089   8.428 -0.2356  0.3254  0.4425
 2569SOL    HW119343   0.450   3.022   8.441 -0.2543  0.3905  0.9026
 2569SOL    HW219344   0.322   3.070   8.499  0.9806  0.5439  1.5497
 2570SOL     OW19345   1.975   2.474   3.815  0.1688 -0.0605  0.0099
 2570SOL    HW119346   1.976   2.427   3.898  1.6117  1.5248  0.9063
 2570SOL    HW219347   1.978   2.400   3.755  0.9379 -1.9162  2.3055
 2571SOL     OW19348   1.305   4.396   5.909 -0.0869 -0.0759 -0.1820
 2571SOL    HW119349   1.233   4.403   5.972  0.7071 -1.6550  0.8787
 2571SOL    HW219350   1.303   4.301   5.897 -0.4080 -0.0754 -0.1526
 2572SOL     OW19351   0.464   3.198   4.784 -0.5808 -0.0659  0.1177
 2572SOL    HW119352   0.383   3.189   4.833 -0.9103  1.7361 -0.0984
 2572SOL    HW219353   0.482   3.106   4.762  0.1454 -0.0752  0.7075
 2573SOL     OW19354   0.245   1.982   8.092 -0.1797  0.5635  0.7808
 2573SOL    HW119355   0.163   2.015   8.055  0.4569 -0.7661 -1.8061
 2573SOL    HW219356   0.299   1.956   8.017  1.2711  0.2785  1.9231
 2574SOL     OW19357   2.290   4.093   2.762 -0.5533  0.1203 -0.2800
 2574SOL    HW119358   2.303   4.089   2.857 -1.3448  1.0105 -0.1381
 2574SOL    HW219359   2.338   4.175   2.749 -1.1262  0.6302  0.8088
 2575SOL     OW19360   1.159   3.612   7.650  0.2617  0.4118 -0.1979
 2575SOL    HW119361   1.109   3.691   7.627 -0.9323  0.6310  3.1863
 2575SOL    HW219362   1.096   3.566   7.705  0.0672  0.5191 -0.3281
 2576SOL     OW19363   3.815   0.408  10.828 -0.2241  0.3634 -0.4140
 2576SOL    HW119364   3.747   0.405  10.761  0.6480 -0.2120 -1.2710
 2576SOL    HW219365   3.794   0.324  10.870  1.3696 -0.5468 -1.4110
 2577SOL     OW19366   0.780   3.343  12.063 -0.5247  0.0670 -0.0731
 2577SOL    HW119367   0.751   3.275  12.123 -2.3334  0.6817 -0.2677
 2577SOL    HW219368   0.871   3.313  12.056 -0.3610  0.3779  0.7970
 2578SOL     OW19369   3.498   3.223   3.398  0.1740  0.0520  0.0562
 2578SOL    HW119370   3.506   3.250   3.306  1.0172  0.7451  0.3347
 2578SOL    HW219371   3.589   3.243   3.421  0.7962 -1.7810 -0.8218
 2579SOL     OW19372   1.043   1.067   8.965 -0.7516 -0.3610 -0.2852
 2579SOL    HW119373   1.058   1.154   9.001 -0.9973 -1.3748  2.2973
 2579SOL    HW219374   0.954   1.044   8.993 -1.1195  1.7489  0.2509
 2580SOL     OW19375   3.188   4.421   1.870  0.0733  0.2768  0.3806
 2580SOL    HW119376   3.186   4.334   1.831 -0.0653  0.7207 -0.6025
 2580SOL    HW219377   3.200   4.398   1.962 -0.8232 -0.4162  0.3196
 2581SOL     OW19378   4.140   4.520   1.922 -0.3985 -0.3084  1.0726
 2581SOL    HW119379   4.215   4.535   1.979 -0.5796  1.2931  0.8872
 2581SOL    HW219380   4.158   4.430   1.894  2.0763  0.2376  0.8796
 2582SOL     OW19381   3.850   1.740   8.928 -0.0477 -0.0725 -0.2766
 2582SOL    HW119382   3.886   1.829   8.933  3.2148 -1.3527 -1.2973
 2582SOL    HW219383   3.873   1.720   8.837 -0.4728 -1.2179 -0.1293
 2583SOL     OW19384   2.856   2.614   4.682  0.5467  0.4092  0.1820
 2583SOL    HW119385   2.785   2.620   4.618  1.0750 -2.8783 -0.7090
 2583SOL    HW219386   2.856   2.705   4.712 -0.3639  0.6801 -0.6426
 2584SOL     OW19387   4.332   2.988   8.357  0.2277  0.3407 -0.2337
 2584SOL    HW119388   4.421   2.974   8.387 -0.1201 -0.2128  0.5606
 2584SOL    HW219389   4.347   3.037   8.276 -0.0984 -0.4235 -0.7543
 2585SOL     OW19390   2.420   4.206   7.578 -0.4647 -0.2523  0.3878
 2585SOL    HW119391   2.495   4.156   7.608 -1.3761 -0.8450  1.6759
 2585SOL    HW219392   2.346   4.163   7.621 -2.2768  2.2930 -0.2052
 2586SOL     OW19393   3.247   4.423   4.244 -0.0132 -0.2923 -0.1066
 2586SOL    HW119394   3.335   4.428   4.207  0.6356 -0.2994  1.4404
 2586SOL    HW219395   3.246   4.504   4.295  2.2643 -0.7306  0.6308
 2587SOL     OW19396   3.153   0.729   3.614  0.6039 -0.2055 -0.2836
 2587SOL    HW119397   3.121   0.763   3.530 -1.8868 -0.0974  0.7092
 2587SOL    HW219398   3.222   0.665   3.594  2.0667  1.1316  0.5445
 2588SOL     OW19399   1.629   1.985   6.556  0.1133 -0.1877  0.0047
 2588SOL    HW119400   1.716   1.982   6.597  0.5864 -0.3948 -1.0140
 2588SOL    HW219401   1.589   1.901   6.578 -0.0018 -0.4015 -1.0323
 2589SOL     OW19402   3.670   3.069   5.181  0.1635 -0.0845 -0.0397
 2589SOL    HW119403   3.598   3.126   5.209  0.6836  0.9149 -0.7150
 2589SOL    HW219404   3.695   3.106   5.096 -2.0922 -0.6279 -0.9410
 2590SOL     OW19405   3.700   4.435   2.541  0.4023 -0.1904 -0.2629
 2590SOL    HW119406   3.616   4.432   2.495  0.0586  0.3528  0.3431
 2590SOL    HW219407   3.671   4.416   2.630 -0.0413  0.0564 -0.3554
 2591SOL     OW19408   2.549   3.512   7.461 -0.2741 -0.2892  0.2699
 2591SOL    HW119409   2.513   3.514   7.373 -1.9345 -0.9216  0.9264
 2591SOL    HW219410   2.504   3.437   7.498  0.2897 -0.2192  1.1272
 2592SOL     OW19411   2.192   0.714   7.003  0.1055  0.5023 -0.1075
 2592SOL    HW119412   2.170   0.722   6.910  1.0286  0.3481 -0.3411
 2592SOL    HW219413   2.168   0.803   7.027  0.5834  0.7118 -0.3979
 2593SOL     OW19414   2.697   0.680   7.769  0.2252 -0.6245 -0.4043
 2593SOL    HW119415   2.763   0.714   7.709 -0.6456  0.4432 -0.7544
 2593SOL    HW219416   2.742   0.719   7.844 -0.7750 -1.3394  0.5616
 2594SOL     OW19417   0.744   4.010   8.867 -0.0612 -0.3478 -0.1311
 2594SOL    HW119418   0.742   4.028   8.773 -2.4219  0.2257  0.0314
 2594SOL    HW219419   0.658   3.970   8.875  1.1803 -3.0228 -0.2918
 2595SOL     OW19420   1.924   4.327   4.427  0.1358  0.3372  0.3151
 2595SOL    HW119421   1.850   4.268   4.416  0.8811 -0.5649  0.1986
 2595SOL    HW219422   1.926   4.364   4.339 -1.0950  0.6887  0.4384
 2596SOL     OW19423   0.359   0.052  13.084 -0.5412 -0.7227 -0.3706
 2596SOL    HW119424   0.368   0.105  13.164 -2.6076  1.4632 -1.5909
 2596SOL    HW219425   0.371   4.710  13.131  0.1025 -0.6064 -0.3393
 2597SOL     OW19426   4.403   0.732   3.682 -0.2836 -0.1727  0.1198
 2597SOL    HW119427   4.384   0.739   3.776 -1.8873 -2.2354 -0.0535
 2597SOL    HW219428   4.495   0.760   3.680 -0.3173 -0.0542  0.2286
 2598SOL     OW19429   3.572   1.301  13.261  0.2177 -0.6344  0.0523
 2598SOL    HW119430   3.538   1.377  13.214 -0.7450 -1.5356 -0.7217
 2598SOL    HW219431   3.652   1.336  13.298  1.4572 -1.1099 -2.1726
 2599SOL     OW19432   3.100   0.323   3.524  0.6357  0.0514  0.0568
 2599SOL    HW119433   3.091   0.271   3.604 -3.8242  1.8752  0.7423
 2599SOL    HW219434   3.175   0.378   3.544 -0.8294  1.1238  2.6217
 2600SOL     OW19435   0.150   1.876   7.699 -0.2346 -0.0381 -0.9615
 2600SOL    HW119436   0.220   1.889   7.635  0.1538  0.7516 -0.3760
 2600SOL    HW219437   0.099   1.807   7.656 -1.9865  1.1215 -0.7416
 2601SOL     OW19438   4.049   0.750   5.601 -0.1467 -0.1075 -0.8534
 2601SOL    HW119439   4.051   0.709   5.688 -0.1086  0.2530 -0.6824
 2601SOL    HW219440   3.973   0.807   5.607  0.6642  0.8278  0.4774
 2602SOL     OW19441   1.586   1.134  10.192  0.1977 -0.1030  0.0024
 2602SOL    HW119442   1.620   1.084  10.117 -0.2359  1.0928 -1.0013
 2602SOL    HW219443   1.583   1.075  10.267  0.1063 -1.3883 -1.0121
 2603SOL     OW19444   1.431   3.714  12.543 -0.1855  0.3726  0.3118
 2603SOL    HW119445   1.376   3.778  12.496 -0.5507  0.4495  0.8459
 2603SOL    HW219446   1.512   3.764  12.550 -0.5086  1.0217 -0.5851
 2604SOL     OW19447   4.018   2.853   7.821 -0.1705 -0.4022 -0.1669
 2604SOL    HW119448   4.035   2.761   7.802 -0.6713 -0.0532 -2.3140
 2604SOL    HW219449   4.101   2.895   7.798  0.4494 -1.9081 -0.7053
 2605SOL     OW19450   2.155   4.500   5.861 -0.3236 -0.0418  0.4496
 2605SOL    HW119451   2.101   4.577   5.879  0.5821  1.3569 -2.7548
 2605SOL    HW219452   2.215   4.521   5.933 -1.4028  2.4334  0.6461
 2606SOL     OW19453   0.593   0.681   1.893  0.4546 -0.3144 -0.3642
 2606SOL    HW119454   0.681   0.718   1.906 -1.6296  4.7927 -0.8539
 2606SOL    HW219455   0.573   0.684   1.799  0.1085 -0.7869 -0.3032
 2607SOL     OW19456   1.514   4.506   4.386 -0.0337  0.1660 -0.4295
 2607SOL    HW119457   1.610   4.516   4.381  0.3284 -2.2688  1.5541
 2607SOL    HW219458   1.490   4.531   4.297  2.1617 -2.7902 -1.8746
 2608SOL     OW19459   3.161   2.075   8.508  0.4159  0.5601 -0.1494
 2608SOL    HW119460   3.172   1.981   8.518  1.0653  0.6747  0.1850
 2608SOL    HW219461   3.184   2.090   8.417  2.4295 -1.8861 -0.0129
 2609SOL     OW19462   3.102   3.572   2.363  0.1327  0.2131 -0.0961
 2609SOL    HW119463   3.152   3.581   2.282 -1.0558  0.5398 -0.7933
 2609SOL    HW219464   3.014   3.595   2.333  0.0642  0.7575  0.5415
 2610SOL     OW19465   1.615   3.266   2.272 -0.3135  1.0038  0.1793
 2610SOL    HW119466   1.655   3.181   2.291 -1.2707  0.0825 -2.0564
 2610SOL    HW219467   1.533   3.237   2.233  0.8243 -0.6893 -0.9367
 2611SOL     OW19468   3.414   2.139  16.447 -0.4396 -0.0147  0.0155
 2611SOL    HW119469   3.452   2.213  16.494  0.3003 -0.7495  0.5883
 2611SOL    HW219470   3.401   2.179  16.362  3.6914  1.9590  0.3057
 2612SOL     OW19471   1.702   1.349   3.527 -0.1156 -0.0160  0.4310
 2612SOL    HW119472   1.734   1.303   3.605 -1.4251 -0.2084  0.8529
 2612SOL    HW219473   1.784   1.361   3.479  0.5334 -1.6924  1.1107
 2613SOL     OW19474   3.488   2.670   9.505 -0.1129  0.0125  0.2957
 2613SOL    HW119475   3.507   2.637   9.593  0.4292  0.0017  0.1727
 2613SOL    HW219476   3.568   2.638   9.462  0.1363  0.7337  0.2189
 2614SOL     OW19477   3.908   3.049   3.322 -0.3009 -0.2571  0.3991
 2614SOL    HW119478   3.915   3.033   3.417  1.6404  2.7929  0.7600
 2614SOL    HW219479   3.964   2.976   3.295  0.1022 -0.1009  0.8082
 2615SOL     OW19480   3.103   3.587   2.644  0.4214 -0.6884  0.5247
 2615SOL    HW119481   3.106   3.682   2.638 -0.1600 -0.6318  1.1569
 2615SOL    HW219482   3.119   3.563   2.553 -1.8708 -0.0379 -0.0407
 2616SOL     OW19483   2.890   3.886  14.673  0.4141  0.1865 -0.0134
 2616SOL    HW119484   2.901   3.794  14.647  0.4537 -0.4327  2.2340
 2616SOL    HW219485   2.915   3.880  14.765 -3.6269  3.2579  1.2211
 2617SOL     OW19486   2.257   2.560  17.370 -0.2297 -0.5330 -0.0824
 2617SOL    HW119487   2.306   2.642  17.366 -2.0872  0.6218  0.6544
 2617SOL    HW219488   2.325   2.502  17.336 -0.1678 -0.4741 -0.0591
 2618SOL     OW19489   3.289   0.357  17.454  0.3306  0.8284  0.5103
 2618SOL    HW119490   3.366   0.376  17.508  1.1976  1.2438 -0.8770
 2618SOL    HW219491   3.312   0.395  17.369  1.3817  0.4042  0.5978
 2619SOL     OW19492   1.924   2.562  10.674  0.0704  0.2495  0.3103
 2619SOL    HW119493   1.897   2.531  10.587 -0.9237  1.9525 -0.0024
 2619SOL    HW219494   1.987   2.632  10.656  1.5565 -0.9628  0.8504
 2620SOL     OW19495   0.668   3.329  17.531  0.0953  0.5376 -0.0773
 2620SOL    HW119496   0.616   3.409  17.540 -1.3018 -0.3950  0.1040
 2620SOL    HW219497   0.750   3.365  17.567 -0.8021  0.8718  1.6122
 2621SOL     OW19498   0.875   3.207   5.445  0.2462 -0.2502  0.3375
 2621SOL    HW119499   0.797   3.249   5.483  0.5206 -1.4499  2.2550
 2621SOL    HW219500   0.948   3.241   5.495 -1.2128  1.1921  1.5039
 2622SOL     OW19501   1.408   0.635   8.113  0.5438  0.6388  0.0282
 2622SOL    HW119502   1.484   0.659   8.061  1.0146  1.5942  1.1517
 2622SOL    HW219503   1.339   0.638   8.046  1.6373 -2.3930 -1.2188
 2623SOL     OW19504   1.156   2.716   5.581 -0.3362 -0.9455  0.0229
 2623SOL    HW119505   1.085   2.695   5.642  0.2859 -1.9831  0.3873
 2623SOL    HW219506   1.127   2.800   5.545 -0.3600 -0.6394  0.7529
 2624SOL     OW19507   4.696   4.320   6.421  0.0786  0.2306 -0.3997
 2624SOL    HW119508   4.653   4.235   6.433 -0.4551  0.0994 -3.2540
 2624SOL    HW219509   0.043   4.302   6.458  0.5145  0.5675 -1.2775
 2625SOL     OW19510   3.195   1.861  16.836  0.3355  0.3245  0.1544
 2625SOL    HW119511   3.103   1.850  16.857  0.1683  2.8938  0.7721
 2625SOL    HW219512   3.202   1.950  16.872 -0.0264  1.1794 -1.9158
 2626SOL     OW19513   4.319   3.872   1.542 -0.3456 -0.0215  0.0432
 2626SOL    HW119514   4.233   3.857   1.503 -0.6974 -0.1052  0.8554
 2626SOL    HW219515   4.346   3.785   1.571  0.0698  0.2896  0.5800
 2627SOL     OW19516   1.969   1.718   7.418 -0.1708  0.6120  0.0691
 2627SOL    HW119517   2.031   1.716   7.345  0.8446  1.0289  0.9205
 2627SOL    HW219518   1.889   1.752   7.378  0.0518 -0.0685 -0.9752
 2628SOL     OW19519   3.294   0.400  15.696 -0.2317  0.1757 -0.3690
 2628SOL    HW119520   3.206   0.437  15.705 -0.5189 -0.3392 -1.0788
 2628SOL    HW219521   3.323   0.431  15.611  0.0287  2.1698  0.4414
 2629SOL     OW19522   2.960   4.279   4.935  0.5239  0.0283 -0.5802
 2629SOL    HW119523   2.893   4.345   4.950 -0.2110 -0.7257 -0.5164
 2629SOL    HW219524   2.935   4.264   4.843  0.4716 -0.4218 -0.4950
 2630SOL     OW19525   1.213   0.721  12.393 -0.4696 -0.1164 -0.6252
 2630SOL    HW119526   1.166   0.680  12.466 -2.5282 -1.6130 -2.7989
 2630SOL    HW219527   1.284   0.657  12.384 -0.7926 -0.2944 -1.8591
 2631SOL     OW19528   4.428   2.955   3.947  0.1199 -0.0237 -0.2868
 2631SOL    HW119529   4.442   2.879   3.891 -1.6024 -0.1971 -0.4847
 2631SOL    HW219530   4.421   2.915   4.033  0.5286 -2.9733 -1.6141
 2632SOL     OW19531   3.039   3.921   9.083 -0.7312 -0.4549  0.6566
 2632SOL    HW119532   3.004   3.962   9.162 -1.1645  1.5789 -0.5975
 2632SOL    HW219533   2.971   3.933   9.015 -1.3899  0.0771  1.4076
 2633SOL     OW19534   2.372   2.839   9.274  0.1072 -0.2302 -0.1384
 2633SOL    HW119535   2.464   2.814   9.265 -0.4156 -2.4392  0.6483
 2633SOL    HW219536   2.348   2.868   9.186 -0.9660 -0.8181 -0.0429
 2634SOL     OW19537   2.869   0.369   7.618 -0.3106  0.2118 -0.1075
 2634SOL    HW119538   2.779   0.388   7.644  0.2116  2.7276 -0.1688
 2634SOL    HW219539   2.901   0.409   7.699 -0.1035 -1.3456  0.5740
 2635SOL     OW19540   4.457   1.462   2.332  0.8887  0.1182  0.6412
 2635SOL    HW119541   4.504   1.405   2.392 -0.3977 -0.0305  1.4874
 2635SOL    HW219542   4.392   1.398   2.304  1.5472 -1.8661  3.6568
 2636SOL     OW19543   2.269   0.308   2.964  0.1339 -0.0501  0.3208
 2636SOL    HW119544   2.311   0.251   2.901 -2.8491 -0.1805 -1.5340
 2636SOL    HW219545   2.297   0.395   2.935 -2.9826  0.4099 -1.2563
 2637SOL     OW19546   0.532   3.876  12.026 -0.3070 -0.1814  0.4380
 2637SOL    HW119547   0.480   3.796  12.017  0.7952 -0.9928  1.1348
 2637SOL    HW219548   0.526   3.907  12.117  2.4578 -1.5096  1.0820
 2638SOL     OW19549   3.221   2.058   7.337  0.1028  0.3821  0.1846
 2638SOL    HW119550   3.284   2.013   7.392  1.2269 -0.5100 -1.8130
 2638SOL    HW219551   3.138   2.028   7.374  0.0896  1.1892  0.8161
 2639SOL     OW19552   3.916   0.391   4.297  0.0076  0.0759  0.0689
 2639SOL    HW119553   4.009   0.375   4.313 -0.2043  0.7880  2.0793
 2639SOL    HW219554   3.908   0.486   4.298  1.4355  0.2016 -1.1679
 2640SOL     OW19555   0.386   0.977  17.282  0.3354 -0.1781  0.0108
 2640SOL    HW119556   0.328   0.903  17.299 -0.9686  0.6165 -0.9409
 2640SOL    HW219557   0.394   0.964  17.188  0.3282  1.4452 -0.2224
 2641SOL     OW19558   4.606   1.075   3.876 -0.1857 -0.3251 -0.0356
 2641SOL    HW119559   4.652   1.100   3.796  0.5853  1.1902  0.8768
 2641SOL    HW219560   4.520   1.106   3.848 -0.0615  0.2392  0.2056
 2642SOL     OW19561   2.376   3.305   9.371 -0.0507  0.2603 -0.3561
 2642SOL    HW119562   2.284   3.293   9.393 -0.7239  1.8680 -2.3073
 2642SOL    HW219563   2.376   3.243   9.298  1.0693  1.2680 -1.2034
 2643SOL     OW19564   3.339   1.280   2.359 -0.4442 -0.6572  0.4850
 2643SOL    HW119565   3.389   1.313   2.434  1.7942 -0.3302 -1.1416
 2643SOL    HW219566   3.395   1.308   2.286 -0.4754 -1.2280  0.2442
 2644SOL     OW19567   2.937   0.067   4.303 -0.6214 -0.4258  0.6179
 2644SOL    HW119568   3.023   0.038   4.333 -0.6216 -0.4382  0.6065
 2644SOL    HW219569   2.897   0.093   4.386 -0.4658  1.9012 -0.0482
 2645SOL     OW19570   3.702   0.990   3.168 -0.3061  0.8625 -0.4347
 2645SOL    HW119571   3.793   1.006   3.143  0.4316 -1.3615  0.8295
 2645SOL    HW219572   3.656   1.048   3.107  0.7506  0.5902 -1.4905
 2646SOL     OW19573   1.688   3.323   7.257  0.1187  0.4056 -0.0354
 2646SOL    HW119574   1.597   3.327   7.288  0.1185 -2.2584  0.3104
 2646SOL    HW219575   1.676   3.330   7.162  0.4590 -0.9195 -0.1860
 2647SOL     OW19576   2.109   0.135   1.879 -1.1719  0.1647 -0.3117
 2647SOL    HW119577   2.092   0.215   1.929 -0.4711  1.2797 -1.8561
 2647SOL    HW219578   2.097   0.070   1.949 -0.5949 -0.9417 -1.2272
 2648SOL     OW19579   2.479   2.399  14.701  0.6902  0.3181  0.1581
 2648SOL    HW119580   2.532   2.369  14.776  0.1145 -0.1920  0.3651
 2648SOL    HW219581   2.411   2.441  14.754  0.8255 -0.2928  0.8343
 2649SOL     OW19582   1.773   1.059   5.679  0.6416 -0.3193 -0.1667
 2649SOL    HW119583   1.689   1.056   5.634 -1.5658 -2.3238  4.1411
 2649SOL    HW219584   1.787   1.153   5.682  0.3278 -0.3609  2.2947
 2650SOL     OW19585   3.724   2.198   7.567 -0.2306 -0.1227  1.3992
 2650SOL    HW119586   3.635   2.227   7.586 -0.5853  0.9237 -1.9562
 2650SOL    HW219587   3.718   2.103   7.555 -2.2552  0.2790 -0.6361
 2651SOL     OW19588   2.400   0.400   1.900  0.5591 -0.1475  0.2955
 2651SOL    HW119589   2.492   0.373   1.897  0.1633 -1.2676 -1.6478
 2651SOL    HW219590   2.398   0.465   1.830  1.5917  0.0480  0.4566
 2652SOL     OW19591   2.905   3.123   8.214  0.0445  0.1770 -0.1378
 2652SOL    HW119592   2.970   3.065   8.255 -1.3686  0.5554  2.6185
 2652SOL    HW219593   2.846   3.144   8.286 -0.8740 -0.9964 -0.5495
 2653SOL     OW19594   0.104   0.541   6.732  0.3117  0.3649 -0.5634
 2653SOL    HW119595   0.167   0.572   6.798  1.5891  0.6574 -1.9226
 2653SOL    HW219596   0.030   0.565   6.788  1.2877 -2.2330  1.8420
 2654SOL     OW19597   0.811   3.131   8.100  0.2540 -0.3341 -0.0677
 2654SOL    HW119598   0.759   3.171   8.170 -1.5609 -3.1169  0.1833
 2654SOL    HW219599   0.761   3.141   8.019 -1.4913 -0.7997  0.9416
 2655SOL     OW19600   3.856   0.022   4.130  0.5650  0.2659  0.0450
 2655SOL    HW119601   3.853   4.714   4.048  0.7709  0.5981 -0.1589
 2655SOL    HW219602   3.948   0.019   4.159  0.4306  1.2561  0.5912
 2656SOL     OW19603   1.239   1.846   4.625  0.5198  0.2339 -0.0721
 2656SOL    HW119604   1.244   1.940   4.607  2.8756  0.0515 -0.2657
 2656SOL    HW219605   1.293   1.842   4.703  1.4868  2.1609 -0.6318
 2657SOL     OW19606   2.256   2.582   2.206 -0.0576 -0.5758 -0.2526
 2657SOL    HW119607   2.348   2.554   2.208 -0.4220 -1.8092 -1.0294
 2657SOL    HW219608   2.252   2.651   2.139 -2.4268  0.8817  1.3892
 2658SOL     OW19609   1.404   2.846   5.041 -0.5086  0.1988  0.3894
 2658SOL    HW119610   1.325   2.842   5.096 -0.2500  0.7787  0.8034
 2658SOL    HW219611   1.435   2.929   5.075 -0.8590  0.4528  0.0875
 2659SOL     OW19612   3.121   2.482   3.846  0.9873 -0.4684  0.5651
 2659SOL    HW119613   3.073   2.546   3.899 -0.1654 -0.3099 -0.6645
 2659SOL    HW219614   3.077   2.400   3.866 -2.7514  0.9282 -1.9518
 2660SOL     OW19615   0.123   2.428  16.943  0.3168 -0.2654 -0.6406
 2660SOL    HW119616   0.074   2.509  16.960 -1.6071 -2.1578  2.8667
 2660SOL    HW219617   0.172   2.409  17.023 -0.4294  1.5872  0.2515
 2661SOL     OW19618   2.289   3.228  16.393 -0.5060  0.2377  0.2664
 2661SOL    HW119619   2.250   3.270  16.316 -0.1043  2.1731  1.1391
 2661SOL    HW219620   2.318   3.298  16.450  1.4273 -0.3585  0.0401
 2662SOL     OW19621   3.564   1.332   1.406  0.0659  0.5019  0.3886
 2662SOL    HW119622   3.526   1.369   1.486 -1.8695  1.3886 -0.9720
 2662SOL    HW219623   3.612   1.255   1.439 -0.3277  1.8550  4.1589
 2663SOL     OW19624   4.705   2.132   3.414  0.1829 -0.4540 -0.0117
 2663SOL    HW119625   4.725   2.164   3.502 -1.5817 -0.3083  0.3356
 2663SOL    HW219626   4.673   2.212   3.373  0.2966 -0.4801 -0.1526
 2664SOL     OW19627   1.609   2.994   0.770 -0.3487  0.1391 -0.0507
 2664SOL    HW119628   1.527   2.975   0.815  0.1486 -0.7074  0.4934
 2664SOL    HW219629   1.664   2.988   0.848  2.4472  2.2771 -1.8353
 2665SOL     OW19630   2.924   0.968   3.155  0.2769 -0.6369 -0.2012
 2665SOL    HW119631   3.005   0.934   3.192 -0.9720 -2.5762  0.7264
 2665SOL    HW219632   2.925   1.060   3.181  0.0269 -0.5776 -0.3953
 2666SOL     OW19633   4.008   1.655   3.401  0.5281  0.2026  0.2144
 2666SOL    HW119634   3.972   1.638   3.314 -1.0860 -0.0964  0.9448
 2666SOL    HW219635   3.970   1.590   3.461  1.3020 -2.2516 -1.9210
 2667SOL     OW19636   3.341   0.222   1.707 -0.1431 -0.1763 -0.2374
 2667SOL    HW119637   3.397   0.158   1.664 -0.1295 -1.3929  1.5902
 2667SOL    HW219638   3.402   0.260   1.771 -0.4990 -0.9826  0.5800
 2668SOL     OW19639   1.074   1.924   9.886 -0.5416 -0.3050  0.0616
 2668SOL    HW119640   1.106   1.854   9.830  0.4008 -0.7432  1.1620
 2668SOL    HW219641   1.126   1.906   9.964  0.7713 -1.7002 -1.1480
 2669SOL     OW19642   0.263   4.386   6.147 -0.4746 -0.2275  0.2396
 2669SOL    HW119643   0.273   4.307   6.200  1.3541 -1.2495 -1.6731
 2669SOL    HW219644   0.279   4.450   6.217  1.0339 -1.3017  0.8753
 2670SOL     OW19645   0.403   0.621  15.231 -0.4550 -0.5636  0.1427
 2670SOL    HW119646   0.488   0.582  15.209 -0.0106 -0.0436  0.9418
 2670SOL    HW219647   0.340   0.595  15.164 -0.3488  0.6423 -0.4264
 2671SOL     OW19648   2.421   0.603   6.388  0.0786  0.3797 -0.1090
 2671SOL    HW119649   2.350   0.555   6.346  0.9350  0.6296 -1.8595
 2671SOL    HW219650   2.409   0.571   6.477 -0.6318 -0.9512 -0.6838
 2672SOL     OW19651   0.026   1.194   0.324 -0.7435  0.1926 -0.2508
 2672SOL    HW119652   0.121   1.185   0.318 -0.8592  0.4868 -2.4340
 2672SOL    HW219653   0.020   1.249   0.402 -3.7178  0.9711 -1.0143
 2673SOL     OW19654   2.419   2.572   5.541  0.1663 -0.3529 -0.1645
 2673SOL    HW119655   2.396   2.527   5.622 -0.6069  0.4667  0.0636
 2673SOL    HW219656   2.341   2.564   5.486  0.4758  0.6203 -0.7451
 2674SOL     OW19657   1.082   2.054   3.491 -0.8025 -0.3820 -0.2294
 2674SOL    HW119658   1.050   2.140   3.518 -0.9803 -0.8969  1.2397
 2674SOL    HW219659   1.120   2.066   3.404 -0.8629  1.0916 -0.0536
 2675SOL     OW19660   0.841   4.709  14.100  0.4807  0.4840  0.2559
 2675SOL    HW119661   0.903   0.032  14.065  1.0101 -0.0134  0.2879
 2675SOL    HW219662   0.760   0.019  14.105 -0.6198 -1.1089 -1.5290
 2676SOL     OW19663   0.172   0.663  12.130  0.5426  0.2662 -0.3208
 2676SOL    HW119664   0.167   0.675  12.036 -1.1542  1.3837 -0.0871
 2676SOL    HW219665   0.140   0.573  12.138  0.3474  0.3531 -0.1206
 2677SOL     OW19666   0.286   2.991   0.999 -0.0404 -0.2236  0.1636
 2677SOL    HW119667   0.346   3.060   1.028  2.3747 -3.4842  2.9542
 2677SOL    HW219668   0.213   3.014   1.057 -0.0848  0.1793 -0.0544
 2678SOL     OW19669   1.819   0.868  13.365  0.2840  0.4145 -0.3664
 2678SOL    HW119670   1.744   0.919  13.335  0.7141  0.7645 -0.8425
 2678SOL    HW219671   1.842   0.815  13.289  2.8638 -0.3866  0.9895
 2679SOL     OW19672   2.544   4.602   9.135  0.2470 -0.2267  0.2430
 2679SOL    HW119673   2.518   4.681   9.087 -2.3837 -1.8635 -1.0745
 2679SOL    HW219674   2.634   4.595   9.105  1.2441  0.7786  3.0435
 2680SOL     OW19675   3.777   2.134   3.785  0.4453 -0.0402 -0.6824
 2680SOL    HW119676   3.789   2.081   3.864  2.1302  0.8302 -0.3591
 2680SOL    HW219677   3.736   2.075   3.722 -0.3184 -0.0187 -0.2088
 2681SOL     OW19678   4.543   2.343   7.524  0.2286  0.4836 -0.4247
 2681SOL    HW119679   4.496   2.420   7.557  0.3628  0.8437 -1.0519
 2681SOL    HW219680   4.547   2.288   7.602 -2.3446  0.6411 -0.2071
 2682SOL     OW19681   1.193   1.937   4.176 -0.1767 -0.2400 -0.0243
 2682SOL    HW119682   1.129   1.965   4.111 -0.0417  1.2304  0.4805
 2682SOL    HW219683   1.229   1.854   4.145  1.5254  2.0359 -4.1120
 2683SOL     OW19684   3.024   4.534   3.411 -0.7768 -0.2748  0.1814
 2683SOL    HW119685   3.112   4.504   3.388 -0.8204 -1.0173  1.0098
 2683SOL    HW219686   3.042   4.600   3.477 -0.7170 -0.4127  0.3023
 2684SOL     OW19687   2.046   1.814   8.524 -0.3369  0.4334 -0.3033
 2684SOL    HW119688   1.959   1.819   8.565 -0.2365 -1.1675  0.0961
 2684SOL    HW219689   2.016   1.849   8.441  0.7534 -0.2004 -0.9631
 2685SOL     OW19690   4.260   2.068   3.910 -0.2124 -0.3693  0.5349
 2685SOL    HW119691   4.351   2.082   3.884 -0.9085  0.6037 -1.3773
 2685SOL    HW219692   4.207   2.125   3.854  0.8147 -0.7138 -0.7989
 2686SOL     OW19693   3.662   1.395   5.717  0.4601  0.0242 -0.2526
 2686SOL    HW119694   3.723   1.327   5.688  0.4099 -0.0376 -0.2152
 2686SOL    HW219695   3.714   1.474   5.724 -1.4552  1.0111  2.8150
 2687SOL     OW19696   3.656   1.872   5.867  0.0467  0.0518 -0.1353
 2687SOL    HW119697   3.607   1.790   5.875  1.3452 -0.5421  1.7430
 2687SOL    HW219698   3.586   1.923   5.908 -1.0320 -0.4901 -1.3101
 2688SOL     OW19699   0.042   1.724   2.020  0.5862 -0.8225 -0.3158
 2688SOL    HW119700   0.108   1.757   2.081 -1.2934  1.3620  0.5530
 2688SOL    HW219701   4.704   1.722   2.076 -0.6040 -3.9260 -2.0895
 2689SOL     OW19702   2.485   1.577   0.738 -0.0989  0.5532 -0.1037
 2689SOL    HW119703   2.482   1.638   0.664  1.3411  0.8887  0.1089
 2689SOL    HW219704   2.549   1.512   0.708 -0.4474  0.0462  0.2643
 2690SOL     OW19705   0.215   3.972   5.303  0.3085 -0.0209 -0.4288
 2690SOL    HW119706   0.286   4.035   5.300  0.9851 -0.6814  1.5465
 2690SOL    HW219707   0.162   4.005   5.231 -0.3090  1.0479  0.5252
 2691SOL     OW19708   2.662   2.772  11.986  0.1260 -1.0874 -0.1219
 2691SOL    HW119709   2.658   2.695  11.929  0.7486 -0.9290 -0.3745
 2691SOL    HW219710   2.607   2.730  12.053  0.6962 -1.6293  0.0044
 2692SOL     OW19711   0.272   2.038   1.885 -0.7941  0.1328  0.0019
 2692SOL    HW119712   0.318   1.986   1.819 -1.9880 -0.2503 -0.5237
 2692SOL    HW219713   0.348   2.087   1.917 -0.6435 -0.9182  1.2243
 2693SOL     OW19714   0.353   0.560  10.529 -0.7001 -0.0975  0.1425
 2693SOL    HW119715   0.326   0.554  10.437 -2.5501  0.9429  0.6217
 2693SOL    HW219716   0.293   0.496  10.567 -0.1146 -0.6519  0.1278
 2694SOL     OW19717   3.130   4.119  14.785 -0.6480  0.1068 -0.3304
 2694SOL    HW119718   3.182   4.052  14.829 -2.3147 -1.1429 -0.2602
 2694SOL    HW219719   3.104   4.172  14.860 -0.3562 -1.1805  0.6875
 2695SOL     OW19720   0.320   1.009   4.470 -0.2612  0.7131  0.0377
 2695SOL    HW119721   0.349   1.085   4.421  1.6043 -0.4184 -0.6083
 2695SOL    HW219722   0.377   0.948   4.423 -1.4517 -0.2452 -0.1634
 2696SOL     OW19723   0.666   2.573   9.587 -0.3199 -0.3818  0.3402
 2696SOL    HW119724   0.734   2.515   9.623  0.1444 -0.6602 -0.9776
 2696SOL    HW219725   0.597   2.542   9.645  1.2373 -0.3577  2.2019
 2697SOL     OW19726   1.919   3.530  12.027  0.4896  0.0194 -0.4145
 2697SOL    HW119727   1.897   3.445  11.991  2.4681 -0.1280 -1.2723
 2697SOL    HW219728   2.011   3.507  12.037  0.7920  0.7500 -1.5690
 2698SOL     OW19729   3.036   2.124   6.939  0.2247 -0.4823  0.2602
 2698SOL    HW119730   3.001   2.039   6.912  0.7969 -1.1832  1.7113
 2698SOL    HW219731   3.112   2.104   6.993 -0.7487 -1.0746  1.4091
 2699SOL     OW19732   3.443   4.065   6.842  0.8461 -0.3410  0.0439
 2699SOL    HW119733   3.480   4.142   6.885  0.4486 -0.2135  0.1546
 2699SOL    HW219734   3.361   4.066   6.892  1.4475 -2.2906  1.0817
 2700SOL     OW19735   0.747   1.551   9.878  0.0151  0.1089 -0.6893
 2700SOL    HW119736   0.755   1.644   9.899 -0.2946  0.0312 -0.2272
 2700SOL    HW219737   0.820   1.533   9.819  0.7018 -0.1453  0.2414
 2701SOL     OW19738   2.636   0.415   1.756  0.2290 -0.2792 -0.1060
 2701SOL    HW119739   2.637   0.499   1.802 -5.0290 -0.7178  0.8381
 2701SOL    HW219740   2.707   0.365   1.796  2.2834  1.4520 -1.5658
 2702SOL     OW19741   0.142   4.025  14.485  0.5416  0.3560 -0.3214
 2702SOL    HW119742   0.198   4.096  14.455  0.9870  0.5241  0.9001
 2702SOL    HW219743   0.072   4.071  14.531  1.3399 -1.1413  2.4003
 2703SOL     OW19744   1.138   1.408   5.528 -0.1616 -0.1766 -0.2751
 2703SOL    HW119745   1.106   1.368   5.447 -0.8019 -0.5295  0.1501
 2703SOL    HW219746   1.211   1.349   5.549  0.4826  0.6589 -0.1632
 2704SOL     OW19747   3.150   0.213  15.411  0.5249  0.6941 -0.2110
 2704SOL    HW119748   3.075   0.185  15.359  0.2007  0.2160  0.5079
 2704SOL    HW219749   3.099   0.227  15.491 -1.7577  0.8529 -1.7179
 2705SOL     OW19750   2.216   3.096   2.121  0.4417  0.4560 -0.7961
 2705SOL    HW119751   2.189   3.020   2.172  0.4801 -0.4452 -2.1148
 2705SOL    HW219752   2.142   3.094   2.060  0.8602 -0.7865 -1.2439
 2706SOL     OW19753   3.542   3.820   8.919  0.1394 -0.7130 -0.1312
 2706SOL    HW119754   3.598   3.870   8.859 -1.9816  1.2531 -0.4778
 2706SOL    HW219755   3.587   3.736   8.931 -1.0661 -1.0324  2.0616
 2707SOL     OW19756   1.875   2.876   2.077  0.2867 -0.0582  0.8654
 2707SOL    HW119757   1.846   2.922   1.998 -1.4441  1.0009  2.1180
 2707SOL    HW219758   1.923   2.800   2.045  0.0365 -0.3459  1.1754
 2708SOL     OW19759   4.649   3.398   3.214  0.2851 -0.0078 -0.3241
 2708SOL    HW119760   4.679   3.308   3.199  2.1391  0.2948  1.6396
 2708SOL    HW219761   4.720   3.439   3.263 -0.3440  1.1694 -0.3990
 2709SOL     OW19762   0.276   2.320   5.469  0.4243  0.4982 -0.8362
 2709SOL    HW119763   0.219   2.330   5.546 -1.7127 -0.8750 -2.2172
 2709SOL    HW219764   0.361   2.322   5.512 -0.5865 -0.6159  1.2281
 2710SOL     OW19765   3.269   2.965   7.919 -0.1429 -0.1201 -0.2465
 2710SOL    HW119766   3.311   3.048   7.944  1.3060 -1.2508  1.1503
 2710SOL    HW219767   3.180   2.991   7.943 -0.3768  0.8426 -2.2200
 2711SOL     OW19768   0.274   0.428   2.857  0.5560 -0.2372  0.4636
 2711SOL    HW119769   0.198   0.438   2.799  1.2002  1.3950 -0.0836
 2711SOL    HW219770   0.222   0.448   2.935  1.1078 -1.9771  1.2632
 2712SOL     OW19771   0.694   4.365   3.322  0.0850 -0.1468  0.0124
 2712SOL    HW119772   0.774   4.333   3.365  0.5334  0.4064 -0.4029
 2712SOL    HW219773   0.723   4.443   3.274  3.3872 -1.6366 -0.4539
 2713SOL     OW19774   2.804   1.875   8.280  0.0961 -0.6555  0.0040
 2713SOL    HW119775   2.792   1.969   8.268  0.4870 -0.6554 -0.3597
 2713SOL    HW219776   2.794   1.874   8.375 -2.5137  1.7877 -0.2507
 2714SOL     OW19777   3.811   1.982   3.996 -0.2437  0.0398 -0.2719
 2714SOL    HW119778   3.872   2.042   4.039 -1.8888  0.9691  0.7471
 2714SOL    HW219779   3.772   1.942   4.073 -0.3338  1.6588  0.5291
 2715SOL     OW19780   1.542   0.884   3.139 -0.8004 -0.3207  0.0381
 2715SOL    HW119781   1.543   0.908   3.046 -0.7735 -0.9623 -0.1314
 2715SOL    HW219782   1.632   0.904   3.165 -1.0675 -1.5829  1.9734
 2716SOL     OW19783   3.463   0.100   7.891 -0.3325 -0.1514 -0.4318
 2716SOL    HW119784   3.520   0.071   7.820 -0.3847 -0.8371 -0.1922
 2716SOL    HW219785   3.474   0.034   7.960  1.7661  0.2946 -0.3242
 2717SOL     OW19786   4.161   2.802   2.147 -0.3327  0.0782  0.6931
 2717SOL    HW119787   4.074   2.805   2.105 -1.0749  1.5567  2.3224
 2717SOL    HW219788   4.144   2.849   2.229  2.7753  0.3431  1.1511
 2718SOL     OW19789   3.984   0.700   4.839 -0.1116 -0.1780  0.5522
 2718SOL    HW119790   4.016   0.790   4.842  2.2082 -0.9843 -0.0367
 2718SOL    HW219791   4.045   0.655   4.898 -1.4196 -0.6977  1.5324
 2719SOL     OW19792   4.497   2.451  16.874  0.4104 -0.0874 -0.8997
 2719SOL    HW119793   4.533   2.511  16.940  0.4181 -1.9352  0.7611
 2719SOL    HW219794   4.468   2.520  16.814 -0.7894  0.5362  0.4094
 2720SOL     OW19795   3.671   0.261   2.802 -0.0059  0.1793 -0.1355
 2720SOL    HW119796   3.724   0.222   2.732  1.4767  0.0224  1.0810
 2720SOL    HW219797   3.740   0.317   2.837 -1.0922  0.8492  0.9380
 2721SOL     OW19798   0.605   2.790  13.547 -0.8824 -0.1611 -0.0418
 2721SOL    HW119799   0.567   2.865  13.593  0.1084  0.2820  0.0424
 2721SOL    HW219800   0.674   2.829  13.493  0.8444  0.5233  2.6327
 2722SOL     OW19801   4.179   0.198  14.092  0.0351 -0.2206 -0.0783
 2722SOL    HW119802   4.107   0.135  14.085  0.4634 -0.7435  0.2245
 2722SOL    HW219803   4.229   0.152  14.159  0.3864 -1.4280 -1.1803
 2723SOL     OW19804   4.191   4.270   6.041 -0.9603 -0.0169  0.5012
 2723SOL    HW119805   4.258   4.338   6.034 -1.8362  1.1014  2.9283
 2723SOL    HW219806   4.154   4.267   5.952 -0.1132  0.5080  0.1346
 2724SOL     OW19807   3.083   1.429   6.914 -0.0595 -0.0126 -0.4334
 2724SOL    HW119808   3.176   1.449   6.903 -0.1119  0.9329  0.9293
 2724SOL    HW219809   3.056   1.380   6.836  1.6888 -2.8459  0.7065
 2725SOL     OW19810   3.284   2.966  17.221 -0.6947  0.1424  0.1762
 2725SOL    HW119811   3.234   2.885  17.237 -0.5593 -0.4155 -2.2645
 2725SOL    HW219812   3.349   2.936  17.158 -0.4125  0.2857  0.4008
 2726SOL     OW19813   0.031   2.545   6.028 -0.7360 -0.0024  0.5089
 2726SOL    HW119814   0.052   2.542   5.935  0.0670  2.3478  0.6118
 2726SOL    HW219815   0.043   2.450   6.040  1.8744  0.4722  1.6924
 2727SOL     OW19816   3.922   3.182   9.277 -0.0491  0.1338 -0.0272
 2727SOL    HW119817   3.863   3.218   9.343  2.3501  1.9076  1.1330
 2727SOL    HW219818   3.916   3.247   9.206  5.4815  0.7410  0.0660
 2728SOL     OW19819   1.622   1.466   5.902 -0.2616  0.0138  0.6785
 2728SOL    HW119820   1.550   1.520   5.933  1.1793  1.3583  1.7006
 2728SOL    HW219821   1.677   1.467   5.980  0.3596  1.0055  0.2426
 2729SOL     OW19822   0.559   4.027   1.727 -0.1090  0.3679  0.3987
 2729SOL    HW119823   0.602   3.949   1.692  0.1363  1.5503 -1.9400
 2729SOL    HW219824   0.547   4.000   1.818  0.4489 -1.6050 -0.0955
 2730SOL     OW19825   1.426   3.713   2.173  0.3499  0.6185  0.3253
 2730SOL    HW119826   1.365   3.702   2.101  0.1208  0.6212  0.5177
 2730SOL    HW219827   1.361   3.758   2.227 -1.5593 -2.7984  0.8500
 2731SOL     OW19828   1.151   0.969   0.832 -0.2203 -0.3077  0.2707
 2731SOL    HW119829   1.213   1.033   0.867  0.3178 -0.2859 -0.7340
 2731SOL    HW219830   1.163   0.979   0.738 -0.3412  2.0067  0.5003
 2732SOL     OW19831   0.460   2.339  14.802 -0.1435 -0.2595  0.3023
 2732SOL    HW119832   0.445   2.262  14.747 -1.0709 -0.4583  0.8285
 2732SOL    HW219833   0.555   2.341  14.813 -0.1507  0.0555  0.2981
 2733SOL     OW19834   2.027   0.345   2.019  0.1138 -0.1517 -0.3135
 2733SOL    HW119835   2.078   0.410   2.067  0.4351  0.7279 -1.8576
 2733SOL    HW219836   1.959   0.408   1.997 -0.5240 -0.7992 -0.1884
 2734SOL     OW19837   4.373   3.848   2.323 -0.2736  0.1769  0.3710
 2734SOL    HW119838   4.352   3.757   2.342 -0.2488  0.3526  1.2588
 2734SOL    HW219839   4.456   3.860   2.369  0.1078  2.1145 -0.8395
 2735SOL     OW19840   2.877   2.341   3.884 -0.9631  0.1654 -0.2443
 2735SOL    HW119841   2.816   2.365   3.814  0.7513 -0.7713 -2.0714
 2735SOL    HW219842   2.865   2.246   3.882 -1.8428  0.2396  1.8303
 2736SOL     OW19843   1.233   1.146  13.504 -0.0108 -0.1146  0.1073
 2736SOL    HW119844   1.139   1.149  13.488  0.2613  1.0302 -1.3338
 2736SOL    HW219845   1.254   1.068  13.453 -0.4628 -0.9026  1.1291
 2737SOL     OW19846   2.329   0.864   9.062 -0.0633  0.4733  0.5006
 2737SOL    HW119847   2.260   0.930   9.052  0.7554  1.1621 -0.7581
 2737SOL    HW219848   2.349   0.840   8.971 -1.5317  0.3140  0.2249
 2738SOL     OW19849   0.586   1.857   6.235  0.0749 -0.2387 -0.3349
 2738SOL    HW119850   0.587   1.822   6.146 -0.4632 -3.0731  0.7896
 2738SOL    HW219851   0.566   1.791   6.302 -0.7830 -0.0147 -0.3610
 2739SOL     OW19852   0.655   1.537   4.209 -0.2427  0.1228 -0.8155
 2739SOL    HW119853   0.726   1.506   4.266  0.2014  1.7138 -0.5126
 2739SOL    HW219854   0.671   1.630   4.192  1.2710  0.1604  0.7938
 2740SOL     OW19855   4.306   1.419   4.829  0.3757  0.5219 -0.0384
 2740SOL    HW119856   4.242   1.438   4.898 -0.1962  0.7274 -0.6243
 2740SOL    HW219857   4.244   1.416   4.757 -0.2522  0.3042  0.5155
 2741SOL     OW19858   3.723   2.053   5.078 -0.4087  0.4064 -0.0105
 2741SOL    HW119859   3.672   2.029   5.156  1.0088 -1.1097  0.4639
 2741SOL    HW219860   3.722   1.976   5.022 -1.6678  0.7387 -0.4459
 2742SOL     OW19861   4.393   0.787   2.843 -0.2757 -0.3235 -0.7210
 2742SOL    HW119862   4.390   0.789   2.747 -2.5963 -0.6417 -0.6440
 2742SOL    HW219863   4.351   0.705   2.868 -0.1516 -0.0986  0.2062
 2743SOL     OW19864   3.423   0.627   2.352  0.1066  0.3691 -0.2043
 2743SOL    HW119865   3.515   0.643   2.334 -0.1329  1.4650 -0.4928
 2743SOL    HW219866   3.430   0.533   2.370 -2.1436  0.2791  0.1931
 2744SOL     OW19867   0.626   0.034   6.628 -0.2901 -0.1846 -0.1299
 2744SOL    HW119868   0.551   0.093   6.618  0.0349  0.6527  2.3287
 2744SOL    HW219869   0.602   4.714   6.557  1.4453 -1.2637  0.2119
 2745SOL     OW19870   2.048   4.282  12.230 -0.2876 -0.2368 -0.1578
 2745SOL    HW119871   2.001   4.356  12.268 -2.4142 -1.0763 -1.1208
 2745SOL    HW219872   2.015   4.216  12.291 -0.6933 -0.8765 -1.0496
 2746SOL     OW19873   2.794   3.343   8.728  0.1851 -0.7695  0.2927
 2746SOL    HW119874   2.828   3.343   8.639 -3.7932 -1.6060 -1.2576
 2746SOL    HW219875   2.715   3.397   8.717  0.2448 -0.6902  0.2550
 2747SOL     OW19876   3.034   2.530   4.319 -0.1656  0.5270  0.0004
 2747SOL    HW119877   2.986   2.459   4.275 -0.1211 -0.7411  1.9585
 2747SOL    HW219878   3.117   2.488   4.340  0.8425  2.0278 -1.0315
 2748SOL     OW19879   2.163   3.821   9.533  0.1760 -0.1561 -0.2691
 2748SOL    HW119880   2.211   3.902   9.518 -0.2267 -0.1050 -1.3156
 2748SOL    HW219881   2.222   3.751   9.504  1.3036  0.6236  0.1752
 2749SOL     OW19882   3.381   1.077   5.717  0.7102  0.5664 -0.3829
 2749SOL    HW119883   3.304   1.028   5.747 -0.1753  1.2182 -1.5866
 2749SOL    HW219884   3.343   1.148   5.665 -1.6835 -1.6214 -1.6085
 2750SOL     OW19885   0.304   2.865   3.840 -0.3234 -0.5292 -0.4573
 2750SOL    HW119886   0.321   2.903   3.926  2.8084  0.8787 -1.7279
 2750SOL    HW219887   0.258   2.786   3.869  0.0274 -0.7183 -0.4218
 2751SOL     OW19888   1.471   2.269  17.254  0.0263  0.6614 -0.1346
 2751SOL    HW119889   1.530   2.199  17.227  0.6082  1.1687 -0.1615
 2751SOL    HW219890   1.530   2.338  17.282 -0.7808  2.0425 -1.7934
 2752SOL     OW19891   4.160   2.847   5.172  0.1296  0.4278  0.1340
 2752SOL    HW119892   4.118   2.792   5.238 -0.5595 -2.0781 -2.4094
 2752SOL    HW219893   4.092   2.914   5.160  0.3854  0.4963 -0.9903
 2753SOL     OW19894   4.337   2.071   9.861  0.3372  0.0074  0.1413
 2753SOL    HW119895   4.416   2.040   9.815  0.3600  0.8302 -0.3813
 2753SOL    HW219896   4.317   1.988   9.905  1.6490 -0.2741  0.2279
 2754SOL     OW19897   2.593   3.995   5.036  0.5809  0.0500 -0.2194
 2754SOL    HW119898   2.673   3.999   5.088 -0.0404 -1.9245  0.8677
 2754SOL    HW219899   2.607   3.920   4.978  0.1382 -1.5912  1.8029
 2755SOL     OW19900   2.877   4.290  14.141  0.1772  0.0587 -0.4559
 2755SOL    HW119901   2.933   4.311  14.065  2.2959  1.0302  1.3554
 2755SOL    HW219902   2.792   4.325  14.116  0.9375  1.8468 -0.5506
 2756SOL     OW19903   4.412   2.849   3.215 -0.2384  0.0040 -0.6264
 2756SOL    HW119904   4.497   2.874   3.252  0.0032 -1.3533 -0.2868
 2756SOL    HW219905   4.423   2.764   3.172  0.6691 -0.9886  1.5817
 2757SOL     OW19906   3.085   4.433   8.235 -0.0390  1.0983 -0.2367
 2757SOL    HW119907   3.076   4.434   8.140 -0.2682 -0.6692 -0.2402
 2757SOL    HW219908   3.025   4.503   8.259  0.3713  1.5484 -0.5324
 2758SOL     OW19909   4.162   1.324   6.803  0.2447 -0.3236  0.2672
 2758SOL    HW119910   4.076   1.351   6.771 -0.3633 -1.5922  0.8705
 2758SOL    HW219911   4.194   1.267   6.733  0.5744 -1.5921  1.4773
 2759SOL     OW19912   2.347   0.376   4.093 -0.6217  1.2943 -0.1092
 2759SOL    HW119913   2.359   0.467   4.065  3.9380  1.2637  1.7505
 2759SOL    HW219914   2.271   0.391   4.150 -2.0646  0.0092 -1.7007
 2760SOL     OW19915   1.909   3.242   0.955 -0.0285  0.3883  0.4639
 2760SOL    HW119916   1.852   3.318   0.942  1.6135  1.8536  1.8538
 2760SOL    HW219917   1.985   3.281   0.913 -1.9489 -1.0367 -4.3384
 2761SOL     OW19918   3.290   1.869   9.147  0.3152  0.3214  0.3048
 2761SOL    HW119919   3.254   1.783   9.165  2.2241 -0.4789  0.3076
 2761SOL    HW219920   3.214   1.927   9.145  1.3330  1.6713  0.2360
 2762SOL     OW19921   3.325   1.821   8.052 -0.4499 -0.6646  0.5637
 2762SOL    HW119922   3.302   1.800   7.962  1.6622 -1.7502  0.2827
 2762SOL    HW219923   3.301   1.914   8.051 -1.2697 -0.8723  0.5364
 2763SOL     OW19924   2.064   0.181   9.117  0.1639 -0.7877  0.1928
 2763SOL    HW119925   2.101   0.176   9.205 -1.8142  0.1493  1.0840
 2763SOL    HW219926   2.079   0.090   9.091  0.6674 -1.0010  1.2104
 2764SOL     OW19927   0.842   1.783   6.987  0.1060 -0.3070 -0.0135
 2764SOL    HW119928   0.880   1.746   6.908 -0.0436 -2.4633  0.9225
 2764SOL    HW219929   0.801   1.712   7.035  0.1666 -0.6460 -0.4679
 2765SOL     OW19930   4.492   3.500   6.866 -1.4570  0.3690  0.2766
 2765SOL    HW119931   4.515   3.548   6.786 -3.0027  0.6367 -0.0231
 2765SOL    HW219932   4.431   3.559   6.910 -2.1950  0.5309 -0.9624
 2766SOL     OW19933   0.410   0.206   6.526  0.5645 -0.1328  0.6858
 2766SOL    HW119934   0.337   0.262   6.553  0.5498 -0.5226  1.4477
 2766SOL    HW219935   0.389   0.114   6.540 -1.2399 -0.0372 -1.4562
 2767SOL     OW19936   4.302   0.752  15.148 -0.7081 -0.6963 -0.0806
 2767SOL    HW119937   4.278   0.746  15.056 -1.3338 -3.1595  0.2660
 2767SOL    HW219938   4.224   0.737  15.202 -0.0153 -1.3444  0.7475
 2768SOL     OW19939   1.033   4.201   7.477 -0.4301  0.4153 -0.7344
 2768SOL    HW119940   1.077   4.249   7.547  0.2665  0.0260 -0.9108
 2768SOL    HW219941   1.116   4.174   7.438  0.1619  1.5895 -0.2906
 2769SOL     OW19942   1.853   2.001   2.824 -0.0644  0.5847 -0.5022
 2769SOL    HW119943   1.858   2.036   2.735 -2.2298  0.2721 -0.7482
 2769SOL    HW219944   1.935   2.041   2.854  0.1892  0.3640 -0.8873
 2770SOL     OW19945   4.558   2.275   2.426  0.3464  0.5827  0.2864
 2770SOL    HW119946   4.536   2.353   2.477 -0.1350  0.5270  0.1655
 2770SOL    HW219947   4.473   2.237   2.404  0.7430 -0.2446  0.2115
 2771SOL     OW19948   1.329   4.423   3.346  0.0179  0.2199  0.1684
 2771SOL    HW119949   1.363   4.490   3.287 -1.0422  1.6581  1.1779
 2771SOL    HW219950   1.383   4.446   3.422 -0.3091  2.0130 -0.1429
 2772SOL     OW19951   3.990   3.677   5.903 -0.4937  0.0180  0.7168
 2772SOL    HW119952   4.049   3.746   5.934  0.1756 -0.2772  0.0998
 2772SOL    HW219953   4.030   3.602   5.946  0.5592  0.0523 -0.2131
 2773SOL     OW19954   2.231   2.762  10.385  0.1624  0.7475 -0.5272
 2773SOL    HW119955   2.297   2.693  10.375 -1.5493 -0.7495 -1.5913
 2773SOL    HW219956   2.201   2.742  10.474  2.3315 -0.1137  0.0096
 2774SOL     OW19957   4.483   2.802  16.028 -0.4206 -0.0511  0.3707
 2774SOL    HW119958   4.563   2.766  15.990  0.2480  0.6426  1.1148
 2774SOL    HW219959   4.497   2.896  16.042  1.7973 -0.7069  2.5196
 2775SOL     OW19960   3.942   1.319   2.418 -0.4825 -0.1057  0.2374
 2775SOL    HW119961   3.968   1.363   2.337  0.6409 -2.2284 -0.5613
 2775SOL    HW219962   4.005   1.356   2.480 -0.0916  0.6899 -0.6263
 2776SOL     OW19963   3.777   3.117  11.904  0.0612  0.6794  0.3196
 2776SOL    HW119964   3.789   3.029  11.939 -2.0334  1.0672  2.0179
 2776SOL    HW219965   3.802   3.106  11.812  0.8926  1.7778  0.4000
 2777SOL     OW19966   3.354   1.350   4.864 -0.2911 -0.0594 -0.6276
 2777SOL    HW119967   3.354   1.260   4.899 -4.0884  0.2303  0.1193
 2777SOL    HW219968   3.293   1.346   4.790  0.8376 -0.3836 -1.5456
 2778SOL     OW19969   1.904   3.656  16.619 -0.0111 -0.3184  0.4195
 2778SOL    HW119970   1.941   3.706  16.691 -1.3159 -0.1912  1.0053
 2778SOL    HW219971   1.866   3.724  16.564  1.8610  1.1658  0.9788
 2779SOL     OW19972   1.641   3.068   7.528 -0.5378  0.1356  0.3795
 2779SOL    HW119973   1.552   3.032   7.531 -0.1754 -1.0498 -2.8286
 2779SOL    HW219974   1.693   2.988   7.527 -0.7110  0.0325 -0.3384
 2780SOL     OW19975   2.871   1.625   4.318  0.2161  0.2205  0.6086
 2780SOL    HW119976   2.787   1.580   4.310  1.0151 -1.1377 -0.0206
 2780SOL    HW219977   2.880   1.667   4.232  0.2306  0.4750  0.7339
 2781SOL     OW19978   4.025   0.871  15.598  0.1707 -0.2858 -0.1964
 2781SOL    HW119979   3.992   0.940  15.656  1.9551 -0.2196  0.7420
 2781SOL    HW219980   4.084   0.916  15.537  0.4796  0.6845  0.8163
 2782SOL     OW19981   1.094   2.466  13.039  1.1009 -0.0865  0.4319
 2782SOL    HW119982   1.130   2.554  13.050 -0.4104  0.7040 -0.9625
 2782SOL    HW219983   1.110   2.441  12.948 -2.2270 -0.0421 -0.1814
 2783SOL     OW19984   2.961   4.278   2.553 -0.0748 -0.1831 -0.2945
 2783SOL    HW119985   2.918   4.232   2.625 -0.6116  1.9738  0.7794
 2783SOL    HW219986   2.980   4.363   2.592 -0.8936 -0.0399 -0.1940
 2784SOL     OW19987   1.053   3.239   7.996  0.2559  0.2404  0.1374
 2784SOL    HW119988   1.080   3.267   8.083  0.0188 -0.4585  0.4342
 2784SOL    HW219989   0.966   3.209   8.023 -0.8615  1.8989 -1.6036
 2785SOL     OW19990   3.645   3.398  10.248 -0.2909 -0.1489 -0.1534
 2785SOL    HW119991   3.568   3.387  10.193 -0.5845  0.6880  0.0859
 2785SOL    HW219992   3.619   3.328  10.308 -0.3028 -1.2372 -1.4328
 2786SOL     OW19993   1.085   1.322   5.268 -0.4198 -0.3945  0.8154
 2786SOL    HW119994   1.100   1.406   5.224 -0.6348 -0.3949  0.7412
 2786SOL    HW219995   1.011   1.292   5.215 -0.2992 -1.6811  1.3718
 2787SOL     OW19996   1.627   1.950   8.221 -0.1640 -0.2729 -0.1823
 2787SOL    HW119997   1.709   1.902   8.219  0.9807  1.6920 -1.1827
 2787SOL    HW219998   1.564   1.881   8.242 -0.1269 -0.1073  0.4551
 2788SOL     OW19999   1.058   1.152  15.561 -0.5766 -0.0285 -0.0481
 2788SOL    HW120000   1.062   1.226  15.622 -0.6132 -0.5012  0.5259
 2788SOL    HW220001   1.153   1.151  15.550 -0.5427  0.7960  0.2088
 2789SOL     OW20002   2.431   2.486   8.310 -0.2622 -0.6001 -0.2195
 2789SOL    HW120003   2.427   2.441   8.395  1.4742  2.9028  1.6876
 2789SOL    HW220004   2.393   2.418   8.254  0.8455 -0.6579 -0.9042
 2790SOL     OW20005   4.641   4.029   3.976  0.2549  0.8749 -0.1323
 2790SOL    HW120006   4.663   3.951   3.925 -0.5413  0.4809  0.1325
 2790SOL    HW220007   4.635   3.993   4.064  1.8620 -2.5604 -1.4281
 2791SOL     OW20008   3.878   0.224  16.960  0.3853 -0.1099 -0.0753
 2791SOL    HW120009   3.814   0.203  17.028 -1.1653  1.9845 -0.8814
 2791SOL    HW220010   3.822   0.271  16.898 -0.0134 -0.6873 -0.1502
 2792SOL     OW20011   0.338   4.013   3.875 -0.0479  0.3649 -0.2426
 2792SOL    HW120012   0.269   4.068   3.912 -1.2734 -1.6842  0.5553
 2792SOL    HW220013   0.404   4.075   3.845  0.4344 -0.2769 -0.5234
 2793SOL     OW20014   3.408   1.527  14.938  0.2224 -0.1261  0.6125
 2793SOL    HW120015   3.395   1.500  15.028  1.3563 -0.2402  0.7457
 2793SOL    HW220016   3.488   1.477  14.923  0.6477  1.1960 -1.5370
 2794SOL     OW20017   3.361   3.400   7.441  0.4638 -0.4724 -0.1068
 2794SOL    HW120018   3.365   3.311   7.477 -0.0819 -0.3573  0.2305
 2794SOL    HW220019   3.451   3.434   7.443  0.9334 -1.7895  1.2531
 2795SOL     OW20020   0.039   3.814   6.519  0.1994 -0.0852  0.3616
 2795SOL    HW120021   4.737   3.846   6.598 -0.1504  0.5580 -0.0923
 2795SOL    HW220022   0.132   3.839   6.527 -0.1243  1.4333 -0.5845
 2796SOL     OW20023   4.474   3.845  14.556 -0.2918 -0.1024  0.6278
 2796SOL    HW120024   4.548   3.787  14.575 -2.8092 -2.9531  1.5218
 2796SOL    HW220025   4.450   3.859  14.647 -1.9512 -1.1131  0.3399
 2797SOL     OW20026   0.257   3.023  11.694  0.0516  0.4139  0.2258
 2797SOL    HW120027   0.225   2.935  11.676 -0.1719  0.4984  0.2081
 2797SOL    HW220028   0.310   3.051  11.620  0.8448  0.4102  0.7937
 2798SOL     OW20029   0.775   4.045  11.164 -0.1957 -0.1085 -0.1906
 2798SOL    HW120030   0.796   4.126  11.210  0.8251  0.1827 -1.1624
 2798SOL    HW220031   0.821   4.062  11.082  1.2526  0.0611  0.6393
 2799SOL     OW20032   4.010   2.324  16.830 -0.4914  0.3616 -0.3289
 2799SOL    HW120033   4.068   2.344  16.904  1.5851 -1.8219 -1.3874
 2799SOL    HW220034   3.991   2.236  16.861 -0.2939  1.3919  2.6742
 2800SOL     OW20035   1.553   3.291   1.871  0.2847  0.0537 -0.1063
 2800SOL    HW120036   1.493   3.228   1.910 -0.1870 -0.0412 -0.9887
 2800SOL    HW220037   1.637   3.265   1.909  1.5175  0.2148 -2.7097
 2801SOL     OW20038   1.601   3.792   1.676 -0.0115 -0.2704  0.0853
 2801SOL    HW120039   1.537   3.739   1.630 -1.2970  0.0673  1.4763
 2801SOL    HW220040   1.627   3.718   1.731 -2.3701 -0.8755  0.3760
 2802SOL     OW20041   4.389   0.769  17.653  0.2989 -0.5496 -0.5650
 2802SOL    HW120042   4.456   0.738  17.592  0.8066  0.2347 -0.4136
 2802SOL    HW220043   4.437   0.837  17.702  1.2759  0.5763 -3.0819
 2803SOL     OW20044   0.277   1.782   5.699 -0.2013  0.0216 -0.2013
 2803SOL    HW120045   0.345   1.738   5.751 -0.1566 -0.1280 -0.3869
 2803SOL    HW220046   0.280   1.870   5.736  0.4557 -0.4425  0.8694
 2804SOL     OW20047   1.749   3.957   1.520  0.0857 -0.1565  0.6506
 2804SOL    HW120048   1.698   3.914   1.590  0.1230 -1.5130 -0.1540
 2804SOL    HW220049   1.823   3.995   1.567  1.1230 -1.1791 -0.1473
 2805SOL     OW20050   1.433   0.418   3.949  0.5507 -0.0481 -0.1891
 2805SOL    HW120051   1.346   0.388   3.975  1.6858 -2.1382  1.2394
 2805SOL    HW220052   1.421   0.495   3.894  1.1944  1.8200  2.2711
 2806SOL     OW20053   2.945   1.483  15.253  0.2542  0.6437 -0.4539
 2806SOL    HW120054   2.959   1.437  15.170  0.1547 -2.8862  1.4747
 2806SOL    HW220055   2.870   1.426  15.271 -0.1321  0.6126 -2.2162
 2807SOL     OW20056   4.377   1.615  11.843  0.0718 -0.2580  0.2991
 2807SOL    HW120057   4.291   1.605  11.883  0.5026 -0.0382  1.2889
 2807SOL    HW220058   4.372   1.548  11.775 -1.4795  1.8499 -1.6641
 2808SOL     OW20059   3.014   2.497   7.945 -0.2322  0.1248 -0.5240
 2808SOL    HW120060   3.088   2.459   7.992 -0.6456  0.8198  0.7195
 2808SOL    HW220061   3.069   2.539   7.879  1.7884 -0.1779  0.9533
 2809SOL     OW20062   1.476   4.415   5.508  0.3401  0.5254  0.9046
 2809SOL    HW120063   1.452   4.497   5.550  0.0288  0.9822 -0.1579
 2809SOL    HW220064   1.410   4.359   5.550 -0.0148  0.6632  0.5254
 2810SOL     OW20065   0.869   3.654   9.923 -0.0241 -0.4751 -0.4919
 2810SOL    HW120066   0.835   3.599   9.995 -1.6669 -1.1254 -1.7734
 2810SOL    HW220067   0.938   3.706   9.965  0.8539  1.0112 -3.8072
 2811SOL     OW20068   4.704   1.869  11.598 -0.0980 -0.1575 -0.4631
 2811SOL    HW120069   4.685   1.870  11.504 -1.5248 -0.4552 -0.1735
 2811SOL    HW220070   0.057   1.847  11.602 -0.2796 -1.0420 -1.1782
 2812SOL     OW20071   1.197   0.413   2.183  0.1890 -0.4959  0.2098
 2812SOL    HW120072   1.177   0.497   2.225  3.0491  0.2900  0.0290
 2812SOL    HW220073   1.231   0.356   2.252  0.2977  1.4062  1.7144
 2813SOL     OW20074   4.161   0.867   2.519  0.3456  0.2891 -0.5347
 2813SOL    HW120075   4.119   0.918   2.450  1.2542  1.1080 -0.4775
 2813SOL    HW220076   4.128   0.777   2.508  1.5926 -0.4002  1.3275
 2814SOL     OW20077   2.461   3.145   9.841  0.6896 -0.1778  0.0292
 2814SOL    HW120078   2.371   3.174   9.833  0.8069  0.6156  1.6275
 2814SOL    HW220079   2.469   3.095   9.760 -2.1286 -1.3784  0.5008
 2815SOL     OW20080   1.377   4.479   6.510 -0.1549 -0.0985  0.3290
 2815SOL    HW120081   1.459   4.433   6.526 -0.6368 -1.0084  0.1854
 2815SOL    HW220082   1.333   4.491   6.595 -1.3804 -0.2006 -0.2828
 2816SOL     OW20083   1.903   2.419   4.647  0.5704  0.2083  0.0700
 2816SOL    HW120084   1.937   2.427   4.558 -3.0766  0.4345 -1.2894
 2816SOL    HW220085   1.842   2.345   4.648 -0.7567  1.2963 -0.3971
 2817SOL     OW20086   3.401   2.920   8.365 -0.2059  0.4569 -0.0633
 2817SOL    HW120087   3.474   2.904   8.306  0.9264  2.9639  0.6588
 2817SOL    HW220088   3.436   2.902   8.452 -0.5697  1.4855  0.2943
 2818SOL     OW20089   2.078   4.660  12.455 -0.4446  0.3623  0.2111
 2818SOL    HW120090   1.992   4.619  12.454  0.4491 -1.5667  2.5442
 2818SOL    HW220091   2.099   4.655  12.361  1.3893 -1.1288  0.7023
 2819SOL     OW20092   1.249   1.259  15.266  0.3753 -0.3031 -0.3881
 2819SOL    HW120093   1.196   1.331  15.300  1.2855  0.6548 -0.9956
 2819SOL    HW220094   1.257   1.202  15.342 -2.8149 -2.3676 -1.5690
 2820SOL     OW20095   4.721   3.878   6.261  0.1907  0.0980 -0.0370
 2820SOL    HW120096   4.638   3.859   6.217 -1.8461 -0.6619  4.1730
 2820SOL    HW220097   4.716   3.871   6.356  1.0634 -0.8643 -0.0684
 2821SOL     OW20098   4.278   4.719   8.184  0.1362 -0.3052 -0.0148
 2821SOL    HW120099   4.255   4.697   8.094 -0.5367 -0.9640  0.3200
 2821SOL    HW220100   4.207   0.042   8.196 -0.8864 -1.3424 -0.7347
 2822SOL     OW20101   0.150   1.355   3.404  0.3058 -0.0428 -0.0600
 2822SOL    HW120102   0.079   1.303   3.366 -0.5148  2.6791 -2.2524
 2822SOL    HW220103   0.110   1.437   3.432  0.5183  0.1206 -0.2296
 2823SOL     OW20104   1.895   3.276   9.433 -0.3178  0.4876 -0.1651
 2823SOL    HW120105   1.974   3.316   9.469 -0.5064 -1.4755  2.3793
 2823SOL    HW220106   1.933   3.246   9.350 -2.1594 -0.6601 -0.5837
 2824SOL     OW20107   0.251   0.713   5.877  0.0832  0.7172 -0.6450
 2824SOL    HW120108   0.256   0.765   5.797  1.3675  1.2455 -0.2243
 2824SOL    HW220109   0.214   0.631   5.845 -0.4885  0.3970  0.8337
 2825SOL     OW20110   4.160   3.512  10.069  0.0161 -0.8414  0.3012
 2825SOL    HW120111   4.238   3.497  10.015  0.4899 -1.4206  1.1337
 2825SOL    HW220112   4.124   3.590  10.028  0.7963 -0.2095  0.8058
 2826SOL     OW20113   2.280   1.411   3.527  0.1529 -0.4816  0.7126
 2826SOL    HW120114   2.336   1.434   3.452  0.7912 -0.3166  1.2369
 2826SOL    HW220115   2.322   1.327   3.542  0.4612 -0.7472 -1.5756
 2827SOL     OW20116   3.198   0.291   5.488 -0.2552 -0.0042 -0.4053
 2827SOL    HW120117   3.146   0.356   5.441 -1.8274  0.6422  2.2342
 2827SOL    HW220118   3.270   0.270   5.428 -0.4320 -0.7159 -0.3668
 2828SOL     OW20119   0.104   2.583   7.114  0.0413 -0.0408  0.1644
 2828SOL    HW120120   0.057   2.572   7.031 -0.9128 -3.3663  1.1555
 2828SOL    HW220121   0.079   2.503   7.160  0.2569  0.5049  1.2373
 2829SOL     OW20122   4.267   4.625   7.891  0.1982  0.6257 -0.3148
 2829SOL    HW120123   4.232   4.686   7.826  0.8031  0.0426 -1.1866
 2829SOL    HW220124   4.229   4.543   7.861 -0.9188  1.3373 -0.8576
 2830SOL     OW20125   4.461   0.256  17.532 -0.0980  0.5285  0.3874
 2830SOL    HW120126   4.459   0.239  17.437 -1.6227 -1.9800  0.8616
 2830SOL    HW220127   4.371   0.287  17.544 -0.0520  1.0230 -0.5382
 2831SOL     OW20128   4.301   0.849   5.906  0.3992  0.6856 -0.6632
 2831SOL    HW120129   4.252   0.930   5.923  1.0261  0.9819 -0.2808
 2831SOL    HW220130   4.325   0.863   5.814  1.3873  0.2648 -0.4663
 2832SOL     OW20131   3.306   4.308   9.210  0.1959  0.0885  0.0246
 2832SOL    HW120132   3.399   4.292   9.197  0.1999  0.5616 -0.4687
 2832SOL    HW220133   3.281   4.217   9.228 -1.5810  1.1027  2.6816
 2833SOL     OW20134   0.514   0.450   8.242  0.3453 -0.0157  0.5526
 2833SOL    HW120135   0.495   0.374   8.187  1.0982  0.3269 -0.1886
 2833SOL    HW220136   0.477   0.421   8.325 -0.0190 -2.3532 -0.4063
 2834SOL     OW20137   3.276   0.516   8.036 -0.1405 -0.2941  0.3622
 2834SOL    HW120138   3.237   0.587   7.986 -0.3520  1.4705  3.0229
 2834SOL    HW220139   3.371   0.530   8.038 -0.4347  1.1939  3.6459
 2835SOL     OW20140   3.224   0.224   7.555  0.2354 -0.2552  0.0273
 2835SOL    HW120141   3.212   0.135   7.589 -2.6452 -0.4196 -1.4170
 2835SOL    HW220142   3.231   0.206   7.462 -0.1575 -2.3797  0.4085
 2836SOL     OW20143   0.278   1.386   0.070 -0.0751  0.6351 -0.0293
 2836SOL    HW120144   0.256   1.398  17.735 -1.0416 -0.8426  0.0156
 2836SOL    HW220145   0.371   1.411   0.070 -0.6787  2.9685 -1.1207
 2837SOL     OW20146   0.275   1.676   2.973  0.2807  0.3116 -0.1491
 2837SOL    HW120147   0.235   1.599   2.934 -1.0498  0.0080  1.7923
 2837SOL    HW220148   0.196   1.709   3.016 -1.2096 -0.3193 -2.4164
 2838SOL     OW20149   4.332   3.030   5.843 -0.5239  0.1531  0.0673
 2838SOL    HW120150   4.369   3.118   5.844 -2.9748  1.1742  1.5339
 2838SOL    HW220151   4.388   2.980   5.784  0.9166  3.1049 -1.0205
 2839SOL     OW20152   2.459   2.997   2.237  0.1262  0.0978 -0.6010
 2839SOL    HW120153   2.514   2.950   2.175  0.8506  0.3195 -0.1187
 2839SOL    HW220154   2.387   3.018   2.177  1.2125 -0.5347 -2.1193
 2840SOL     OW20155   2.536   1.216   8.866 -0.3065  0.2963 -0.7190
 2840SOL    HW120156   2.451   1.222   8.822  0.0906 -0.5069 -1.5839
 2840SOL    HW220157   2.573   1.140   8.822  1.1892  0.0783  0.8935
 2841SOL     OW20158   2.902   0.527   9.212 -0.0233  0.6150 -0.2937
 2841SOL    HW120159   2.966   0.532   9.282  0.6330 -0.0754 -0.8395
 2841SOL    HW220160   2.874   0.619   9.210  0.8334  0.8773 -0.5615
 2842SOL     OW20161   1.188   1.623   6.151 -0.0044  0.4107  0.0203
 2842SOL    HW120162   1.153   1.559   6.089 -0.6392  0.2685  0.5203
 2842SOL    HW220163   1.120   1.681   6.186  1.6429  2.8751 -0.8580
 2843SOL     OW20164   4.020   2.740  10.364 -0.8912 -0.4940  0.0666
 2843SOL    HW120165   4.011   2.672  10.430 -0.6549  0.9934  1.6200
 2843SOL    HW220166   3.951   2.802  10.386 -0.8803  0.6627 -3.1437
 2844SOL     OW20167   2.036   1.088   3.539  0.6197  0.3959 -0.6913
 2844SOL    HW120168   2.114   1.094   3.594  0.3864 -0.3663 -0.2818
 2844SOL    HW220169   2.022   0.994   3.547 -0.0060  0.5010 -0.5706
 2845SOL     OW20170   1.013   0.993  15.769  0.0258  0.1136 -0.5228
 2845SOL    HW120171   1.042   1.046  15.695  1.2332 -1.4088 -1.1418
 2845SOL    HW220172   0.990   0.906  15.734  0.3697 -0.1496 -0.0976
 2846SOL     OW20173   1.886   0.981   5.416 -0.3697  0.0663 -0.2434
 2846SOL    HW120174   1.979   0.963   5.426 -0.5400 -1.8065 -2.0663
 2846SOL    HW220175   1.860   0.999   5.506  0.6888  0.6130 -0.0563
 2847SOL     OW20176   3.313   3.595   3.091 -0.3020 -0.3159 -0.2444
 2847SOL    HW120177   3.256   3.605   3.015 -1.8057 -0.7529  0.8031
 2847SOL    HW220178   3.262   3.645   3.156  0.2411 -1.0015  0.7032
 2848SOL     OW20179   3.687   2.499   9.039 -0.6255 -0.3926 -0.6870
 2848SOL    HW120180   3.693   2.566   8.971 -0.4431 -0.4653 -0.7448
 2848SOL    HW220181   3.725   2.421   8.999 -0.6787  0.0839 -1.6690
 2849SOL     OW20182   2.946   3.396   7.368  0.2013  0.4967  0.0941
 2849SOL    HW120183   3.024   3.394   7.423  0.2713  2.1664  0.0511
 2849SOL    HW220184   2.896   3.316   7.385  2.1230 -1.4900 -3.5127
 2850SOL     OW20185   1.376   1.314  12.540 -0.3609  0.4241 -0.2284
 2850SOL    HW120186   1.417   1.320  12.627 -3.1954  1.1638  1.0527
 2850SOL    HW220187   1.281   1.303  12.547  0.0602 -2.1184  1.4485
 2851SOL     OW20188   1.759   1.417   9.796  0.1844 -0.4339 -0.1911
 2851SOL    HW120189   1.780   1.402   9.888 -2.4903 -1.1786  0.3209
 2851SOL    HW220190   1.832   1.374   9.752  2.9915  1.3792  2.6983
 2852SOL     OW20191   1.692   1.490   5.491  0.3204  0.8021 -0.3554
 2852SOL    HW120192   1.673   1.576   5.529 -0.6183 -0.0177  1.0362
 2852SOL    HW220193   1.635   1.498   5.415 -1.4435  1.3330  1.0203
 2853SOL     OW20194   3.407   2.222   2.634  1.0131  0.4019  0.1333
 2853SOL    HW120195   3.414   2.311   2.599 -0.7578 -0.1085 -1.5286
 2853SOL    HW220196   3.313   2.212   2.616  1.0409 -1.2429  0.9541
 2854SOL     OW20197   2.726   0.740   3.041  0.4124  0.8941  0.0465
 2854SOL    HW120198   2.785   0.727   2.966 -1.1450 -0.8712 -0.8588
 2854SOL    HW220199   2.787   0.764   3.111  1.4345 -1.1226 -0.1412
 2855SOL     OW20200   0.001   1.376   6.575 -0.4549 -0.2378 -0.0355
 2855SOL    HW120201   0.045   1.461   6.571 -0.2498 -0.4169 -1.6098
 2855SOL    HW220202   4.725   1.367   6.481  2.9531  0.6076 -0.6917
 2856SOL     OW20203   3.605   1.319   0.920 -0.1818  0.5843  0.8000
 2856SOL    HW120204   3.530   1.376   0.934 -1.3357 -0.6600 -0.2162
 2856SOL    HW220205   3.645   1.347   0.837  0.7045 -0.2448  0.9479
 2857SOL     OW20206   3.534   4.231   0.639 -0.4779  0.2930 -0.0764
 2857SOL    HW120207   3.622   4.257   0.667 -0.3921 -0.4711  0.3631
 2857SOL    HW220208   3.502   4.317   0.612  1.6731  1.7498  1.9456
 2858SOL     OW20209   3.498   0.137  10.680 -0.6911 -0.2194 -0.1620
 2858SOL    HW120210   3.509   0.204  10.748 -2.7273  2.8458 -2.8555
 2858SOL    HW220211   3.588   0.105  10.680 -0.4605  0.4169 -0.2275
 2859SOL     OW20212   1.787   4.076  14.172 -0.3269 -0.2744  0.5566
 2859SOL    HW120213   1.832   3.997  14.142 -0.5181 -0.4980  0.8601
 2859SOL    HW220214   1.725   4.041  14.235 -1.1058  1.2413  0.6377
 2860SOL     OW20215   2.077   0.962   6.971  0.1459 -0.8741  0.2534
 2860SOL    HW120216   2.129   1.043   6.963 -3.0328  1.2530  1.1914
 2860SOL    HW220217   2.029   0.954   6.889 -1.3774 -1.2716  1.1848
 2861SOL     OW20218   4.374   3.154   8.133 -0.0693 -0.3549  0.5344
 2861SOL    HW120219   4.419   3.182   8.054 -1.0236 -0.2322  0.0279
 2861SOL    HW220220   4.304   3.220   8.140 -1.1551 -1.3764 -0.6387
 2862SOL     OW20221   3.556   2.763   3.336  0.0480  0.2980  0.3487
 2862SOL    HW120222   3.580   2.731   3.423 -2.1453 -0.6476  0.6094
 2862SOL    HW220223   3.605   2.714   3.271 -0.0077  0.8448 -0.1088
 2863SOL     OW20224   0.497   0.325  17.417  0.1969  0.7202 -0.6855
 2863SOL    HW120225   0.588   0.332  17.390  0.7655 -0.6012  0.9069
 2863SOL    HW220226   0.461   0.273  17.344  1.6321  2.5201 -2.6649
 2864SOL     OW20227   0.470   4.424   6.900 -0.2121 -0.3553 -0.1146
 2864SOL    HW120228   0.396   4.431   6.841 -1.1712  0.7063  1.2100
 2864SOL    HW220229   0.529   4.496   6.876  2.6022 -2.7806 -0.3779
 2865SOL     OW20230   0.996   0.915   7.594  0.0306  0.0827  0.1126
 2865SOL    HW120231   1.030   1.000   7.621 -2.2468  1.0511 -0.0190
 2865SOL    HW220232   0.992   0.882   7.683  0.2728  1.3617  0.5917
 2866SOL     OW20233   2.184   2.908  17.121 -0.1635  0.1409 -0.2489
 2866SOL    HW120234   2.236   2.960  17.183  1.2492 -0.2674 -1.0935
 2866SOL    HW220235   2.145   2.832  17.163 -0.7854  0.3496 -0.4519
 2867SOL     OW20236   4.324   0.145  15.077  0.1334 -0.1408  0.6416
 2867SOL    HW120237   4.354   0.122  14.989 -0.9304  0.8373  0.0230
 2867SOL    HW220238   4.306   0.236  15.051  0.4034 -0.0633  0.7263
 2868SOL     OW20239   0.071   3.877   8.210 -0.2633  0.2784 -0.1200
 2868SOL    HW120240   0.094   3.954   8.263  1.8781  0.4778 -1.3624
 2868SOL    HW220241   0.087   3.800   8.264  1.1799  0.0619 -0.8571
 2869SOL     OW20242   0.414   2.948   4.678  0.0644 -0.1802  0.5461
 2869SOL    HW120243   0.386   2.994   4.599 -1.1176  0.0791  1.1226
 2869SOL    HW220244   0.462   2.872   4.644  0.2008  0.8294 -1.5137
 2870SOL     OW20245   3.922   2.630   4.008  0.3859  1.3908 -0.0378
 2870SOL    HW120246   3.891   2.592   3.926  0.1696 -0.1223  0.7494
 2870SOL    HW220247   3.887   2.719   4.001  2.1239  1.9917 -1.3715
 2871SOL     OW20248   3.553   3.753   5.866 -0.0442 -0.2339  0.6805
 2871SOL    HW120249   3.617   3.813   5.827 -1.1673  0.1795 -0.5475
 2871SOL    HW220250   3.471   3.802   5.855 -0.0713  0.2165  2.8345
 2872SOL     OW20251   2.147   2.313   2.139  0.1103 -0.1751 -0.1186
 2872SOL    HW120252   2.188   2.393   2.171 -0.3699 -0.2135  0.5981
 2872SOL    HW220253   2.053   2.331   2.146  0.5727  2.0390  0.2281
 2873SOL     OW20254   3.782   4.310   8.847  0.8107 -0.0656  0.3564
 2873SOL    HW120255   3.809   4.270   8.765  0.4906 -1.4459  0.9207
 2873SOL    HW220256   3.696   4.272   8.864  0.2102  1.3595  0.4697
 2874SOL     OW20257   1.177   2.927  16.598 -0.0496 -0.1806 -0.1414
 2874SOL    HW120258   1.178   2.893  16.508  0.1558  0.9652 -0.5714
 2874SOL    HW220259   1.233   3.005  16.595  0.1328 -0.3027  0.0899
 2875SOL     OW20260   0.706   3.879   6.706 -0.1736 -0.3522 -0.3914
 2875SOL    HW120261   0.703   3.847   6.616  0.7959 -0.2666 -0.4476
 2875SOL    HW220262   0.792   3.920   6.701  0.3177 -0.9805  3.1805
 2876SOL     OW20263   2.983   2.413   4.835 -0.2595  0.1751 -0.2688
 2876SOL    HW120264   2.941   2.492   4.800  0.2987  1.4016  1.8643
 2876SOL    HW220265   3.020   2.369   4.758 -1.1877  0.1597 -0.6973
 2877SOL     OW20266   0.000   3.800   1.813 -0.3012  0.3989  0.6904
 2877SOL    HW120267   0.095   3.789   1.813 -0.4656 -1.0101 -1.7346
 2877SOL    HW220268   4.718   3.707   1.823  0.6112 -0.2014 -2.9755
 2878SOL     OW20269   4.604   4.406   8.412  0.4261  0.4487  0.1852
 2878SOL    HW120270   4.573   4.316   8.419  1.9900 -0.1180 -0.0789
 2878SOL    HW220271   4.545   4.454   8.470 -1.4721 -0.5111 -0.9808
 2879SOL     OW20272   3.789   1.028  16.967  0.9753 -0.1965 -0.0159
 2879SOL    HW120273   3.728   0.989  16.905 -0.8857  0.2827  1.5353
 2879SOL    HW220274   3.737   1.098  17.006 -1.7275 -2.2682  0.1115
 2880SOL     OW20275   0.572   0.775  14.900  0.1633  0.3450 -0.3263
 2880SOL    HW120276   0.581   0.840  14.970  0.1709  0.3445 -0.3267
 2880SOL    HW220277   0.496   0.813  14.855  1.5159 -0.5625 -3.3932
 2881SOL     OW20278   1.555   1.284   8.536 -0.3961  0.1703 -0.2764
 2881SOL    HW120279   1.470   1.328   8.536 -0.6819 -0.3747 -0.1523
 2881SOL    HW220280   1.584   1.304   8.447  0.1098  2.5518  0.4209
 2882SOL     OW20281   3.860   1.202   5.411 -0.0919  0.2645 -0.0301
 2882SOL    HW120282   3.826   1.234   5.328 -0.5620  2.2729  0.9289
 2882SOL    HW220283   3.827   1.113   5.406 -1.9589  1.0358 -1.2776
 2883SOL     OW20284   0.886   2.891   8.836  0.2019  0.9107 -0.3987
 2883SOL    HW120285   0.823   2.964   8.830 -0.0719  0.7411  0.4455
 2883SOL    HW220286   0.952   2.907   8.768 -0.6186  2.3523 -0.8791
 2884SOL     OW20287   3.303   1.356   4.289  0.1018  0.4917  0.0982
 2884SOL    HW120288   3.359   1.415   4.239 -1.1663  0.4482 -1.3635
 2884SOL    HW220289   3.292   1.400   4.373  2.7539  0.5221  0.4369
 2885SOL     OW20290   0.616   2.777   3.235 -0.6332 -0.7259 -0.2156
 2885SOL    HW120291   0.684   2.844   3.244 -2.7535  1.5233 -0.7104
 2885SOL    HW220292   0.618   2.738   3.322  0.9147 -0.0409  0.0401
 2886SOL     OW20293   4.222   1.136   8.025  0.3424  0.4424 -0.0948
 2886SOL    HW120294   4.286   1.159   7.957 -0.4074 -0.0024 -0.9421
 2886SOL    HW220295   4.205   1.224   8.061 -1.1891  0.9161 -1.9698
 2887SOL     OW20296   4.113   1.264   5.351  0.6046  0.4636 -0.7089
 2887SOL    HW120297   4.021   1.243   5.367  1.1058 -1.8028 -0.7720
 2887SOL    HW220298   4.154   1.229   5.430 -2.1443  1.7700  1.2994
 2888SOL     OW20299   4.708   0.921   4.919 -0.2467 -0.2614 -0.3158
 2888SOL    HW120300   4.652   0.964   4.985  0.8220 -2.1308  1.8082
 2888SOL    HW220301   0.024   0.871   4.978  0.0217 -1.9260 -2.0021
 2889SOL     OW20302   4.448   0.177  16.143 -0.4053 -0.3910  0.0528
 2889SOL    HW120303   4.493   0.208  16.222 -1.2334  0.4236  0.2130
 2889SOL    HW220304   4.508   0.182  16.069 -0.1649 -0.9283  0.2107
 2890SOL     OW20305   0.809   2.722   7.019 -0.2880  0.5720 -0.3303
 2890SOL    HW120306   0.750   2.769   7.079 -0.5457  2.4063 -2.0516
 2890SOL    HW220307   0.774   2.754   6.936  0.7611  2.8446  0.1239
 2891SOL     OW20308   3.712   3.328   8.907  0.1775  0.6826  0.2351
 2891SOL    HW120309   3.760   3.313   8.825 -2.0246  1.1633 -1.1551
 2891SOL    HW220310   3.676   3.242   8.925  0.3537  0.3261 -1.0689
 2892SOL     OW20311   2.031   1.320   3.111 -0.1937  0.2304 -0.1030
 2892SOL    HW120312   2.060   1.285   3.027 -4.0267 -0.4126 -1.1889
 2892SOL    HW220313   2.123   1.328   3.132 -0.2616  0.5656  0.0585
 2893SOL     OW20314   3.155   1.541   8.072  0.4807 -0.6805 -0.1557
 2893SOL    HW120315   3.162   1.513   8.163  2.1075  0.0747 -0.0542
 2893SOL    HW220316   3.104   1.620   8.086 -2.3732 -1.8969 -3.5955
 2894SOL     OW20317   1.479   0.077   1.578 -0.2648  0.5324  0.5187
 2894SOL    HW120318   1.523   0.133   1.515 -0.6937 -0.7651 -0.9127
 2894SOL    HW220319   1.547   0.086   1.644  0.7693 -1.4790 -0.3060
 2895SOL     OW20320   3.986   2.502   2.138 -0.2136 -0.4642 -0.3396
 2895SOL    HW120321   3.937   2.459   2.067 -0.1532  1.6577 -1.6484
 2895SOL    HW220322   3.983   2.592   2.106 -0.0320 -0.8081 -1.3132
 2896SOL     OW20323   2.630   1.680  13.448  0.4320  0.4271  0.1832
 2896SOL    HW120324   2.710   1.681  13.395 -0.3892 -0.4107 -1.0635
 2896SOL    HW220325   2.650   1.729  13.527  1.6577 -0.0612  0.1780
 2897SOL     OW20326   1.817   4.667  11.736 -0.0374  0.1878 -0.0814
 2897SOL    HW120327   1.906   4.685  11.766  0.0840 -2.5425  1.1935
 2897SOL    HW220328   1.824   4.588  11.684 -0.4446  0.5062 -0.6212
 2898SOL     OW20329   1.008   0.413   6.172  0.2495  0.1591  0.3752
 2898SOL    HW120330   1.078   0.441   6.113 -1.3149  1.4136 -0.9118
 2898SOL    HW220331   1.005   0.471   6.248  2.2208  0.0755  0.5065
 2899SOL     OW20332   1.254   0.722  13.924 -0.0287 -0.0459 -0.2364
 2899SOL    HW120333   1.340   0.684  13.941 -1.2890 -1.3422  3.1765
 2899SOL    HW220334   1.281   0.800  13.876 -0.1035 -0.5031 -1.0155
 2900SOL     OW20335   4.419   3.047  12.488 -0.1376 -0.5261  0.2211
 2900SOL    HW120336   4.431   3.056  12.583 -0.4560 -3.7597  0.5632
 2900SOL    HW220337   4.505   3.016  12.458 -1.1689 -1.5883 -1.5793
 2901SOL     OW20338   0.759   1.285  15.702 -0.1357 -0.2826 -0.1274
 2901SOL    HW120339   0.830   1.322  15.650  0.8405 -0.2749  1.2241
 2901SOL    HW220340   0.708   1.362  15.725 -1.0452 -0.7773 -0.4575
 2902SOL     OW20341   2.974   0.997   7.726 -0.6024  0.3061 -0.2628
 2902SOL    HW120342   2.974   1.020   7.819  1.2067 -0.5219 -0.0494
 2902SOL    HW220343   3.014   1.074   7.686  0.4264  0.7902  1.6826
 2903SOL     OW20344   3.034   3.896   5.606  0.2240  0.1219  0.2058
 2903SOL    HW120345   2.969   3.858   5.547 -0.3519  1.4695 -0.0254
 2903SOL    HW220346   3.111   3.879   5.551 -1.0384  1.4968 -2.0027
 2904SOL     OW20347   1.909   2.105  13.936 -0.6107 -0.2276  0.3200
 2904SOL    HW120348   1.865   2.026  13.904  2.1401 -2.3436  1.7751
 2904SOL    HW220349   1.853   2.123  14.012 -1.5533 -0.4560 -0.3261
 2905SOL     OW20350   2.365   2.254   4.131  0.3647  0.0092 -0.9707
 2905SOL    HW120351   2.403   2.320   4.189  1.2528 -1.4006  0.0361
 2905SOL    HW220352   2.370   2.297   4.045  1.4744  2.0915  0.1345
 2906SOL     OW20353   3.200   2.722   1.104 -0.3529  0.3287  0.0569
 2906SOL    HW120354   3.188   2.767   1.020 -0.2971 -0.1514 -0.2105
 2906SOL    HW220355   3.241   2.787   1.161 -2.7264  0.2193  1.8510
 2907SOL     OW20356   2.868   2.236   7.258  0.4749 -0.1166  0.4094
 2907SOL    HW120357   2.843   2.320   7.219  0.9852 -0.4292 -0.5729
 2907SOL    HW220358   2.862   2.256   7.352  1.1464 -1.3747  0.7233
 2908SOL     OW20359   3.178   4.189  14.210 -0.7213 -0.6879 -0.1741
 2908SOL    HW120360   3.166   4.132  14.134  1.1112 -2.1229  0.6075
 2908SOL    HW220361   3.088   4.218  14.224 -1.0892 -1.3933 -1.0827
 2909SOL     OW20362   3.798   2.863  12.654 -0.2015  0.8447 -0.0066
 2909SOL    HW120363   3.813   2.860  12.748  0.0027 -0.4277 -0.0812
 2909SOL    HW220364   3.880   2.905  12.627 -0.0640 -1.2270 -2.8520
 2910SOL     OW20365   3.374   2.311   5.726  0.4848  0.1795  0.2046
 2910SOL    HW120366   3.339   2.372   5.662  1.1952  1.2340  0.8206
 2910SOL    HW220367   3.457   2.352   5.751 -0.7571  2.6114  0.2665
 2911SOL     OW20368   2.277   3.923   3.300 -0.0392  0.9528  0.6731
 2911SOL    HW120369   2.207   3.858   3.289  1.1109 -0.1116 -0.3959
 2911SOL    HW220370   2.293   3.922   3.394  2.5449 -1.5148  0.2191
 2912SOL     OW20371   1.473   1.640   2.429 -0.3248 -0.2168  0.2538
 2912SOL    HW120372   1.494   1.694   2.352  1.8511 -1.8207 -0.2544
 2912SOL    HW220373   1.440   1.564   2.381  0.9992 -0.6434  0.0051
 2913SOL     OW20374   3.751   2.345   5.137  0.4954 -0.2335 -0.0351
 2913SOL    HW120375   3.710   2.263   5.111  0.0618  0.1627 -0.5997
 2913SOL    HW220376   3.788   2.319   5.221 -1.0727 -1.1373  0.3663
 2914SOL     OW20377   1.076   3.452   8.825  0.1868  0.2154 -0.1056
 2914SOL    HW120378   1.007   3.516   8.840  1.1931  1.0926  0.7458
 2914SOL    HW220379   1.107   3.434   8.914 -0.3326 -1.0996 -0.1792
 2915SOL     OW20380   0.504   1.047   8.933  0.2121 -0.8290  0.4432
 2915SOL    HW120381   0.558   1.106   8.880 -1.0103 -0.7838 -0.7662
 2915SOL    HW220382   0.447   1.108   8.979  0.8563  0.1759 -0.1063
 2916SOL     OW20383   4.493   4.553   3.287 -0.2244 -0.1470 -0.2649
 2916SOL    HW120384   4.420   4.504   3.251 -0.2254 -0.7047  0.4910
 2916SOL    HW220385   4.456   4.629   3.332  0.6547 -0.0961  0.3899
 2917SOL     OW20386   4.025   2.847   9.657  0.5501  0.3888 -0.0172
 2917SOL    HW120387   4.016   2.900   9.577 -0.4357  0.1639 -0.0609
 2917SOL    HW220388   3.930   2.830   9.651  0.5814  0.6959 -1.4564
 2918SOL     OW20389   1.702   1.133   7.016  0.0317 -0.1318 -0.2799
 2918SOL    HW120390   1.764   1.067   7.046 -0.7840 -0.0360  1.5826
 2918SOL    HW220391   1.754   1.195   6.965 -1.9277  0.2856 -1.7939
 2919SOL     OW20392   2.702   2.825   3.255 -0.2029 -0.3407 -0.0129
 2919SOL    HW120393   2.694   2.872   3.338 -0.0002 -0.6540  0.1851
 2919SOL    HW220394   2.722   2.736   3.282  0.9004 -0.3961 -0.9809
 2920SOL     OW20395   0.650   2.789   3.833 -0.1597 -0.4515  0.0224
 2920SOL    HW120396   0.655   2.708   3.883  2.8249  0.6697  1.5629
 2920SOL    HW220397   0.557   2.811   3.841  0.2892  1.9109 -1.1963
 2921SOL     OW20398   1.848   4.545   5.425  0.6785 -0.3618  0.2456
 2921SOL    HW120399   1.882   4.604   5.492  0.8094  0.2054 -0.3129
 2921SOL    HW220400   1.816   4.466   5.467 -1.3334 -0.1188 -0.7727
 2922SOL     OW20401   1.751   0.672   9.083 -0.2135  0.1730 -0.2365
 2922SOL    HW120402   1.824   0.719   9.124  0.4417 -0.0712 -1.1178
 2922SOL    HW220403   1.723   0.619   9.157  0.7033  0.9803  0.6833
 2923SOL     OW20404   4.531   2.895   0.503 -0.1375  0.0310 -0.4688
 2923SOL    HW120405   4.455   2.839   0.518  0.8353 -0.9156  0.9420
 2923SOL    HW220406   4.551   2.893   0.409 -1.9894 -2.4200 -0.7817
 2924SOL     OW20407   2.003   3.524   4.498  0.4094 -0.3785 -0.0903
 2924SOL    HW120408   2.048   3.587   4.441 -0.1920 -1.2357 -1.5327
 2924SOL    HW220409   1.924   3.513   4.445  0.9274  0.8418 -1.1362
 2925SOL     OW20410   4.234   4.245   1.892  0.2557  0.3480 -0.4645
 2925SOL    HW120411   4.300   4.211   1.952 -1.0678 -0.6039  0.4377
 2925SOL    HW220412   4.196   4.170   1.845 -0.8686  0.3077  0.5118
 2926SOL     OW20413   2.924   1.376  17.538  0.1682  0.5191  0.0958
 2926SOL    HW120414   3.006   1.425  17.542  0.5898 -0.1834  0.2289
 2926SOL    HW220415   2.914   1.342  17.449  2.0825  1.6389 -0.5384
 2927SOL     OW20416   0.657   2.513   9.323 -0.1065 -0.9154 -0.1487
 2927SOL    HW120417   0.733   2.558   9.287 -2.2044  0.8373 -2.4081
 2927SOL    HW220418   0.683   2.494   9.413 -0.0369  1.1365  0.2489
 2928SOL     OW20419   2.164   0.890   5.026 -0.1678 -0.1931  0.2498
 2928SOL    HW120420   2.111   0.941   4.965 -0.0188 -0.4234 -0.0737
 2928SOL    HW220421   2.097   0.839   5.071  0.4569 -1.8533 -0.6941
 2929SOL     OW20422   3.735   4.167   3.627  0.3620  0.2562  0.3007
 2929SOL    HW120423   3.700   4.256   3.619  0.3366  0.2835  0.7065
 2929SOL    HW220424   3.791   4.183   3.703  0.3105  1.3890  0.1014
 2930SOL     OW20425   2.009   0.617   3.347  0.2239  0.1624 -0.0837
 2930SOL    HW120426   2.007   0.540   3.404 -0.6215 -0.5546 -1.0697
 2930SOL    HW220427   2.103   0.612   3.329  0.9259 -0.7084  3.6976
 2931SOL     OW20428   1.919   2.020  10.959  0.4178 -0.2957  0.4138
 2931SOL    HW120429   1.933   2.076  11.035 -0.9828  2.5275 -1.3778
 2931SOL    HW220430   1.833   1.985  10.982  0.0028 -0.3627 -1.1986
 2932SOL     OW20431   4.680   3.284  14.838 -0.5700  0.3443  0.2468
 2932SOL    HW120432   0.028   3.280  14.799 -0.0265 -1.7986  1.7065
 2932SOL    HW220433   4.703   3.249  14.924 -0.8794 -3.8730 -1.4039
 2933SOL     OW20434   2.618   1.225   1.640 -0.2730  0.6478 -0.3031
 2933SOL    HW120435   2.637   1.136   1.609  1.7262  0.7048  0.7539
 2933SOL    HW220436   2.684   1.230   1.709 -0.0042 -2.3531 -0.3453
 2934SOL     OW20437   1.707   2.775   6.139  0.2162 -1.1140  0.6693
 2934SOL    HW120438   1.655   2.854   6.126 -0.3012 -1.6716 -0.5814
 2934SOL    HW220439   1.702   2.732   6.054  0.2309 -1.4540  0.8400
 2935SOL     OW20440   1.866   4.705  16.225 -0.2476 -0.1623 -0.6274
 2935SOL    HW120441   1.809   4.637  16.261  0.5583  1.0840  2.9885
 2935SOL    HW220442   1.884   0.009  16.308 -0.0732  0.6656 -1.1054
 2936SOL     OW20443   4.720   2.638  15.963  0.0222  0.5817 -0.1217
 2936SOL    HW120444   0.063   2.674  15.933  0.8951 -0.6499  0.8758
 2936SOL    HW220445   0.004   2.585  16.039 -0.0166  1.8089  0.7508
 2937SOL     OW20446   4.547   4.532  15.508  0.4607 -0.3858  1.1296
 2937SOL    HW120447   4.588   4.542  15.594  0.8368  1.1111  0.7748
 2937SOL    HW220448   4.457   4.507  15.530  0.6979 -0.9800  1.4372
 2938SOL     OW20449   4.305   4.344   5.009  0.5403  0.5888 -0.8482
 2938SOL    HW120450   4.213   4.359   5.030  1.4031  2.0227  1.9127
 2938SOL    HW220451   4.348   4.423   5.041 -1.5709  0.9812  1.0632
 2939SOL     OW20452   2.252   4.040   1.228  0.7390  0.0672 -0.2316
 2939SOL    HW120453   2.255   4.056   1.134 -3.9208 -0.7447 -0.5267
 2939SOL    HW220454   2.254   4.126   1.270  0.9604  1.6480 -3.4513
 2940SOL     OW20455   4.329   2.840   4.414  0.1019  0.9589 -0.0522
 2940SOL    HW120456   4.296   2.914   4.363  0.6300  1.2781  0.0629
 2940SOL    HW220457   4.410   2.867   4.459  0.4637  0.0485 -0.1639
 2941SOL     OW20458   3.457   2.752   4.951 -0.1206 -0.4268 -0.3706
 2941SOL    HW120459   3.364   2.766   4.935  0.2207  1.6917 -0.5611
 2941SOL    HW220460   3.463   2.686   5.020 -1.6746 -1.0025 -0.8055
 2942SOL     OW20461   1.195   1.538   8.478  0.4572 -0.3136 -0.4780
 2942SOL    HW120462   1.142   1.529   8.557 -0.3491  0.2427 -0.9641
 2942SOL    HW220463   1.240   1.616   8.510 -0.9394 -0.0329  0.8232
 2943SOL     OW20464   1.808   0.961   7.510  0.2994  0.0372  0.2105
 2943SOL    HW120465   1.843   0.966   7.421  0.4521  1.0890  0.3280
 2943SOL    HW220466   1.832   1.050   7.538 -0.5947  1.2669 -2.9140
 2944SOL     OW20467   0.462   3.476   6.781 -0.1484 -0.0056 -0.6765
 2944SOL    HW120468   0.413   3.528   6.717 -0.9330  0.2917  0.1795
 2944SOL    HW220469   0.492   3.546   6.839 -0.5851  0.2834 -0.8018
 2945SOL     OW20470   4.122   4.200   4.559  0.1916 -0.2874 -0.2581
 2945SOL    HW120471   4.184   4.218   4.630  0.2111 -0.0777 -0.3268
 2945SOL    HW220472   4.188   4.166   4.497 -0.9342 -1.0011 -1.0597
 2946SOL     OW20473   3.388   0.834   8.467  0.7068 -0.2557  0.3110
 2946SOL    HW120474   3.427   0.761   8.419  1.5755  1.1526 -1.1336
 2946SOL    HW220475   3.299   0.829   8.432 -0.0941 -1.9119  2.5587
 2947SOL     OW20476   2.936   4.699   7.277 -0.0622  0.4504  0.0154
 2947SOL    HW120477   3.013   4.705   7.221  0.7153  1.1525  1.1517
 2947SOL    HW220478   2.950   4.615   7.320 -1.0426  2.5808  4.4837
 2948SOL     OW20479   3.637   0.529   4.456  0.0027 -0.1544 -0.1224
 2948SOL    HW120480   3.664   0.583   4.531  3.4229  2.3216 -3.1227
 2948SOL    HW220481   3.680   0.447   4.482  2.3573  1.0585 -0.1632
 2949SOL     OW20482   1.217   0.113   7.047  0.5611 -0.1470 -0.1636
 2949SOL    HW120483   1.141   0.123   7.104  1.4838  3.7486  0.4123
 2949SOL    HW220484   1.285   0.107   7.114 -1.2874 -2.0236  1.5141
 2950SOL     OW20485   2.515   3.299   7.804 -0.1544  0.6637 -0.2136
 2950SOL    HW120486   2.555   3.234   7.747 -0.4403  3.0324 -3.0841
 2950SOL    HW220487   2.428   3.259   7.809 -0.0202  0.5337  1.1580
 2951SOL     OW20488   3.156   3.708   6.152 -0.4321 -0.1811  0.6709
 2951SOL    HW120489   3.118   3.677   6.234  1.3434 -1.8584  0.8497
 2951SOL    HW220490   3.171   3.625   6.107  1.9220  0.2754  0.6419
 2952SOL     OW20491   4.224   0.221   3.616 -0.0242  0.0562  0.2079
 2952SOL    HW120492   4.203   0.314   3.616  0.1795  0.1014  0.3842
 2952SOL    HW220493   4.150   0.189   3.564  0.1045  2.5742 -1.5799
 2953SOL     OW20494   3.624   1.960   3.603  0.0596 -0.1569 -0.3928
 2953SOL    HW120495   3.552   1.997   3.552 -0.3457 -0.0500  0.2694
 2953SOL    HW220496   3.578   1.894   3.653 -1.5135  0.5340 -0.9291
 2954SOL     OW20497   2.035   0.445   0.500 -0.0083 -0.3928 -0.1212
 2954SOL    HW120498   2.048   0.354   0.473  3.0401  0.3898 -1.2812
 2954SOL    HW220499   1.969   0.478   0.440  1.3333  1.8638 -0.3426
 2955SOL     OW20500   0.898   1.676   4.843 -0.1788 -0.0521  0.4611
 2955SOL    HW120501   0.910   1.668   4.938 -1.4911 -0.6786  0.5747
 2955SOL    HW220502   0.809   1.711   4.836 -0.2117 -0.6119 -1.9460
 2956SOL     OW20503   4.205   1.440   4.197  0.2612  0.2636 -0.1677
 2956SOL    HW120504   4.175   1.367   4.142  0.0748 -0.4387  0.8748
 2956SOL    HW220505   4.160   1.516   4.161  0.8955  1.4590  1.5592
 2957SOL     OW20506   4.667   1.423   8.517 -0.4741 -0.1603  0.4256
 2957SOL    HW120507   4.734   1.358   8.498 -0.9428 -0.9504  1.5344
 2957SOL    HW220508   4.674   1.425   8.612 -2.0188  1.9350  0.4914
 2958SOL     OW20509   2.474   2.562   4.253 -0.1487 -0.6164  0.2569
 2958SOL    HW120510   2.460   2.621   4.179  0.3692  0.0845  0.7152
 2958SOL    HW220511   2.553   2.518   4.221  1.4529  3.4476 -1.3683
 2959SOL     OW20512   3.074   2.331   9.721  0.5837  0.4127 -0.3016
 2959SOL    HW120513   3.113   2.367   9.801  0.2625  1.1416 -0.4699
 2959SOL    HW220514   3.079   2.236   9.734 -1.7496  0.1380 -1.4495
 2960SOL     OW20515   2.921   4.277   7.587  0.3182  0.6629 -0.1496
 2960SOL    HW120516   2.911   4.369   7.566 -0.6987  0.4615 -0.5829
 2960SOL    HW220517   3.015   4.279   7.574  0.8022 -2.2426  2.7309
 2961SOL     OW20518   3.955   0.285   0.548  0.8444 -0.0190 -0.7055
 2961SOL    HW120519   4.009   0.239   0.485  2.3736  1.2612 -0.3219
 2961SOL    HW220520   4.016   0.351   0.581  1.7087 -1.1864  0.0453
 2962SOL     OW20521   0.073   4.404  16.924  0.1010  0.3344  0.3338
 2962SOL    HW120522   0.149   4.372  16.971 -0.4504 -2.2064 -0.5359
 2962SOL    HW220523   0.118   4.473  16.875  1.6897 -0.3723  0.7993
 2963SOL     OW20524   4.111   3.942   5.825 -0.1088 -0.3492  0.4064
 2963SOL    HW120525   4.116   4.038   5.821 -1.0520 -0.4456 -2.9227
 2963SOL    HW220526   4.017   3.928   5.822 -0.0087 -0.7123 -1.4226
 2964SOL     OW20527   0.624   2.658  15.606  0.5237 -0.2355  0.2117
 2964SOL    HW120528   0.662   2.746  15.599 -2.3174  0.9146 -0.5092
 2964SOL    HW220529   0.688   2.613  15.551  2.5949  2.0238  0.7246
 2965SOL     OW20530   2.163   2.656   9.310  0.1901 -0.6560  0.0465
 2965SOL    HW120531   2.121   2.715   9.372 -0.0154  0.0492 -0.7697
 2965SOL    HW220532   2.237   2.716   9.300  0.9441 -1.8987 -1.8708
 2966SOL     OW20533   4.544   1.825   4.601  0.4853  0.5176 -0.5691
 2966SOL    HW120534   4.526   1.911   4.563  1.0060  3.0374  4.9214
 2966SOL    HW220535   4.534   1.765   4.527 -0.1410 -1.0159  0.7601
 2967SOL     OW20536   1.175   3.831  14.049  0.2699  0.4233 -0.5422
 2967SOL    HW120537   1.154   3.791  13.965  0.0488 -1.1872  0.2615
 2967SOL    HW220538   1.148   3.766  14.115  1.3276  0.7446  0.2197
 2968SOL     OW20539   0.354   3.672   4.984  0.0971  0.5065 -0.4007
 2968SOL    HW120540   0.289   3.692   4.917 -0.5228  1.8116  0.5803
 2968SOL    HW220541   0.396   3.758   4.995  0.7762 -0.0409  1.1941
 2969SOL     OW20542   4.511   0.718   8.340  0.0690  0.0653 -0.0879
 2969SOL    HW120543   4.438   0.727   8.402 -0.0412  3.2184 -0.6488
 2969SOL    HW220544   4.546   0.632   8.362 -1.8589 -1.4712 -3.1706
 2970SOL     OW20545   1.582   2.550  12.495  0.4168  0.5882  0.5874
 2970SOL    HW120546   1.512   2.614  12.513 -1.1069 -0.4908 -1.5291
 2970SOL    HW220547   1.571   2.544  12.400  1.8969 -2.5268  0.6295
 2971SOL     OW20548   2.486   1.418   4.530 -0.0057  0.2224 -0.0940
 2971SOL    HW120549   2.487   1.331   4.570  2.0990  0.3220  0.0466
 2971SOL    HW220550   2.565   1.411   4.476 -1.1747 -1.4555 -1.5843
 2972SOL     OW20551   4.174   2.249   9.711 -0.2703  0.4690 -0.5101
 2972SOL    HW120552   4.239   2.203   9.764 -1.9009 -0.3140  0.8306
 2972SOL    HW220553   4.091   2.224   9.751 -0.0713 -0.1638 -0.4998
 2973SOL     OW20554   3.563   0.705   4.736  0.1343 -0.9092 -0.4881
 2973SOL    HW120555   3.655   0.682   4.723 -0.1703 -2.2236 -0.3559
 2973SOL    HW220556   3.556   0.786   4.686 -0.8780 -0.6294  0.1131
 2974SOL     OW20557   0.768   3.164   3.665 -0.2403  0.4699  0.1285
 2974SOL    HW120558   0.808   3.251   3.659 -0.0448  0.3995  0.3943
 2974SOL    HW220559   0.675   3.169   3.645 -0.4018  1.0157  0.9876
 2975SOL     OW20560   2.646   3.700   7.922  0.3455 -0.5070 -0.0290
 2975SOL    HW120561   2.673   3.781   7.879 -0.2047  0.4313  1.4070
 2975SOL    HW220562   2.597   3.740   7.993  0.4998 -0.1074 -0.1452
 2976SOL     OW20563   2.267   0.169   6.315 -0.3806  0.1753  0.2805
 2976SOL    HW120564   2.192   0.113   6.296  1.0973 -1.7897  0.3519
 2976SOL    HW220565   2.305   0.169   6.227 -1.7574 -1.3786 -0.3006
 2977SOL     OW20566   1.926   0.172   6.804 -0.4640  0.1356 -0.0690
 2977SOL    HW120567   1.997   0.110   6.790  0.1045  1.0385 -1.1959
 2977SOL    HW220568   1.939   0.227   6.726 -0.5911 -0.1694 -0.3042
 2978SOL     OW20569   1.687   0.492   8.885  0.4005 -0.1583  0.5017
 2978SOL    HW120570   1.705   0.555   8.954  2.2101  0.2365 -0.3453
 2978SOL    HW220571   1.655   0.547   8.813  0.5933 -0.7159 -0.0154
 2979SOL     OW20572   0.827   2.241   4.427 -0.4017  0.1262 -0.5062
 2979SOL    HW120573   0.827   2.202   4.514 -0.4753  0.6982 -0.2510
 2979SOL    HW220574   0.894   2.306   4.448  0.1206  0.6278 -3.7148
 2980SOL     OW20575   0.504   4.208   5.592 -0.1261  0.6279  0.3195
 2980SOL    HW120576   0.439   4.163   5.645  0.7321 -0.7639  0.2048
 2980SOL    HW220577   0.586   4.204   5.642 -0.4646  5.6896  1.2569
 2981SOL     OW20578   3.446   2.552   7.789  0.6928  0.5922 -0.3935
 2981SOL    HW120579   3.514   2.611   7.757 -0.1176  1.1197 -1.1218
 2981SOL    HW220580   3.493   2.501   7.855 -1.9042  2.3160  2.7799
 2982SOL     OW20581   1.320   1.181  13.130  0.3748 -0.2305 -0.2642
 2982SOL    HW120582   1.330   1.124  13.207 -1.4837 -1.6147 -1.0520
 2982SOL    HW220583   1.299   1.114  13.066  3.5007 -0.9522 -0.5302
 2983SOL     OW20584   0.059   1.825   3.318 -0.5108 -0.3938 -0.5223
 2983SOL    HW120585   0.015   1.781   3.246 -2.4103 -1.8564  1.5194
 2983SOL    HW220586   0.142   1.843   3.273 -0.6085 -1.5409 -1.1749
 2984SOL     OW20587   0.195   3.212  12.421  0.5066 -0.3453 -0.2550
 2984SOL    HW120588   0.170   3.159  12.346  1.5958 -0.9542 -0.2003
 2984SOL    HW220589   0.209   3.143  12.487 -2.2363  2.1782  2.9710
 2985SOL     OW20590   4.462   1.371   3.790 -0.2652 -0.0628  0.7707
 2985SOL    HW120591   4.476   1.466   3.791  0.1497 -0.1175 -0.7580
 2985SOL    HW220592   4.467   1.339   3.881  2.9657  0.4110  0.7467
 2986SOL     OW20593   1.582   3.986  12.509  0.2588  0.2853 -0.0058
 2986SOL    HW120594   1.590   3.971  12.415  0.6066  1.0203 -0.0913
 2986SOL    HW220595   1.649   4.053  12.522  1.4672 -0.4875 -2.2224
 2987SOL     OW20596   0.707   4.600  15.564  0.2426 -0.0154 -0.3817
 2987SOL    HW120597   0.784   4.653  15.543  0.2715  0.2653  0.4052
 2987SOL    HW220598   0.683   4.580  15.474  0.5424  0.1086 -0.4888
 2988SOL     OW20599   3.453   3.608   4.851  0.3219  0.3178 -0.7264
 2988SOL    HW120600   3.414   3.675   4.795 -0.9671  1.2124  1.2452
 2988SOL    HW220601   3.390   3.621   4.922  1.1666 -0.5920  0.1753
 2989SOL     OW20602   4.006   0.870   3.028  0.3769  0.1719  0.2297
 2989SOL    HW120603   4.069   0.873   2.956  0.7370 -1.6849  0.4608
 2989SOL    HW220604   3.986   0.963   3.041 -0.1791  0.1048 -0.1689
 2990SOL     OW20605   4.012   2.059   3.683  0.8233  0.1211 -0.7704
 2990SOL    HW120606   3.945   2.117   3.719 -0.2679 -0.2262 -2.2457
 2990SOL    HW220607   3.987   2.071   3.591  0.3538  0.4546 -0.6018
 2991SOL     OW20608   0.034   0.931   4.572  0.3242  0.0533  0.2891
 2991SOL    HW120609   0.120   0.959   4.542  0.0468  0.8722  0.2577
 2991SOL    HW220610   0.043   0.939   4.667  0.4031 -0.5058  0.3333
 2992SOL     OW20611   1.830   1.605   1.667  0.0639  0.1785 -0.4188
 2992SOL    HW120612   1.873   1.685   1.699 -0.2378  0.3419 -0.4186
 2992SOL    HW220613   1.836   1.610   1.571  1.0020 -0.8230 -0.4099
 2993SOL     OW20614   3.317   3.766   7.080  0.1960  0.1570 -0.0236
 2993SOL    HW120615   3.248   3.823   7.047 -1.3423 -1.8238 -0.2132
 2993SOL    HW220616   3.277   3.705   7.142 -1.6993 -0.5094 -1.8972
 2994SOL     OW20617   2.378   1.918   8.478 -0.4223 -0.3476 -0.0919
 2994SOL    HW120618   2.362   2.009   8.457 -2.0207 -0.4694  0.6441
 2994SOL    HW220619   2.357   1.914   8.572 -1.2751 -0.2718 -0.2888
 2995SOL     OW20620   2.704   3.768   5.610  0.7019  0.4162 -0.0011
 2995SOL    HW120621   2.623   3.738   5.570  1.1386  1.7547 -1.8748
 2995SOL    HW220622   2.750   3.819   5.544 -1.5313  0.7494 -1.2929
 2996SOL     OW20623   3.367   1.830  17.692 -0.5045  0.3243 -0.1546
 2996SOL    HW120624   3.453   1.794  17.670 -0.7733 -0.3242 -0.1510
 2996SOL    HW220625   3.310   1.761  17.657  1.1753 -0.6512 -0.9218
 2997SOL     OW20626   2.191   1.338   4.061  0.0662 -0.1468  0.4921
 2997SOL    HW120627   2.189   1.411   3.998  0.5834 -0.4513  0.1182
 2997SOL    HW220628   2.104   1.334   4.100 -0.8609 -1.5977 -1.6786
 2998SOL     OW20629   1.547   1.532   6.809 -0.0365 -0.2656  0.3158
 2998SOL    HW120630   1.585   1.446   6.794  3.2874  1.4137 -0.7913
 2998SOL    HW220631   1.508   1.513   6.895  2.1386  0.2431  1.3976
 2999SOL     OW20632   3.687   1.299   7.001  0.2745 -0.0265  0.0682
 2999SOL    HW120633   3.654   1.221   6.958 -2.3069 -0.5465  3.0573
 2999SOL    HW220634   3.688   1.362   6.929  1.2585  1.2338  1.1681
 3000SOL     OW20635   3.851   1.978  12.514 -0.3346 -0.0756  0.3895
 3000SOL    HW120636   3.891   2.046  12.459  0.7091 -1.1678 -0.2253
 3000SOL    HW220637   3.920   1.961  12.579 -2.2289 -0.0600  2.3895
 3001SOL     OW20638   1.305   2.679   4.295  0.0391  0.5347  0.0508
 3001SOL    HW120639   1.329   2.716   4.210  0.3356 -1.3754 -0.7064
 3001SOL    HW220640   1.221   2.720   4.313  0.5050  1.2719  0.5332
 3002SOL     OW20641   0.165   3.068   2.234 -0.1684  0.2069  0.6401
 3002SOL    HW120642   0.209   3.041   2.314 -0.5087 -1.5137  0.2538
 3002SOL    HW220643   0.158   2.981   2.195 -0.8083  0.7566 -0.4700
 3003SOL     OW20644   4.449   2.937   9.625  0.0970 -0.5056 -0.1312
 3003SOL    HW120645   4.500   2.859   9.644  0.3888  0.1994  1.8863
 3003SOL    HW220646   4.368   2.906   9.666 -0.5350 -0.3852 -1.2821
 3004SOL     OW20647   4.657   0.007   3.534  0.3297  0.3326 -0.5036
 3004SOL    HW120648   4.613   0.050   3.461  3.2506  2.4906 -0.9592
 3004SOL    HW220649   4.590   4.681   3.550  1.7305 -0.3003  2.6433
 3005SOL     OW20650   0.285   3.549   7.126  0.0195  0.4798  0.0945
 3005SOL    HW120651   0.218   3.593   7.073 -1.0900 -0.7667  0.4638
 3005SOL    HW220652   0.293   3.614   7.195  0.4082  0.6106 -0.0768
 3006SOL     OW20653   1.251   3.761   4.794  0.0383  0.0488  0.6032
 3006SOL    HW120654   1.229   3.691   4.855 -2.6199  0.7792  0.5045
 3006SOL    HW220655   1.344   3.772   4.815  0.4232 -0.3135 -0.9114
 3007SOL     OW20656   4.497   3.401  13.192 -0.2397  0.4572 -0.4784
 3007SOL    HW120657   4.509   3.490  13.158  1.2862  0.7328  0.7763
 3007SOL    HW220658   4.410   3.379  13.158  0.2387 -1.3516 -0.5677
 3008SOL     OW20659   3.489   0.722  10.545  0.2271 -0.3279 -0.2661
 3008SOL    HW120660   3.432   0.680  10.609  1.9708 -3.1976 -0.6114
 3008SOL    HW220661   3.566   0.668  10.530  1.5201  0.9347  1.7991
 3009SOL     OW20662   3.793   1.140   1.357 -0.5400 -0.1554 -0.3387
 3009SOL    HW120663   3.780   1.182   1.272  0.9859  2.6947  0.8264
 3009SOL    HW220664   3.884   1.111   1.351  0.2990  2.5340 -0.4617
 3010SOL     OW20665   1.030   2.471   4.816 -0.3633 -0.5225  0.2394
 3010SOL    HW120666   1.067   2.387   4.843 -0.2170  0.1842  2.2124
 3010SOL    HW220667   0.956   2.487   4.874  2.1221 -1.1921  3.6020
 3011SOL     OW20668   0.127   0.176  15.204  0.1166 -0.2413 -0.1523
 3011SOL    HW120669   0.082   0.253  15.169  2.0193  1.9041  2.1551
 3011SOL    HW220670   0.118   0.177  15.299 -3.9351  0.5046 -0.5310
 3012SOL     OW20671   1.752   3.464  11.734  0.1530  0.3731 -0.7525
 3012SOL    HW120672   1.818   3.396  11.749 -0.8822 -0.6992 -1.1121
 3012SOL    HW220673   1.694   3.429  11.666 -1.3493  0.7357  0.3426
 3013SOL     OW20674   1.347   1.458   9.570 -0.2944  0.4554 -0.3029
 3013SOL    HW120675   1.404   1.383   9.553 -2.7132 -1.1931 -1.0832
 3013SOL    HW220676   1.395   1.523   9.519  2.3866 -1.0532  0.3077
 3014SOL     OW20677   3.560   1.806   5.543  0.3433 -0.3059  0.5902
 3014SOL    HW120678   3.518   1.879   5.588  2.4101 -0.3564  2.5938
 3014SOL    HW220679   3.641   1.849   5.516  0.2588 -1.6022 -1.8014
 3015SOL     OW20680   1.589   2.228   6.998 -0.2954 -0.6681  0.2595
 3015SOL    HW120681   1.649   2.216   6.925  0.2439  1.7086  0.3173
 3015SOL    HW220682   1.647   2.259   7.068 -1.0023  3.3607 -0.9431
 3016SOL     OW20683   3.891   3.170  11.557  0.1795 -0.1579 -0.2172
 3016SOL    HW120684   3.833   3.198  11.486 -0.2054  1.1205  0.5986
 3016SOL    HW220685   3.821   3.147  11.618 -0.2112 -1.5857 -1.2124
 3017SOL     OW20686   2.413   1.728  13.211  0.1011  0.1370 -0.4045
 3017SOL    HW120687   2.400   1.662  13.142 -0.2134  1.3276 -1.4858
 3017SOL    HW220688   2.481   1.688  13.264 -1.5435 -1.4169  0.5428
 3018SOL     OW20689   3.136   4.563  11.312  0.5273 -0.6671  0.1289
 3018SOL    HW120690   3.213   4.583  11.365 -0.5367  0.5811  1.1907
 3018SOL    HW220691   3.140   4.469  11.329 -0.4959 -1.0649 -1.8013
 3019SOL     OW20692   0.262   3.011   3.630 -0.1895 -0.0894  0.4516
 3019SOL    HW120693   0.286   2.962   3.709  0.3763 -0.6597 -0.0792
 3019SOL    HW220694   0.204   3.073   3.675 -0.2623 -0.8622  1.4227
 3020SOL     OW20695   2.801   1.761   3.741  0.2141  0.7011  0.6660
 3020SOL    HW120696   2.851   1.707   3.802 -0.5684  0.4334  1.0770
 3020SOL    HW220697   2.825   1.725   3.656 -2.3637  1.5904 -0.4406
 3021SOL     OW20698   3.675   3.256  11.420 -0.2831 -0.2227 -0.0865
 3021SOL    HW120699   3.621   3.330  11.447 -0.3391 -0.3732  0.2158
 3021SOL    HW220700   3.683   3.288  11.330  2.7653  3.1139  1.3724
 3022SOL     OW20701   4.402   1.732   1.854 -0.4909 -0.3129 -0.0914
 3022SOL    HW120702   4.336   1.765   1.793 -1.4464 -1.8730  0.1019
 3022SOL    HW220703   4.382   1.639   1.844  0.2391 -0.2869 -1.8338
 3023SOL     OW20704   2.592   1.565  12.758  0.5228  0.0632 -0.3775
 3023SOL    HW120705   2.522   1.570  12.693  0.2812 -1.5840 -0.2685
 3023SOL    HW220706   2.554   1.619  12.828  0.1412  0.7630 -1.1351
 3024SOL     OW20707   0.917   2.558   4.265 -0.4703 -0.2540 -0.6291
 3024SOL    HW120708   0.959   2.642   4.285  0.8086 -0.4859 -2.3396
 3024SOL    HW220709   0.964   2.532   4.186 -0.9657  0.0092 -1.0135
 3025SOL     OW20710   4.177   3.823   7.646  0.2239  0.6218 -0.3811
 3025SOL    HW120711   4.099   3.813   7.592  0.7730  0.9004 -1.2222
 3025SOL    HW220712   4.206   3.907   7.610 -1.2355  1.8440  1.2644
 3026SOL     OW20713   3.345   3.873   5.536  0.1080  0.1152 -0.0830
 3026SOL    HW120714   3.293   3.814   5.482  0.2498  0.3810 -0.5107
 3026SOL    HW220715   3.435   3.842   5.529 -0.1829 -0.5411 -0.9256
 3027SOL     OW20716   2.887   0.189  10.091 -1.0611  0.0403 -0.3540
 3027SOL    HW120717   2.826   0.154  10.156  0.0866  1.2081  1.3334
 3027SOL    HW220718   2.860   0.145  10.010  2.5377 -1.5345 -0.7325
 3028SOL     OW20719   0.502   3.582  15.567  0.5504  0.0110 -0.5826
 3028SOL    HW120720   0.480   3.603  15.658 -0.4890 -1.2786 -0.5187
 3028SOL    HW220721   0.419   3.537  15.549 -0.2519  1.2202  0.0710
 3029SOL     OW20722   1.241   1.899  12.748  0.0070 -0.6975  0.0133
 3029SOL    HW120723   1.281   1.821  12.787 -1.7998 -2.7404 -2.2107
 3029SOL    HW220724   1.155   1.876  12.714 -0.4291  0.1604  0.5646
 3030SOL     OW20725   0.816   4.532   2.059 -0.2972 -0.2809 -0.2542
 3030SOL    HW120726   0.804   4.485   2.141 -3.4627  0.1074 -0.4696
 3030SOL    HW220727   0.757   4.607   2.075 -0.4607 -0.2851 -0.8403
 3031SOL     OW20728   2.517   4.500   1.973 -0.6124 -0.6324  0.0438
 3031SOL    HW120729   2.535   4.472   1.884  0.4438  1.2952 -0.3404
 3031SOL    HW220730   2.422   4.488   1.976 -0.5086 -1.6658 -1.0307
 3032SOL     OW20731   1.114   1.060   3.639  0.2424 -0.8708 -0.1959
 3032SOL    HW120732   1.181   1.089   3.577  1.7580  1.1004  2.3766
 3032SOL    HW220733   1.094   1.149   3.667  0.5599 -0.2030 -2.0508
 3033SOL     OW20734   0.483   4.703   8.923 -0.2762  0.2541 -0.1066
 3033SOL    HW120735   0.487   4.618   8.967 -0.4324  0.2513 -0.0994
 3033SOL    HW220736   0.492   0.026   8.994  1.2112 -0.8871  0.7166
 3034SOL     OW20737   4.399   4.145  14.026  0.2441 -0.1020  0.0473
 3034SOL    HW120738   4.462   4.205  14.064 -1.2568  2.2749 -1.2460
 3034SOL    HW220739   4.424   4.153  13.933  2.0520 -1.0324  0.4467
 3035SOL     OW20740   1.843   0.071   7.589  0.3218  0.3789 -0.3062
 3035SOL    HW120741   1.839   4.716   7.602 -1.5468  0.5593  0.3773
 3035SOL    HW220742   1.784   0.104   7.656  1.0705  0.3210  0.3729
 3036SOL     OW20743   1.655   0.687   8.650  0.0845 -0.1437 -0.2350
 3036SOL    HW120744   1.730   0.733   8.612 -0.5909 -1.3523 -3.0332
 3036SOL    HW220745   1.646   0.623   8.579  0.8311 -2.4438  1.7701
 3037SOL     OW20746   0.005   0.311   6.577 -0.1168 -0.8023 -0.0997
 3037SOL    HW120747   0.016   0.378   6.644  1.9089 -0.0055 -1.2082
 3037SOL    HW220748   0.047   0.351   6.501 -1.1534 -0.8884 -0.7220
 3038SOL     OW20749   3.907   0.436   8.112  0.3206  0.2599  0.0084
 3038SOL    HW120750   3.945   0.375   8.048  0.4580 -0.2084  0.5406
 3038SOL    HW220751   3.990   0.471   8.143 -0.3159 -0.2870  2.3226
 3039SOL     OW20752   3.887   4.618  15.211 -0.2928 -0.0312 -0.3001
 3039SOL    HW120753   3.921   4.540  15.167 -2.8462 -1.5702  0.4783
 3039SOL    HW220754   3.898   4.582  15.299  0.8769  0.0870 -0.3981
 3040SOL     OW20755   3.751   4.449   9.490 -0.0165  0.6978  0.3981
 3040SOL    HW120756   3.766   4.465   9.397  0.5511 -1.8103  0.0750
 3040SOL    HW220757   3.839   4.414   9.506  0.3960  1.6653  0.2618
 3041SOL     OW20758   0.704   3.878   8.418 -0.2556 -0.6591 -0.3504
 3041SOL    HW120759   0.755   3.959   8.418 -1.4071  0.0697 -0.4794
 3041SOL    HW220760   0.768   3.808   8.431  0.8428  0.4263  0.1665
 3042SOL     OW20761   1.371   1.482   5.203 -0.4601 -0.2896 -0.4385
 3042SOL    HW120762   1.315   1.458   5.129 -0.0646 -1.0165 -0.5081
 3042SOL    HW220763   1.327   1.565   5.221 -0.7099  0.0495 -2.6132
 3043SOL     OW20764   4.358   2.620   1.529  0.5156  0.0209  0.1025
 3043SOL    HW120765   4.323   2.709   1.517  0.3437  0.2475  2.4284
 3043SOL    HW220766   4.422   2.641   1.597 -0.7518 -1.2330  1.6835
 3044SOL     OW20767   4.048   3.246   7.473  0.5173  0.4560  0.0292
 3044SOL    HW120768   3.968   3.229   7.423  1.0219  0.8562 -0.9159
 3044SOL    HW220769   4.109   3.187   7.429 -0.9261  0.6128 -2.2096
 3045SOL     OW20770   2.212   0.814   5.482  0.2816  0.4487 -0.4017
 3045SOL    HW120771   2.273   0.769   5.541  0.2391  0.5096 -0.3124
 3045SOL    HW220772   2.264   0.893   5.467  0.6185  0.0285 -1.4708
 3046SOL     OW20773   0.447   3.808   9.371  0.3559  0.3088 -0.0362
 3046SOL    HW120774   0.488   3.763   9.446  1.1279  1.9208  0.5105
 3046SOL    HW220775   0.356   3.785   9.392  0.8762 -0.8521  0.9489
 3047SOL     OW20776   1.590   3.015   4.645  0.1685 -0.0241  0.0385
 3047SOL    HW120777   1.643   2.937   4.662  0.4697 -0.5326 -3.1933
 3047SOL    HW220778   1.566   3.033   4.736  0.5638  0.1773  0.1041
 3048SOL     OW20779   2.232   0.454   6.245 -0.1757 -0.0602  0.3918
 3048SOL    HW120780   2.143   0.445   6.280 -0.0432  1.3081  1.0895
 3048SOL    HW220781   2.271   0.370   6.272 -0.8740 -0.9796 -1.4506
 3049SOL     OW20782   2.656   1.006   8.751 -0.9583  0.2896  0.1879
 3049SOL    HW120783   2.743   1.010   8.712 -1.7801 -0.9696 -1.8035
 3049SOL    HW220784   2.675   0.937   8.815 -0.8980 -0.0604 -0.2143
 3050SOL     OW20785   1.325   0.735   3.410 -0.4742  0.3887 -0.4201
 3050SOL    HW120786   1.417   0.718   3.391 -0.5250 -1.2181  0.7961
 3050SOL    HW220787   1.291   0.781   3.333 -0.6870  1.0446  0.0652
 3051SOL     OW20788   1.546   4.051   7.665 -0.3951  0.0235 -0.5945
 3051SOL    HW120789   1.600   4.110   7.717 -0.3980 -3.8617  3.8415
 3051SOL    HW220790   1.506   4.122   7.616  2.5841  1.6353 -0.6816
 3052SOL     OW20791   2.206   3.307   6.901 -0.3441  0.0074 -0.3721
 3052SOL    HW120792   2.174   3.364   6.970 -3.5946 -0.7878 -1.2282
 3052SOL    HW220793   2.299   3.302   6.924 -0.2374  1.1118 -0.5516
 3053SOL     OW20794   2.145   2.746   6.554  0.0382  0.4186 -0.3053
 3053SOL    HW120795   2.122   2.695   6.632  0.8177  0.8547  0.2015
 3053SOL    HW220796   2.160   2.680   6.486 -0.4334 -0.6113  0.5898
 3054SOL     OW20797   1.660   4.554   1.539 -0.2357  0.5136  0.7345
 3054SOL    HW120798   1.712   4.573   1.461 -0.4252 -0.5052  0.3615
 3054SOL    HW220799   1.680   4.630   1.594 -0.2890 -0.2315  1.7758
 3055SOL     OW20800   4.509   0.379   6.926 -0.6830 -0.0258 -0.3899
 3055SOL    HW120801   4.452   0.307   6.951 -0.1313 -0.3256  0.0289
 3055SOL    HW220802   4.450   0.454   6.927  1.0710  1.3662  0.4501
 3056SOL     OW20803   2.703   2.463   4.146 -0.3786  0.4672 -0.4322
 3056SOL    HW120804   2.769   2.398   4.169  0.2188  1.0248 -0.5712
 3056SOL    HW220805   2.723   2.478   4.053  1.9177 -1.1687 -0.1865
 3057SOL     OW20806   1.422   3.727   4.151  0.1464 -0.4620  0.4050
 3057SOL    HW120807   1.382   3.642   4.167  1.5316 -1.6010 -2.1953
 3057SOL    HW220808   1.358   3.785   4.193  1.3136  0.3679  1.0661
 3058SOL     OW20809   0.042   3.765  15.209 -1.0581 -0.4661 -0.3047
 3058SOL    HW120810   4.727   3.835  15.175 -0.9738 -0.5312 -0.5828
 3058SOL    HW220811   0.106   3.756  15.137  0.7109 -2.2832  1.4848
 3059SOL     OW20812   2.674   1.249  16.540  0.1331 -0.4643  0.2485
 3059SOL    HW120813   2.694   1.320  16.479  2.5332 -1.3907 -0.0489
 3059SOL    HW220814   2.579   1.258  16.542  0.5166  3.7492 -0.5697
 3060SOL     OW20815   4.672   3.141  11.954 -0.4637  0.2895  0.2310
 3060SOL    HW120816   0.004   3.185  11.908 -1.2222  1.1078 -0.1847
 3060SOL    HW220817   4.606   3.152  11.886  0.4590 -1.0310 -0.8814
 3061SOL     OW20818   1.249   3.634   5.172 -0.4606  0.0682 -0.0154
 3061SOL    HW120819   1.313   3.704   5.160  2.0430 -2.1377  0.6361
 3061SOL    HW220820   1.253   3.593   5.085 -0.0895 -0.9279  0.4771
 3062SOL     OW20821   0.989   1.028   6.120 -0.1651 -0.0930  0.4260
 3062SOL    HW120822   1.047   0.966   6.165  1.1560  0.9438  0.1238
 3062SOL    HW220823   1.010   1.111   6.163 -2.1307  0.9374 -0.5986
 3063SOL     OW20824   1.644   4.598   7.662 -0.9723 -0.1556 -0.5129
 3063SOL    HW120825   1.578   4.529   7.664  0.7302 -1.7993 -0.6824
 3063SOL    HW220826   1.676   4.594   7.752 -2.0932  2.4451 -0.0167
 3064SOL     OW20827   0.972   4.731   7.876 -0.1363  0.1165  0.3865
 3064SOL    HW120828   0.913   0.042   7.931 -1.3780  1.7921 -2.5118
 3064SOL    HW220829   1.028   0.059   7.838 -1.3614  0.1567 -1.3715
 3065SOL     OW20830   3.519   4.287   1.775 -0.7724  0.1808  0.0847
 3065SOL    HW120831   3.514   4.354   1.843 -1.6629 -0.7704  0.9612
 3065SOL    HW220832   3.448   4.228   1.801 -1.4772  0.9381 -0.1407
 3066SOL     OW20833   3.534   2.287   9.406  0.0454  0.4446  0.0101
 3066SOL    HW120834   3.591   2.360   9.379 -2.0828  2.3623  0.6737
 3066SOL    HW220835   3.596   2.228   9.450  1.2589  2.4376  0.9832
 3067SOL     OW20836   3.219   0.997   5.333  0.1314  0.1385 -0.4281
 3067SOL    HW120837   3.221   1.057   5.258  2.4247 -0.8725 -1.1555
 3067SOL    HW220838   3.261   1.056   5.395  0.7341  1.6255 -2.2540
 3068SOL     OW20839   3.098   4.540   2.420  0.2978 -0.4529  0.1504
 3068SOL    HW120840   3.008   4.573   2.412  0.0027 -1.4044 -0.4543
 3068SOL    HW220841   3.114   4.535   2.514  0.5886  0.6067  0.1575
 3069SOL     OW20842   4.036   1.853   1.414  0.0251 -0.4748  0.7095
 3069SOL    HW120843   4.089   1.817   1.343 -0.5468 -0.6222  0.3538
 3069SOL    HW220844   4.062   1.795   1.485 -1.3369 -1.3816  0.4901
 3070SOL     OW20845   0.404   2.545   4.387  0.8106  0.3868  0.1291
 3070SOL    HW120846   0.486   2.514   4.348  0.9000  1.8987 -0.9140
 3070SOL    HW220847   0.351   2.466   4.394  0.9719  0.0353 -2.3544
 3071SOL     OW20848   1.032   0.828   8.129 -0.3592  0.6117 -0.0158
 3071SOL    HW120849   1.044   0.762   8.197  2.3719  2.1468  1.0049
 3071SOL    HW220850   1.096   0.896   8.151 -0.0046 -0.0655  1.0237
 3072SOL     OW20851   4.403   4.446  11.336  0.3142 -0.0411  0.3483
 3072SOL    HW120852   4.378   4.372  11.280  1.0481  0.6657 -0.8974
 3072SOL    HW220853   4.453   4.400  11.403  0.0891 -0.2196  0.3946
 3073SOL     OW20854   2.416   0.319   4.573  0.4120 -0.2230 -0.0547
 3073SOL    HW120855   2.453   0.306   4.660  0.1843 -0.7729 -0.0385
 3073SOL    HW220856   2.364   0.240   4.560  0.4818  0.3705 -3.9045
 3074SOL     OW20857   0.525   3.168   0.838 -0.1638 -0.2866 -0.2585
 3074SOL    HW120858   0.592   3.236   0.832  0.8484 -1.0715  2.2256
 3074SOL    HW220859   0.494   3.174   0.928  1.4363  0.9224  0.2213
 3075SOL     OW20860   4.706   4.192  17.404 -0.3758 -0.6375  0.5012
 3075SOL    HW120861   4.656   4.194  17.322  0.0443  0.0520  0.2581
 3075SOL    HW220862   0.044   4.243  17.380 -1.6525  0.8505 -0.5039
 3076SOL     OW20863   1.363   3.821   2.971 -0.9814  0.7036 -0.0615
 3076SOL    HW120864   1.283   3.804   3.021 -0.8521  0.7769  0.1659
 3076SOL    HW220865   1.352   3.783   2.884 -1.6208 -0.1770  0.4035
 3077SOL     OW20866   4.020   1.984   7.843 -0.2960  0.4912 -0.7997
 3077SOL    HW120867   4.108   1.958   7.814  1.5312  1.6436  3.6392
 3077SOL    HW220868   3.981   1.897   7.853  1.1951 -0.0144  0.6426
 3078SOL     OW20869   0.836   1.656   8.063 -0.3482  0.2166  0.0804
 3078SOL    HW120870   0.854   1.566   8.035 -1.8812 -0.7339  2.2121
 3078SOL    HW220871   0.834   1.659   8.159  2.3289  0.8543  0.1234
 3079SOL     OW20872   0.085   1.077   6.611 -0.2330  0.2967  0.1560
 3079SOL    HW120873   0.055   1.040   6.694  1.4781 -2.2763 -0.3835
 3079SOL    HW220874   0.071   1.171   6.626  1.5423  0.7644 -1.0749
 3080SOL     OW20875   3.472   2.304   6.119 -0.4293  0.2266  0.0843
 3080SOL    HW120876   3.518   2.307   6.203  0.8784 -1.5959 -0.5581
 3080SOL    HW220877   3.520   2.367   6.066  0.2741  3.8892  5.0930
 3081SOL     OW20878   2.046   1.458  13.506  0.7191 -0.3733 -0.5476
 3081SOL    HW120879   2.078   1.376  13.468  0.5514  0.3887 -2.3408
 3081SOL    HW220880   2.086   1.470  13.592 -1.2263  0.4152  0.2497
 3082SOL     OW20881   0.436   3.778   2.863 -0.3523 -0.4035 -0.1182
 3082SOL    HW120882   0.433   3.685   2.842 -0.3921 -0.0785 -1.5539
 3082SOL    HW220883   0.426   3.777   2.958 -0.4945 -1.4936 -0.1474
 3083SOL     OW20884   0.546   0.779   6.886  0.0029 -0.1940  0.5537
 3083SOL    HW120885   0.554   0.871   6.912 -1.5871 -0.2693  1.2926
 3083SOL    HW220886   0.470   0.746   6.932 -1.7265  0.4518 -1.8621
 3084SOL     OW20887   4.286   3.541   0.390 -0.2865 -0.3209 -0.2379
 3084SOL    HW120888   4.335   3.554   0.308  0.6009 -0.9514  0.1935
 3084SOL    HW220889   4.203   3.571   0.353  0.6589 -0.7535 -2.7339
 3085SOL     OW20890   4.102   3.378  15.976  0.4376 -0.3985 -0.3500
 3085SOL    HW120891   4.085   3.452  16.036  1.1150 -1.2470  0.9020
 3085SOL    HW220892   4.089   3.427  15.895  0.8123  0.6562  0.2112
 3086SOL     OW20893   3.852   2.519  10.527 -0.0160 -0.5148  0.4690
 3086SOL    HW120894   3.898   2.442  10.494 -1.2350 -1.4181  0.8521
 3086SOL    HW220895   3.830   2.492  10.617 -0.2086  0.4633  0.7141
 3087SOL     OW20896   1.616   1.277  13.146  0.5124  0.1933 -0.0505
 3087SOL    HW120897   1.609   1.371  13.160 -1.9917 -0.1047  0.6976
 3087SOL    HW220898   1.593   1.266  13.054  0.9363  0.8955 -0.2376
 3088SOL     OW20899   1.316   1.521  14.349  0.1860  0.2034 -0.1697
 3088SOL    HW120900   1.322   1.592  14.412 -1.0432  1.9688 -2.0359
 3088SOL    HW220901   1.326   1.569  14.266 -1.4477  0.4854 -0.1989
 3089SOL     OW20902   4.238   4.216   8.101  0.2273  0.1101  0.8453
 3089SOL    HW120903   4.333   4.222   8.094  0.4273 -1.6564  1.8649
 3089SOL    HW220904   4.224   4.217   8.007 -0.3747  0.2427  0.9333
 3090SOL     OW20905   2.557   2.162   5.861 -0.2311 -0.1460  0.0157
 3090SOL    HW120906   2.510   2.120   5.788 -1.6166 -0.3032  0.9934
 3090SOL    HW220907   2.608   2.231   5.819  0.0517 -0.1412  0.3764
 3091SOL     OW20908   1.343   2.869   4.521  0.6314 -0.2619  0.7676
 3091SOL    HW120909   1.341   2.774   4.531  1.1325 -0.1262  2.1751
 3091SOL    HW220910   1.434   2.890   4.502  1.0939 -2.0816  0.9858
 3092SOL     OW20911   0.877   3.542   5.225 -0.0465 -0.6327  0.4403
 3092SOL    HW120912   0.828   3.615   5.188  0.9613  0.2019  0.7458
 3092SOL    HW220913   0.947   3.597   5.262  0.0768  0.5824 -1.6127
 3093SOL     OW20914   3.959   2.351   6.305 -0.9771 -0.1084 -0.2262
 3093SOL    HW120915   3.870   2.385   6.294 -1.2343 -0.2196  1.3857
 3093SOL    HW220916   3.979   2.392   6.389  1.8325  1.1029 -1.4999
 3094SOL     OW20917   2.423   2.974   3.588  0.7430 -0.2669  0.0917
 3094SOL    HW120918   2.344   2.920   3.586  1.3802 -1.3178  2.7325
 3094SOL    HW220919   2.400   3.038   3.655 -1.6368 -0.1187 -0.8839
 3095SOL     OW20920   4.551   1.437   1.036 -0.3661 -0.5908  0.0830
 3095SOL    HW120921   4.518   1.508   0.980  2.1081  1.7499  1.6374
 3095SOL    HW220922   4.511   1.463   1.119 -2.1798  4.6566 -2.4043
 3096SOL     OW20923   2.244   4.597   1.284  0.3489 -0.2532  0.0512
 3096SOL    HW120924   2.217   4.593   1.376 -0.6860 -1.5951 -0.3139
 3096SOL    HW220925   2.230   4.505   1.261  0.5020 -0.4758  0.8166
 3097SOL     OW20926   2.957   4.267   6.415 -0.3783 -0.0508  0.5441
 3097SOL    HW120927   2.911   4.331   6.469  1.2168  1.9206 -0.4110
 3097SOL    HW220928   3.045   4.278   6.453 -0.4604 -0.8831  0.9933
 3098SOL     OW20929   0.249   1.642  17.281  0.2107  0.0879 -0.3276
 3098SOL    HW120930   0.300   1.683  17.351  1.2772  0.8027 -1.5172
 3098SOL    HW220931   0.303   1.664  17.206  0.9703  0.4482  0.3209
 3099SOL     OW20932   0.909   1.569  12.156  0.2894 -0.3132 -0.1965
 3099SOL    HW120933   0.988   1.607  12.195  0.5619  0.3028 -1.3648
 3099SOL    HW220934   0.862   1.649  12.137 -0.7531 -0.4557  1.7839
 3100SOL     OW20935   1.558   1.272   3.317  0.3990 -0.2093 -0.3146
 3100SOL    HW120936   1.632   1.256   3.259  1.4122  0.5000  0.7859
 3100SOL    HW220937   1.607   1.299   3.395 -0.2033  0.8773 -0.3070
 3101SOL     OW20938   3.347   0.714   7.557 -0.6876 -0.5536 -0.0135
 3101SOL    HW120939   3.265   0.711   7.507 -0.7526 -0.5193  0.0898
 3101SOL    HW220940   3.326   0.636   7.609 -0.5857 -0.8162 -0.3654
 3102SOL     OW20941   1.791   2.537   7.594  0.7045 -0.0563 -0.3639
 3102SOL    HW120942   1.807   2.549   7.687 -0.1677 -2.1620  0.0544
 3102SOL    HW220943   1.721   2.600   7.580  1.0957  0.6531  0.9032
 3103SOL     OW20944   4.202   2.224  16.618  0.0064  1.0400 -0.1107
 3103SOL    HW120945   4.152   2.195  16.541 -0.3567 -1.2549  1.0037
 3103SOL    HW220946   4.132   2.260  16.673  0.0452  1.4241 -0.3093
 3104SOL     OW20947   3.460   4.424   2.412 -0.3641  0.9252  0.4602
 3104SOL    HW120948   3.409   4.343   2.409  0.2496  0.5901 -0.9394
 3104SOL    HW220949   3.399   4.475   2.359 -0.3301 -0.9109 -1.3239
 3105SOL     OW20950   4.173   0.728   6.433 -0.2684 -0.7150 -0.0546
 3105SOL    HW120951   4.197   0.638   6.411  1.3453 -0.2839 -0.0143
 3105SOL    HW220952   4.191   0.780   6.355 -1.4073  0.8805  0.7466
 3106SOL     OW20953   2.622   3.453   3.615 -0.2230  0.1040  0.5610
 3106SOL    HW120954   2.610   3.487   3.704 -1.0879  0.4610  0.3039
 3106SOL    HW220955   2.538   3.467   3.573 -0.7460 -0.3095  1.4666
 3107SOL     OW20956   3.275   0.453   2.589  0.0389 -0.1891  0.1773
 3107SOL    HW120957   3.362   0.473   2.624  0.9562 -0.6969 -1.7990
 3107SOL    HW220958   3.293   0.429   2.498 -0.4036  0.5000 -0.0906
 3108SOL     OW20959   4.343   0.772  17.036  0.8691  0.1121  0.6557
 3108SOL    HW120960   4.396   0.807  17.108 -1.7990  1.2398  2.0896
 3108SOL    HW220961   4.329   0.682  17.063  2.6317 -0.2866  0.2695
 3109SOL     OW20962   3.437   2.455   4.402 -0.4034 -0.3768 -0.6421
 3109SOL    HW120963   3.471   2.538   4.370 -1.1923 -0.2887 -1.2437
 3109SOL    HW220964   3.442   2.484   4.493 -0.4118 -0.6446 -0.5548
 3110SOL     OW20965   1.967   4.153  11.994 -0.2735 -0.1516  0.3591
 3110SOL    HW120966   1.985   4.201  12.074  1.6540 -1.7362  0.8859
 3110SOL    HW220967   1.958   4.233  11.942 -1.6656  0.2162  1.1948
 3111SOL     OW20968   0.666   0.403  15.361  0.1232 -0.4532 -0.2425
 3111SOL    HW120969   0.672   0.482  15.308  0.3910 -0.8538 -0.8189
 3111SOL    HW220970   0.724   0.344  15.313  0.2677 -0.0201 -0.6010
 3112SOL     OW20971   4.025   0.597   5.818 -0.2839 -0.3839 -0.0138
 3112SOL    HW120972   3.961   0.653   5.862  0.0531  1.0811 -1.3699
 3112SOL    HW220973   4.016   0.515   5.867 -1.1861 -2.1836 -3.2033
 3113SOL     OW20974   4.325   2.677   3.920  0.5720 -0.0853 -0.6457
 3113SOL    HW120975   4.356   2.594   3.956 -1.7653 -0.4406  0.5276
 3113SOL    HW220976   4.266   2.695   3.993  0.8306  1.6895 -0.8624
 3114SOL     OW20977   3.622   0.802   0.168  0.0284  1.0223  0.5322
 3114SOL    HW120978   3.625   0.762   0.255 -0.0585 -0.5192 -0.1688
 3114SOL    HW220979   3.530   0.789   0.146  0.3110  1.8678 -1.1439
 3115SOL     OW20980   4.639   1.296   7.230 -0.4205  0.1113 -0.0373
 3115SOL    HW120981   4.554   1.337   7.240 -0.9834 -1.8056  3.0587
 3115SOL    HW220982   4.607   1.210   7.257 -1.6265  0.1400 -1.4205
 3116SOL     OW20983   4.245   2.492   2.006 -0.3199  0.7513 -0.0135
 3116SOL    HW120984   4.197   2.442   2.072  1.2292 -0.8588 -0.0978
 3116SOL    HW220985   4.173   2.552   1.987 -0.1366  1.8712  2.8731
 3117SOL     OW20986   3.291   3.667   8.714  0.5148 -0.0548 -0.6588
 3117SOL    HW120987   3.335   3.582   8.712  0.3235 -0.1651 -0.1087
 3117SOL    HW220988   3.357   3.720   8.760  0.8073 -0.1007 -1.0280
 3118SOL     OW20989   0.937   1.965   9.194 -0.7061 -0.2293  0.8085
 3118SOL    HW120990   0.969   1.938   9.108 -1.0887 -1.5504  1.0814
 3118SOL    HW220991   0.886   2.041   9.166  0.3944  0.2942  0.2064
 3119SOL     OW20992   1.367   1.380   8.338 -0.3227  0.0428  0.0128
 3119SOL    HW120993   1.292   1.417   8.385 -0.3262 -0.6796  0.5731
 3119SOL    HW220994   1.364   1.433   8.258  0.9307  1.1442  0.7009
 3120SOL     OW20995   0.349   0.331   6.785  0.6431 -0.0136 -0.5150
 3120SOL    HW120996   0.265   0.375   6.773  0.8040  0.1462 -1.0257
 3120SOL    HW220997   0.413   0.397   6.758 -1.6259  1.6394 -1.8610
 3121SOL     OW20998   0.245   3.929   3.326  0.2132  0.3158  0.0689
 3121SOL    HW120999   0.260   3.970   3.411  0.9791 -0.5133  0.3372
 3121SOL    HW221000   0.260   4.006   3.271 -0.1140  0.7082  0.5202
 3122SOL     OW21001   3.361   3.963   7.834 -0.5081 -0.6047  0.0870
 3122SOL    HW121002   3.270   3.984   7.812  0.1012 -0.0641 -1.9847
 3122SOL    HW221003   3.370   4.008   7.918  1.1215  0.6690 -0.7649
 3123SOL     OW21004   3.854   1.835   4.937  0.5304 -0.5216 -0.4442
 3123SOL    HW121005   3.935   1.803   4.896 -0.5919 -1.6545 -1.8187
 3123SOL    HW221006   3.831   1.904   4.875  3.7375 -1.5061 -2.7006
 3124SOL     OW21007   1.248   0.185   8.817  0.2202 -0.1823  0.4071
 3124SOL    HW121008   1.228   0.139   8.735  1.8694 -2.1038  1.0891
 3124SOL    HW221009   1.251   0.276   8.788 -0.2728 -0.7255 -1.3469
 3125SOL     OW21010   2.722   2.177   8.223  0.0692 -0.0906  0.2067
 3125SOL    HW121011   2.647   2.119   8.213 -1.1695  1.1469  2.1793
 3125SOL    HW221012   2.741   2.208   8.135 -1.3904 -0.1488 -0.1248
 3126SOL     OW21013   4.074   1.467   0.265 -0.1693 -0.4866  0.0179
 3126SOL    HW121014   4.046   1.437   0.352  0.2650  0.7065  0.5807
 3126SOL    HW221015   4.112   1.551   0.292  1.9836 -1.0022 -1.3797
 3127SOL     OW21016   1.933   1.247   9.682 -0.1352 -0.0483  0.3275
 3127SOL    HW121017   1.910   1.289   9.599  4.9973  0.9030 -0.5797
 3127SOL    HW221018   2.026   1.266   9.695 -0.3334  1.4059 -0.3450
 3128SOL     OW21019   0.927   3.357   4.797  0.3106 -0.0929  0.0305
 3128SOL    HW121020   0.943   3.389   4.886  0.1694  2.8196 -0.9933
 3128SOL    HW221021   0.832   3.354   4.808 -0.1455 -1.2108 -4.1019
 3129SOL     OW21022   1.291   2.275   8.957 -0.0738  0.4054 -0.8620
 3129SOL    HW121023   1.207   2.229   8.967  1.4368 -2.1478  0.0476
 3129SOL    HW221024   1.310   2.299   9.048  0.1907 -0.0149 -0.8062
 3130SOL     OW21025   1.750   4.519   8.847  0.1804 -0.3209  0.2573
 3130SOL    HW121026   1.691   4.477   8.909  1.9195 -1.9276  0.8102
 3130SOL    HW221027   1.704   4.602   8.832  0.4067 -0.5026 -1.4526
 3131SOL     OW21028   3.607   3.175  15.471 -0.5500  0.1722 -0.3683
 3131SOL    HW121029   3.522   3.170  15.516 -1.4355  1.0802 -1.9278
 3131SOL    HW221030   3.658   3.102  15.506  0.0672 -0.1558 -1.9619
 3132SOL     OW21031   4.005   3.214   5.839 -0.2688 -0.7017  0.3427
 3132SOL    HW121032   4.046   3.238   5.756 -1.5314  0.0935 -0.0441
 3132SOL    HW221033   4.081   3.216   5.897  1.1239  1.1243 -1.5605
 3133SOL     OW21034   3.956   3.197  16.110 -0.3522 -0.2675  0.0991
 3133SOL    HW121035   4.015   3.241  16.049 -1.9723  1.7223 -0.0224
 3133SOL    HW221036   3.900   3.141  16.056  0.2468 -1.3285  0.5867
 3134SOL     OW21037   1.782   1.642   0.418 -0.1097 -0.6128  0.0629
 3134SOL    HW121038   1.856   1.638   0.357 -0.6553  2.3979 -0.8314
 3134SOL    HW221039   1.793   1.555   0.455 -1.2118 -0.7500  0.0746
 3135SOL     OW21040   2.287   2.890  12.206  0.2110  0.3178 -0.0452
 3135SOL    HW121041   2.262   2.844  12.125 -1.7345  0.7845  0.2846
 3135SOL    HW221042   2.347   2.950  12.162 -1.5056 -0.7045 -3.8418
 3136SOL     OW21043   3.018   4.388   4.071 -0.8278 -0.0742 -0.9760
 3136SOL    HW121044   2.987   4.465   4.118 -0.9542 -0.1743 -0.8930
 3136SOL    HW221045   3.102   4.371   4.114 -0.2633  1.9592 -1.3119
 3137SOL     OW21046   4.350   0.763   4.436  0.5493  0.2070  0.3106
 3137SOL    HW121047   4.444   0.748   4.448  0.1817 -2.1583  0.2571
 3137SOL    HW221048   4.310   0.679   4.461  2.0297 -0.1862  1.3945
 3138SOL     OW21049   0.414   0.667   2.090 -0.3557 -0.5655 -0.2010
 3138SOL    HW121050   0.452   0.744   2.131 -0.5609 -0.6554  0.1667
 3138SOL    HW221051   0.480   0.643   2.025  0.3844 -2.1320  1.1061
 3139SOL     OW21052   4.000   3.091   8.787 -0.0499  0.5368  0.3719
 3139SOL    HW121053   3.960   3.145   8.719 -1.3850  1.2825  1.7485
 3139SOL    HW221054   3.991   3.007   8.743  0.0534  1.3492 -1.2121
 3140SOL     OW21055   1.846   0.560   6.827  0.3085  0.8761  0.2228
 3140SOL    HW121056   1.799   0.553   6.744 -2.5887  0.4005  1.8977
 3140SOL    HW221057   1.849   0.653   6.849 -1.5116  0.9947 -0.0887
 3141SOL     OW21058   2.141   0.277   9.388 -0.7987  0.0717  0.6266
 3141SOL    HW121059   2.142   0.366   9.353 -0.3507 -0.7652 -1.4985
 3141SOL    HW221060   2.232   0.247   9.381 -1.2481 -1.3748  0.9640
 3142SOL     OW21061   3.117   3.115   5.954 -0.0458  0.1955 -0.0170
 3142SOL    HW121062   3.142   3.023   5.949 -0.8479 -0.0313  0.1378
 3142SOL    HW221063   3.026   3.120   5.925 -0.3396  0.6903  0.9831
 3143SOL     OW21064   0.635   1.856   7.553  0.6382 -0.2787  0.4869
 3143SOL    HW121065   0.670   1.796   7.619 -0.9096  1.2965  2.7430
 3143SOL    HW221066   0.707   1.918   7.548  0.4554 -0.3136 -2.3868
 3144SOL     OW21067   2.388   0.313  14.813 -0.1068  0.6542  0.0386
 3144SOL    HW121068   2.357   0.271  14.893 -1.3870  1.6224  0.0630
 3144SOL    HW221069   2.435   0.384  14.855  1.3803 -0.0580 -0.4033
 3145SOL     OW21070   4.713   2.904  13.915 -0.2193 -0.0947 -0.0624
 3145SOL    HW121071   4.724   2.819  13.958 -0.2526 -0.0530  0.0278
 3145SOL    HW221072   4.632   2.877  13.871  0.0238  0.5352 -0.9071
 3146SOL     OW21073   1.176   1.570   4.301 -0.1724 -0.2305 -0.3318
 3146SOL    HW121074   1.260   1.547   4.261 -0.5420 -2.5935  0.2848
 3146SOL    HW221075   1.201   1.570   4.393  1.4094  0.1493 -0.7662
 3147SOL     OW21076   0.270   2.525   1.934  0.1596  0.4328  0.4830
 3147SOL    HW121077   0.244   2.456   1.995  0.0736 -1.2983 -1.5530
 3147SOL    HW221078   0.361   2.541   1.961  0.2599  5.1081 -2.6563
 3148SOL     OW21079   2.308   1.011   2.141 -0.0550 -0.3923  0.3589
 3148SOL    HW121080   2.297   0.957   2.063 -1.3718  1.0912 -0.4568
 3148SOL    HW221081   2.389   1.058   2.121  1.2296 -2.4690  0.5706
 3149SOL     OW21082   2.582   3.236  17.148  0.6193  0.5293  0.4463
 3149SOL    HW121083   2.518   3.223  17.078 -0.3519  0.3260  1.3709
 3149SOL    HW221084   2.593   3.330  17.134 -0.6027  0.4133 -1.3809
 3150SOL     OW21085   2.952   2.872   7.740  0.1776 -0.0799 -0.3368
 3150SOL    HW121086   2.955   2.967   7.729 -0.1571  0.1436  1.5596
 3150SOL    HW221087   2.938   2.869   7.834 -1.4628 -0.1744 -0.5865
 3151SOL     OW21088   0.166   1.492  10.897  0.1671 -0.2028 -0.2460
 3151SOL    HW121089   0.188   1.558  10.831  0.0081 -2.0628 -2.1806
 3151SOL    HW221090   0.197   1.546  10.969  0.0338 -1.8437  1.0333
 3152SOL     OW21091   3.475   2.474   2.441 -0.7583 -0.0150 -0.5978
 3152SOL    HW121092   3.491   2.564   2.413  0.5786  0.0023  0.1773
 3152SOL    HW221093   3.493   2.425   2.361  2.4597 -1.1446  0.7787
 3153SOL     OW21094   1.431   4.070   3.635 -0.7930 -0.1853  0.2862
 3153SOL    HW121095   1.437   4.143   3.572  0.9298  1.5213  2.4218
 3153SOL    HW221096   1.450   3.995   3.579 -0.4020  0.0656  0.0748
 3154SOL     OW21097   0.984   0.684   8.568 -0.0439 -0.6280 -0.0779
 3154SOL    HW121098   0.949   0.743   8.635  1.1258 -0.8260  0.7024
 3154SOL    HW221099   1.075   0.710   8.581 -0.4181 -0.4119  2.1054
 3155SOL     OW21100   1.995   2.185   8.335 -0.1735 -0.6789  0.0177
 3155SOL    HW121101   2.016   2.275   8.361 -2.5482 -0.1094 -0.0460
 3155SOL    HW221102   1.900   2.182   8.348 -0.2461  1.3571 -0.0554
 3156SOL     OW21103   4.252   3.987   4.970  0.0421  0.0963 -0.2983
 3156SOL    HW121104   4.199   4.031   5.037 -2.0198 -1.9409 -0.6103
 3156SOL    HW221105   4.260   3.901   5.011  0.7225  0.0884 -0.4586
 3157SOL     OW21106   1.744   3.103   1.918  0.5576 -0.5436 -0.2171
 3157SOL    HW121107   1.758   3.020   1.873 -1.1452 -1.7926  1.5608
 3157SOL    HW221108   1.835   3.129   1.932  0.4123 -0.0474 -0.2022
 3158SOL     OW21109   1.595   2.633   5.916 -0.6337  0.0055  0.2812
 3158SOL    HW121110   1.672   2.604   5.868 -0.8924 -0.3391  0.0719
 3158SOL    HW221111   1.546   2.675   5.846 -1.2454  1.0585  1.3443
 3159SOL     OW21112   2.301   2.193   8.499 -0.3291 -0.9436  0.3006
 3159SOL    HW121113   2.356   2.238   8.563  2.0740  0.5841 -2.8350
 3159SOL    HW221114   2.236   2.256   8.468  1.4701 -0.1346 -1.7847
 3160SOL     OW21115   3.116   4.295  11.350 -0.4936  0.1163 -0.5292
 3160SOL    HW121116   3.076   4.248  11.423  0.6435  3.1175  2.0707
 3160SOL    HW221117   3.197   4.245  11.337 -1.6303 -1.4564 -1.4469
 3161SOL     OW21118   0.096   1.079   3.140  0.0452  0.5033 -0.0787
 3161SOL    HW121119   0.160   1.114   3.078 -0.5889  1.8146  0.0125
 3161SOL    HW221120   0.164   1.031   3.188 -0.5545  0.7200  1.0061
 3162SOL     OW21121   3.825   2.746   1.464 -0.3523 -0.1594 -0.3390
 3162SOL    HW121122   3.849   2.821   1.411  3.1753 -1.5966 -0.7526
 3162SOL    HW221123   3.897   2.684   1.453 -0.5969 -0.7133  1.0843
 3163SOL     OW21124   2.131   3.948   4.190 -0.0540 -0.8004 -0.2683
 3163SOL    HW121125   2.102   3.935   4.099 -1.8972  0.7976  0.0895
 3163SOL    HW221126   2.174   4.033   4.184 -0.6218 -0.3697  1.7375
 3164SOL     OW21127   2.192   1.437   9.715  0.6041 -0.4853  0.0286
 3164SOL    HW121128   2.238   1.420   9.797 -0.6645 -1.6093  0.4973
 3164SOL    HW221129   2.265   1.461   9.657  1.0508 -2.3585 -0.1774
 3165SOL     OW21130   2.216   4.598   5.137 -0.0179  0.1720  0.3272
 3165SOL    HW121131   2.185   4.665   5.076 -1.2036 -1.5579 -0.9624
 3165SOL    HW221132   2.269   4.657   5.190  0.6234 -0.6658  0.6201
 3166SOL     OW21133   4.483   3.487   2.490  0.0135  0.0415  0.2353
 3166SOL    HW121134   4.477   3.393   2.472  1.6576  0.1978 -1.0883
 3166SOL    HW221135   4.436   3.521   2.414  1.1724 -0.0253 -0.5100
 3167SOL     OW21136   0.483   4.197  11.598  0.5037 -0.0669 -0.5901
 3167SOL    HW121137   0.463   4.132  11.531 -2.2993  0.0997  0.0769
 3167SOL    HW221138   0.490   4.145  11.678  1.7346  2.6144  1.0607
 3168SOL     OW21139   2.845   2.208  13.955 -0.6862 -0.2687 -0.2186
 3168SOL    HW121140   2.831   2.175  14.044 -0.3074  0.2977  0.0497
 3168SOL    HW221141   2.933   2.245  13.962  0.0044 -2.1929  1.4659
 3169SOL     OW21142   4.165   0.319  17.446  0.5145  0.6847  0.1197
 3169SOL    HW121143   4.176   0.332  17.540 -0.3859 -0.5543  0.4088
 3169SOL    HW221144   4.153   0.408  17.414  1.8531  0.1778 -1.7966
 3170SOL     OW21145   2.698   3.447   4.723 -0.1747 -0.0107 -0.6523
 3170SOL    HW121146   2.703   3.481   4.634 -0.0166 -1.0782 -1.0526
 3170SOL    HW221147   2.697   3.528   4.774  0.8268  1.4788 -3.0177
 3171SOL     OW21148   4.458   0.498   3.878  0.5181  0.2700 -0.0278
 3171SOL    HW121149   4.444   0.567   3.814  0.5997  0.6619  0.3769
 3171SOL    HW221150   4.461   0.558   3.953 -0.9023 -1.6293  1.5700
 3172SOL     OW21151   4.676   3.662   9.548 -0.0221 -0.1143 -0.4864
 3172SOL    HW121152   4.664   3.572   9.517 -0.5190 -1.4888  3.7388
 3172SOL    HW221153   4.593   3.705   9.527  0.1044 -0.3516 -1.4655
 3173SOL     OW21154   1.638   3.808   7.856 -0.3041  0.1111 -0.1752
 3173SOL    HW121155   1.641   3.901   7.880 -1.9342 -0.3550  1.8691
 3173SOL    HW221156   1.544   3.790   7.846 -0.2090 -0.1190 -0.6372
 3174SOL     OW21157   3.038   2.315   1.346 -0.2174 -0.8604 -0.7073
 3174SOL    HW121158   2.996   2.366   1.276 -0.7249  1.2190  1.1320
 3174SOL    HW221159   3.117   2.290   1.298  1.6137  1.5329  1.0872
 3175SOL     OW21160   2.273   4.038   4.757 -0.3731 -0.3033  0.0476
 3175SOL    HW121161   2.194   3.987   4.774 -0.0693 -0.3233  1.3667
 3175SOL    HW221162   2.234   4.104   4.700  2.5854  0.0941 -1.5319
 3176SOL     OW21163   4.408   3.002   6.672 -0.3958  0.0051 -0.6335
 3176SOL    HW121164   4.362   3.059   6.734 -1.4562  0.6370 -1.9799
 3176SOL    HW221165   4.360   2.921   6.690  0.1353 -0.7262 -2.4572
 3177SOL     OW21166   2.373   3.308   7.490  0.2769  0.7665  0.3550
 3177SOL    HW121167   2.335   3.222   7.474  0.2175  0.8313  0.1392
 3177SOL    HW221168   2.291   3.356   7.495 -0.1358  0.2452 -1.4224
 3178SOL     OW21169   3.738   4.738   1.705  0.2284  0.3206 -0.5851
 3178SOL    HW121170   3.795   4.666   1.677  0.0346 -0.8298  2.0411
 3178SOL    HW221171   3.660   4.692   1.736  0.0792  3.2225  3.2849
 3179SOL     OW21172   0.341   1.517  12.535  0.1482 -0.4060 -0.5377
 3179SOL    HW121173   0.366   1.470  12.456 -0.4423  0.4863 -1.2559
 3179SOL    HW221174   0.320   1.601  12.494  0.8100  0.3786  0.7363
 3180SOL     OW21175   1.885   1.570  17.127 -0.6372 -0.9642 -0.1607
 3180SOL    HW121176   1.961   1.527  17.166 -1.5347 -2.0319  0.4279
 3180SOL    HW221177   1.817   1.567  17.195  1.5282  0.2721  2.0782
 3181SOL     OW21178   0.226   2.564  10.431  0.1815 -0.3728  0.1346
 3181SOL    HW121179   0.300   2.612  10.469 -0.3099  0.1754  0.4132
 3181SOL    HW221180   0.207   2.508  10.507 -0.5389 -0.2408  0.0543
 3182SOL     OW21181   2.239   0.831   3.605 -0.1146  0.7831 -0.5849
 3182SOL    HW121182   2.294   0.807   3.531  2.0239 -1.2927  1.6959
 3182SOL    HW221183   2.184   0.753   3.610  0.3770  0.4557 -0.2749
 3183SOL     OW21184   3.375   0.750   9.601 -0.1420 -0.0572 -0.4092
 3183SOL    HW121185   3.285   0.780   9.610 -0.6988 -2.0486  0.6620
 3183SOL    HW221186   3.406   0.814   9.664 -0.8163 -0.6348  0.5008
 3184SOL     OW21187   0.966   0.198   5.934 -0.2207  0.1503 -0.2697
 3184SOL    HW121188   0.970   0.259   6.008 -0.8177 -0.6779  0.4452
 3184SOL    HW221189   0.873   0.204   5.914 -0.0405 -1.4425 -1.5797
 3185SOL     OW21190   4.066   4.367  12.028  0.0350  0.0600 -0.4228
 3185SOL    HW121191   4.019   4.367  12.111  2.3862  0.7721  0.8966
 3185SOL    HW221192   4.048   4.274  12.017 -0.0292 -0.3752  3.3923
 3186SOL     OW21193   2.042   3.775   9.288 -0.2667 -0.2604 -0.2988
 3186SOL    HW121194   2.099   3.756   9.214 -0.6500 -0.2801 -0.5871
 3186SOL    HW221195   2.102   3.777   9.363  1.3896 -1.2748 -1.6036
 3187SOL     OW21196   1.275   3.589   9.776  0.3245 -0.1480  0.4391
 3187SOL    HW121197   1.369   3.572   9.780  0.6647  1.8398  0.5465
 3187SOL    HW221198   1.253   3.495   9.776  0.6670 -0.2296  1.2018
 3188SOL     OW21199   0.632   4.653   3.660  0.5424  0.8245 -0.0584
 3188SOL    HW121200   0.589   4.638   3.576 -0.3400 -0.4252  0.6265
 3188SOL    HW221201   0.704   4.589   3.662 -0.8438 -0.7378 -0.5909
 3189SOL     OW21202   1.413   0.686  12.927  0.0397  0.0863 -0.1992
 3189SOL    HW121203   1.360   0.643  12.859 -1.2513 -0.5918  1.2452
 3189SOL    HW221204   1.465   0.610  12.954  1.0382  0.9303  0.2557
 3190SOL     OW21205   4.262   3.196   8.576 -0.0572  0.0016  0.3188
 3190SOL    HW121206   4.289   3.108   8.551  0.9620  0.8144 -1.4508
 3190SOL    HW221207   4.273   3.184   8.671  3.4707  0.4127 -0.0306
 3191SOL     OW21208   4.340   0.094   7.174 -0.1709 -0.1680  0.5291
 3191SOL    HW121209   4.299   0.124   7.092  2.5405  1.0443 -0.4053
 3191SOL    HW221210   4.337   0.176   7.223  1.1767 -0.8575  1.7642
 3192SOL     OW21211   0.375   4.427   7.162 -0.0107  0.7129 -0.9741
 3192SOL    HW121212   0.388   4.424   7.067 -0.3552 -0.1233 -0.9972
 3192SOL    HW221213   0.441   4.494   7.178 -0.3530  0.5788  1.0038
 3193SOL     OW21214   0.793   0.363  10.396  0.8565  0.1064  0.5570
 3193SOL    HW121215   0.790   0.453  10.427  0.8031  0.1518  0.4220
 3193SOL    HW221216   0.736   0.314  10.456  1.3257  1.2223  1.8980
 3194SOL     OW21217   1.904   4.590   6.206  0.7510  0.7342  0.1598
 3194SOL    HW121218   1.924   4.600   6.113  0.0106 -0.5198 -0.1378
 3194SOL    HW221219   1.952   4.662   6.248  2.9446 -0.4456 -0.3514
 3195SOL     OW21220   1.657   4.449   8.390  0.1889 -0.1189 -0.2816
 3195SOL    HW121221   1.565   4.429   8.404  0.7807 -2.9642 -0.5129
 3195SOL    HW221222   1.656   4.543   8.371  0.3760  0.2246  1.3887
 3196SOL     OW21223   1.720   2.115  17.246  0.4802  0.2988 -0.5807
 3196SOL    HW121224   1.715   2.071  17.161 -0.7064  0.6232 -0.6916
 3196SOL    HW221225   1.786   2.181  17.226 -0.4015  0.3949 -3.2035
 3197SOL     OW21226   4.023   4.406  15.113  0.9813 -0.9652  0.2041
 3197SOL    HW121227   4.117   4.394  15.123  0.5506 -2.5047  2.4284
 3197SOL    HW221228   4.010   4.354  15.035  1.0183 -1.0005  0.2215
 3198SOL     OW21229   2.678   3.680   9.100  0.0136  0.7831 -1.0067
 3198SOL    HW121230   2.627   3.609   9.139  2.4261 -0.7745 -0.6897
 3198SOL    HW221231   2.613   3.742   9.067  1.3298  1.8117 -1.6933
 3199SOL     OW21232   4.106   3.958   6.539  0.0848  0.2296  0.4735
 3199SOL    HW121233   4.150   3.937   6.621  0.5503  0.5460  0.3049
 3199SOL    HW221234   4.023   3.997   6.566 -0.9350 -2.6599  1.4597
 3200SOL     OW21235   3.182   1.125   4.636 -0.4936 -0.5381 -0.5171
 3200SOL    HW121236   3.145   1.202   4.681  0.5976 -0.1068 -0.3619
 3200SOL    HW221237   3.181   1.064   4.709  0.4006  0.0831  0.0194
 3201SOL     OW21238   3.446   2.876   7.238  0.0659  0.3235 -0.1545
 3201SOL    HW121239   3.391   2.945   7.274  0.4322  0.8831 -0.6692
 3201SOL    HW221240   3.377   2.830   7.189 -0.6493 -1.9891  3.0582
 3202SOL     OW21241   3.148   2.400   3.122  0.7105  0.1120 -0.0082
 3202SOL    HW121242   3.073   2.371   3.173  1.5433 -3.5227 -0.8705
 3202SOL    HW221243   3.111   2.478   3.082  0.1404 -1.5934 -2.7800
 3203SOL     OW21244   1.899   0.118   2.640  0.0304  0.3984 -1.3325
 3203SOL    HW121245   1.852   0.167   2.573 -1.1643  0.0411 -0.7459
 3203SOL    HW221246   1.989   0.141   2.616  0.5494  0.3014  0.4825
 3204SOL     OW21247   0.720   4.615   2.458 -0.6921  0.7665 -0.0773
 3204SOL    HW121248   0.781   4.587   2.390 -0.1832  0.0663  0.6822
 3204SOL    HW221249   0.648   4.648   2.404 -0.5163  0.2119 -0.6541
 3205SOL     OW21250   2.651   0.798  12.469  0.0200  0.3602 -0.1291
 3205SOL    HW121251   2.584   0.730  12.468  1.0243 -0.6355 -0.4845
 3205SOL    HW221252   2.701   0.758  12.398  2.2818  2.8322  0.0652
 3206SOL     OW21253   3.906   4.489   8.204  0.3973 -0.3367  0.7481
 3206SOL    HW121254   3.902   4.535   8.120  2.0305 -1.4933  0.0396
 3206SOL    HW221255   3.874   4.555   8.265 -0.6712 -0.5148  0.3908
 3207SOL     OW21256   3.862   4.141  16.090  0.2258  0.2122 -0.4296
 3207SOL    HW121257   3.915   4.209  16.049 -0.0644  0.1801 -0.8489
 3207SOL    HW221258   3.927   4.072  16.103 -1.4792 -1.2917  0.0430
 3208SOL     OW21259   2.168   4.170   3.765 -0.0163  0.2032  0.0740
 3208SOL    HW121260   2.114   4.239   3.803  1.0594  0.1432  1.7523
 3208SOL    HW221261   2.249   4.176   3.816  0.6679  0.4264 -1.0475
 3209SOL     OW21262   4.520   3.055  14.724  0.1321  0.1294  0.3879
 3209SOL    HW121263   4.538   3.096  14.640  1.3994 -0.2985  0.4484
 3209SOL    HW221264   4.551   3.113  14.793 -2.0808 -0.0002  1.5065
 3210SOL     OW21265   0.840   2.572  15.949 -0.0289 -0.4170  0.3966
 3210SOL    HW121266   0.887   2.515  15.888 -0.5703 -0.7354  0.2786
 3210SOL    HW221267   0.854   2.524  16.031 -1.8699 -2.8133 -0.7243
 3211SOL     OW21268   4.219   2.697   9.152  0.7591 -0.5630  0.3531
 3211SOL    HW121269   4.259   2.749   9.222  1.7190 -1.1309  0.2338
 3211SOL    HW221270   4.165   2.635   9.200 -1.5310  1.7775  0.7692
 3212SOL     OW21271   4.703   0.361   8.673 -0.4576  0.6768  0.2050
 3212SOL    HW121272   4.623   0.396   8.712 -0.3370 -0.4592  1.4730
 3212SOL    HW221273   4.722   0.289   8.732  0.9930  1.8436  1.1414
 3213SOL     OW21274   2.386   0.459   8.539  0.0627 -0.1259  0.2169
 3213SOL    HW121275   2.395   0.537   8.484 -0.1846  0.5328  1.1266
 3213SOL    HW221276   2.292   0.445   8.526  0.2558 -1.1478 -0.1129
 3214SOL     OW21277   4.499   0.668  12.062  0.2739 -0.4298 -0.8187
 3214SOL    HW121278   4.513   0.672  12.157  1.1907  1.2269 -1.0070
 3214SOL    HW221279   4.526   0.760  12.053 -1.8486  0.2301 -0.4725
 3215SOL     OW21280   2.032   3.322   9.167  0.0202  0.9327  0.4773
 3215SOL    HW121281   1.952   3.343   9.118  0.4177  0.1917 -0.4877
 3215SOL    HW221282   2.107   3.338   9.110  0.0008  1.6058  0.6317
 3216SOL     OW21283   0.308   2.157   5.223 -0.3844 -0.0511  0.9122
 3216SOL    HW121284   0.310   2.203   5.306 -0.7361 -0.9299  1.4065
 3216SOL    HW221285   0.223   2.170   5.180 -0.3484  0.4560  0.9952
 3217SOL     OW21286   4.430   2.404   3.493 -0.5157  0.1098  0.2482
 3217SOL    HW121287   4.352   2.360   3.526 -0.6183 -1.6951 -2.4361
 3217SOL    HW221288   4.437   2.472   3.560 -0.9565  0.2451  0.1546
 3218SOL     OW21289   1.413   1.648  11.992 -0.0495 -0.4550  0.6186
 3218SOL    HW121290   1.383   1.650  11.901  1.9372  0.2424 -0.0169
 3218SOL    HW221291   1.325   1.649  12.030  0.6268 -2.5711  2.2340
 3219SOL     OW21292   1.641   0.250   1.377  0.2941  0.3103  0.1431
 3219SOL    HW121293   1.642   0.301   1.295 -0.6242  0.1263  0.0152
 3219SOL    HW221294   1.729   0.265   1.410 -0.0236  2.3627  0.0780
 3220SOL     OW21295   1.380   1.130   0.571  0.3907 -0.2708  0.2773
 3220SOL    HW121296   1.321   1.056   0.561  0.3644 -0.3006  0.6233
 3220SOL    HW221297   1.328   1.191   0.624  1.7648  0.7014  0.5058
 3221SOL     OW21298   2.896   2.935   3.810 -0.2871  0.5032 -0.0692
 3221SOL    HW121299   2.885   2.957   3.718 -0.1689 -0.8437 -0.4155
 3221SOL    HW221300   2.839   2.858   3.810  2.8083 -1.8383 -0.4073
 3222SOL     OW21301   3.224   0.032   3.317 -0.5620 -0.6011  0.3242
 3222SOL    HW121302   3.259   0.097   3.378 -1.0590  0.2023 -0.2549
 3222SOL    HW221303   3.180   0.087   3.252 -0.7309 -1.0948  0.0250
 3223SOL     OW21304   0.001   4.064   1.833  0.5830  0.4639  0.0507
 3223SOL    HW121305   0.011   3.971   1.817 -2.3694  0.2839 -0.6164
 3223SOL    HW221306   0.091   4.092   1.815  0.4874  0.5397 -0.3000
 3224SOL     OW21307   4.064   0.595  17.414  0.3796  0.2975 -1.1645
 3224SOL    HW121308   4.006   0.634  17.480  1.8475 -0.0204  0.3017
 3224SOL    HW221309   4.111   0.674  17.387  3.6220 -1.0434  0.6311
 3225SOL     OW21310   3.687   2.151   8.652 -0.1416  0.0741 -0.4229
 3225SOL    HW121311   3.600   2.175   8.620 -0.2339 -0.4201 -0.5431
 3225SOL    HW221312   3.669   2.063   8.685  1.9345 -1.3227 -2.9898
 3226SOL     OW21313   0.172   3.693   2.247 -0.5712 -0.0086  0.1341
 3226SOL    HW121314   0.108   3.719   2.314  0.8478  0.3546  1.3608
 3226SOL    HW221315   0.147   3.601   2.235 -1.8738  0.0344  2.3994
 3227SOL     OW21316   1.197   4.626   6.696 -0.1012 -0.1129  0.4020
 3227SOL    HW121317   1.194   4.721   6.697  0.6918 -0.0763 -1.4079
 3227SOL    HW221318   1.255   4.606   6.770  0.3529 -1.5754 -0.3445
 3228SOL     OW21319   2.675   3.216  10.317  0.3505 -0.2134 -0.2984
 3228SOL    HW121320   2.724   3.209  10.399 -0.2670 -1.8796 -0.0787
 3228SOL    HW221321   2.671   3.128  10.280 -1.8472 -0.0759 -0.3766
 3229SOL     OW21322   2.309   1.941   3.834 -0.3264 -0.0788  0.6332
 3229SOL    HW121323   2.252   1.873   3.800  1.2281  0.6361 -3.4172
 3229SOL    HW221324   2.293   1.943   3.928  2.3995 -0.5087  1.1191
 3230SOL     OW21325   0.233   0.190   5.859  0.3194 -0.2027  0.1715
 3230SOL    HW121326   0.291   0.114   5.865 -0.1362 -0.7210 -1.9395
 3230SOL    HW221327   0.156   0.149   5.821  1.6953 -1.9964 -0.6406
 3231SOL     OW21328   1.903   0.914   2.147 -0.6427  0.5554  0.0774
 3231SOL    HW121329   1.950   0.988   2.110 -0.4272  0.8656  0.9524
 3231SOL    HW221330   1.831   0.896   2.088 -1.8465  0.4538  1.5679
 3232SOL     OW21331   2.831   3.763   1.526  0.4749  0.1319 -0.0182
 3232SOL    HW121332   2.844   3.674   1.557  1.9146  0.5158  0.4927
 3232SOL    HW221333   2.921   3.792   1.512  0.1249  1.0439 -0.4142
 3233SOL     OW21334   4.162   2.584   8.340  0.5411 -0.1947  0.1693
 3233SOL    HW121335   4.235   2.534   8.304 -0.8850 -0.4269 -2.3836
 3233SOL    HW221336   4.153   2.538   8.424  0.8451 -0.3394  0.1245
 3234SOL     OW21337   3.812   2.781   4.999  0.8239 -0.0644  0.4708
 3234SOL    HW121338   3.763   2.785   5.082 -2.6372  1.7753 -1.6474
 3234SOL    HW221339   3.845   2.691   4.995  0.7289 -0.2201  3.3297
 3235SOL     OW21340   3.984   1.014   3.680  0.0381 -0.3652  0.7049
 3235SOL    HW121341   3.939   0.991   3.599  3.1695 -3.8086 -0.0545
 3235SOL    HW221342   3.947   0.960   3.749 -0.9610 -0.8241 -0.2039
 3236SOL     OW21343   2.949   2.214  10.785 -0.5652 -0.1337  0.2571
 3236SOL    HW121344   2.885   2.263  10.837  1.4119  4.7988 -1.8629
 3236SOL    HW221345   3.013   2.284  10.769 -0.0621 -0.4474  0.9010
 3237SOL     OW21346   3.418   3.178   6.020 -0.3337 -0.6200  0.3164
 3237SOL    HW121347   3.378   3.183   6.106  0.1726 -1.8866  0.6259
 3237SOL    HW221348   3.411   3.083   6.007  1.7310 -0.9534  1.5678
 3238SOL     OW21349   2.792   3.428   5.339  0.0598 -0.1007  0.4390
 3238SOL    HW121350   2.747   3.344   5.352 -0.4055  0.1234  0.3047
 3238SOL    HW221351   2.763   3.464   5.255 -0.8834 -0.3612  0.6447
 3239SOL     OW21352   1.763   0.473   7.086  0.1370  0.1567 -0.1117
 3239SOL    HW121353   1.683   0.433   7.053  0.7633 -1.1406 -0.0806
 3239SOL    HW221354   1.798   0.505   7.003 -1.8917  1.5436 -0.4137
 3240SOL     OW21355   3.938   4.396   5.770 -0.7366 -0.0142 -0.1779
 3240SOL    HW121356   3.994   4.464   5.808  0.2383 -2.6720  3.1399
 3240SOL    HW221357   3.867   4.450   5.737  0.1566  0.0423 -2.0220
 3241SOL     OW21358   0.071   0.976   7.978  0.1572  0.2343 -0.2204
 3241SOL    HW121359   0.034   1.058   7.946 -0.8355 -0.4916 -0.9187
 3241SOL    HW221360   4.730   0.928   7.995  1.5501 -1.2947  2.1292
 3242SOL     OW21361   3.949   4.620   9.789 -0.3335  0.0923  0.2359
 3242SOL    HW121362   3.996   4.569   9.723  0.1231 -2.0056  2.1795
 3242SOL    HW221363   4.030   4.663   9.815  0.3392 -1.7741  1.2513
 3243SOL     OW21364   1.572   4.014  13.030 -0.5963  0.6003  0.2489
 3243SOL    HW121365   1.496   4.005  13.088  0.7231  1.8955  2.1736
 3243SOL    HW221366   1.602   4.102  13.054 -0.5808  0.9537 -1.0201
 3244SOL     OW21367   4.008   4.448   0.885  0.0905 -0.3456  0.1041
 3244SOL    HW121368   3.957   4.526   0.864  1.8846  0.6500 -0.5431
 3244SOL    HW221369   4.092   4.479   0.852  0.3820 -1.1355  0.1008
 3245SOL     OW21370   3.566   2.378   5.433  0.2022 -0.2218  0.8338
 3245SOL    HW121371   3.601   2.463   5.460 -1.5905  1.2444 -1.5284
 3245SOL    HW221372   3.644   2.346   5.388 -0.3709  1.6141 -1.4463
 3246SOL     OW21373   0.805   2.694   5.515  0.0411 -0.6447  0.1328
 3246SOL    HW121374   0.738   2.741   5.466 -1.6905 -2.2094  0.9794
 3246SOL    HW221375   0.879   2.755   5.522 -0.3603 -0.2691  1.1365
 3247SOL     OW21376   4.659   3.869   9.029 -0.6818  0.0528 -0.4593
 3247SOL    HW121377   4.732   3.894   9.086 -0.3910 -0.1877 -0.7259
 3247SOL    HW221378   4.585   3.878   9.090  0.1569  1.0537  0.4126
 3248SOL     OW21379   3.134   1.352   2.156  0.5950  0.3619  0.4616
 3248SOL    HW121380   3.200   1.291   2.188  0.5437  0.2777  0.4075
 3248SOL    HW221381   3.181   1.435   2.144  1.0536  0.0087 -0.2073
 3249SOL     OW21382   3.588   1.108  12.841 -0.1973 -0.2169 -0.7042
 3249SOL    HW121383   3.531   1.084  12.914  0.0036  0.1671 -0.4170
 3249SOL    HW221384   3.646   1.031  12.837 -1.4949 -1.1856 -0.6305
 3250SOL     OW21385   1.187   2.536   9.849  0.7578 -0.4935  0.2849
 3250SOL    HW121386   1.193   2.486   9.768  1.5098  1.2025 -0.7135
 3250SOL    HW221387   1.116   2.598   9.831  0.9823  0.0027  1.1092
 3251SOL     OW21388   1.693   2.785   6.411  0.3033  0.0084  0.3736
 3251SOL    HW121389   1.664   2.696   6.430  0.9873  0.3172  2.8655
 3251SOL    HW221390   1.670   2.794   6.319  1.8221  1.3090  0.1121
 3252SOL     OW21391   2.452   3.168   1.881 -0.1382  0.0071  0.0937
 3252SOL    HW121392   2.476   3.257   1.906 -0.3378 -0.4668  1.9329
 3252SOL    HW221393   2.457   3.177   1.785 -0.1769  2.8943  0.3631
 3253SOL     OW21394   4.120   2.752   3.727  0.3208  0.4217  0.1312
 3253SOL    HW121395   4.188   2.742   3.793 -1.0261  0.9362  1.5998
 3253SOL    HW221396   4.078   2.828   3.765 -2.2777 -1.5784  1.2535
 3254SOL     OW21397   4.032   2.659   9.333  0.1462 -0.6050  0.1888
 3254SOL    HW121398   4.074   2.610   9.403  0.8691  0.5939  0.5786
 3254SOL    HW221399   3.954   2.698   9.372 -0.5171 -3.5383  1.8245
 3255SOL     OW21400   3.311   2.586   5.956  0.1276 -0.7938  0.5527
 3255SOL    HW121401   3.405   2.566   5.962  0.6356  1.6038  0.4896
 3255SOL    HW221402   3.314   2.669   5.909  0.6992 -2.5375 -2.5315
 3256SOL     OW21403   4.275   1.340  13.429  0.1219  0.1410 -0.1723
 3256SOL    HW121404   4.371   1.341  13.434  0.0958  2.3171 -0.1547
 3256SOL    HW221405   4.255   1.287  13.506 -0.9609  1.2783  0.3176
 3257SOL     OW21406   3.170   3.805   3.880  0.1283  0.3982  0.4124
 3257SOL    HW121407   3.145   3.718   3.849 -0.8105  1.2867 -1.3283
 3257SOL    HW221408   3.089   3.851   3.857  0.1300 -0.2161 -0.8101
 3258SOL     OW21409   2.473   2.899   1.920 -0.3058  0.1760  0.1295
 3258SOL    HW121410   2.567   2.882   1.925 -0.2622  0.5901  0.7619
 3258SOL    HW221411   2.462   2.995   1.918 -1.5822  0.0598  1.3354
 3259SOL     OW21412   1.438   1.877   3.408  0.8504 -0.0648 -0.7124
 3259SOL    HW121413   1.425   1.960   3.362 -0.6541  0.0813 -0.0144
 3259SOL    HW221414   1.496   1.903   3.480  1.3259  0.2676 -1.2109
 3260SOL     OW21415   1.600   1.450  11.943 -0.3527  0.0086 -0.0467
 3260SOL    HW121416   1.579   1.529  11.992  0.1383  0.0263  0.1386
 3260SOL    HW221417   1.511   1.420  11.927  0.3066 -1.9460 -0.0079
 3261SOL     OW21418   4.085   4.302   9.102 -0.2599 -0.0188 -0.2186
 3261SOL    HW121419   4.092   4.280   9.009  4.3854 -1.4705  0.4796
 3261SOL    HW221420   4.097   4.215   9.140  0.3359 -0.3257 -1.1008
 3262SOL     OW21421   2.844   2.970   7.071 -0.6202 -0.1882  0.2708
 3262SOL    HW121422   2.918   3.011   7.115  1.5075 -2.4846 -1.1357
 3262SOL    HW221423   2.787   3.046   7.060  0.2854  0.3725 -0.4459
 3263SOL     OW21424   1.252   1.104   5.290 -0.1269  0.5673 -0.1182
 3263SOL    HW121425   1.302   1.146   5.360  2.0890 -2.3871  0.0816
 3263SOL    HW221426   1.202   1.174   5.248  1.7765  2.1580  0.3000
 3264SOL     OW21427   3.058   4.338   1.087  0.6350 -0.0324  0.1552
 3264SOL    HW121428   2.969   4.309   1.109  0.9890 -1.9490 -0.9429
 3264SOL    HW221429   3.046   4.433   1.087  0.1322 -0.1102 -3.0903
 3265SOL     OW21430   3.712   1.172  11.151 -0.2835 -0.2158 -0.6575
 3265SOL    HW121431   3.701   1.077  11.145  0.6987 -0.4504  1.2600
 3265SOL    HW221432   3.795   1.170  11.198  0.9563  0.5015 -2.8069
 3266SOL     OW21433   2.100   3.766   5.248 -0.2950 -0.2069  0.0470
 3266SOL    HW121434   2.181   3.779   5.198 -1.5873  0.7085 -1.8315
 3266SOL    HW221435   2.044   3.840   5.225  1.4476  1.3597  0.8563
 3267SOL     OW21436   1.032   3.170   3.322  0.3451 -0.7543  0.1927
 3267SOL    HW121437   1.021   3.238   3.389 -1.5201 -0.1632 -0.7022
 3267SOL    HW221438   0.997   3.209   3.242  0.0882 -0.8014  0.2821
 3268SOL     OW21439   0.515   2.374   6.343  0.3754  0.4152 -0.4593
 3268SOL    HW121440   0.575   2.388   6.416 -0.8998  1.6082  0.3525
 3268SOL    HW221441   0.519   2.278   6.336 -1.3428  0.1567  2.3152
 3269SOL     OW21442   1.308   2.703   7.402 -1.0142 -0.2067  0.0313
 3269SOL    HW121443   1.366   2.730   7.330 -0.8063  2.0339  1.0289
 3269SOL    HW221444   1.219   2.705   7.368 -0.7353 -0.9393 -0.7460
 3270SOL     OW21445   2.534   0.587   3.189 -0.5939 -0.0051 -0.3256
 3270SOL    HW121446   2.609   0.608   3.133 -1.4511  0.1679 -1.4261
 3270SOL    HW221447   2.566   0.509   3.233 -0.3598  0.3505  0.1356
 3271SOL     OW21448   3.385   3.386  11.178  0.0223 -0.3038  0.4442
 3271SOL    HW121449   3.393   3.362  11.086  0.7742  0.7783  0.2259
 3271SOL    HW221450   3.439   3.464  11.189 -0.0651  0.0052 -1.3091
 3272SOL     OW21451   0.480   1.125  12.480  0.1965 -0.1401 -0.1309
 3272SOL    HW121452   0.492   1.195  12.543 -2.3450 -0.8648  1.1949
 3272SOL    HW221453   0.430   1.179  12.419  1.2429 -0.3026 -1.1280
 3273SOL     OW21454   2.170   4.728   3.241  0.3640  0.8053  0.3136
 3273SOL    HW121455   2.220   4.660   3.285  0.0957  0.9121  0.7854
 3273SOL    HW221456   2.238   0.053   3.224  0.9122 -0.5035 -2.5255
 3274SOL     OW21457   1.542   1.692   2.146 -0.2863 -0.0276  0.1481
 3274SOL    HW121458   1.612   1.719   2.087 -0.7693  1.4231  0.2353
 3274SOL    HW221459   1.477   1.665   2.080  0.0545  0.1946 -0.2785
 3275SOL     OW21460   1.596   1.607   4.637  0.1012  0.8028  0.4620
 3275SOL    HW121461   1.616   1.686   4.689  1.8704  0.1064  0.8303
 3275SOL    HW221462   1.679   1.581   4.598 -0.4555 -0.3848  0.0883
 3276SOL     OW21463   0.864   0.113  15.578 -0.6310  0.0084  0.8523
 3276SOL    HW121464   0.902   0.097  15.491 -1.2275 -0.7083  0.7229
 3276SOL    HW221465   0.919   0.181  15.616 -0.4251  0.4997 -0.3037
 3277SOL     OW21466   1.469   4.000   9.408  0.2686  0.1235  0.2778
 3277SOL    HW121467   1.435   4.013   9.319  1.2545 -0.7033 -0.2080
 3277SOL    HW221468   1.552   4.047   9.402  1.4090 -2.0123 -0.8459
 3278SOL     OW21469   3.159   3.725   5.379  0.5773  0.1339  0.7503
 3278SOL    HW121470   3.157   3.717   5.284  0.6634 -1.8260  0.9080
 3278SOL    HW221471   3.121   3.642   5.411  0.1013 -0.0562 -0.3217
 3279SOL     OW21472   3.889   3.481   8.742 -0.0476  0.1451  0.2219
 3279SOL    HW121473   3.949   3.468   8.815 -0.5902 -1.0009  0.4756
 3279SOL    HW221474   3.950   3.458   8.671 -0.1946  2.1469 -0.5527
 3280SOL     OW21475   2.076   3.856   2.007 -0.4753 -0.3128  0.2861
 3280SOL    HW121476   2.010   3.787   2.002 -0.8688 -0.1765  3.1378
 3280SOL    HW221477   2.112   3.840   2.095  1.0828  0.0913 -0.2882
 3281SOL     OW21478   2.951   2.651  12.948  0.3549 -0.1738 -0.0358
 3281SOL    HW121479   2.959   2.707  13.025  0.3644 -1.5148  0.9286
 3281SOL    HW221480   3.009   2.696  12.885 -0.4459  0.6107 -0.2157
 3282SOL     OW21481   3.442   4.178  12.802  0.1236 -0.2707  0.0745
 3282SOL    HW121482   3.450   4.187  12.897  0.6838  0.8184 -0.0760
 3282SOL    HW221483   3.422   4.085  12.800  1.0270 -0.4406 -1.0865
 3283SOL     OW21484   0.608   1.317   3.145  0.3932  0.0734  0.0078
 3283SOL    HW121485   0.595   1.375   3.070  1.1675  1.6083  1.0562
 3283SOL    HW221486   0.518   1.320   3.178  0.5010 -1.1378  0.4147
 3284SOL     OW21487   3.463   2.652  16.521  0.0780  0.1103 -0.0694
 3284SOL    HW121488   3.535   2.646  16.584  0.4344 -0.7881 -0.5815
 3284SOL    HW221489   3.400   2.713  16.561 -0.4599 -1.0861  0.9329
 3285SOL     OW21490   1.131   4.590   9.442  0.3324 -1.0000  0.1524
 3285SOL    HW121491   1.042   4.601   9.410  0.3963  2.5815  1.1844
 3285SOL    HW221492   1.160   4.681   9.451 -0.0876 -0.8714  0.1877
 3286SOL     OW21493   0.827   3.369  13.841 -0.5458  0.0224  0.3461
 3286SOL    HW121494   0.819   3.454  13.797  4.3061  0.7119  0.8170
 3286SOL    HW221495   0.806   3.307  13.771  0.4906  2.6909 -2.3505
 3287SOL     OW21496   3.999   1.887   3.012  0.1775 -0.2285 -0.1505
 3287SOL    HW121497   4.018   1.939   2.934  0.1188 -1.2746 -0.8715
 3287SOL    HW221498   3.904   1.897   3.022 -0.1636 -1.0009 -2.5749
 3288SOL     OW21499   1.437   2.047   5.465  0.1914  0.6890 -0.3972
 3288SOL    HW121500   1.495   2.095   5.405  1.3590  2.1531  1.8824
 3288SOL    HW221501   1.472   2.076   5.550  0.9872 -1.3501 -0.0386
 3289SOL     OW21502   1.660   4.019   4.060 -0.3399  0.0363 -0.1607
 3289SOL    HW121503   1.670   4.068   3.979 -1.6035  0.4123 -0.0901
 3289SOL    HW221504   1.596   4.077   4.101 -0.0820  0.1309  0.1039
 3290SOL     OW21505   4.534   2.996   5.453 -0.4257  0.0178 -0.3159
 3290SOL    HW121506   4.593   3.021   5.523 -1.5202  2.6960 -0.3252
 3290SOL    HW221507   4.585   2.920   5.424 -2.2458 -1.4107  0.1757
 3291SOL     OW21508   0.052   1.319   1.037  0.2948  0.4269  0.3073
 3291SOL    HW121509   4.736   1.395   1.050 -0.0227  0.6227 -2.3716
 3291SOL    HW221510   0.077   1.327   0.945 -1.0293  0.1531 -0.0754
 3292SOL     OW21511   3.341   3.240  16.283 -0.6684  0.0433 -0.0394
 3292SOL    HW121512   3.432   3.226  16.310 -0.3163  1.0363 -0.6980
 3292SOL    HW221513   3.290   3.169  16.321  0.9483 -0.5702  0.9508
 3293SOL     OW21514   3.423   4.136   4.482  0.5701  0.0823 -0.6055
 3293SOL    HW121515   3.438   4.162   4.391  0.3475 -1.1811 -1.0049
 3293SOL    HW221516   3.502   4.098   4.519 -0.9950 -2.3661  0.2421
 3294SOL     OW21517   2.226   3.339   8.993  0.5396  0.5850 -0.1953
 3294SOL    HW121518   2.290   3.284   8.946  1.7789  2.0009 -0.1442
 3294SOL    HW221519   2.222   3.422   8.947  0.8219  1.0402  0.6137
 3295SOL     OW21520   3.520   4.331   7.683 -0.0989 -1.0626  0.6427
 3295SOL    HW121521   3.609   4.354   7.709  0.2434 -2.7091  0.8774
 3295SOL    HW221522   3.469   4.394   7.736 -0.1678  0.3708 -1.1374
 3296SOL     OW21523   4.175   0.112  10.620  0.5066  0.3347  0.2545
 3296SOL    HW121524   4.199   0.190  10.670 -0.4309 -0.0469  1.2714
 3296SOL    HW221525   4.254   0.058  10.618  0.0777 -0.3469  2.2371
 3297SOL     OW21526   2.597   4.302   6.492  0.2706  0.0753  0.2497
 3297SOL    HW121527   2.502   4.310   6.504  0.2705  0.3601  0.0566
 3297SOL    HW221528   2.621   4.216   6.458 -1.5914 -0.6939  0.8624
 3298SOL     OW21529   3.765   3.174   7.043 -0.1918  0.0873 -1.0731
 3298SOL    HW121530   3.828   3.149   6.975 -1.3917 -0.3751 -2.0046
 3298SOL    HW221531   3.714   3.093   7.041 -0.3470  0.1743 -0.6388
 3299SOL     OW21532   3.882   0.732   2.104 -0.0462  0.1132  0.0801
 3299SOL    HW121533   3.837   0.762   2.183  1.8012 -1.5040  1.7204
 3299SOL    HW221534   3.968   0.711   2.141  0.7957 -2.2717 -3.2012
 3300SOL     OW21535   1.436   3.373   4.838  0.1204  0.6641 -0.0273
 3300SOL    HW121536   1.520   3.363   4.882 -0.1910 -5.2210 -0.7582
 3300SOL    HW221537   1.467   3.406   4.754 -0.9018  2.2905  0.2338
 3301SOL     OW21538   1.910   3.229   7.398  0.3712 -0.0477 -0.7190
 3301SOL    HW121539   1.977   3.212   7.331  1.4674 -3.1607  1.1244
 3301SOL    HW221540   1.833   3.263   7.354 -0.1869 -0.8352 -0.3491
 3302SOL     OW21541   1.603   3.892  11.603 -0.5931 -0.8348 -0.5323
 3302SOL    HW121542   1.678   3.942  11.635 -0.0668  0.8365 -4.3414
 3302SOL    HW221543   1.569   3.873  11.691  1.0512  1.4708  0.6108
 3303SOL     OW21544   1.054   1.153   8.708 -0.1123  0.3312  0.3665
 3303SOL    HW121545   1.038   1.128   8.799 -1.3348 -0.2114  0.0016
 3303SOL    HW221546   1.149   1.153   8.699 -0.0097  1.0489  1.4866
 3304SOL     OW21547   4.693   1.306   8.835  0.5146 -0.0652 -0.0675
 3304SOL    HW121548   4.603   1.336   8.827  0.3793 -0.2940  0.5743
 3304SOL    HW221549   4.696   1.256   8.917  1.2177  0.9999  0.5597
 3305SOL     OW21550   0.507   0.983  17.541 -0.2933  0.0173 -0.1570
 3305SOL    HW121551   0.440   0.916  17.555  0.9513 -0.7145  2.2914
 3305SOL    HW221552   0.497   0.985  17.446  1.9011  0.8181 -0.3703
 3306SOL     OW21553   4.455   4.147   6.868 -0.1887 -0.4973 -0.1436
 3306SOL    HW121554   4.386   4.134   6.933 -0.5066  1.0225 -0.1809
 3306SOL    HW221555   4.413   4.182   6.790 -0.0712  0.0904  0.0604
 3307SOL     OW21556   3.410   0.225  17.740  0.4398 -0.1519  0.1265
 3307SOL    HW121557   3.453   0.222  17.654  1.0919  1.1674  0.4193
 3307SOL    HW221558   3.403   0.319  17.757 -0.5270 -0.3412  0.7538
 3308SOL     OW21559   0.552   4.617  11.882  0.3978  0.1253  0.5056
 3308SOL    HW121560   0.542   4.648  11.972 -1.3662  2.9891 -0.6902
 3308SOL    HW221561   0.600   4.536  11.897 -1.1775 -0.6278  1.3484
 3309SOL     OW21562   1.768   0.702   5.313 -0.0379 -0.1362  0.1312
 3309SOL    HW121563   1.676   0.678   5.299  0.1836 -0.7213 -0.3639
 3309SOL    HW221564   1.752   0.782   5.361 -1.6949 -0.1779 -0.3634
 3310SOL     OW21565   0.791   2.839   9.423 -0.3127 -0.2821 -0.3924
 3310SOL    HW121566   0.797   2.907   9.356  0.3790 -0.4675 -0.5159
 3310SOL    HW221567   0.831   2.764   9.379 -1.1778 -0.8833 -0.1526
 3311SOL     OW21568   2.415   0.154   6.941  0.1577 -0.1115 -0.3561
 3311SOL    HW121569   2.421   0.146   7.036  0.3216 -0.1188 -0.3678
 3311SOL    HW221570   2.324   0.182   6.927  0.1725 -0.4045 -1.0340
 3312SOL     OW21571   2.050   3.065   2.882  0.2523  0.3258 -0.0660
 3312SOL    HW121572   2.105   3.057   2.804 -0.2820  0.6402 -0.4740
 3312SOL    HW221573   1.991   2.991   2.872 -0.1596  0.7826 -1.0060
 3313SOL     OW21574   2.690   4.500  14.454 -0.0371 -0.1952  0.7502
 3313SOL    HW121575   2.659   4.410  14.450 -2.0270  0.4988  0.7962
 3313SOL    HW221576   2.624   4.549  14.503  0.5820  1.2028  0.2044
 3314SOL     OW21577   4.544   2.348   1.313  0.1903 -0.2079  0.1861
 3314SOL    HW121578   4.614   2.409   1.289 -1.1934  1.5385  0.5926
 3314SOL    HW221579   4.580   2.311   1.394 -0.8179  2.5930  1.9219
 3315SOL     OW21580   0.899   3.675   2.626  0.0196 -0.0954 -0.0211
 3315SOL    HW121581   0.934   3.732   2.694  0.4669 -0.1875 -0.1715
 3315SOL    HW221582   0.978   3.627   2.603 -1.1971 -1.5415 -1.1529
 3316SOL     OW21583   0.042   1.792   5.593 -0.0494 -0.2078 -0.4806
 3316SOL    HW121584   0.130   1.802   5.629 -0.3232 -1.7875  0.6030
 3316SOL    HW221585   0.004   1.733   5.658  1.1699  0.2894  0.6904
 3317SOL     OW21586   3.731   0.033   5.565 -0.1880 -0.0687  0.2293
 3317SOL    HW121587   3.720   4.685   5.601 -0.3929 -0.7791 -1.6169
 3317SOL    HW221588   3.668   0.039   5.494  1.5989  1.5557 -1.2081
 3318SOL     OW21589   0.505   4.230   2.639  0.0729 -0.5809  0.1681
 3318SOL    HW121590   0.518   4.186   2.555 -0.5521 -0.6711  0.1175
 3318SOL    HW221591   0.584   4.283   2.641 -0.0037 -0.4859  0.7809
 3319SOL     OW21592   1.196   1.723   9.392 -0.1882 -0.0080 -0.0800
 3319SOL    HW121593   1.216   1.753   9.481  2.1583  2.2611 -1.3587
 3319SOL    HW221594   1.283   1.736   9.354 -0.1743  2.4933  0.7932
 3320SOL     OW21595   4.247   4.445   3.578 -0.2154 -0.4821  0.1924
 3320SOL    HW121596   4.251   4.523   3.632  0.2466 -0.5332  0.2340
 3320SOL    HW221597   4.333   4.406   3.597  0.1445 -0.1652 -0.7697
 3321SOL     OW21598   1.539   2.898   8.366 -0.4352  0.7526 -0.1022
 3321SOL    HW121599   1.573   2.963   8.306 -0.9511  0.7784 -0.3661
 3321SOL    HW221600   1.510   2.833   8.302  3.2628 -0.6766 -0.3096
 3322SOL     OW21601   4.359   1.039   3.471 -0.0749  0.1719 -0.0065
 3322SOL    HW121602   4.345   1.033   3.565  1.4918 -1.4791  0.1094
 3322SOL    HW221603   4.455   1.032   3.469 -0.2861 -2.6303  0.0520
 3323SOL     OW21604   3.164   1.860   8.308  0.1976  0.1446 -0.2140
 3323SOL    HW121605   3.108   1.810   8.248  3.2567 -1.5321 -1.6679
 3323SOL    HW221606   3.249   1.815   8.300  1.1871  1.9770  0.0962
 3324SOL     OW21607   0.667   1.315   4.895  0.2305  0.1421 -0.1552
 3324SOL    HW121608   0.760   1.322   4.918 -0.2015  1.3512  1.1879
 3324SOL    HW221609   0.660   1.360   4.810  1.5061  1.6735  0.5403
 3325SOL     OW21610   2.227   1.496  10.779 -0.1435 -0.3965  0.4147
 3325SOL    HW121611   2.133   1.507  10.792 -0.5690 -1.0256 -2.0753
 3325SOL    HW221612   2.255   1.483  10.869 -0.8495 -1.6751  0.4558
 3326SOL     OW21613   4.037   1.946   0.591  0.4112  0.3705  0.4997
 3326SOL    HW121614   4.094   1.961   0.515  0.1416 -0.7956  0.0646
 3326SOL    HW221615   4.090   1.985   0.661  2.2129 -0.3589 -0.4467
 3327SOL     OW21616   0.235   1.370   4.699  0.4089 -0.9269  0.1209
 3327SOL    HW121617   0.236   1.336   4.788 -2.3823  0.1977  0.5903
 3327SOL    HW221618   0.318   1.360   4.652 -1.0210 -0.7956 -2.4544
 3328SOL     OW21619   0.693   1.085   7.448 -0.7869  0.1743 -0.0707
 3328SOL    HW121620   0.663   1.051   7.533 -1.3401  0.6257 -0.0845
 3328SOL    HW221621   0.760   1.145   7.479  0.4128 -0.7599 -0.8615
 3329SOL     OW21622   1.783   3.372   9.093  0.2100  0.2600  0.3454
 3329SOL    HW121623   1.750   3.297   9.044  0.1479  0.4484  0.0979
 3329SOL    HW221624   1.726   3.374   9.171 -3.1967 -0.3737 -2.1188
 3330SOL     OW21625   1.900   3.039   1.609  0.0283  0.0364 -0.1641
 3330SOL    HW121626   1.853   2.976   1.664 -0.1713  1.1671  0.9490
 3330SOL    HW221627   1.963   2.982   1.565  1.5079  0.2889  1.6363
 3331SOL     OW21628   2.897   1.580   2.483  0.2601 -0.0723  0.3039
 3331SOL    HW121629   2.968   1.631   2.522  1.2694 -1.1427 -0.1589
 3331SOL    HW221630   2.955   1.520   2.437  1.7322  0.4990  1.3837
 3332SOL     OW21631   1.050   3.858   6.715 -0.3218 -0.6134 -0.1791
 3332SOL    HW121632   1.125   3.876   6.659 -1.6120 -0.2737 -1.7750
 3332SOL    HW221633   1.021   3.776   6.675 -2.5488  0.2198 -0.2951
 3333SOL     OW21634   1.288   4.347   1.819 -0.5040 -0.2506 -0.3008
 3333SOL    HW121635   1.212   4.405   1.828 -1.5803 -2.2991  3.7042
 3333SOL    HW221636   1.320   4.380   1.734  0.4426  0.2047  0.2301
 3334SOL     OW21637   2.990   3.784   4.295  0.6607  0.1092  0.1432
 3334SOL    HW121638   3.070   3.749   4.256  1.6650  1.6322  0.8028
 3334SOL    HW221639   2.939   3.803   4.217  0.2584  1.0881  0.6384
 3335SOL     OW21640   4.194   0.357  14.986 -0.4867 -0.3884 -0.3943
 3335SOL    HW121641   4.236   0.386  14.906 -0.6283 -0.1842 -0.3966
 3335SOL    HW221642   4.118   0.309  14.951 -0.3759  0.9817 -2.5026
 3336SOL     OW21643   0.475   0.106   9.175  0.2766  0.3865  0.2982
 3336SOL    HW121644   0.497   0.174   9.239 -1.0574  0.7644  0.3597
 3336SOL    HW221645   0.381   0.105   9.194  0.4049  0.8809  0.9634
 3337SOL     OW21646   4.641   1.499   5.419  0.4677  0.6775  0.0896
 3337SOL    HW121647   4.554   1.500   5.458  0.7847 -0.3734  0.8068
 3337SOL    HW221648   4.703   1.504   5.491 -0.6585  4.0141  0.8144
 3338SOL     OW21649   2.334   4.284   9.977 -0.2244  0.4224 -0.0060
 3338SOL    HW121650   2.270   4.250   9.914 -1.5609  1.0135  1.0541
 3338SOL    HW221651   2.300   4.245  10.057  2.2584 -1.3505  0.2245
 3339SOL     OW21652   1.605   4.168   3.823  0.5375  0.5168  0.2666
 3339SOL    HW121653   1.568   4.117   3.751  0.2829  0.0144  0.7573
 3339SOL    HW221654   1.528   4.223   3.838  0.1094  0.6211 -2.1779
 3340SOL     OW21655   0.574   1.104   3.510 -1.0408  0.3997  0.2317
 3340SOL    HW121656   0.561   1.159   3.433  0.2499 -1.0776 -1.0503
 3340SOL    HW221657   0.656   1.139   3.545 -0.0622  0.0182 -1.6655
 3341SOL     OW21658   2.530   1.679  10.197 -0.1577  0.0836  0.1476
 3341SOL    HW121659   2.445   1.701  10.234  0.0935  2.3465 -0.6079
 3341SOL    HW221660   2.538   1.601  10.252 -1.2801 -0.3445 -0.3012
 3342SOL     OW21661   1.805   0.092   8.694 -0.8791  0.1191 -0.1033
 3342SOL    HW121662   1.762   0.114   8.611  0.3306 -0.8179 -0.9930
 3342SOL    HW221663   1.854   0.014   8.666 -0.5476  0.3294 -0.1176
 3343SOL     OW21664   0.453   4.357   5.384  0.2082 -0.1044 -0.0932
 3343SOL    HW121665   0.522   4.423   5.383  0.9103 -0.8806 -3.8801
 3343SOL    HW221666   0.473   4.302   5.460 -1.3357  2.3478  2.0996
 3344SOL     OW21667   2.825   2.308   7.983 -0.1335  0.4158 -0.0212
 3344SOL    HW121668   2.886   2.382   7.985 -1.3249  1.3657  2.2416
 3344SOL    HW221669   2.747   2.364   7.983 -1.1817 -1.0888 -4.1472
 3345SOL     OW21670   1.032   1.823   7.982  0.3121  0.2245  0.7163
 3345SOL    HW121671   1.081   1.754   7.938  1.6236  0.8184  1.2508
 3345SOL    HW221672   0.952   1.781   8.013  0.6918 -1.7408 -1.0118
 3346SOL     OW21673   4.592   2.925   4.500 -1.0076  0.4853 -0.6360
 3346SOL    HW121674   4.634   2.848   4.537  0.7763  1.5689 -0.4169
 3346SOL    HW221675   4.662   2.972   4.454 -0.0668 -0.7335 -0.4550
 3347SOL     OW21676   1.023   1.862   2.451 -0.5678  0.2648 -0.4589
 3347SOL    HW121677   0.937   1.854   2.493 -1.2999  2.6030 -1.4995
 3347SOL    HW221678   1.059   1.947   2.477  0.3151  0.2325 -1.5353
 3348SOL     OW21679   1.134   2.441   7.963  0.6546  0.8001 -0.2039
 3348SOL    HW121680   1.068   2.374   7.945  1.0652  0.1850  0.5940
 3348SOL    HW221681   1.128   2.450   8.058  2.3352 -3.0332  0.2552
 3349SOL     OW21682   0.886   0.079   6.596  0.0615  0.8208  0.5494
 3349SOL    HW121683   0.884   0.120   6.510  0.2841 -1.4154 -0.5207
 3349SOL    HW221684   0.792   0.062   6.603  0.5075 -1.5371  0.9409
 3350SOL     OW21685   3.599   0.255   7.475  0.1631 -0.5595  0.6281
 3350SOL    HW121686   3.559   0.304   7.547  0.5472  0.8271 -0.0957
 3350SOL    HW221687   3.525   0.234   7.418  2.1190 -0.8063 -1.7773
 3351SOL     OW21688   3.588   1.882  10.065  0.8476 -0.3697 -0.4033
 3351SOL    HW121689   3.632   1.952  10.113 -0.5595  2.0243 -2.6129
 3351SOL    HW221690   3.595   1.805  10.122  0.3577 -0.1200 -0.0109
 3352SOL     OW21691   1.204   2.494  10.141 -0.1080  0.2662  0.4570
 3352SOL    HW121692   1.209   2.476  10.047 -1.9801 -0.2668  0.4632
 3352SOL    HW221693   1.238   2.409  10.168  2.4078  1.3301  0.7009
 3353SOL     OW21694   2.180   1.416   1.529  0.3405 -0.0952  0.1606
 3353SOL    HW121695   2.208   1.440   1.617 -0.3162  1.5617 -0.0854
 3353SOL    HW221696   2.251   1.454   1.477  0.1617 -0.0456 -0.0464
 3354SOL     OW21697   3.164   2.577   6.320 -0.1381  0.3407  0.4965
 3354SOL    HW121698   3.145   2.519   6.395  0.3904 -1.9614 -1.1658
 3354SOL    HW221699   3.240   2.626   6.351  0.2163  0.4754 -0.6257
 3355SOL     OW21700   3.356   4.069   5.135 -0.3247 -0.8097  0.2202
 3355SOL    HW121701   3.447   4.078   5.108 -0.1547 -3.2896 -0.0938
 3355SOL    HW221702   3.310   4.138   5.087  1.4159  1.2263  1.5454
 3356SOL     OW21703   4.054   0.015   2.996 -0.7376 -0.1699  0.6855
 3356SOL    HW121704   4.082   0.106   2.995 -1.1341 -0.0804 -2.6868
 3356SOL    HW221705   4.120   4.726   3.060 -0.0673  0.9182  0.4763
 3357SOL     OW21706   3.646   2.862  14.532 -0.0263 -0.0879  0.0709
 3357SOL    HW121707   3.613   2.812  14.457  0.4983  1.4784 -1.2051
 3357SOL    HW221708   3.731   2.818  14.534  0.0789  0.0849 -0.5825
 3358SOL     OW21709   4.663   2.572  17.307  0.4235 -0.3032 -0.3788
 3358SOL    HW121710   4.576   2.564  17.346  0.0947 -1.0648 -1.2656
 3358SOL    HW221711   4.726   2.529  17.366 -0.3527  0.8154  1.2629
 3359SOL     OW21712   2.292   1.111   3.330  0.0826  0.6448 -0.2744
 3359SOL    HW121713   2.375   1.145   3.296 -1.2573  4.4493  0.3149
 3359SOL    HW221714   2.313   1.097   3.423  0.8723  0.5204 -0.4651
 3360SOL     OW21715   4.723   4.273   3.877 -0.5470 -0.2042 -0.6032
 3360SOL    HW121716   4.649   4.303   3.824 -0.4481 -1.8168 -1.6606
 3360SOL    HW221717   4.677   4.194   3.907  1.9983 -0.7003  1.9511
 3361SOL     OW21718   2.112   3.374  11.192  0.2166 -0.3601  0.0585
 3361SOL    HW121719   2.069   3.366  11.277  1.3391 -1.5163  0.5091
 3361SOL    HW221720   2.056   3.315  11.141  0.2470 -0.4736  0.1569
 3362SOL     OW21721   4.423   2.038   8.669 -0.1037  0.6109 -0.0346
 3362SOL    HW121722   4.469   1.954   8.665 -1.5323 -0.1502 -0.7022
 3362SOL    HW221723   4.346   2.018   8.616  0.8044 -1.5431 -0.5183
 3363SOL     OW21724   2.986   3.517  16.545 -0.2930  0.1108 -0.1300
 3363SOL    HW121725   2.992   3.606  16.510  0.3105 -0.4220 -1.3823
 3363SOL    HW221726   2.903   3.529  16.591  1.1317  2.6888  1.7906
 3364SOL     OW21727   4.398   0.711  15.875 -0.3434  0.1816 -0.1390
 3364SOL    HW121728   4.426   0.793  15.915  0.5975 -0.3315  0.2648
 3364SOL    HW221729   4.394   0.729  15.781  0.1405  1.1597  0.0333
 3365SOL     OW21730   4.221   3.351   6.716  0.5004 -0.0176 -0.4751
 3365SOL    HW121731   4.153   3.410   6.684  1.7846 -0.1509 -3.4136
 3365SOL    HW221732   4.275   3.407   6.772 -0.9248  2.1074 -1.2436
 3366SOL     OW21733   0.332   4.219  17.519  0.1457 -0.1332  0.2788
 3366SOL    HW121734   0.366   4.239  17.606 -0.8231 -1.4357  0.9575
 3366SOL    HW221735   0.385   4.141  17.502 -0.0654 -0.6383  1.9626
 3367SOL     OW21736   0.543   1.320   0.423 -0.3186 -0.1837  0.2055
 3367SOL    HW121737   0.544   1.227   0.401 -0.0817 -0.6241  2.1068
 3367SOL    HW221738   0.513   1.358   0.340  1.9756  1.5929  0.1875
 3368SOL     OW21739   3.533   0.232   8.136 -0.7564 -0.0924 -0.0626
 3368SOL    HW121740   3.485   0.241   8.053 -0.4202 -3.3104 -0.5855
 3368SOL    HW221741   3.462   0.197   8.189  0.8179 -0.6486  1.6602
 3369SOL     OW21742   2.159   0.466   9.729  0.3576 -0.3031  0.1839
 3369SOL    HW121743   2.249   0.466   9.698  0.5606  1.0942  0.7596
 3369SOL    HW221744   2.133   0.554   9.700  1.5400  0.4460  1.3806
 3370SOL     OW21745   2.905   3.420   8.157 -0.1330  0.1437  0.6670
 3370SOL    HW121746   2.920   3.326   8.155 -0.8562  0.0728 -1.2460
 3370SOL    HW221747   2.812   3.417   8.134 -0.7553  0.9837  3.0159
 3371SOL     OW21748   1.935   0.826   9.179 -0.1044  0.4092  0.5061
 3371SOL    HW121749   1.947   0.919   9.197 -2.0486  0.7649 -0.0709
 3371SOL    HW221750   2.014   0.784   9.214 -0.4697  1.1546  2.2327
 3372SOL     OW21751   0.531   0.317   2.400 -0.0524  0.2169 -0.0169
 3372SOL    HW121752   0.456   0.333   2.342  0.9010 -1.2242 -1.6684
 3372SOL    HW221753   0.517   0.377   2.473 -0.3682 -0.7524  0.7123
 3373SOL     OW21754   2.793   4.051   7.482  0.1762  0.1652 -0.0910
 3373SOL    HW121755   2.842   4.114   7.535  1.6137 -0.5436 -0.5739
 3373SOL    HW221756   2.769   3.984   7.546  0.2983 -1.1510 -1.4304
 3374SOL     OW21757   0.870   4.226   7.171 -0.3023 -0.1907 -0.0926
 3374SOL    HW121758   0.856   4.225   7.076 -0.5425 -2.0739 -0.0286
 3374SOL    HW221759   0.965   4.222   7.185 -0.4269  1.2737  1.2285
 3375SOL     OW21760   4.091   4.257   7.064 -0.2197 -0.0021 -0.2382
 3375SOL    HW121761   4.135   4.172   7.065 -0.7855 -0.3123 -1.0075
 3375SOL    HW221762   4.058   4.248   6.974 -0.8868 -2.7703  0.2722
 3376SOL     OW21763   2.571   4.185   8.268 -0.2486 -0.4404 -0.2533
 3376SOL    HW121764   2.579   4.280   8.260 -0.6654 -0.5515 -2.1941
 3376SOL    HW221765   2.504   4.164   8.202 -0.1554  1.5308 -0.9954
 3377SOL     OW21766   3.173   3.733   9.218 -0.3977  0.1581 -0.1532
 3377SOL    HW121767   3.260   3.758   9.186  0.5068  0.1610  2.2950
 3377SOL    HW221768   3.126   3.792   9.160 -0.5915 -0.3925 -0.5565
 3378SOL     OW21769   3.785   2.013   0.537 -0.0860  0.0497  0.1707
 3378SOL    HW121770   3.767   2.084   0.599 -0.4881 -0.8311  1.0569
 3378SOL    HW221771   3.872   1.976   0.555 -0.1372  0.4109  1.2043
 3379SOL     OW21772   2.073   0.460   3.834 -0.1834  0.9978 -0.0255
 3379SOL    HW121773   2.141   0.404   3.798 -1.3621 -1.4383  1.5826
 3379SOL    HW221774   2.014   0.391   3.865 -0.2316  1.0503  0.0008
 3380SOL     OW21775   4.704   1.293   6.295  0.4359 -0.3750 -0.1275
 3380SOL    HW121776   0.026   1.231   6.258 -0.8001 -1.2729 -0.7049
 3380SOL    HW221777   4.622   1.253   6.265  0.6585 -0.9773  0.0703
 3381SOL     OW21778   3.709   4.673   3.033 -0.8265 -0.0079  0.7025
 3381SOL    HW121779   3.793   4.680   2.989 -0.3933  2.8806  2.0198
 3381SOL    HW221780   3.643   4.694   2.967  0.9835  2.4882 -0.2881
 3382SOL     OW21781   1.457   2.491   6.097  0.2223 -0.7328  0.4412
 3382SOL    HW121782   1.409   2.439   6.033  0.0694 -1.0151  0.7815
 3382SOL    HW221783   1.517   2.540   6.041 -0.8473  1.8812  1.5424
 3383SOL     OW21784   1.665   2.157   5.314  0.7497 -0.4886 -0.1859
 3383SOL    HW121785   1.747   2.174   5.362  0.5156 -0.6547  0.2693
 3383SOL    HW221786   1.674   2.065   5.291  3.6500  0.1763 -1.7007
 3384SOL     OW21787   2.529   0.426   4.344 -0.0752  0.0604  0.3387
 3384SOL    HW121788   2.500   0.414   4.434 -0.3504 -0.8086  0.1337
 3384SOL    HW221789   2.450   0.382   4.313  0.2198 -0.1502 -0.1139
 3385SOL     OW21790   0.176   2.511  15.056  0.0060 -0.4305 -0.0086
 3385SOL    HW121791   0.113   2.492  15.126 -0.5332  1.5081  0.0260
 3385SOL    HW221792   0.121   2.558  14.993  0.6273 -2.2131 -1.8895
 3386SOL     OW21793   0.447   1.527   6.687  0.4929 -0.2503 -0.2655
 3386SOL    HW121794   0.410   1.571   6.764 -3.4876 -1.6330 -1.3918
 3386SOL    HW221795   0.442   1.441   6.729 -0.5050 -0.0756 -0.0316
 3387SOL     OW21796   4.131   0.385  11.900 -0.2159 -0.2958  0.3695
 3387SOL    HW121797   4.214   0.429  11.880 -0.7078  1.1225  1.4388
 3387SOL    HW221798   4.127   0.317  11.833 -0.6565  1.4907 -1.4166
 3388SOL     OW21799   0.134   2.087   7.421  0.5672  0.3883 -0.4615
 3388SOL    HW121800   0.162   1.996   7.416  0.0083  0.2616 -1.5262
 3388SOL    HW221801   0.180   2.131   7.350 -1.6334  0.8290 -1.6285
 3389SOL     OW21802   1.067   0.184  12.799 -0.1237  0.4803 -0.3784
 3389SOL    HW121803   1.078   0.121  12.728 -3.5026  0.3353 -0.7893
 3389SOL    HW221804   0.971   0.184  12.809 -0.0463  0.2865  0.3763
 3390SOL     OW21805   3.489   1.722   1.254 -0.2849 -0.2369 -0.5685
 3390SOL    HW121806   3.417   1.682   1.205  0.0515 -2.8788  1.1088
 3390SOL    HW221807   3.449   1.808   1.268  0.3123  0.1443 -1.1189
 3391SOL     OW21808   3.938   3.494   6.900  1.0500  0.0266  0.6857
 3391SOL    HW121809   3.953   3.473   6.808 -1.4881  1.0412  0.0376
 3391SOL    HW221810   3.842   3.495   6.904  0.9318  1.8478 -2.4438
 3392SOL     OW21811   3.051   1.065  17.459 -0.0947 -0.1620 -0.7372
 3392SOL    HW121812   3.014   1.146  17.424 -0.2202  0.0220 -0.1799
 3392SOL    HW221813   3.088   1.050  17.372  2.6245  1.6576  0.0884
 3393SOL     OW21814   2.165   3.852   1.406  0.7590 -0.1811  0.2575
 3393SOL    HW121815   2.142   3.920   1.469 -0.5056  0.2619 -0.6840
 3393SOL    HW221816   2.192   3.907   1.332  0.2610 -2.0256 -1.2884
 3394SOL     OW21817   3.295   1.058   9.397  0.6431  0.3441  0.0426
 3394SOL    HW121818   3.237   1.100   9.334  1.8193 -1.1921 -2.0991
 3394SOL    HW221819   3.279   1.098   9.482  1.2184  0.1976  0.2228
 3395SOL     OW21820   2.505   1.777   0.144  0.2196 -0.2649 -0.1605
 3395SOL    HW121821   2.580   1.795   0.201  1.7157 -1.7941 -1.6389
 3395SOL    HW221822   2.472   1.694   0.176 -1.8652  0.9072  0.7258
 3396SOL     OW21823   3.300   2.752   7.558 -0.0746 -0.1222 -0.2955
 3396SOL    HW121824   3.348   2.729   7.479 -2.4794  0.0856 -1.8010
 3396SOL    HW221825   3.373   2.802   7.594  0.1392 -0.8158  0.2325
 3397SOL     OW21826   3.680   1.407  11.273 -0.3810 -0.2255  0.7689
 3397SOL    HW121827   3.654   1.317  11.253  2.5848 -0.8156 -0.2978
 3397SOL    HW221828   3.769   1.410  11.239 -1.3089  1.1282 -1.6251
 3398SOL     OW21829   3.500   3.744   2.167  0.5657 -0.2732  0.0512
 3398SOL    HW121830   3.550   3.798   2.227 -2.3581 -1.5503  3.6140
 3398SOL    HW221831   3.573   3.691   2.135 -1.6100 -2.7459 -0.8561
 3399SOL     OW21832   4.381   3.649   1.720  0.0146  0.1197 -0.0802
 3399SOL    HW121833   4.373   3.697   1.802  0.4604  0.7674 -0.4230
 3399SOL    HW221834   4.383   3.561   1.759  2.1425 -0.5559 -1.7322
 3400SOL     OW21835   2.929   0.078   7.617 -0.0910 -0.3845  0.1117
 3400SOL    HW121836   2.952   0.170   7.625 -0.8405  0.0745 -2.9725
 3400SOL    HW221837   2.886   0.077   7.531  0.8775 -1.6341 -0.3707
 3401SOL     OW21838   3.494   2.978   3.997  0.2782 -0.0415  0.8807
 3401SOL    HW121839   3.425   2.913   4.003  1.4237 -1.2398  1.0626
 3401SOL    HW221840   3.443   3.046   3.954  0.3422 -1.3663 -1.2959
 3402SOL     OW21841   2.996   3.342  16.330 -0.4218 -0.7247  0.2792
 3402SOL    HW121842   3.014   3.392  16.409  0.2260  2.4045 -1.8588
 3402SOL    HW221843   3.033   3.254  16.336  0.8358 -0.2193 -0.1288
 3403SOL     OW21844   1.599   1.857   1.924  0.0684  0.1697 -0.6884
 3403SOL    HW121845   1.655   1.934   1.923  1.2257 -0.6388  2.1186
 3403SOL    HW221846   1.517   1.906   1.917 -0.7249 -1.0086  0.3450
 3404SOL     OW21847   0.847   0.390   8.919  0.5020  0.0086 -0.0692
 3404SOL    HW121848   0.825   0.438   8.999  3.3254 -0.3491  0.9100
 3404SOL    HW221849   0.765   0.394   8.869  0.0528 -1.6555  0.5113
 3405SOL     OW21850   4.272   2.808  14.643  0.1182  0.4522  0.0709
 3405SOL    HW121851   4.278   2.861  14.722 -0.8853  0.7268 -0.0518
 3405SOL    HW221852   4.346   2.837  14.589  0.0000  2.8893  1.2571
 3406SOL     OW21853   2.833   1.954  15.966  0.1873  0.0179  0.6204
 3406SOL    HW121854   2.772   1.975  15.896  0.5884 -0.5703  0.0935
 3406SOL    HW221855   2.780   1.984  16.039 -2.4587 -0.3236 -1.1515
 3407SOL     OW21856   2.665   2.337   6.349  0.3873  0.4403  0.1777
 3407SOL    HW121857   2.626   2.405   6.404 -2.2730 -1.9107  1.1844
 3407SOL    HW221858   2.681   2.390   6.271 -1.0292 -1.8471 -1.6767
 3408SOL     OW21859   4.284   4.354   7.525 -0.0763  0.0336  0.7512
 3408SOL    HW121860   4.375   4.331   7.505 -0.2134  0.6038 -0.5841
 3408SOL    HW221861   4.261   4.392   7.440 -1.0960 -4.3078 -0.9154
 3409SOL     OW21862   3.933   4.223   2.319 -0.0163 -0.2998 -0.4365
 3409SOL    HW121863   3.920   4.152   2.256 -0.2515 -0.6617  0.0189
 3409SOL    HW221864   3.876   4.282   2.271 -0.2375 -0.4701 -0.3800
 3410SOL     OW21865   4.107   0.730   3.287 -0.7616 -0.6919  0.3002
 3410SOL    HW121866   4.083   0.644   3.320  0.2435 -1.4078 -0.8216
 3410SOL    HW221867   4.158   0.764   3.360  0.2309 -1.2193 -0.1574
 3411SOL     OW21868   0.214   2.183   3.826  0.8888  0.2851 -0.2707
 3411SOL    HW121869   0.301   2.146   3.845  0.1775 -0.3196  1.8625
 3411SOL    HW221870   0.162   2.137   3.892  0.1629 -0.8876 -1.6519
 3412SOL     OW21871   1.529   2.611  11.289  0.7199  0.3183  0.2986
 3412SOL    HW121872   1.520   2.600  11.383 -0.5469  1.9968  0.3901
 3412SOL    HW221873   1.527   2.707  11.291  2.2156  0.3830 -1.3816
 3413SOL     OW21874   1.238   0.907   9.321 -0.0992  0.3300  0.2171
 3413SOL    HW121875   1.236   1.002   9.315 -1.6854  0.1899 -1.1968
 3413SOL    HW221876   1.198   0.870   9.242  2.1906 -1.3036 -0.1954
 3414SOL     OW21877   3.192   2.832   2.235 -0.4759 -0.1994  0.4853
 3414SOL    HW121878   3.256   2.766   2.208 -2.3234 -2.9047  2.5943
 3414SOL    HW221879   3.130   2.831   2.162  0.3904 -1.4675 -0.2476
 3415SOL     OW21880   3.715   0.444   0.581  0.2426 -0.0113 -0.3003
 3415SOL    HW121881   3.788   0.506   0.585 -0.4818  0.8799 -1.1599
 3415SOL    HW221882   3.759   0.359   0.583 -2.9038 -1.5973  2.6288
 3416SOL     OW21883   1.065   3.735   5.348  0.1829 -0.6305 -0.0924
 3416SOL    HW121884   1.118   3.709   5.272  0.3222  1.6117 -0.7552
 3416SOL    HW221885   1.126   3.716   5.420 -0.5150 -0.2853  0.5824
 3417SOL     OW21886   1.341   2.227   8.686 -0.3769 -0.1242 -0.5604
 3417SOL    HW121887   1.287   2.306   8.673 -1.0434 -1.0961 -3.6609
 3417SOL    HW221888   1.366   2.229   8.778  1.7613  1.0077 -1.1611
 3418SOL     OW21889   4.239   0.375   3.230 -0.2443 -0.5372  0.3677
 3418SOL    HW121890   4.332   0.367   3.250 -0.1593  2.3247  1.1139
 3418SOL    HW221891   4.243   0.318   3.153 -2.2779 -0.6413  0.3382
 3419SOL     OW21892   3.600   1.652   8.904 -0.6456 -0.3738  0.2471
 3419SOL    HW121893   3.567   1.651   8.994  0.3589  0.4616  0.6169
 3419SOL    HW221894   3.680   1.704   8.911 -1.6831  1.2203  0.1600
 3420SOL     OW21895   4.000   0.900  14.179  0.3596 -0.4974  0.5222
 3420SOL    HW121896   4.074   0.850  14.144 -0.4075  0.0792 -1.9253
 3420SOL    HW221897   3.928   0.871  14.123  0.7168 -0.6007  0.1145
 3421SOL     OW21898   2.252   1.555   1.773 -0.1528 -0.2421  0.0288
 3421SOL    HW121899   2.328   1.583   1.723 -0.0418 -0.8180 -0.1285
 3421SOL    HW221900   2.193   1.630   1.780 -2.0802 -1.5220 -2.3283
 3422SOL     OW21901   4.365   1.311   7.276  0.2676 -0.1759  0.3594
 3422SOL    HW121902   4.271   1.316   7.257  0.0202 -3.9521  0.6209
 3422SOL    HW221903   4.364   1.216   7.264 -1.1668 -0.4131  2.5370
 3423SOL     OW21904   1.608   0.211   3.128  0.0939 -0.5418 -0.2347
 3423SOL    HW121905   1.530   0.178   3.083  0.1246  0.4561 -1.0161
 3423SOL    HW221906   1.643   0.270   3.062  1.9658  1.7614  2.8154
 3424SOL     OW21907   2.143   1.106  17.522 -0.2208 -0.2732  0.2456
 3424SOL    HW121908   2.186   1.021  17.528  1.1772  0.4442  0.2768
 3424SOL    HW221909   2.162   1.130  17.612  0.6268 -0.8732  0.2256
 3425SOL     OW21910   4.466   0.729   3.241 -0.1720 -0.0841  0.2851
 3425SOL    HW121911   4.546   0.780   3.258  0.6244 -1.0084 -0.6957
 3425SOL    HW221912   4.467   0.713   3.147 -0.1760  1.3364  0.0417
 3426SOL     OW21913   0.168   3.828   6.071  0.4092  0.1171  0.2707
 3426SOL    HW121914   0.099   3.832   6.005  0.7346 -0.9808 -0.1368
 3426SOL    HW221915   0.113   3.851   6.146  1.4047 -0.4249  1.1734
 3427SOL     OW21916   4.310   3.901   6.735 -0.2274  0.3753 -0.1399
 3427SOL    HW121917   4.370   3.966   6.772  2.0684 -1.9300  0.2562
 3427SOL    HW221918   4.299   3.838   6.806 -1.6415  1.8340  0.9403
 3428SOL     OW21919   2.953   1.913   7.353  0.3189  0.1448 -0.2480
 3428SOL    HW121920   2.979   1.917   7.261  2.0566  0.6975  0.2681
 3428SOL    HW221921   2.907   1.996   7.362  2.2449  1.0587  1.0671
 3429SOL     OW21922   4.143   0.078   9.850  0.4827 -0.8700 -0.2858
 3429SOL    HW121923   4.233   0.047   9.839  1.6197  1.4127  2.4487
 3429SOL    HW221924   4.161   0.162   9.894  2.3231 -0.2695 -2.1632
 3430SOL     OW21925   0.082   4.192   4.873  0.1086  0.4736  0.1691
 3430SOL    HW121926   0.156   4.252   4.882 -0.5391  1.1099  1.2458
 3430SOL    HW221927   0.067   4.165   4.963 -2.6953  1.2741 -0.0640
 3431SOL     OW21928   4.624   1.425  11.434 -0.0002  0.1689  0.5238
 3431SOL    HW121929   4.666   1.510  11.416 -0.9094  0.4573 -0.2354
 3431SOL    HW221930   4.651   1.409  11.525  0.8969  1.0465  0.4183
 3432SOL     OW21931   1.319   0.406  13.880 -0.1479 -0.2130 -0.0243
 3432SOL    HW121932   1.381   0.471  13.846 -1.1201  1.4611  1.3767
 3432SOL    HW221933   1.347   0.425  13.969  2.0517 -2.7605 -0.1893
 3433SOL     OW21934   0.398   0.214   7.010 -0.1834  0.2427 -0.4305
 3433SOL    HW121935   0.387   0.245   6.921 -1.0344 -1.2139 -0.8312
 3433SOL    HW221936   0.487   0.182   7.022 -0.0361  1.6205  2.1874
 3434SOL     OW21937   0.589   3.834  15.444 -0.0383  0.3875 -0.2113
 3434SOL    HW121938   0.552   3.745  15.446 -1.9944  1.2055  0.4710
 3434SOL    HW221939   0.616   3.839  15.536 -1.0227  0.6529  0.0621
 3435SOL     OW21940   0.116   1.295  12.304  0.0142 -0.0974  0.0164
 3435SOL    HW121941   0.031   1.272  12.266 -1.5910  0.8075  2.9871
 3435SOL    HW221942   0.094   1.387  12.321  0.2304  0.0598 -0.5789
 3436SOL     OW21943   0.647   4.624   6.886  0.2525  0.3338 -0.1656
 3436SOL    HW121944   0.634   4.644   6.793 -1.8689  0.4058  0.1535
 3436SOL    HW221945   0.741   4.644   6.886  0.9947 -3.1018  0.4073
 3437SOL     OW21946   2.139   1.747   4.273  0.7132  0.3649  0.1036
 3437SOL    HW121947   2.191   1.706   4.342  2.2605  0.3583 -1.0565
 3437SOL    HW221948   2.162   1.838   4.292 -3.0915  1.0519  1.4543
 3438SOL     OW21949   3.746   2.396   8.787 -0.2805 -0.9374 -0.2357
 3438SOL    HW121950   3.725   2.461   8.720  1.0477 -0.4626 -0.1826
 3438SOL    HW221951   3.724   2.315   8.741  0.5520 -2.0810  1.3957
 3439SOL     OW21952   1.786   3.492   2.198 -0.2616 -0.3795 -0.0444
 3439SOL    HW121953   1.754   3.404   2.217 -0.4930  0.4225  3.1977
 3439SOL    HW221954   1.874   3.480   2.164  0.5941 -2.1979  2.8256
 3440SOL     OW21955   0.973   1.503   8.939  0.3160 -0.0068 -0.0202
 3440SOL    HW121956   0.884   1.467   8.939  0.2501  0.1725  1.8684
 3440SOL    HW221957   0.989   1.507   9.033  2.3446  2.1084 -0.4722
 3441SOL     OW21958   0.140   0.224   8.190  0.1482 -0.5271 -0.5830
 3441SOL    HW121959   0.133   0.163   8.263  1.3979  0.0252 -0.0133
 3441SOL    HW221960   0.182   0.301   8.227  0.8312  0.2440 -2.9132
 3442SOL     OW21961   1.494   3.685  14.099 -0.3387 -0.2599 -0.8218
 3442SOL    HW121962   1.411   3.638  14.096 -0.5443  0.1663 -1.6737
 3442SOL    HW221963   1.482   3.741  14.023 -0.5373  0.0204 -0.5801
 3443SOL     OW21964   2.390   0.867   0.523 -0.3787  0.2369 -0.1472
 3443SOL    HW121965   2.355   0.957   0.526  0.9818  0.8071 -1.9053
 3443SOL    HW221966   2.424   0.889   0.437 -2.9016  0.0416 -1.2121
 3444SOL     OW21967   0.277   4.284   2.856  0.4511  0.4983  0.2487
 3444SOL    HW121968   0.305   4.286   2.947  0.7149  0.4458  0.1682
 3444SOL    HW221969   0.348   4.230   2.822 -0.0008  0.5812 -0.8480
 3445SOL     OW21970   0.174   1.704  10.427 -0.0265  0.3864 -0.3578
 3445SOL    HW121971   0.252   1.654  10.452  0.6899  1.3254 -0.7074
 3445SOL    HW221972   0.167   1.753  10.509 -0.1781 -0.6243  0.2393
 3446SOL     OW21973   3.403   1.745   8.423 -0.2295  0.1979  0.5298
 3446SOL    HW121974   3.344   1.786   8.486  1.5791  1.3924  1.4185
 3446SOL    HW221975   3.426   1.663   8.467 -0.4586 -0.3772 -0.4116
 3447SOL     OW21976   0.035   2.543   7.869  0.7624 -0.2606  0.0230
 3447SOL    HW121977   0.129   2.562   7.861  1.2730 -0.6279  4.7504
 3447SOL    HW221978   0.028   2.529   7.964 -1.7279  0.0458 -0.1311
 3448SOL     OW21979   0.386   2.967   7.213  0.1327  0.5370 -0.1388
 3448SOL    HW121980   0.400   3.021   7.290 -0.5765  1.7276 -0.8470
 3448SOL    HW221981   0.315   2.906   7.234 -1.7104  3.3150  1.7527
 3449SOL     OW21982   2.004   4.477   8.927  0.1182 -0.2926  0.4446
 3449SOL    HW121983   1.911   4.493   8.913  0.5133 -0.2084 -2.1172
 3449SOL    HW221984   2.012   4.383   8.913  1.4905  0.1614 -1.9265
 3450SOL     OW21985   3.709   4.687  15.636 -0.3328  1.1374  0.0896
 3450SOL    HW121986   3.764   0.019  15.605 -1.9739  0.3754 -4.5513
 3450SOL    HW221987   3.627   4.731  15.657 -0.3618  0.7448  0.7918
 3451SOL     OW21988   2.115   1.955   1.950  0.1402 -0.6267  0.6295
 3451SOL    HW121989   2.149   1.935   2.037  0.1086 -0.6518  0.6365
 3451SOL    HW221990   2.196   1.992   1.915  0.1366 -1.5481 -0.3584
 3452SOL     OW21991   0.085   0.042   9.178  0.2996  0.2404  0.4037
 3452SOL    HW121992   0.005   0.022   9.226 -0.1774 -1.1020 -0.9379
 3452SOL    HW221993   0.131   4.698   9.166 -0.4509 -0.0771 -0.3146
 3453SOL     OW21994   4.390   2.391   6.221  0.2686 -0.1582  0.4428
 3453SOL    HW121995   4.363   2.483   6.212 -0.6755 -0.5691 -0.7240
 3453SOL    HW221996   4.428   2.396   6.309  1.2998 -1.9805  0.0947
 3454SOL     OW21997   1.576   2.656   1.743  0.1542  0.0046 -0.2749
 3454SOL    HW121998   1.523   2.733   1.765 -1.4081 -1.0542 -0.3302
 3454SOL    HW221999   1.552   2.642   1.651  0.4169 -1.2911 -0.1445
 3455SOL     OW22000   2.276   2.704   1.948 -0.0238 -0.7341 -0.0694
 3455SOL    HW122001   2.297   2.710   1.855  0.8593 -0.2814  0.1573
 3455SOL    HW222002   2.337   2.772   1.977  2.2774 -2.1752 -1.6150
 3456SOL     OW22003   1.635   4.725   0.943  0.6068 -0.9040 -0.2411
 3456SOL    HW122004   1.718   0.032   0.943  0.4965 -0.7029  0.3565
 3456SOL    HW222005   1.586   0.062   0.972  0.9957 -0.3801 -0.9831
 3457SOL     OW22006   4.195   1.694   5.085  1.0191  0.0042 -0.0797
 3457SOL    HW122007   4.248   1.737   5.018  1.3721  1.0911  0.8902
 3457SOL    HW222008   4.185   1.773   5.139  0.0297  0.9689 -1.6734
 3458SOL     OW22009   0.202   4.569  17.422  0.1076 -0.2610  0.2197
 3458SOL    HW122010   0.288   4.569  17.464  0.7787 -0.4507 -1.1798
 3458SOL    HW222011   0.149   4.620  17.483  0.7739 -0.4841  0.9839
 3459SOL     OW22012   2.920   2.276   3.270 -0.0234  0.0238  0.1461
 3459SOL    HW122013   2.974   2.251   3.344  0.5961  1.5552  0.2101
 3459SOL    HW222014   2.845   2.219   3.286 -0.2176 -0.0408 -1.0081
 3460SOL     OW22015   3.342   3.487  16.412 -0.1834  0.7978 -0.0917
 3460SOL    HW122016   3.430   3.488  16.375  0.6495 -0.2721  1.9167
 3460SOL    HW222017   3.309   3.412  16.361  0.0973  0.0797  0.7848
 3461SOL     OW22018   1.078   3.805   3.095 -0.0765  0.2368  0.2505
 3461SOL    HW122019   1.110   3.826   3.183 -1.9020  1.2026  0.6697
 3461SOL    HW222020   1.018   3.733   3.113 -1.1394  0.7114 -1.4291
 3462SOL     OW22021   2.466   3.341  15.052 -0.0013 -0.0154 -0.7456
 3462SOL    HW122022   2.499   3.370  15.137  1.3971 -0.8007 -1.0238
 3462SOL    HW222023   2.532   3.281  15.017  0.0514  0.5086 -1.5465
 3463SOL     OW22024   2.930   4.633   2.018  0.3546  0.1274  0.4551
 3463SOL    HW122025   2.983   4.706   2.050 -0.7991  0.5742  1.3482
 3463SOL    HW222026   2.994   4.589   1.962  1.2493  0.8628  0.8891
 3464SOL     OW22027   0.193   2.514   6.340  0.3917  0.1220 -0.5507
 3464SOL    HW122028   0.159   2.574   6.407 -0.2902 -1.5356  0.5906
 3464SOL    HW222029   0.149   2.558   6.267  0.8874  0.7909 -0.4434
 3465SOL     OW22030   0.585   0.627   4.457 -0.1785  0.6559 -0.0351
 3465SOL    HW122031   0.507   0.570   4.459  0.1330  0.1489 -1.8007
 3465SOL    HW222032   0.648   0.560   4.431 -1.5914 -0.4204 -0.7494
 3466SOL     OW22033   0.296   0.381   4.210 -0.0220  0.0452 -0.0987
 3466SOL    HW122034   0.207   0.396   4.179 -0.7008  1.1747  2.4984
 3466SOL    HW222035   0.326   0.314   4.147  0.6743  1.2741 -1.0794
 3467SOL     OW22036   2.364   4.423   5.293 -0.0205  0.3118 -0.0903
 3467SOL    HW122037   2.317   4.440   5.374  1.9565  1.8052  0.7353
 3467SOL    HW222038   2.294   4.453   5.235 -0.2337 -0.1372 -0.0704
 3468SOL     OW22039   1.486   2.736   1.494 -0.4285  0.1386  0.2475
 3468SOL    HW122040   1.557   2.729   1.430  1.5658 -1.5384  2.6375
 3468SOL    HW222041   1.475   2.831   1.488  0.4220  0.2141 -0.0960
 3469SOL     OW22042   3.975   1.872  10.101  0.4052 -0.4759  0.2182
 3469SOL    HW122043   4.009   1.850  10.188 -0.0615  0.4190  0.6332
 3469SOL    HW222044   4.029   1.814  10.048 -0.9709  1.1019 -2.8775
 3470SOL     OW22045   3.005   0.271  11.886  0.0903 -0.0402 -0.0478
 3470SOL    HW122046   2.922   0.284  11.932 -0.7832  0.3661 -1.7489
 3470SOL    HW222047   3.015   0.176  11.891  3.3828  0.4146  2.4619
 3471SOL     OW22048   4.077   3.871  17.672 -0.5673 -0.6543  0.2635
 3471SOL    HW122049   4.001   3.897  17.723 -2.4000 -2.9278 -1.3350
 3471SOL    HW222050   4.143   3.868  17.741 -0.7829 -2.9223  0.3757
 3472SOL     OW22051   0.933   1.982  17.697 -0.4237 -0.0335 -0.1402
 3472SOL    HW122052   0.996   1.992  17.626 -2.8820  0.6906 -2.2253
 3472SOL    HW222053   0.916   1.888  17.695 -3.6567  0.5164  0.4919
 3473SOL     OW22054   1.031   0.673   6.351 -0.9792  0.4237  0.1084
 3473SOL    HW122055   1.007   0.760   6.384 -0.1591 -0.1190  2.1665
 3473SOL    HW222056   1.015   0.617   6.428  1.7635 -0.0413  0.3497
 3474SOL     OW22057   4.606   1.562   6.210 -0.1010 -0.1909 -0.0468
 3474SOL    HW122058   4.527   1.530   6.255 -0.5473  0.3468 -0.4449
 3474SOL    HW222059   4.653   1.480   6.225  1.9478  1.4726  2.5049
 3475SOL     OW22060   1.303   1.079   4.958 -0.5482  0.2652 -0.7542
 3475SOL    HW122061   1.261   0.993   4.950 -1.4824  0.5808  0.8734
 3475SOL    HW222062   1.385   1.063   5.003 -0.9730 -1.2124 -0.5116
 3476SOL     OW22063   0.031   2.668   1.917 -0.1069 -0.1507 -0.4741
 3476SOL    HW122064   0.019   2.574   1.907 -0.2681 -0.4671  2.5297
 3476SOL    HW222065   0.125   2.664   1.935 -0.4149  0.6370  1.3559
 3477SOL     OW22066   4.211   2.389   8.054  0.1219 -0.0796 -0.0980
 3477SOL    HW122067   4.176   2.356   7.972 -1.2570 -0.3004  0.5760
 3477SOL    HW222068   4.219   2.483   8.039  2.1444  0.1152  2.0909
 3478SOL     OW22069   3.570   0.898   5.657 -0.0368  0.3909  0.5374
 3478SOL    HW122070   3.497   0.841   5.681 -1.5860  2.1928  0.1310
 3478SOL    HW222071   3.522   0.981   5.659  0.5932  0.7778 -0.4199
 3479SOL     OW22072   0.658   3.961   5.710 -0.2007  0.5182  0.2331
 3479SOL    HW122073   0.584   3.912   5.674  0.4364  0.6942 -1.3358
 3479SOL    HW222074   0.703   3.994   5.632 -1.2691  1.4934  0.0224
 3480SOL     OW22075   3.950   1.146   5.907 -0.6778  0.0520  0.0914
 3480SOL    HW122076   3.940   1.077   5.841  0.9658  0.7298 -0.8592
 3480SOL    HW222077   3.960   1.222   5.850  2.3905 -1.0755 -0.8767
 3481SOL     OW22078   1.397   4.558   4.146  0.0496  0.4022  0.2407
 3481SOL    HW122079   1.386   4.652   4.128 -0.4017 -0.2822 -2.9727
 3481SOL    HW222080   1.306   4.540   4.125  0.3888  0.2936 -1.1793
 3482SOL     OW22081   2.984   0.407   5.677  0.0837 -0.6458 -0.2098
 3482SOL    HW122082   3.016   0.347   5.745 -1.1561  0.0675  1.0099
 3482SOL    HW222083   3.011   0.368   5.594 -1.4852  2.4191 -2.1263
 3483SOL     OW22084   1.702   4.358   5.808 -0.0705 -0.6690  0.1907
 3483SOL    HW122085   1.683   4.388   5.897 -0.8880 -1.9363  0.4357
 3483SOL    HW222086   1.768   4.292   5.826  2.4066  2.5248  2.9082
 3484SOL     OW22087   0.452   3.921   4.954  0.0165  0.4562  0.0649
 3484SOL    HW122088   0.512   3.947   5.025  0.2574 -2.7029  1.0167
 3484SOL    HW222089   0.515   3.920   4.883 -2.3776 -0.4059 -2.0316
 3485SOL     OW22090   0.044   0.826   5.491 -0.0050  0.1013  0.2366
 3485SOL    HW122091   0.074   0.872   5.412 -0.8503 -1.7464 -1.1386
 3485SOL    HW222092   0.115   0.842   5.553 -0.9212  2.1798  0.7596
 3486SOL     OW22093   1.006   1.287   9.139 -0.7039  0.0841 -0.5425
 3486SOL    HW122094   0.983   1.297   9.232  0.5296 -0.5288 -0.1761
 3486SOL    HW222095   1.045   1.373   9.124 -0.6161 -0.0212 -0.9023
 3487SOL     OW22096   4.047   3.704  15.811 -0.5040 -0.9884  0.4438
 3487SOL    HW122097   3.993   3.625  15.821  1.5519 -2.2533  1.4811
 3487SOL    HW222098   4.057   3.730  15.903 -0.4520 -0.9995  0.4415
 3488SOL     OW22099   1.430   1.553   4.190 -0.1555  0.3852  0.6684
 3488SOL    HW122100   1.477   1.591   4.115  1.6964 -1.3426  0.9530
 3488SOL    HW222101   1.479   1.477   4.220  0.0031 -1.0242 -3.1255
 3489SOL     OW22102   1.238   1.823   2.948 -0.6141 -0.4801 -0.7269
 3489SOL    HW122103   1.267   1.732   2.942  0.8198 -0.0713 -0.0660
 3489SOL    HW222104   1.187   1.826   3.030  1.3563  1.2456  0.4480
 3490SOL     OW22105   4.477   3.036   2.991 -0.5024  0.0325  0.2818
 3490SOL    HW122106   4.428   3.088   3.054 -1.3815  0.3412 -0.6707
 3490SOL    HW222107   4.540   3.099   2.957 -0.6439 -1.1522 -2.2020
 3491SOL     OW22108   3.398   2.892   4.354 -0.1263  0.2607 -0.7880
 3491SOL    HW122109   3.320   2.915   4.304 -0.5279 -0.1620 -0.3557
 3491SOL    HW222110   3.427   2.978   4.385  2.1416 -1.8708  3.1092
 3492SOL     OW22111   4.282   0.877  14.055  0.1581  0.1544  0.1522
 3492SOL    HW122112   4.330   0.887  13.972  0.8773  1.3605  0.7136
 3492SOL    HW222113   4.284   0.965  14.092 -2.9060  0.5278 -0.6330
 3493SOL     OW22114   2.795   0.624   0.483 -0.1632 -0.7422  0.0978
 3493SOL    HW122115   2.710   0.663   0.459  0.4285  0.2526 -0.3684
 3493SOL    HW222116   2.816   0.638   0.575  3.4456 -1.3054 -0.6736
 3494SOL     OW22117   0.581   3.253   5.188 -0.0635 -0.5657 -0.3999
 3494SOL    HW122118   0.581   3.330   5.131  0.0996 -0.8082 -0.7241
 3494SOL    HW222119   0.540   3.287   5.268  1.6188  0.0725  0.1985
 3495SOL     OW22120   3.675   1.774   6.425 -0.0476  0.6401 -0.1277
 3495SOL    HW122121   3.766   1.787   6.450 -0.8967  3.1944  1.7253
 3495SOL    HW222122   3.680   1.711   6.354  0.2294 -1.0004  1.3357
 3496SOL     OW22123   3.968   1.939  10.577  0.3884  0.1578 -0.4292
 3496SOL    HW122124   4.044   1.880  10.580 -0.4620 -0.8466  1.1553
 3496SOL    HW222125   3.974   1.960  10.670  1.6429 -0.8292 -0.2900
 3497SOL     OW22126   3.864   3.773   9.003 -0.2861 -0.3899  0.1214
 3497SOL    HW122127   3.930   3.788   8.934  0.1672 -1.8970  0.2425
 3497SOL    HW222128   3.866   3.680   9.024  2.7391  0.2222  2.4850
 3498SOL     OW22129   1.099   3.042   6.760 -0.8243 -0.0418 -0.1862
 3498SOL    HW122130   1.149   2.998   6.829 -2.5467  1.3820  1.9713
 3498SOL    HW222131   1.118   3.131   6.790 -0.0086 -0.2787 -0.0195
 3499SOL     OW22132   2.854   3.424   2.672  0.2793  0.0008 -0.2230
 3499SOL    HW122133   2.914   3.494   2.694  2.1295 -1.6236 -0.0714
 3499SOL    HW222134   2.867   3.378   2.755  0.5082  1.1579  0.3671
 3500SOL     OW22135   3.595   3.891   1.681 -0.4063 -0.2569  0.3038
 3500SOL    HW122136   3.542   3.887   1.602  1.3686  0.5008 -0.9437
 3500SOL    HW222137   3.570   3.807   1.720 -0.4625 -0.0173  0.7869
 3501SOL     OW22138   0.844   0.444   3.690  0.4682 -0.6707  0.6557
 3501SOL    HW122139   0.821   0.512   3.753 -2.0261  2.1415 -3.2863
 3501SOL    HW222140   0.931   0.477   3.670  1.3286 -4.1580 -1.4305
 3502SOL     OW22141   3.171   1.639   4.783  0.2021 -0.0164  0.5356
 3502SOL    HW122142   3.200   1.556   4.821  0.3597 -0.2239 -0.0400
 3502SOL    HW222143   3.159   1.618   4.691  2.4373 -1.7750  0.6470
 3503SOL     OW22144   3.560   3.594  11.085  0.0605 -0.0768 -0.4242
 3503SOL    HW122145   3.528   3.650  11.156 -1.2262 -0.4821 -0.6863
 3503SOL    HW222146   3.536   3.651  11.012 -0.4901  0.2027 -0.0231
 3504SOL     OW22147   2.858   4.202  11.248 -0.0484  0.6181 -0.6262
 3504SOL    HW122148   2.867   4.229  11.156 -0.5127  2.7840 -0.0516
 3504SOL    HW222149   2.941   4.229  11.287 -0.3647 -0.3693  0.7123
 3505SOL     OW22150   2.767   4.345   1.177 -0.0535  0.2039  0.7480
 3505SOL    HW122151   2.732   4.429   1.206  0.5100 -0.5613  3.5957
 3505SOL    HW222152   2.684   4.309   1.143  0.5427 -1.4725  1.0413
 3506SOL     OW22153   0.621   3.999   5.156 -0.4274  0.4983 -0.3494
 3506SOL    HW122154   0.577   3.931   5.207 -0.3591 -0.1795 -1.2023
 3506SOL    HW222155   0.711   4.007   5.187  0.2829  0.3963 -2.4273
 3507SOL     OW22156   0.857   3.566  14.649  0.6896  0.2900  0.8764
 3507SOL    HW122157   0.829   3.480  14.682 -1.7767  1.4475  1.8367
 3507SOL    HW222158   0.807   3.564  14.567 -1.6217  2.0557  2.2216
 3508SOL     OW22159   2.623   1.747   7.887 -0.2308  0.2060 -0.3794
 3508SOL    HW122160   2.697   1.807   7.880  1.0366 -1.2865  0.1760
 3508SOL    HW222161   2.666   1.663   7.869  0.7031  0.1863  1.8749
 3509SOL     OW22162   2.181   2.596  11.844 -0.9470  0.3717  0.1489
 3509SOL    HW122163   2.154   2.579  11.935 -1.3911 -1.3829 -0.2992
 3509SOL    HW222164   2.264   2.644  11.854  0.4302 -1.8315 -0.5271
 3510SOL     OW22165   1.759   0.506   8.181  0.3949 -0.5164 -0.2372
 3510SOL    HW122166   1.757   0.487   8.275 -0.2289  0.4954 -0.0351
 3510SOL    HW222167   1.771   0.601   8.171  0.8389 -0.4462  0.9434
 3511SOL     OW22168   1.832   1.344   2.814  0.0365  0.3075  0.2298
 3511SOL    HW122169   1.769   1.324   2.745  2.4307 -2.0605 -1.3026
 3511SOL    HW222170   1.885   1.413   2.773 -1.8376  1.0918 -0.8545
 3512SOL     OW22171   3.056   1.695  10.862  0.2614  0.3632  0.1973
 3512SOL    HW122172   3.024   1.606  10.847 -2.2915  1.4450 -0.6743
 3512SOL    HW222173   2.980   1.753  10.857 -0.0195 -0.0052  0.1898
 3513SOL     OW22174   1.619   2.540   5.367 -0.1785  0.3554  0.2028
 3513SOL    HW122175   1.528   2.565   5.383 -1.4012 -1.7077 -3.4466
 3513SOL    HW222176   1.616   2.486   5.288 -0.9992  2.3276 -1.1038
 3514SOL     OW22177   2.608   3.574  12.469 -0.1175  0.0889  0.1804
 3514SOL    HW122178   2.593   3.546  12.559  0.4012 -3.1138 -0.7329
 3514SOL    HW222179   2.686   3.523  12.449 -1.9074 -2.1850 -0.9768
 3515SOL     OW22180   1.917   0.313  15.959  0.5325  0.3673  0.4964
 3515SOL    HW122181   1.894   0.401  15.928 -1.3513 -0.8242 -1.4865
 3515SOL    HW222182   1.826   0.285  15.971  0.2546  1.1521  0.2174
 3516SOL     OW22183   0.912   4.731   6.850 -0.0143  0.3009  0.4006
 3516SOL    HW122184   0.890   4.735   6.757 -1.5446 -2.2347  0.6737
 3516SOL    HW222185   0.988   0.049   6.844  0.7456 -0.7104  0.2569
 3517SOL     OW22186   3.563   4.118   4.849 -0.0462  0.2033 -0.6955
 3517SOL    HW122187   3.647   4.161   4.865 -0.6690  1.1565  0.0076
 3517SOL    HW222188   3.587   4.069   4.770 -1.0287  1.2217 -1.6477
 3518SOL     OW22189   0.771   0.021   0.757  0.8242 -0.0003  0.4033
 3518SOL    HW122190   0.777   0.112   0.787  0.8877  0.1744 -0.1499
 3518SOL    HW222191   0.861   0.010   0.725  1.3696  2.4473  1.1224
 3519SOL     OW22192   1.312   1.193  15.945  0.4311  0.2263  0.1195
 3519SOL    HW122193   1.258   1.247  15.888  2.4341  0.8864 -1.1310
 3519SOL    HW222194   1.305   1.246  16.024  0.9979  0.2447  0.1541
 3520SOL     OW22195   3.662   1.526  12.707 -0.0137  0.7030 -0.1535
 3520SOL    HW122196   3.677   1.620  12.696 -1.5548  1.1045  1.1849
 3520SOL    HW222197   3.685   1.520  12.800 -1.3550  1.5373  0.2228
 3521SOL     OW22198   4.600   4.349   6.957 -0.2316 -0.2773 -0.0341
 3521SOL    HW122199   4.560   4.381   6.876 -0.7399  1.8450  1.0739
 3521SOL    HW222200   4.556   4.264   6.951 -0.2634 -0.3249  0.8794
 3522SOL     OW22201   1.165   4.505  14.764  0.8967  0.0379  0.2189
 3522SOL    HW122202   1.180   4.599  14.755  1.7928  0.0039  1.3931
 3522SOL    HW222203   1.124   4.505  14.851  1.5522  0.1155  0.5273
 3523SOL     OW22204   0.183   4.310  17.302  0.3550  0.0731  0.0140
 3523SOL    HW122205   0.195   4.399  17.335  1.0107  0.3812 -1.0584
 3523SOL    HW222206   0.236   4.265  17.368 -0.8441 -0.5373  0.5695
 3524SOL     OW22207   0.306   4.040   9.634  0.2878  0.1120 -1.1186
 3524SOL    HW122208   0.306   3.972   9.702  1.0105 -0.0133 -1.2467
 3524SOL    HW222209   0.353   4.110   9.679 -2.3356  0.4248  1.2080
 3525SOL     OW22210   3.192   2.244   6.046  0.0073  0.5672 -0.0493
 3525SOL    HW122211   3.146   2.274   6.124 -0.5186 -0.7732  0.1548
 3525SOL    HW222212   3.286   2.253   6.065 -0.3092 -0.0562  1.7635
 3526SOL     OW22213   3.942   1.035  16.675 -0.3224  0.4894 -0.1553
 3526SOL    HW122214   3.958   1.005  16.764 -3.4674  0.3980  0.3716
 3526SOL    HW222215   4.028   1.026  16.634 -0.5620  1.1476 -0.8132
 3527SOL     OW22216   3.656   4.165   6.198  0.0858  0.5273  0.4189
 3527SOL    HW122217   3.576   4.217   6.204  0.1422  0.8183 -1.3348
 3527SOL    HW222218   3.692   4.210   6.122  1.7004  0.5597  1.1995
 3528SOL     OW22219   0.990   4.532   4.514 -0.1857 -0.1610 -0.6040
 3528SOL    HW122220   1.076   4.501   4.543  0.0704  2.0954  1.0141
 3528SOL    HW222221   0.940   4.482   4.579 -0.4638  1.1282  0.1699
 3529SOL     OW22222   2.682   2.352   5.729  0.0271  0.3231 -0.0106
 3529SOL    HW122223   2.758   2.410   5.720 -0.3365  0.6148 -1.2739
 3529SOL    HW222224   2.697   2.299   5.651 -3.5991 -0.5942 -0.1018
 3530SOL     OW22225   2.173   4.224   2.380 -0.0350 -0.7234 -0.2341
 3530SOL    HW122226   2.079   4.233   2.362 -0.0915 -0.8319  0.0118
 3530SOL    HW222227   2.178   4.164   2.454  0.9866 -0.8614 -0.4140
 3531SOL     OW22228   1.191   0.127   8.569  0.2031  0.4370  0.0798
 3531SOL    HW122229   1.184   0.037   8.539  1.5181  0.3094  0.1724
 3531SOL    HW222230   1.099   0.150   8.554  1.2502  3.5400 -1.4640
 3532SOL     OW22231   3.762   1.992  13.470 -0.1012 -0.5153 -0.0847
 3532SOL    HW122232   3.804   2.008  13.554  1.1263  1.8835 -1.1451
 3532SOL    HW222233   3.836   1.946  13.432 -1.0180 -2.0574 -0.0206
 3533SOL     OW22234   2.305   3.690   2.933 -0.0818 -0.0643 -0.1167
 3533SOL    HW122235   2.357   3.752   2.984 -2.0816  2.2190 -0.8358
 3533SOL    HW222236   2.240   3.751   2.897  0.7247  0.7243 -0.2420
 3534SOL     OW22237   3.269   1.039   2.254 -0.0727 -0.1358 -0.1892
 3534SOL    HW122238   3.292   0.993   2.335  0.8161  0.5990 -0.0233
 3534SOL    HW222239   3.307   1.121   2.286 -0.6277  0.0404  0.0180
 3535SOL     OW22240   3.084   0.924   6.329  0.7642  0.0984  0.8321
 3535SOL    HW122241   3.142   0.990   6.290  0.0566  0.2941  0.1161
 3535SOL    HW222242   3.038   0.890   6.253 -0.9262  1.0851  1.4084
 3536SOL     OW22243   3.825   0.652   3.165  0.4311  0.4782  0.2756
 3536SOL    HW122244   3.900   0.700   3.130  1.2403 -0.2267  1.0687
 3536SOL    HW222245   3.858   0.620   3.249 -4.3575 -1.8374  1.2861
 3537SOL     OW22246   0.116   4.347   4.541  0.0783  0.6834  0.1219
 3537SOL    HW122247   0.075   4.262   4.555  1.9856 -0.4038 -0.9573
 3537SOL    HW222248   0.202   4.320   4.509 -0.9791 -0.4858 -1.7391
 3538SOL     OW22249   3.568   1.029  13.552  0.4344  0.2751  0.2011
 3538SOL    HW122250   3.582   0.935  13.544  0.9208  0.1467  2.4091
 3538SOL    HW222251   3.499   1.055  13.491 -2.2845 -0.8811  2.7684
 3539SOL     OW22252   0.530   0.293  17.058  0.1051  0.3402 -0.0002
 3539SOL    HW122253   0.495   0.381  17.067  0.7715  0.5212  0.7816
 3539SOL    HW222254   0.616   0.307  17.097  0.1346  0.2562 -0.0343
 3540SOL     OW22255   2.277   0.691   7.991 -0.0239  0.3478 -0.5264
 3540SOL    HW122256   2.347   0.716   7.931  0.0771  0.5412 -0.3309
 3540SOL    HW222257   2.198   0.691   7.937 -1.0447 -1.0016  0.9500
 3541SOL     OW22258   1.594   0.377   3.353 -0.2151 -0.2296 -0.8314
 3541SOL    HW122259   1.597   0.306   3.289 -1.7310  1.3292 -2.6188
 3541SOL    HW222260   1.602   0.455   3.297  1.7243 -1.1688 -1.8366
 3542SOL     OW22261   4.681   0.722   3.742 -0.1096 -0.6047  0.6662
 3542SOL    HW122262   0.027   0.692   3.712 -0.0572 -0.8678  1.0880
 3542SOL    HW222263   4.698   0.746   3.833  0.2689  0.8466  0.2211
 3543SOL     OW22264   1.544   0.607  10.671  0.5788  0.0620  0.2780
 3543SOL    HW122265   1.568   0.552  10.596  1.7634  0.1158  0.6078
 3543SOL    HW222266   1.579   0.550  10.740  2.7725  0.8227 -0.2100
 3544SOL     OW22267   1.646   1.626   9.658  0.4241 -0.0146 -0.1236
 3544SOL    HW122268   1.683   1.552   9.705 -1.0659  0.2445  1.4266
 3544SOL    HW222269   1.685   1.692   9.715  0.8581 -0.9622  0.6686
 3545SOL     OW22270   0.039   0.346  16.301  0.8221 -0.2352  0.0964
 3545SOL    HW122271   0.098   0.307  16.366 -1.1610  0.2034  2.1821
 3545SOL    HW222272   4.691   0.344  16.340  0.8005 -0.9565 -0.0036
 3546SOL     OW22273   3.944   0.053  10.515  0.2344  0.2533  0.6582
 3546SOL    HW122274   3.968   4.715  10.465 -2.3213  0.5719 -1.0235
 3546SOL    HW222275   4.032   0.074  10.548  1.1574 -2.9663  0.2312
 3547SOL     OW22276   3.625   3.991   4.617  0.4262  0.0709 -0.4544
 3547SOL    HW122277   3.636   3.896   4.620  1.3883  0.2419  1.3526
 3547SOL    HW222278   3.711   4.018   4.585 -0.8150  0.3560 -3.5384
 3548SOL     OW22279   2.046   2.828   1.505  0.4037  0.7555  0.2056
 3548SOL    HW122280   2.128   2.781   1.490 -0.5702 -1.0889  0.6214
 3548SOL    HW222281   2.022   2.842   1.414  0.4854 -2.8704 -0.3410
 3549SOL     OW22282   0.567   4.341   7.772  0.4146 -0.0751  0.0635
 3549SOL    HW122283   0.613   4.257   7.776 -0.1394 -0.4117 -0.6086
 3549SOL    HW222284   0.527   4.345   7.860  2.6453  2.4395  0.9723
 3550SOL     OW22285   4.705   3.999  14.847 -0.2935 -0.1891  0.2715
 3550SOL    HW122286   4.616   3.996  14.812  0.2437  1.2650 -1.2047
 3550SOL    HW222287   0.001   4.081  14.815  3.4995 -1.4971  1.1518
 3551SOL     OW22288   0.180   1.629  11.128  0.3623  0.1593 -0.2895
 3551SOL    HW122289   0.100   1.641  11.179  0.4156 -0.3249 -0.0933
 3551SOL    HW222290   0.252   1.642  11.190  0.7903 -0.8226 -0.5701
 3552SOL     OW22291   2.761   4.184   4.743 -0.1316 -0.4800  0.5382
 3552SOL    HW122292   2.666   4.189   4.736 -0.0179 -1.9157 -2.1099
 3552SOL    HW222293   2.779   4.235   4.664  0.3673 -1.3778  0.0685
 3553SOL     OW22294   2.592   0.522   9.294 -0.4088 -0.2099  0.1365
 3553SOL    HW122295   2.589   0.617   9.292  0.2645 -0.0842  4.0262
 3553SOL    HW222296   2.649   0.501   9.220 -1.3324  2.3611 -1.2953
 3554SOL     OW22297   4.204   1.090   6.391 -0.1230 -0.0421 -0.0857
 3554SOL    HW122298   4.114   1.102   6.420  0.0297  0.3038  0.2353
 3554SOL    HW222299   4.251   1.159   6.438 -0.3816  0.1992 -0.1851
 3555SOL     OW22300   1.932   4.326  13.394  0.3011  0.1971  0.4151
 3555SOL    HW122301   1.990   4.257  13.364  0.0480 -0.3857  1.2589
 3555SOL    HW222302   1.930   4.316  13.489  0.2024 -0.6487  0.3183
 3556SOL     OW22303   3.758   2.758   9.398 -0.0465  0.1412 -0.3719
 3556SOL    HW122304   3.755   2.766   9.494 -1.3282 -3.0039 -0.1273
 3556SOL    HW222305   3.705   2.835   9.381 -1.2916 -0.5578  0.3245
 3557SOL     OW22306   3.548   3.216   1.515  0.1838  0.1728  0.1376
 3557SOL    HW122307   3.575   3.297   1.473 -0.0819 -0.3631 -1.0606
 3557SOL    HW222308   3.476   3.192   1.457  0.9255 -1.6309 -0.0487
 3558SOL     OW22309   1.050   3.722   4.611 -0.3041 -0.6544  0.1888
 3558SOL    HW122310   0.979   3.779   4.641 -0.9103 -2.3791  2.0366
 3558SOL    HW222311   1.113   3.738   4.680 -0.5622 -0.5276  0.3942
 3559SOL     OW22312   4.253   0.506   4.483  0.2345  0.1993  0.1160
 3559SOL    HW122313   4.266   0.536   4.573 -0.2158 -0.0609  0.2697
 3559SOL    HW222314   4.201   0.426   4.488  2.3541 -1.2174 -0.4729
 3560SOL     OW22315   2.420   0.704  13.918 -0.2305 -0.3475 -0.1740
 3560SOL    HW122316   2.354   0.730  13.982  0.1954  0.3873 -0.0307
 3560SOL    HW222317   2.496   0.685  13.972  0.7876  0.8314 -1.1882
 3561SOL     OW22318   1.300   2.564  12.589 -0.2769 -0.6678 -0.6721
 3561SOL    HW122319   1.317   2.526  12.503 -1.3676 -0.6560 -0.8857
 3561SOL    HW222320   1.252   2.643  12.566 -0.6392 -0.6208  0.2700
 3562SOL     OW22321   3.630   4.166   5.226  0.2579 -0.4996  0.1798
 3562SOL    HW122322   3.616   4.229   5.297  0.2791 -0.3694  0.0697
 3562SOL    HW222323   3.663   4.087   5.268 -2.3196 -0.2357  2.6503
 3563SOL     OW22324   0.699   4.397   8.589  0.0785  0.5372  0.6549
 3563SOL    HW122325   0.610   4.370   8.567  0.2583  0.3142  0.2061
 3563SOL    HW222326   0.666   4.480   8.624 -0.8732 -0.0086  1.0625
 3564SOL     OW22327   4.002   3.182   8.179  0.8467 -0.4556 -0.1667
 3564SOL    HW122328   4.000   3.166   8.085  0.4333  0.8708 -0.3840
 3564SOL    HW222329   3.913   3.213   8.198  0.2958 -1.8370 -0.5112
 3565SOL     OW22330   0.988   1.319  17.578  0.2154 -0.1276  0.2130
 3565SOL    HW122331   0.956   1.242  17.626 -0.5334  1.1369  1.7533
 3565SOL    HW222332   1.020   1.286  17.494 -1.6933  2.1275 -1.4146
 3566SOL     OW22333   3.072   2.718   5.626 -0.1663  0.2294 -0.1622
 3566SOL    HW122334   3.050   2.738   5.535 -2.2297 -1.7000 -0.0966
 3566SOL    HW222335   3.142   2.781   5.640  0.1399 -0.3565  0.9944
 3567SOL     OW22336   3.380   2.849  13.467  0.1393  0.4254 -0.9702
 3567SOL    HW122337   3.408   2.933  13.501 -1.4780  0.1162  1.1263
 3567SOL    HW222338   3.443   2.785  13.501  0.6417  1.5748  0.2652
 3568SOL     OW22339   1.377   3.954   6.185  0.3205  0.0574 -0.5788
 3568SOL    HW122340   1.365   4.011   6.108 -0.9106 -0.2421 -0.6129
 3568SOL    HW222341   1.330   3.876   6.158 -1.4075  0.8854  0.0428
 3569SOL     OW22342   2.797   3.883   6.702 -0.2409  0.5395 -0.3948
 3569SOL    HW122343   2.787   3.916   6.791  2.7396  1.0048 -0.2579
 3569SOL    HW222344   2.797   3.788   6.714  3.0753  0.5792 -0.2588
 3570SOL     OW22345   1.320   0.126  16.467  0.2416  0.0025  0.5632
 3570SOL    HW122346   1.363   0.136  16.552  1.2463 -1.5553  0.2429
 3570SOL    HW222347   1.388   0.078  16.419  0.2816  0.8407 -0.2271
 3571SOL     OW22348   3.601   4.319  14.698  0.0140 -0.2601 -0.7859
 3571SOL    HW122349   3.624   4.301  14.789 -0.8772  0.5871 -0.3927
 3571SOL    HW222350   3.523   4.263  14.696 -0.0405 -0.3210  2.5177
 3572SOL     OW22351   3.000   3.331   7.760 -0.4723 -0.1818  0.4274
 3572SOL    HW122352   2.948   3.411   7.768  0.1274  0.2253  0.2749
 3572SOL    HW222353   3.041   3.335   7.673  0.1334 -0.5606  0.6940
 3573SOL     OW22354   1.511   2.507   6.966  0.0936 -0.4457  0.1478
 3573SOL    HW122355   1.521   2.422   7.008  0.1039 -0.5347 -0.0364
 3573SOL    HW222356   1.426   2.487   6.927  0.4635  0.9028 -1.3591
 3574SOL     OW22357   2.827   4.401   9.459 -0.2837  0.3416  0.0089
 3574SOL    HW122358   2.905   4.450   9.432 -0.2744  0.7052  0.6833
 3574SOL    HW222359   2.863   4.324   9.503 -0.6960 -0.2948 -0.7759
 3575SOL     OW22360   3.190   2.553   9.587  0.6585  0.4179 -0.1988
 3575SOL    HW122361   3.155   2.468   9.614  0.9134  1.2348  2.7009
 3575SOL    HW222362   3.269   2.567   9.640  0.7792  3.3506 -1.1467
 3576SOL     OW22363   4.188   4.500   6.631  0.4263  0.1990 -0.0668
 3576SOL    HW122364   4.118   4.449   6.673 -0.4192  1.1009 -0.4002
 3576SOL    HW222365   4.150   4.524   6.547  4.0774 -0.0308 -1.8080
 3577SOL     OW22366   2.836   2.321   9.151  0.2156 -0.1202  0.4762
 3577SOL    HW122367   2.905   2.285   9.206 -0.4063  0.2898  1.5397
 3577SOL    HW222368   2.769   2.255   9.172 -0.6504  1.3595  2.3379
 3578SOL     OW22369   4.050   3.829   8.808 -0.0733  0.4740 -0.5947
 3578SOL    HW122370   4.061   3.804   8.716  1.1445  2.1860 -0.9182
 3578SOL    HW222371   4.105   3.906   8.794  2.3700 -0.0167  6.5129
 3579SOL     OW22372   4.289   4.200  12.111  0.1687  0.5310 -0.8012
 3579SOL    HW122373   4.291   4.211  12.207 -0.2254 -0.7240 -0.6557
 3579SOL    HW222374   4.210   4.241  12.075 -0.6608  1.1286  1.6691
 3580SOL     OW22375   1.331   1.069  13.777 -0.2701  0.0838  0.4004
 3580SOL    HW122376   1.354   1.161  13.778  0.4476 -0.0564 -3.1791
 3580SOL    HW222377   1.304   1.061  13.686 -4.2100  0.9937  1.4459
 3581SOL     OW22378   3.319   1.026  17.554 -1.2176 -0.1805 -0.2847
 3581SOL    HW122379   3.359   1.004  17.469  0.6232  0.1070  0.5192
 3581SOL    HW222380   3.228   1.029  17.526 -1.0408 -0.4161 -0.8956
 3582SOL     OW22381   3.731   4.626  16.114 -0.3608  0.3641  0.3552
 3582SOL    HW122382   3.709   4.718  16.127 -0.1633  0.2202  1.6820
 3582SOL    HW222383   3.826   4.620  16.105 -0.4562 -1.9653  0.7660
 3583SOL     OW22384   2.634   1.200   0.388  0.0195 -0.1221  0.3114
 3583SOL    HW122385   2.675   1.177   0.471 -0.3041  0.2830  0.5797
 3583SOL    HW222386   2.616   1.289   0.418  0.7638 -0.3584  1.4296
 3584SOL     OW22387   1.317   0.530   9.539  0.1420  0.1900  0.4732
 3584SOL    HW122388   1.331   0.619   9.572  0.2248 -0.4627  2.2105
 3584SOL    HW222389   1.305   0.491   9.626  1.5840 -3.0007 -0.7461
 3585SOL     OW22390   4.622   4.366   4.848 -0.5141 -0.1618  0.1685
 3585SOL    HW122391   4.614   4.406   4.761 -0.2077  0.7189  0.5438
 3585SOL    HW222392   4.687   4.298   4.831 -1.1387 -0.5988 -0.4940
 3586SOL     OW22393   0.589   0.768   2.304  0.5791  0.3181  0.8462
 3586SOL    HW122394   0.540   0.774   2.387  0.2073 -0.0716  0.6589
 3586SOL    HW222395   0.593   0.858   2.274  3.0880 -0.6403 -1.6386
 3587SOL     OW22396   2.031   0.197   1.424  0.1649 -0.0679 -0.7486
 3587SOL    HW122397   2.018   0.128   1.359 -0.0131 -0.2067 -0.5658
 3587SOL    HW222398   1.976   0.267   1.389  0.1317 -0.0963 -0.7544
 3588SOL     OW22399   3.595   4.453   7.274 -0.6961 -0.8779 -0.2411
 3588SOL    HW122400   3.661   4.385   7.287 -0.1828  0.1197  2.4323
 3588SOL    HW222401   3.521   4.422   7.326 -1.7529  0.1444 -1.1679
 3589SOL     OW22402   4.075   4.235   8.848 -0.6578 -0.3291 -0.1030
 3589SOL    HW122403   4.114   4.163   8.799 -0.2574  0.0527 -0.3409
 3589SOL    HW222404   3.987   4.238   8.810 -0.4104  0.2641 -0.6357
 3590SOL     OW22405   0.497   0.121  12.857 -0.0815 -0.5128 -0.0978
 3590SOL    HW122406   0.439   0.188  12.823 -0.8752 -1.0357  0.2148
 3590SOL    HW222407   0.465   0.119  12.948  0.0146  1.7246 -0.0359
 3591SOL     OW22408   0.346   1.410   2.091 -1.2208  0.1875  0.0563
 3591SOL    HW122409   0.285   1.465   2.042 -0.7980  0.9774  0.4235
 3591SOL    HW222410   0.313   1.323   2.066 -0.3331 -0.7148  2.0687
 3592SOL     OW22411   4.504   1.422   5.668  0.0594 -0.0281 -0.3239
 3592SOL    HW122412   4.425   1.474   5.655 -0.1855 -0.3206  0.0119
 3592SOL    HW222413   4.570   1.484   5.700 -1.5406  0.7721  1.4217
 3593SOL     OW22414   0.269   1.712   9.137  0.4754  0.8015  0.4652
 3593SOL    HW122415   0.231   1.742   9.220  1.8111  0.7243  1.1149
 3593SOL    HW222416   0.227   1.627   9.126  0.3958  0.8160  0.6618
 3594SOL     OW22417   0.807   0.449  13.021  0.2700  0.1313 -0.4101
 3594SOL    HW122418   0.780   0.458  13.113  0.8448 -0.1970 -0.2075
 3594SOL    HW222419   0.836   0.358  13.025 -0.7263 -0.0754  2.1505
 3595SOL     OW22420   0.690   3.471   2.568  0.0435  0.1566  0.6675
 3595SOL    HW122421   0.689   3.451   2.662 -0.4517 -0.3099  0.5666
 3595SOL    HW222422   0.732   3.557   2.563  2.0741 -0.9532 -1.1181
 3596SOL     OW22423   1.598   0.985  13.213 -0.0076  0.0377 -0.1858
 3596SOL    HW122424   1.563   1.068  13.182 -0.9826 -0.8196 -1.3727
 3596SOL    HW222425   1.647   0.961  13.135  2.5494  0.1216  1.3784
 3597SOL     OW22426   2.973   0.730  15.000  0.0630  0.0402  0.0305
 3597SOL    HW122427   3.028   0.779  14.938 -0.4620  0.5774 -0.0131
 3597SOL    HW222428   3.000   0.638  14.994  0.6894  0.1964  0.4725
 3598SOL     OW22429   1.944   1.763   9.049 -0.5333 -0.0236 -0.1040
 3598SOL    HW122430   1.854   1.743   9.023 -0.4931 -0.0857 -0.1951
 3598SOL    HW222431   1.973   1.814   8.973  2.9564 -0.7960  0.7079
 3599SOL     OW22432   1.591   0.241  16.060 -0.2604  0.2208 -0.2762
 3599SOL    HW122433   1.649   0.219  16.133 -1.5269 -2.4630 -0.0811
 3599SOL    HW222434   1.590   0.156  16.015 -0.4834  0.4167 -0.6446
 3600SOL     OW22435   1.618   0.504   4.157  0.1151 -0.5157  0.1755
 3600SOL    HW122436   1.582   0.453   4.085 -0.1624 -0.0585 -0.0161
 3600SOL    HW222437   1.560   0.580   4.151  2.7884  1.5534  0.2734
 3601SOL     OW22438   0.040   2.984  16.032 -0.4394 -0.2477 -0.3165
 3601SOL    HW122439   0.096   2.928  16.085  0.2553  0.2468 -0.5210
 3601SOL    HW222440   4.710   3.007  16.092 -2.1681  0.7231 -2.7011
 3602SOL     OW22441   4.195   1.007  16.558 -0.0881 -0.2134  0.3567
 3602SOL    HW122442   4.226   0.922  16.587 -1.7892 -0.3964  1.5819
 3602SOL    HW222443   4.209   0.996  16.464  2.3195  1.1884  0.5488
 3603SOL     OW22444   1.475   3.914   3.405  0.2127 -0.5342  0.1887
 3603SOL    HW122445   1.515   3.837   3.446  0.0501 -1.1338 -0.7859
 3603SOL    HW222446   1.523   3.916   3.323 -1.6410 -0.7614 -0.8867
 3604SOL     OW22447   0.186   3.089  16.441 -0.9018  0.6068  0.0659
 3604SOL    HW122448   0.243   3.166  16.447 -0.8122  0.5409  0.0452
 3604SOL    HW222449   0.186   3.052  16.530 -0.2659  0.2205 -0.0986
 3605SOL     OW22450   0.748   4.076   3.695 -0.3298 -0.1151  0.0994
 3605SOL    HW122451   0.763   4.041   3.783  1.9210 -2.0540 -1.0388
 3605SOL    HW222452   0.658   4.103   3.708  0.1666  0.8053  1.5585
 3606SOL     OW22453   0.841   3.609   4.500 -0.4638  0.0707  0.3814
 3606SOL    HW122454   0.917   3.659   4.530 -0.6258 -0.7319  2.1240
 3606SOL    HW222455   0.784   3.613   4.576 -0.7441  2.1854  0.0470
 3607SOL     OW22456   3.842   0.885   5.732 -0.3184  0.6601 -0.0554
 3607SOL    HW122457   3.756   0.920   5.708  0.1561  0.3565 -2.2181
 3607SOL    HW222458   3.836   0.861   5.825  1.6882 -1.0356 -0.3736
 3608SOL     OW22459   4.012   0.755  10.117 -0.3339 -0.2408 -0.1617
 3608SOL    HW122460   4.081   0.786  10.176 -0.6351  0.5173 -0.2048
 3608SOL    HW222461   3.949   0.827  10.110  0.5111  0.3478 -1.8587
 3609SOL     OW22462   1.864   3.770   4.088 -0.4734 -0.3380  0.2570
 3609SOL    HW122463   1.905   3.827   4.023 -0.0594 -0.4055  0.4555
 3609SOL    HW222464   1.776   3.767   4.053  0.5461 -1.8883 -2.1997
 3610SOL     OW22465   4.315   4.235   6.636 -0.2789 -0.0837 -0.1393
 3610SOL    HW122466   4.233   4.258   6.592  0.4710  1.3865 -0.7565
 3610SOL    HW222467   4.337   4.162   6.579  2.0172  1.8227 -1.6463
 3611SOL     OW22468   1.602   0.959   3.649  0.2532 -0.5215  0.0816
 3611SOL    HW122469   1.603   0.897   3.576  2.1099 -0.7871  0.3137
 3611SOL    HW222470   1.598   0.899   3.724 -0.4483  1.3531  1.5341
 3612SOL     OW22471   4.591   0.004   1.020 -0.3532 -0.4732  0.4817
 3612SOL    HW122472   4.599   4.682   1.092 -0.2745  1.3281  1.9996
 3612SOL    HW222473   4.618   4.680   0.954 -2.8085  1.1932 -2.1485
 3613SOL     OW22474   3.780   1.019   0.226 -0.1067 -0.5818 -0.0966
 3613SOL    HW122475   3.714   0.950   0.227  0.0364 -0.7397 -1.2616
 3613SOL    HW222476   3.854   0.979   0.180  1.1017  0.2588  1.1081
 3614SOL     OW22477   0.336   2.400  15.380  0.1549 -0.3764 -0.2606
 3614SOL    HW122478   0.364   2.443  15.299 -0.4459 -0.9678 -0.7889
 3614SOL    HW222479   0.250   2.438  15.396  0.6651  0.5368  0.2950
 3615SOL     OW22480   1.475   4.131  14.188  0.4580 -0.5588 -0.0348
 3615SOL    HW122481   1.442   4.183  14.261  2.4596  1.3697 -0.5145
 3615SOL    HW222482   1.515   4.059  14.238 -3.4817 -2.2808  0.6664
 3616SOL     OW22483   0.441   1.395   4.090 -0.4523  0.0285  0.3847
 3616SOL    HW122484   0.518   1.431   4.135  1.0726 -1.5160 -0.9675
 3616SOL    HW222485   0.472   1.410   4.001  0.4919 -1.1742  0.5128
 3617SOL     OW22486   0.314   2.263   0.193  0.1551  0.4515  0.0282
 3617SOL    HW122487   0.386   2.247   0.132  1.4678  4.0972  0.6018
 3617SOL    HW222488   0.237   2.232   0.146 -0.9738 -0.7641  2.6963
 3618SOL     OW22489   2.103   3.435   9.442  0.2609  0.0594 -0.6883
 3618SOL    HW122490   2.026   3.476   9.403 -1.3461 -0.5775  1.7534
 3618SOL    HW222491   2.162   3.511   9.443 -0.7438  0.8420 -0.0864
 3619SOL     OW22492   4.488   2.732  10.106  0.3625 -0.1313 -0.0538
 3619SOL    HW122493   4.412   2.737  10.165  1.9623 -0.6241  2.0333
 3619SOL    HW222494   4.470   2.644  10.074 -1.9481 -0.0311  0.9466
 3620SOL     OW22495   1.124   4.310   2.821 -0.1563  0.5897 -0.1473
 3620SOL    HW122496   1.203   4.360   2.842  0.7224 -0.8160 -0.1018
 3620SOL    HW222497   1.164   4.224   2.806 -1.9005 -0.4855  1.3618
 3621SOL     OW22498   4.202   3.237   1.798 -0.0705 -0.0518  0.2207
 3621SOL    HW122499   4.259   3.282   1.736 -1.1904 -0.8991 -1.4098
 3621SOL    HW222500   4.214   3.145   1.774 -1.1055 -0.4638  1.2570
 3622SOL     OW22501   0.997   4.008   4.338  0.2415 -0.0756 -0.0289
 3622SOL    HW122502   0.967   3.944   4.274  0.2327 -0.4257  0.3277
 3622SOL    HW222503   0.997   4.090   4.288  0.7616  0.0181  0.1260
 3623SOL     OW22504   4.726   4.043   2.256 -0.1103  0.0711 -0.2303
 3623SOL    HW122505   0.013   4.130   2.285  2.0549 -1.1190  1.3305
 3623SOL    HW222506   4.724   4.002   2.342  0.2383  1.1400  0.2843
 3624SOL     OW22507   3.329   1.781   4.327 -0.1622  0.2605 -0.1079
 3624SOL    HW122508   3.296   1.855   4.276  0.0597 -0.5261 -1.3881
 3624SOL    HW222509   3.395   1.743   4.268 -0.4294 -0.7238  0.2316
 3625SOL     OW22510   0.257   2.632   3.220 -0.4025 -0.1864 -0.7596
 3625SOL    HW122511   0.288   2.563   3.161  0.2411 -1.1531  0.6852
 3625SOL    HW222512   0.161   2.637   3.217 -0.3031  0.9645 -1.9009
 3626SOL     OW22513   2.203   2.946   9.921 -0.4142 -0.2237  0.4221
 3626SOL    HW122514   2.250   2.985   9.994 -1.6905 -0.4090  1.3539
 3626SOL    HW222515   2.267   2.895   9.871  0.6625  0.8289  0.7490
 3627SOL     OW22516   0.666   1.867   1.877 -0.5810 -0.9248  0.1916
 3627SOL    HW122517   0.573   1.844   1.886 -0.4746 -0.3525  2.9177
 3627SOL    HW222518   0.692   1.812   1.804  0.8849  2.0517 -1.5099
 3628SOL     OW22519   0.328   1.685   6.879  0.2768  0.3938  0.2073
 3628SOL    HW122520   0.256   1.667   6.940 -0.0603  0.7930 -0.0719
 3628SOL    HW222521   0.385   1.742   6.931 -0.2297  1.0038  0.0970
 3629SOL     OW22522   0.993   0.176   7.229 -0.7870  0.3976  0.8863
 3629SOL    HW122523   0.927   0.187   7.297 -1.1123 -0.4814  0.7038
 3629SOL    HW222524   1.014   0.268   7.211  2.0037 -0.3807  0.1809
 3630SOL     OW22525   2.523   0.359  17.107 -0.4751  0.0313  0.1572
 3630SOL    HW122526   2.579   0.292  17.069 -0.8987  1.1752 -2.4893
 3630SOL    HW222527   2.585   0.431  17.096  1.5514 -1.6585  0.4492
 3631SOL     OW22528   3.292   4.024   9.121  0.4960  0.1622  0.1248
 3631SOL    HW122529   3.307   4.050   9.030 -0.2100  1.4383  0.3803
 3631SOL    HW222530   3.206   3.984   9.107 -0.3567  1.0717  2.8476
 3632SOL     OW22531   0.349   0.117  16.748  0.1131  0.0492 -0.1507
 3632SOL    HW122532   0.318   0.159  16.668 -1.1354  1.1399  0.9210
 3632SOL    HW222533   0.443   0.106  16.733 -0.1390  0.3313 -1.9243
 3633SOL     OW22534   4.241   3.924   4.082 -0.3030 -0.0741  0.5450
 3633SOL    HW122535   4.285   3.869   4.146 -1.7874 -0.8179  0.9353
 3633SOL    HW222536   4.204   3.859   4.022  0.5509 -0.0481 -0.0074
 3634SOL     OW22537   1.102   2.089   2.564  0.2577  0.0805  0.1653
 3634SOL    HW122538   1.032   2.147   2.535  0.1738  0.0776  0.3568
 3634SOL    HW222539   1.174   2.147   2.540 -0.8815  1.8810  1.1260
 3635SOL     OW22540   4.605   2.308   5.835  0.1135 -0.0237 -0.3355
 3635SOL    HW122541   4.595   2.403   5.824  2.5833  0.0844 -1.7251
 3635SOL    HW222542   4.684   2.306   5.888  1.2266 -0.1240 -2.0080
 3636SOL     OW22543   1.428   1.112   7.215  0.2417  0.2792  0.2534
 3636SOL    HW122544   1.451   1.131   7.124 -2.6401 -1.1394 -0.7867
 3636SOL    HW222545   1.486   1.169   7.265 -0.1622 -0.6208  1.7451
 3637SOL     OW22546   1.531   1.808   5.302  0.8584 -0.3972  0.1249
 3637SOL    HW122547   1.550   1.794   5.395 -2.6694  3.4780  1.3959
 3637SOL    HW222548   1.604   1.756   5.267 -0.5170 -1.5686 -1.0021
 3638SOL     OW22549   2.146   1.966  16.006 -0.2326 -0.4107  0.2730
 3638SOL    HW122550   2.121   2.035  16.068  3.2314  1.4588 -0.4321
 3638SOL    HW222551   2.132   1.888  16.061  2.0003 -0.9136  0.1489
 3639SOL     OW22552   3.689   3.806   5.002  0.0406  0.1409  0.1279
 3639SOL    HW122553   3.746   3.735   4.973  0.8862  0.7343  0.3210
 3639SOL    HW222554   3.597   3.793   4.977  0.2100  1.2971 -1.0597
 3640SOL     OW22555   4.166   3.924   2.528 -0.2907 -0.0486 -0.0848
 3640SOL    HW122556   4.249   3.957   2.494 -0.6918  0.8271 -0.2157
 3640SOL    HW222557   4.161   3.836   2.491  0.5160 -0.4609  0.7980
 3641SOL     OW22558   1.167   0.953   3.239  0.7501  0.2543  0.0044
 3641SOL    HW122559   1.231   1.024   3.226 -0.2846  1.1972  0.1029
 3641SOL    HW222560   1.102   0.994   3.295  1.8911  0.4394  1.2162
 3642SOL     OW22561   2.834   4.337   8.969 -0.2868  0.2001  0.5909
 3642SOL    HW122562   2.824   4.431   8.955  0.9292  0.4894  1.5799
 3642SOL    HW222563   2.809   4.334   9.061 -3.6391  2.1981 -0.2882
 3643SOL     OW22564   4.024   4.233   8.260 -0.5081 -0.0792 -0.8165
 3643SOL    HW122565   4.007   4.326   8.274 -1.5002 -0.6462  1.6126
 3643SOL    HW222566   4.102   4.232   8.205  1.2516  0.9588  1.6705
 3644SOL     OW22567   0.737   2.048   5.296  0.0880 -0.1304 -0.7695
 3644SOL    HW122568   0.728   2.143   5.307 -0.4211 -0.4085  1.3915
 3644SOL    HW222569   0.772   2.016   5.379 -0.6520 -0.0043 -0.4075
 3645SOL     OW22570   0.498   2.178   4.611 -0.3739 -0.4118 -0.0379
 3645SOL    HW122571   0.497   2.085   4.590 -0.0324 -0.5348  0.5005
 3645SOL    HW222572   0.587   2.174   4.647  0.4943 -1.3258 -2.2134
 3646SOL     OW22573   3.930   2.745   2.005  0.2428  0.0567 -0.4308
 3646SOL    HW122574   3.851   2.787   2.040  0.0514 -0.1629 -0.5981
 3646SOL    HW222575   3.896   2.748   1.916  1.8590 -0.4662 -1.0655
 3647SOL     OW22576   3.505   0.303   7.098  0.1943  0.1574 -0.1135
 3647SOL    HW122577   3.423   0.347   7.076  2.3090  2.8064 -2.6454
 3647SOL    HW222578   3.561   0.352   7.038  0.7650  0.4611  0.6535
 3648SOL     OW22579   4.401   4.109   5.569  0.2871  0.2599 -0.3033
 3648SOL    HW122580   4.366   4.198   5.565 -0.7667 -0.0402  2.2472
 3648SOL    HW222581   4.452   4.118   5.649 -0.1125  2.9787 -0.3510
 3649SOL     OW22582   3.208   2.488   9.311  0.1864  0.0376  0.0440
 3649SOL    HW122583   3.166   2.571   9.289  0.4938 -0.0174 -0.7784
 3649SOL    HW222584   3.227   2.501   9.404  1.2125  2.1798 -0.4734
 3650SOL     OW22585   0.646   1.423   4.630 -0.1427  0.0642 -0.5498
 3650SOL    HW122586   0.599   1.451   4.552 -1.2906 -3.2301 -1.0689
 3650SOL    HW222587   0.676   1.335   4.608 -1.0652 -0.3304 -0.2357
 3651SOL     OW22588   1.344   4.692   5.532  0.8139  0.5093 -0.5264
 3651SOL    HW122589   1.374   4.672   5.620 -0.0712  1.6993  0.0401
 3651SOL    HW222590   1.287   0.027   5.550 -0.6066 -0.8161  0.5183
 3652SOL     OW22591   3.947   4.369   0.511  0.5736 -0.1610  0.3171
 3652SOL    HW122592   3.957   4.333   0.423 -0.1183  3.0496 -1.1054
 3652SOL    HW222593   4.012   4.438   0.499  1.7881 -1.5128 -0.8499
 3653SOL     OW22594   0.914   1.624   9.674 -0.2539  0.5345  0.2177
 3653SOL    HW122595   0.907   1.704   9.622 -0.0709 -0.2475 -0.9978
 3653SOL    HW222596   0.997   1.644   9.718 -0.0453  2.5517 -1.0847
 3654SOL     OW22597   2.115   1.827  10.709  0.2343  0.0895  0.2177
 3654SOL    HW122598   2.120   1.763  10.780 -1.6643  0.2343  0.4924
 3654SOL    HW222599   2.187   1.795  10.655 -0.4482 -0.5410 -0.3102
 3655SOL     OW22600   0.782   3.012   5.775  0.0224  0.1517  0.2488
 3655SOL    HW122601   0.856   2.953   5.781 -1.8816 -2.0018  2.2705
 3655SOL    HW222602   0.719   2.957   5.821 -0.4766 -0.3598 -1.0164
 3656SOL     OW22603   4.520   1.032   6.527 -0.4962 -0.9053  0.5970
 3656SOL    HW122604   4.546   0.957   6.580  0.1447  0.4829  2.2546
 3656SOL    HW222605   4.606   1.035   6.486 -0.6768 -1.0741  0.2091
 3657SOL     OW22606   1.186   0.425   0.744  0.3990 -0.3698 -0.4544
 3657SOL    HW122607   1.155   0.388   0.826 -1.5374  0.4546 -0.8294
 3657SOL    HW222608   1.176   0.518   0.763 -1.7269 -0.5509 -0.6882
 3658SOL     OW22609   2.085   4.050   1.602  0.6139 -0.7233  0.1768
 3658SOL    HW122610   2.157   4.081   1.658 -0.2383  2.3951 -0.4238
 3658SOL    HW222611   2.032   4.014   1.673  2.1034 -0.4513  1.4226
 3659SOL     OW22612   1.954   0.246   3.629  0.3057 -0.0134  0.5875
 3659SOL    HW122613   1.985   0.219   3.716 -1.7253  0.1519  1.3654
 3659SOL    HW222614   1.915   0.164   3.600  0.8541 -0.1848  0.3449
 3660SOL     OW22615   3.383   4.709   6.128  0.3477 -0.0962 -0.0198
 3660SOL    HW122616   3.461   4.687   6.076  1.6740  2.8682  0.7188
 3660SOL    HW222617   3.321   4.691   6.057 -1.8492 -1.7424  2.3018
 3661SOL     OW22618   1.455   4.093  15.889  0.3069 -0.2693  0.1974
 3661SOL    HW122619   1.427   4.183  15.906 -3.0113 -0.7192 -3.0588
 3661SOL    HW222620   1.370   4.050  15.885 -0.0741  0.5427 -0.3972
 3662SOL     OW22621   0.544   4.101  11.860 -0.1507  0.2912  0.7289
 3662SOL    HW122622   0.604   4.032  11.832 -1.5558 -1.1176  1.2318
 3662SOL    HW222623   0.508   4.068  11.942  1.7806 -0.4352  1.2990
 3663SOL     OW22624   1.725   3.509  15.179 -0.1539 -0.5390  0.1408
 3663SOL    HW122625   1.759   3.516  15.090 -1.1669 -3.7694 -0.4948
 3663SOL    HW222626   1.673   3.430  15.171 -0.3578 -0.1568 -2.3022
 3664SOL     OW22627   3.727   2.018   7.245 -0.2736  0.5618 -0.1165
 3664SOL    HW122628   3.721   1.957   7.318 -1.4664  0.2846 -0.4550
 3664SOL    HW222629   3.758   1.956   7.178 -1.3455  0.2165 -0.2948
 3665SOL     OW22630   0.255   3.679   9.770 -0.2413 -0.0901 -0.2876
 3665SOL    HW122631   0.285   3.688   9.679 -1.5636  0.3292 -0.6767
 3665SOL    HW222632   0.315   3.744   9.809  0.8513 -0.0907 -1.9570
 3666SOL     OW22633   4.352   0.233  15.795  0.4110  0.1860 -0.6515
 3666SOL    HW122634   4.303   0.314  15.784  1.2082  1.0151  1.9133
 3666SOL    HW222635   4.309   0.200  15.875 -0.4554 -0.2436 -1.2952
 3667SOL     OW22636   3.000   2.259   5.851  0.0753 -0.0069 -0.0097
 3667SOL    HW122637   3.062   2.277   5.922 -1.3124  0.1040  1.1609
 3667SOL    HW222638   3.047   2.186   5.809 -0.4025 -0.2111 -0.1940
 3668SOL     OW22639   1.049   1.858   2.763  0.2348 -0.2756  0.0359
 3668SOL    HW122640   1.086   1.829   2.680 -0.7119  1.3724 -0.9642
 3668SOL    HW222641   1.128   1.865   2.817  1.4769 -0.1548 -1.8001
 3669SOL     OW22642   4.409   0.531  11.869  0.6477 -0.2151  0.1051
 3669SOL    HW122643   4.428   0.557  11.959 -1.1149 -0.6061  0.5793
 3669SOL    HW222644   4.489   0.491  11.834 -0.4067 -1.9320 -0.3322
 3670SOL     OW22645   3.314   4.317   3.767  0.0119 -0.0165 -0.4353
 3670SOL    HW122646   3.381   4.379   3.737 -0.1944 -0.8457 -2.5720
 3670SOL    HW222647   3.373   4.250   3.801  0.9128  1.1956  0.4296
 3671SOL     OW22648   0.850   0.544   9.167 -0.3305  0.2999  0.1832
 3671SOL    HW122649   0.839   0.639   9.172  0.5395  0.2525  2.8348
 3671SOL    HW222650   0.938   0.519   9.194 -0.1703  2.1769  1.4555
 3672SOL     OW22651   1.227   2.070   0.128 -0.0274  0.6078  0.0831
 3672SOL    HW122652   1.143   2.029   0.110 -0.5523  3.2962 -3.7292
 3672SOL    HW222653   1.220   2.145   0.069 -0.5321 -0.2898 -0.9889
 3673SOL     OW22654   3.350   0.004   4.096  0.2324 -0.1575 -0.2559
 3673SOL    HW122655   3.402   4.666   4.113  0.6642  0.0820 -0.4685
 3673SOL    HW222656   3.278   4.709   4.042  0.0722  0.9810 -0.7823
 3674SOL     OW22657   0.716   1.935   2.284  0.1667  0.0918  0.2027
 3674SOL    HW122658   0.777   1.891   2.225 -0.2399  0.6096 -0.5978
 3674SOL    HW222659   0.718   1.874   2.357 -1.5640 -0.2844 -0.0695
 3675SOL     OW22660   3.414   2.881   0.949  0.1036  0.2745 -0.2339
 3675SOL    HW122661   3.352   2.948   0.918  2.1215  1.5388 -1.5267
 3675SOL    HW222662   3.402   2.875   1.044 -0.4685  0.4159 -0.2976
 3676SOL     OW22663   2.348   1.631  13.538  0.1152  0.5056 -0.4314
 3676SOL    HW122664   2.282   1.682  13.490 -0.3074 -2.9231 -3.5224
 3676SOL    HW222665   2.429   1.636  13.488 -0.4960  1.4082 -1.3346
 3677SOL     OW22666   1.607   1.744   5.551 -0.5636 -0.4625  0.4299
 3677SOL    HW122667   1.549   1.786   5.615 -1.1285 -0.4277 -0.1058
 3677SOL    HW222668   1.688   1.761   5.599 -0.1091 -2.2759  0.3150
 3678SOL     OW22669   2.629   4.443  14.095  0.5434 -0.1406  0.4858
 3678SOL    HW122670   2.561   4.428  14.160 -0.9331  0.2757 -0.9515
 3678SOL    HW222671   2.642   4.537  14.112  0.7525 -0.1649  0.4543
 3679SOL     OW22672   0.014   3.166  15.062 -0.0021  0.3046 -0.1193
 3679SOL    HW122673   0.056   3.080  15.057  0.9165  0.7871 -0.6440
 3679SOL    HW222674   0.062   3.200  15.137 -2.0554  0.2763  1.1960
 3680SOL     OW22675   2.142   3.131  12.156 -0.0927 -0.0965 -0.0767
 3680SOL    HW122676   2.177   3.062  12.213  1.6118  1.0085  0.2095
 3680SOL    HW222677   2.211   3.195  12.170 -0.3711  1.0663 -4.1433
 3681SOL     OW22678   1.285   3.146  16.413 -0.0586 -0.5116 -0.4157
 3681SOL    HW122679   1.322   3.206  16.348 -1.6214 -0.7992 -1.5634
 3681SOL    HW222680   1.240   3.083  16.356 -1.0085  1.9188 -2.3723
 3682SOL     OW22681   2.906   1.743   7.537  0.1622  0.5289 -0.2447
 3682SOL    HW122682   2.983   1.755   7.592  1.6583 -3.1729 -1.5547
 3682SOL    HW222683   2.932   1.806   7.470 -2.3659 -0.9920 -2.6973
 3683SOL     OW22684   3.174   2.234  12.071 -0.2388 -0.2523  0.3805
 3683SOL    HW122685   3.195   2.256  11.981 -2.1376  2.5400  0.6438
 3683SOL    HW222686   3.259   2.256  12.110 -0.5042 -0.0919  0.8751
 3684SOL     OW22687   2.018   2.019   6.261  0.4423  0.0275 -0.2433
 3684SOL    HW122688   1.923   2.020   6.273  0.6018  2.0953  0.7966
 3684SOL    HW222689   2.031   2.111   6.239 -1.7338  0.5516  0.6455
 3685SOL     OW22690   1.209   2.062  13.260  0.0873  0.1037 -0.0234
 3685SOL    HW122691   1.169   2.131  13.312 -0.2966  1.1005 -1.6235
 3685SOL    HW222692   1.195   2.093  13.170  1.7973  2.1869  0.4510
 3686SOL     OW22693   3.442   3.510   7.043  0.2348  0.5873 -0.5998
 3686SOL    HW122694   3.411   3.591   7.084  0.8892  0.7009 -0.3334
 3686SOL    HW222695   3.370   3.452   7.070 -1.3583  2.5078 -0.7515
 3687SOL     OW22696   2.427   4.139   3.862  0.4236 -0.0516  0.3044
 3687SOL    HW122697   2.492   4.094   3.807 -0.6952 -1.1586 -0.0893
 3687SOL    HW222698   2.411   4.064   3.919  4.3749 -0.5695  0.7440
 3688SOL     OW22699   3.726   3.872   5.249  0.2621  1.0471  0.1681
 3688SOL    HW122700   3.787   3.797   5.252 -2.9822 -1.6003 -0.0051
 3688SOL    HW222701   3.682   3.857   5.165  0.5309 -0.6899  0.3391
 3689SOL     OW22702   3.293   2.841   9.378 -0.0866 -0.0485 -0.5151
 3689SOL    HW122703   3.210   2.796   9.361  1.9421 -2.8533 -2.9980
 3689SOL    HW222704   3.352   2.771   9.408  0.6568  0.4934 -0.7284
 3690SOL     OW22705   2.836   2.372   7.521  0.3229  0.1721  0.1205
 3690SOL    HW122706   2.914   2.416   7.554 -0.2108 -0.1862  1.8448
 3690SOL    HW222707   2.778   2.443   7.492 -1.0865 -0.7218  0.7128
 3691SOL     OW22708   2.634   3.416   6.063  0.1679  0.4834 -0.4120
 3691SOL    HW122709   2.570   3.392   6.130 -1.8389  1.3445 -2.0093
 3691SOL    HW222710   2.590   3.466   5.994  0.5695  1.7209  0.2230
 3692SOL     OW22711   2.396   2.059   9.107 -0.2637 -0.0469 -0.0219
 3692SOL    HW122712   2.421   2.129   9.168  2.8622 -2.6337  1.6354
 3692SOL    HW222713   2.420   1.986   9.163  1.9460  0.5303 -0.2479
 3693SOL     OW22714   1.743   1.829   7.831 -0.0204 -0.2736 -0.0974
 3693SOL    HW122715   1.656   1.803   7.801 -0.1239  1.3458 -1.2443
 3693SOL    HW222716   1.750   1.925   7.835  0.8045 -0.4697  3.3375
 3694SOL     OW22717   2.104   2.090  12.748 -0.7019  0.2269  0.5777
 3694SOL    HW122718   2.174   2.067  12.810 -0.4992 -0.1632  0.2061
 3694SOL    HW222719   2.029   2.052  12.792 -0.9954  0.3484  0.1818
 3695SOL     OW22720   0.394   3.022  17.672 -0.1167 -0.1176 -0.2378
 3695SOL    HW122721   0.387   2.958  17.743  0.7074  2.5538  2.2704
 3695SOL    HW222722   0.307   3.059  17.657 -0.2997  0.2108  1.6831
 3696SOL     OW22723   3.228   0.363  10.671  0.5448 -0.1044  0.4555
 3696SOL    HW122724   3.143   0.323  10.648  0.1145  0.4111  1.1593
 3696SOL    HW222725   3.279   0.282  10.666 -0.5292 -0.8691  1.8572
 3697SOL     OW22726   3.889   3.435   8.394  0.1335  0.3098 -0.2932
 3697SOL    HW122727   3.921   3.525   8.404 -0.4734  0.6068 -0.9867
 3697SOL    HW222728   3.807   3.444   8.346 -0.8197 -0.9699  1.1041
 3698SOL     OW22729   4.066   0.613   2.657  0.1832 -0.3805 -0.1462
 3698SOL    HW122730   4.076   0.548   2.588  0.7512  1.8649 -2.1966
 3698SOL    HW222731   4.132   0.584   2.720 -0.0248 -1.7318 -0.5498
 3699SOL     OW22732   3.813   0.659  11.066 -0.1137 -0.1887 -0.4329
 3699SOL    HW122733   3.896   0.630  11.026 -0.1529 -0.9903  0.0736
 3699SOL    HW222734   3.852   0.708  11.138  0.7919 -0.2954 -0.8417
 3700SOL     OW22735   4.301   0.369   9.115 -0.8298 -0.5439 -0.3298
 3700SOL    HW122736   4.265   0.395   9.199  1.3234 -0.5990  0.6236
 3700SOL    HW222737   4.248   0.291   9.100 -1.5024  0.2771 -2.3265
 3701SOL     OW22738   1.157   4.518   7.926 -0.1319  0.6095 -0.1742
 3701SOL    HW122739   1.085   4.580   7.915 -0.6696  0.1486  0.7276
 3701SOL    HW222740   1.201   4.561   7.999  0.9972  0.4378 -0.7527
 3702SOL     OW22741   1.562   1.249  11.598  0.1926  0.4501 -0.4087
 3702SOL    HW122742   1.532   1.182  11.659  5.7699 -2.6117 -1.0221
 3702SOL    HW222743   1.492   1.315  11.596  0.7569  1.0480 -0.5178
 3703SOL     OW22744   0.393   3.620   9.116 -0.0056 -0.1596  0.3455
 3703SOL    HW122745   0.457   3.556   9.145 -0.6665 -0.8099  0.3900
 3703SOL    HW222746   0.425   3.707   9.139  0.6880  0.5404 -3.2448
 3704SOL     OW22747   1.696   3.338   5.572  0.3664 -0.2355 -0.5607
 3704SOL    HW122748   1.677   3.388   5.492  2.3750 -1.9354 -2.0890
 3704SOL    HW222749   1.711   3.409   5.634 -0.5428 -0.7445  0.2375
 3705SOL     OW22750   4.344   2.119   2.314 -0.4439  0.3934  0.3277
 3705SOL    HW122751   4.355   2.094   2.223  0.3032  1.2666  0.1734
 3705SOL    HW222752   4.306   2.206   2.302 -1.5524  0.2351  2.5410
 3706SOL     OW22753   3.624   0.890  16.805  0.5486 -0.5648 -0.2549
 3706SOL    HW122754   3.556   0.870  16.741 -4.0208  2.4157  3.6845
 3706SOL    HW222755   3.665   0.803  16.807  1.9984  0.1571  1.5310
 3707SOL     OW22756   3.613   2.268  17.476 -0.3424 -0.4339 -0.0201
 3707SOL    HW122757   3.663   2.192  17.506  1.4941  1.2974  1.2920
 3707SOL    HW222758   3.628   2.329  17.548 -0.0445 -1.4594  0.7947
 3708SOL     OW22759   0.924   2.759  16.122  0.4366 -0.1404  0.0512
 3708SOL    HW122760   0.883   2.690  16.072 -0.0972  1.1415 -1.2867
 3708SOL    HW222761   0.855   2.826  16.127  2.6168  2.1985 -0.8998
 3709SOL     OW22762   3.752   0.937   3.898  0.8205  0.4488 -0.0650
 3709SOL    HW122763   3.730   0.947   3.805 -0.6488  1.5110  0.3953
 3709SOL    HW222764   3.671   0.955   3.946 -0.5183 -0.5245 -1.9164
 3710SOL     OW22765   2.090   0.529   6.638 -0.0715  0.5171  0.2236
 3710SOL    HW122766   2.180   0.511   6.610 -0.5284 -3.3443  1.2143
 3710SOL    HW222767   2.092   0.617   6.677 -0.0494  0.3134  0.6838
 3711SOL     OW22768   4.179   0.778   0.592 -0.2503 -0.2185  0.0958
 3711SOL    HW122769   4.197   0.868   0.621 -1.1617  0.3154 -1.0339
 3711SOL    HW222770   4.103   0.782   0.535 -0.0552  1.1988 -0.0586
 3712SOL     OW22771   2.579   2.144   1.631 -0.4792 -0.0697  0.1968
 3712SOL    HW122772   2.596   2.193   1.711  1.8199 -0.7268  0.1156
 3712SOL    HW222773   2.486   2.152   1.613 -0.9215 -0.6320  2.2412
 3713SOL     OW22774   2.827   4.657   0.247 -0.0138 -0.0891 -0.0577
 3713SOL    HW122775   2.748   4.707   0.267 -1.3326 -1.8606 -0.9445
 3713SOL    HW222776   2.888   4.729   0.229 -2.3098  1.3603 -2.1238
 3714SOL     OW22777   4.023   1.957   7.343  0.3313  0.7461 -0.3803
 3714SOL    HW122778   4.107   1.970   7.298  1.1641 -0.2832  0.8842
 3714SOL    HW222779   3.963   1.906   7.289 -0.1394 -1.8168  2.6155
 3715SOL     OW22780   0.521   0.581   2.936 -0.0830 -0.2746  0.2547
 3715SOL    HW122781   0.576   0.507   2.912 -3.1576 -2.4642  0.0065
 3715SOL    HW222782   0.448   0.536   2.980  0.2850 -0.8684  0.2612
 3716SOL     OW22783   2.881   4.121   9.573  0.3351  0.0927  0.3220
 3716SOL    HW122784   2.895   4.078   9.658  0.9474 -0.4000 -0.0258
 3716SOL    HW222785   2.791   4.154   9.578 -0.0892 -0.9392 -0.3046
 3717SOL     OW22786   2.603   1.898   2.468 -0.2750 -0.0547 -0.1783
 3717SOL    HW122787   2.542   1.843   2.517 -1.7620  2.0242  0.2692
 3717SOL    HW222788   2.628   1.834   2.401 -2.3451 -0.0093 -0.9800
 3718SOL     OW22789   1.758   2.916   0.984 -0.4992  0.3014  0.4979
 3718SOL    HW122790   1.796   2.833   0.955  1.7257  1.5023 -0.0063
 3718SOL    HW222791   1.828   2.963   1.029 -1.0012  0.8741  0.6732
 3719SOL     OW22792   1.468   1.175   8.971 -0.5121 -0.1234  0.5092
 3719SOL    HW122793   1.535   1.203   8.909 -0.1295 -0.8785  0.5752
 3719SOL    HW222794   1.519   1.121   9.032  2.7234  2.3774  0.0007
 3720SOL     OW22795   2.424   2.111   2.551  0.1509 -0.2781 -0.0454
 3720SOL    HW122796   2.489   2.045   2.527 -2.4283 -1.8023 -2.8533
 3720SOL    HW222797   2.414   2.153   2.465 -0.9356  1.0962  0.7476
 3721SOL     OW22798   1.639   3.029   6.914  0.2501 -0.3977 -0.4176
 3721SOL    HW122799   1.634   2.936   6.933  0.5206 -0.2583  0.3374
 3721SOL    HW222800   1.663   3.057   7.002  0.4725 -1.5282 -0.1205
 3722SOL     OW22801   3.242   2.780   4.692  0.5512 -0.2673  0.4919
 3722SOL    HW122802   3.251   2.700   4.744 -1.5086 -0.7062  0.1819
 3722SOL    HW222803   3.315   2.755   4.636 -0.8674 -0.6621 -1.1628
 3723SOL     OW22804   4.283   4.692   2.081 -0.4446 -0.1903  0.4808
 3723SOL    HW122805   4.207   0.004   2.054  0.3772  1.2978  1.0146
 3723SOL    HW222806   4.247   4.667   2.166 -3.6494  0.1980 -0.7783
 3724SOL     OW22807   3.835   3.535   7.278 -0.6501 -0.4832 -0.2061
 3724SOL    HW122808   3.777   3.591   7.329  0.6126 -0.0201  0.7115
 3724SOL    HW222809   3.770   3.473   7.243 -0.8325 -0.7239  0.5666
 3725SOL     OW22810   0.418   3.850   5.597  0.2136 -0.4031  0.9004
 3725SOL    HW122811   0.345   3.900   5.634  0.0086  0.1101 -0.1997
 3725SOL    HW222812   0.430   3.787   5.668 -1.0716 -1.8590 -0.1830
 3726SOL     OW22813   4.396   2.093  15.784  0.3043  0.4913  0.2664
 3726SOL    HW122814   4.433   2.053  15.705 -0.7541  0.0978 -0.0298
 3726SOL    HW222815   4.465   2.115  15.847  0.1939 -1.0355  0.9152
 3727SOL     OW22816   4.564   3.636  14.743  0.6041 -0.6264 -0.2388
 3727SOL    HW122817   4.517   3.564  14.785 -0.9179  1.4635  1.6043
 3727SOL    HW222818   4.566   3.697  14.816  1.1327 -0.3204 -0.5088
 3728SOL     OW22819   0.705   1.437   1.757 -0.0654 -0.1571  0.2090
 3728SOL    HW122820   0.655   1.489   1.695  0.6841  0.6015  0.2319
 3728SOL    HW222821   0.669   1.455   1.844  1.7889  0.5496  0.8466
 3729SOL     OW22822   2.024   0.733  16.488  0.8290  0.3734  0.1397
 3729SOL    HW122823   2.087   0.678  16.536 -0.0182 -0.9852 -0.3096
 3729SOL    HW222824   2.019   0.671  16.415  2.1878  0.1212  0.2502
 3730SOL     OW22825   4.451   0.850   7.531  0.2717 -0.1564 -0.1352
 3730SOL    HW122826   4.417   0.778   7.477 -0.6058 -1.3516  2.0011
 3730SOL    HW222827   4.375   0.858   7.587 -0.7739 -1.2942 -1.3839
 3731SOL     OW22828   1.770   3.141   5.761 -0.5260  0.2390  1.1629
 3731SOL    HW122829   1.718   3.195   5.821 -0.7567  1.7675 -0.3927
 3731SOL    HW222830   1.802   3.209   5.702  1.3942 -1.2155  0.5433
 3732SOL     OW22831   2.290   0.730  15.501  0.5479  0.1476  0.3151
 3732SOL    HW122832   2.321   0.806  15.550  3.5645 -1.0052  0.1571
 3732SOL    HW222833   2.204   0.766  15.476  0.7097  0.3107 -0.0089
 3733SOL     OW22834   1.995   3.059   7.616 -0.2090  0.4099 -0.7652
 3733SOL    HW122835   2.007   3.137   7.671 -0.3366  0.0132 -0.1775
 3733SOL    HW222836   1.940   3.094   7.546 -1.2229  0.3404  0.0026
 3734SOL     OW22837   2.975   2.049   4.084 -0.1917  0.0434  0.2117
 3734SOL    HW122838   2.946   2.022   3.997 -2.0106  1.0644  0.5135
 3734SOL    HW222839   2.905   2.014   4.140  1.4582 -1.7800  1.1650
 3735SOL     OW22840   4.271   1.677  17.146  0.3257  0.1651 -0.1748
 3735SOL    HW122841   4.309   1.615  17.084 -1.9493  0.5971 -1.9832
 3735SOL    HW222842   4.244   1.751  17.091 -0.2277  2.0384  2.6141
 3736SOL     OW22843   3.753   4.637  11.819  0.4994  0.2639 -0.1115
 3736SOL    HW122844   3.819   4.682  11.767  1.7233  1.4555  2.5212
 3736SOL    HW222845   3.781   4.640  11.910 -1.9434 -0.5410  0.6500
 3737SOL     OW22846   0.693   2.287   7.319 -0.3420 -0.1561  0.2118
 3737SOL    HW122847   0.689   2.372   7.275  3.5316  0.9594  1.9967
 3737SOL    HW222848   0.719   2.231   7.246 -1.4329  0.1517 -0.4120
 3738SOL     OW22849   3.001   0.638   2.403  0.3696  0.2133  0.3296
 3738SOL    HW122850   2.918   0.687   2.406 -1.1961 -2.5265  1.8319
 3738SOL    HW222851   3.042   0.675   2.325 -2.3703  1.7268 -0.4037
 3739SOL     OW22852   3.130   1.894   4.854 -0.3888 -0.0473  0.3782
 3739SOL    HW122853   3.158   1.803   4.845  0.0971  0.0463  0.9972
 3739SOL    HW222854   3.156   1.906   4.945 -2.5494 -3.7835  1.4764
 3740SOL     OW22855   0.720   0.186   1.311  0.5735  0.0747 -0.3252
 3740SOL    HW122856   0.663   0.262   1.324  0.4827 -0.3059  1.5476
 3740SOL    HW222857   0.754   0.164   1.398 -0.7578 -0.1255  0.1362
 3741SOL     OW22858   0.577   2.907   7.901 -0.4332 -0.2225 -0.2461
 3741SOL    HW122859   0.629   2.984   7.875  0.1934  0.1046  1.9781
 3741SOL    HW222860   0.550   2.931   7.989  0.7442  0.1798  0.0069
 3742SOL     OW22861   3.907   4.644   7.988 -0.2738  0.3221  0.1285
 3742SOL    HW122862   3.835   4.706   7.990  1.2437  2.0663  1.0869
 3742SOL    HW222863   3.950   4.658   7.903 -0.2457 -0.8373 -0.0542
 3743SOL     OW22864   0.875   0.972  12.967 -0.4974  0.3751 -0.4427
 3743SOL    HW122865   0.887   0.936  13.055  0.6576  0.6004 -0.5008
 3743SOL    HW222866   0.907   0.903  12.909  1.0841  1.8193 -1.2876
 3744SOL     OW22867   4.737   3.304   4.199  0.2588 -0.4162 -0.8555
 3744SOL    HW122868   0.048   3.375   4.238 -0.6150 -0.2998  0.0957
 3744SOL    HW222869   4.719   3.339   4.112 -0.8329  0.6537 -0.2079
 3745SOL     OW22870   4.127   3.162   2.061  0.5265 -0.4101  0.2741
 3745SOL    HW122871   4.144   3.214   1.982 -0.7880  1.0595  0.9571
 3745SOL    HW222872   4.062   3.097   2.034  2.2807 -1.9043 -0.3804
 3746SOL     OW22873   4.565   2.305   4.954  0.2030 -0.3179 -0.3041
 3746SOL    HW122874   4.589   2.393   4.983  0.2408 -1.6174  3.6583
 3746SOL    HW222875   4.471   2.311   4.935  0.1142  0.5591  0.4302
 3747SOL     OW22876   4.088   1.417   6.399  0.2032  0.0395 -0.0970
 3747SOL    HW122877   4.140   1.393   6.476  0.7147 -2.1259 -1.1303
 3747SOL    HW222878   4.027   1.478   6.441  1.2186  0.3478  0.9125
 3748SOL     OW22879   0.731   3.605   2.165  0.0258 -0.0573 -0.0049
 3748SOL    HW122880   0.700   3.655   2.241 -0.2700  0.4286 -0.4524
 3748SOL    HW222881   0.794   3.542   2.201  1.3159  1.9318  1.2169
 3749SOL     OW22882   3.409   0.060   2.385  0.0516  0.0390 -0.0155
 3749SOL    HW122883   3.381   4.728   2.327  2.9796 -1.3746  0.2967
 3749SOL    HW222884   3.330   0.071   2.437 -1.7796 -0.8246 -2.5803
 3750SOL     OW22885   1.255   3.866   2.335  0.1863  0.3826 -0.5272
 3750SOL    HW122886   1.166   3.901   2.337  0.1549  0.2831 -0.0901
 3750SOL    HW222887   1.265   3.858   2.430 -4.6453  1.6875  0.0626
 3751SOL     OW22888   0.113   3.336   9.170 -0.2163 -0.3606  0.0408
 3751SOL    HW122889   0.072   3.298   9.248 -0.9781 -2.0699 -1.1916
 3751SOL    HW222890   0.196   3.287   9.165  1.9624  3.0981  2.4753
 3752SOL     OW22891   2.713   0.355  14.899 -0.5231  0.4978 -0.2801
 3752SOL    HW122892   2.695   0.373  14.807 -0.7659 -1.4004 -0.6059
 3752SOL    HW222893   2.762   0.434  14.921  0.7841 -0.2594 -0.4532
 3753SOL     OW22894   4.143   4.549   2.317  0.0105 -1.0030  0.2788
 3753SOL    HW122895   4.061   4.588   2.348  0.7023  1.0471 -0.4557
 3753SOL    HW222896   4.196   4.581   2.390  0.4765  0.4359 -0.6832
 3754SOL     OW22897   2.525   1.492   6.844  0.3262 -0.3435 -0.1347
 3754SOL    HW122898   2.566   1.525   6.923  0.8354  3.2449 -1.8885
 3754SOL    HW222899   2.447   1.459   6.888  1.7563 -2.2566  1.0072
 3755SOL     OW22900   1.324   1.089  15.462  0.1879 -0.0274  0.1527
 3755SOL    HW122901   1.412   1.065  15.434  0.5513 -0.0208  1.3121
 3755SOL    HW222902   1.266   1.026  15.419 -1.6748  1.1860  0.8328
 3756SOL     OW22903   2.395   3.132   8.127  0.2330  0.2994  0.2449
 3756SOL    HW122904   2.359   3.153   8.041  2.6573 -0.2010 -0.8752
 3756SOL    HW222905   2.412   3.037   8.129  1.3245  0.4394 -3.2555
 3757SOL     OW22906   3.212   2.111   7.996 -0.2816  0.6112  0.2554
 3757SOL    HW122907   3.232   2.204   7.982  1.1625 -0.0429 -2.0880
 3757SOL    HW222908   3.124   2.098   7.961 -0.0059  0.8300 -0.5308
 3758SOL     OW22909   4.199   1.605   8.935  0.3941 -0.0209 -0.2671
 3758SOL    HW122910   4.146   1.594   9.014 -0.6852 -2.9547 -1.4204
 3758SOL    HW222911   4.286   1.604   8.974  0.8042 -0.7179 -1.2154
 3759SOL     OW22912   0.803   3.600   4.196  0.0053 -0.0728  0.0053
 3759SOL    HW122913   0.765   3.515   4.218 -0.4696 -0.7723 -3.4895
 3759SOL    HW222914   0.801   3.639   4.283 -0.1726 -0.1902  0.0542
 3760SOL     OW22915   1.205   2.748   0.852  0.8404  0.4434  0.0331
 3760SOL    HW122916   1.185   2.815   0.787 -1.1087  1.4866  1.7060
 3760SOL    HW222917   1.121   2.729   0.893  0.7034 -2.7219 -1.6777
 3761SOL     OW22918   0.771   0.886   5.102  0.0336  0.0358 -0.3433
 3761SOL    HW122919   0.851   0.938   5.095 -1.2138  2.2057  1.7545
 3761SOL    HW222920   0.730   0.931   5.175 -2.3804 -2.1424 -0.3654
 3762SOL     OW22921   1.541   2.070   9.540 -0.3669 -0.0069  0.3342
 3762SOL    HW122922   1.632   2.071   9.512 -0.2205  0.1544  0.8245
 3762SOL    HW222923   1.540   2.148   9.595 -0.7849 -0.2096  0.6225
 3763SOL     OW22924   1.206   2.912   9.646  0.0963 -0.3148 -0.8986
 3763SOL    HW122925   1.263   2.930   9.720  0.2615  1.1601 -1.3931
 3763SOL    HW222926   1.271   2.868   9.592 -0.7819 -1.3779 -1.0909
 3764SOL     OW22927   2.835   4.124   2.743  0.1112  0.5575  0.2761
 3764SOL    HW122928   2.876   4.101   2.826 -0.7837 -2.1962 -0.0753
 3764SOL    HW222929   2.764   4.179   2.775  1.3750  2.0150  0.5799
 3765SOL     OW22930   0.938   2.668   9.289 -0.1184  0.5917  0.0591
 3765SOL    HW122931   0.962   2.702   9.203  0.1480 -0.5275 -0.3146
 3765SOL    HW222932   0.940   2.573   9.280 -0.7572  0.8670 -2.8526
 3766SOL     OW22933   0.966   1.761   5.109  0.4140  0.2698 -0.6464
 3766SOL    HW122934   0.967   1.857   5.111 -2.4187  0.3319 -2.9620
 3766SOL    HW222935   1.053   1.727   5.132  0.0453  1.3484  2.3816
 3767SOL     OW22936   3.676   3.338   5.426  0.1740 -0.5285  0.6284
 3767SOL    HW122937   3.703   3.342   5.334 -0.2807  0.2951  0.5333
 3767SOL    HW222938   3.727   3.408   5.465 -0.3864  0.1537  0.1429
 3768SOL     OW22939   0.812   3.672   3.502 -0.3549  0.0984 -0.0434
 3768SOL    HW122940   0.785   3.764   3.504  0.7169  0.3945  1.0757
 3768SOL    HW222941   0.809   3.653   3.408 -0.9710 -2.1943  0.4534
 3769SOL     OW22942   4.714   3.606  12.912  0.1403  0.4569 -0.2068
 3769SOL    HW122943   4.636   3.661  12.915 -0.7596 -0.8256  0.2925
 3769SOL    HW222944   0.023   3.621  12.993 -0.8407 -0.7025  0.6058
 3770SOL     OW22945   4.071   3.554   5.049 -0.2611  0.7436 -0.1246
 3770SOL    HW122946   4.047   3.462   5.044 -1.1893  0.9713  0.0582
 3770SOL    HW222947   4.166   3.549   5.041 -0.3963 -2.4760  0.5383
 3771SOL     OW22948   3.111   4.238   2.944 -0.2989  0.2807 -0.2010
 3771SOL    HW122949   3.180   4.300   2.920  1.1171 -1.3054 -0.2005
 3771SOL    HW222950   3.155   4.160   2.976  0.6558  0.9836  0.1904
 3772SOL     OW22951   3.377   4.659   5.112 -0.0840 -0.0422  0.2679
 3772SOL    HW122952   3.320   4.645   5.188  0.1090 -0.8188  0.2778
 3772SOL    HW222953   3.322   4.640   5.036 -1.3982  0.2868  1.1350
 3773SOL     OW22954   0.315   1.855   8.641 -0.1971  0.2771  0.1008
 3773SOL    HW122955   0.398   1.813   8.617 -0.1405  1.2540 -1.4382
 3773SOL    HW222956   0.281   1.873   8.553  0.3294 -1.6854 -0.5040
 3774SOL     OW22957   0.633   0.141   1.842 -0.3142  0.0751 -0.1898
 3774SOL    HW122958   0.716   0.131   1.888 -1.2019  1.0229  1.6255
 3774SOL    HW222959   0.656   0.090   1.765 -1.4767  0.4632 -0.7943
 3775SOL     OW22960   0.987   0.875   4.784  0.0526  0.2154 -0.2229
 3775SOL    HW122961   0.893   0.882   4.765  0.7151  2.3645 -2.6789
 3775SOL    HW222962   0.995   0.796   4.837 -1.4477 -0.3502 -0.8163
 3776SOL     OW22963   2.667   1.957   9.351 -0.0393  0.7230  0.8853
 3776SOL    HW122964   2.737   1.950   9.286  0.4372 -1.0440  1.5868
 3776SOL    HW222965   2.714   1.919   9.425  2.1326 -1.4011 -1.5673
 3777SOL     OW22966   4.725   3.829  17.564  0.1425  0.6725  0.2513
 3777SOL    HW122967   0.002   3.914  17.605  0.5908 -0.4237  2.3246
 3777SOL    HW222968   4.695   3.842  17.473  2.3181 -1.3966 -0.7631
 3778SOL     OW22969   2.438   4.356   8.971 -0.2519 -0.2456 -0.1848
 3778SOL    HW122970   2.370   4.311   9.022 -0.9541 -0.2591 -1.1220
 3778SOL    HW222971   2.472   4.414   9.039  1.3497  1.6536 -2.6163
 3779SOL     OW22972   4.163   4.621   1.302  0.0865  0.2872 -0.2165
 3779SOL    HW122973   4.132   4.706   1.334 -1.3370  0.5719 -2.3347
 3779SOL    HW222974   4.133   4.555   1.364  2.3937  0.7561  1.4193
 3780SOL     OW22975   3.103   3.327   3.760 -0.1355 -0.0939 -0.0680
 3780SOL    HW122976   3.172   3.311   3.695 -1.9806 -1.8166 -1.5957
 3780SOL    HW222977   3.107   3.241   3.800  0.8404  0.7483  1.6783
 3781SOL     OW22978   0.512   4.283   9.389  0.5588 -0.5587 -0.3237
 3781SOL    HW122979   0.554   4.205   9.425  1.5455 -0.0153 -0.2776
 3781SOL    HW222980   0.499   4.327   9.473 -0.2480 -1.5561  0.0633
 3782SOL     OW22981   2.092   3.045   2.619  0.0601  0.3053 -0.3929
 3782SOL    HW122982   2.096   3.013   2.529  1.3991 -4.0222  1.2426
 3782SOL    HW222983   2.124   3.135   2.609  1.0067  0.0404  0.2153
 3783SOL     OW22984   0.741   1.127   9.081  0.2507  0.4208 -1.2690
 3783SOL    HW122985   0.802   1.197   9.059  2.1847 -0.4900  1.1474
 3783SOL    HW222986   0.779   1.091   9.161 -1.2243  0.4192 -0.5799
 3784SOL     OW22987   4.212   1.203  15.194  0.3280  0.0163  0.4260
 3784SOL    HW122988   4.299   1.164  15.206  0.9275  0.6367 -2.0207
 3784SOL    HW222989   4.233   1.260  15.121 -1.7121  1.0585  0.6562
 3785SOL     OW22990   4.025   2.820   9.944  1.0251  0.8787  0.5506
 3785SOL    HW122991   4.039   2.844   9.853  1.9961  3.8154  1.4704
 3785SOL    HW222992   4.068   2.735   9.941 -0.9479 -0.0404 -1.1778
 3786SOL     OW22993   1.221   4.368   4.901  0.1371  0.1438 -0.6549
 3786SOL    HW122994   1.309   4.348   4.933 -0.4217  1.4898  1.7365
 3786SOL    HW222995   1.193   4.409   4.983 -0.3998 -0.0572 -0.7436
 3787SOL     OW22996   3.742   0.557  12.744  0.1411 -0.1952 -0.6192
 3787SOL    HW122997   3.745   0.499  12.819  1.1770 -1.0510 -1.3291
 3787SOL    HW222998   3.836   0.567  12.730  0.0145  1.0684 -0.6273
 3788SOL     OW22999   0.019   2.672   6.477  0.1091 -0.5611 -0.6840
 3788SOL    HW123000   4.710   2.745   6.514  0.5250 -1.4468  1.6406
 3788SOL    HW223001   4.700   2.648   6.406  1.3157  0.7171 -2.1234
 3789SOL     OW23002   4.582   0.978   0.718 -0.2523  0.3917  0.4365
 3789SOL    HW123003   4.592   1.009   0.628  0.2329 -1.3490 -0.0954
 3789SOL    HW223004   4.488   0.990   0.732 -0.0964  0.2431  1.6516
 3790SOL     OW23005   1.669   3.251   1.382  0.5999  0.0918 -0.2556
 3790SOL    HW123006   1.747   3.301   1.404  2.0609 -1.9026 -0.8948
 3790SOL    HW223007   1.608   3.304   1.434 -0.7108 -1.8150  0.1422
 3791SOL     OW23008   1.194   1.648   6.779  0.0187 -0.0948 -0.2875
 3791SOL    HW123009   1.099   1.664   6.784 -0.2984 -2.3309  1.1896
 3791SOL    HW223010   1.227   1.722   6.729 -1.6480  2.8792  2.9375
 3792SOL     OW23011   0.169   4.397  10.658 -0.2648 -1.0883 -0.5364
 3792SOL    HW123012   0.221   4.375  10.736  0.0376 -0.4124 -0.5454
 3792SOL    HW223013   0.129   4.479  10.686 -1.4901 -1.4989 -1.1114
 3793SOL     OW23014   3.784   1.771  12.698 -0.0011 -0.7292 -0.5787
 3793SOL    HW123015   3.870   1.790  12.737 -0.3327 -3.1535  1.3274
 3793SOL    HW223016   3.769   1.847  12.642 -1.6328 -1.6110 -1.3165
 3794SOL     OW23017   2.402   3.257   5.488  0.0733  0.0406  0.1530
 3794SOL    HW123018   2.490   3.231   5.462 -0.7857 -0.7856 -1.8901
 3794SOL    HW223019   2.349   3.178   5.477  0.0219 -0.3046  2.7985
 3795SOL     OW23020   3.751   2.460   2.841  0.5295 -0.0057 -0.1576
 3795SOL    HW123021   3.683   2.400   2.874 -1.8682  3.3060  0.9262
 3795SOL    HW223022   3.707   2.496   2.764 -0.6097  2.5209  1.6529
 3796SOL     OW23023   0.290   1.421   3.670 -0.0627 -0.2342  0.0337
 3796SOL    HW123024   0.269   1.388   3.583 -2.0173 -3.0108  1.5339
 3796SOL    HW223025   0.343   1.498   3.652  1.9206 -2.1458 -2.3192
 3797SOL     OW23026   2.318   3.631   9.425  0.1102  0.9428  0.3274
 3797SOL    HW123027   2.401   3.651   9.469  0.0973  0.1960  0.6921
 3797SOL    HW223028   2.355   3.579   9.353 -0.0566 -0.2447  1.0888
 3798SOL     OW23029   2.374   4.556   4.017 -0.4912  0.1670 -0.2606
 3798SOL    HW123030   2.338   4.608   3.946 -1.2959 -0.7449 -0.5205
 3798SOL    HW223031   2.441   4.502   3.975  0.9094  2.6719 -1.2416
 3799SOL     OW23032   1.253   1.416   3.254 -0.1323  0.3412 -0.1118
 3799SOL    HW123033   1.294   1.495   3.220 -0.3016 -0.1443 -1.4262
 3799SOL    HW223034   1.271   1.349   3.188 -2.4577  0.3225 -0.7479
 3800SOL     OW23035   0.171   0.148   2.707  0.4671  0.3941  0.1586
 3800SOL    HW123036   0.144   0.171   2.796  1.7545  0.0972  0.6279
 3800SOL    HW223037   0.155   0.054   2.708  2.1414  0.0971 -2.9242
 3801SOL     OW23038   2.727   1.834   2.901  0.3384  0.3835 -0.0647
 3801SOL    HW123039   2.738   1.745   2.868 -0.6692  0.7854 -1.4685
 3801SOL    HW223040   2.815   1.836   2.939  0.3696 -1.7921 -0.0364
 3802SOL     OW23041   1.086   0.492   8.856 -0.2533  0.4047 -0.2890
 3802SOL    HW123042   1.020   0.441   8.903 -0.3494  1.6980  0.9901
 3802SOL    HW223043   1.036   0.573   8.862 -0.4527  0.0496  2.8491
 3803SOL     OW23044   3.617   3.024   6.741 -0.9076  0.2572  0.1297
 3803SOL    HW123045   3.597   2.946   6.793  1.0461  0.2094  0.8007
 3803SOL    HW223046   3.535   3.072   6.757 -3.0030 -2.7110 -1.5845
 3804SOL     OW23047   4.431   4.143   2.045  0.0526 -0.4283  0.3315
 3804SOL    HW123048   4.496   4.192   2.096  1.6960 -2.3548  0.1118
 3804SOL    HW223049   4.480   4.060   2.041  1.5027  0.4604 -0.3555
 3805SOL     OW23050   3.343   3.134   5.503  0.4312 -0.1719 -0.3557
 3805SOL    HW123051   3.350   3.230   5.505 -1.2244 -0.0747  0.9674
 3805SOL    HW223052   3.257   3.114   5.467 -0.2791 -0.4755  1.4833
 3806SOL     OW23053   4.319   0.401  14.748 -0.2248  0.2315  0.7244
 3806SOL    HW123054   4.259   0.440  14.685 -0.3551 -2.1310 -0.6096
 3806SOL    HW223055   4.304   0.310  14.722  1.1723  0.7080 -1.7959
 3807SOL     OW23056   1.333   3.159   9.930  0.0025  0.7208  0.1041
 3807SOL    HW123057   1.301   3.226   9.870 -0.9822 -0.1458 -0.3156
 3807SOL    HW223058   1.387   3.097   9.881 -0.6553 -0.7461  1.2194
 3808SOL     OW23059   0.801   1.709  16.598 -0.0983  0.3015 -0.2321
 3808SOL    HW123060   0.787   1.800  16.623  0.6732  0.5881 -0.8493
 3808SOL    HW223061   0.753   1.711  16.516 -1.2400  0.3425  0.4341
 3809SOL     OW23062   3.621   0.704   6.288 -0.3909  0.0833  0.1822
 3809SOL    HW123063   3.715   0.719   6.280 -0.5085  1.9954  2.3853
 3809SOL    HW223064   3.606   0.672   6.199  1.8411  1.4092 -0.6559
 3810SOL     OW23065   2.759   2.220   8.787 -0.1138  0.0709  0.4551
 3810SOL    HW123066   2.807   2.185   8.862 -0.2275  1.0565  1.0023
 3810SOL    HW223067   2.813   2.184   8.717 -0.0460  2.6593 -0.8270
 3811SOL     OW23068   1.987   0.979  15.356  0.4477 -0.5408 -0.0735
 3811SOL    HW123069   2.018   0.953  15.269 -1.2376 -0.2969 -0.7549
 3811SOL    HW223070   2.072   0.988  15.399  0.4718 -2.0136  0.1898
 3812SOL     OW23071   4.496   3.502   5.278 -0.2934  0.2931  0.1994
 3812SOL    HW123072   4.450   3.476   5.198 -0.3126 -1.2345  0.6987
 3812SOL    HW223073   4.550   3.424   5.289 -0.7336 -0.2390 -1.3476
 3813SOL     OW23074   2.600   2.477   7.948  0.2034 -0.4410 -0.2159
 3813SOL    HW123075   2.613   2.530   8.027  0.8651 -1.5680  0.4356
 3813SOL    HW223076   2.593   2.550   7.887  0.9980  0.6998  1.0439
 3814SOL     OW23077   0.313   4.331   7.685 -0.9783 -0.7322 -0.4286
 3814SOL    HW123078   0.303   4.257   7.746  1.7667  0.0605  1.0150
 3814SOL    HW223079   0.408   4.341   7.695 -0.8893 -0.7546 -1.2966
 3815SOL     OW23080   3.270   3.806   3.474  0.2500 -0.0256  0.2719
 3815SOL    HW123081   3.190   3.761   3.446 -0.7980  1.8204  0.2666
 3815SOL    HW223082   3.301   3.851   3.396 -1.1808  0.1812 -0.1799
 3816SOL     OW23083   3.112   1.390   2.493  0.2139  0.4501 -0.0039
 3816SOL    HW123084   3.192   1.352   2.456 -0.5904 -0.5703 -0.6713
 3816SOL    HW223085   3.141   1.441   2.568  0.8557  0.6716 -0.3969
 3817SOL     OW23086   1.997   2.939  16.919 -0.3463 -0.2340  1.0813
 3817SOL    HW123087   1.925   2.990  16.957  1.1202  2.0513  0.8017
 3817SOL    HW223088   2.075   2.944  16.974  0.3203 -0.0989  0.1168
 3818SOL     OW23089   2.835   3.709   3.163  0.6176  0.1392  0.2843
 3818SOL    HW123090   2.809   3.620   3.140 -0.1287 -0.1043  2.0461
 3818SOL    HW223091   2.820   3.712   3.258 -0.4572 -1.0469  0.1569
 3819SOL     OW23092   3.598   3.312   3.147 -0.0136 -0.0356 -0.3109
 3819SOL    HW123093   3.690   3.290   3.133  0.4184  0.7541  1.3900
 3819SOL    HW223094   3.590   3.322   3.052  0.1983  1.3746 -0.1723
 3820SOL     OW23095   1.098   3.291   5.558 -0.5243 -0.1607 -0.4891
 3820SOL    HW123096   1.129   3.346   5.486 -0.6745 -0.6515 -0.9268
 3820SOL    HW223097   1.047   3.353   5.611 -0.9655  0.9630 -2.2132
 3821SOL     OW23098   3.422   0.620   5.871  0.3639  0.1579 -0.4041
 3821SOL    HW123099   3.430   0.529   5.899  0.9753  0.4679  0.4289
 3821SOL    HW223100   3.400   0.600   5.780 -0.1331 -1.8452  0.1589
 3822SOL     OW23101   1.522   2.137   8.045 -0.0679 -0.1424 -0.8394
 3822SOL    HW123102   1.505   2.064   7.985  1.4198 -0.1063 -1.3066
 3822SOL    HW223103   1.585   2.096   8.104 -0.2848  1.0889  0.2318
 3823SOL     OW23104   1.495   0.590  13.781  0.2044  0.3363 -0.5244
 3823SOL    HW123105   1.580   0.618  13.814 -0.3414  0.7743  0.5069
 3823SOL    HW223106   1.500   0.655  13.711  0.1229  0.6369 -0.2494
 3824SOL     OW23107   1.436   3.133   7.912 -0.4380  0.0073 -0.7036
 3824SOL    HW123108   1.457   3.101   8.000 -2.7287  1.6372  0.4450
 3824SOL    HW223109   1.477   3.062   7.862 -1.9428  0.2985 -2.3418
 3825SOL     OW23110   2.438   1.198   9.721 -0.6268 -0.0782 -0.5108
 3825SOL    HW123111   2.459   1.255   9.647 -0.8347 -1.2507 -1.4902
 3825SOL    HW223112   2.415   1.118   9.673 -0.0029  0.3639 -1.5438
 3826SOL     OW23113   1.829   3.531   3.920  0.2476 -0.6191  0.7623
 3826SOL    HW123114   1.887   3.605   3.937 -1.2694  0.3953  1.5948
 3826SOL    HW223115   1.748   3.582   3.931  0.8782  0.5880 -0.2617
 3827SOL     OW23116   2.413   0.313  14.411 -0.2624 -0.4333  0.5121
 3827SOL    HW123117   2.395   0.399  14.448 -2.3164 -0.4783 -0.4189
 3827SOL    HW223118   2.455   0.271  14.487  1.3859 -1.3080 -0.8874
 3828SOL     OW23119   3.499   3.479   8.058 -0.0453 -0.7101 -0.5088
 3828SOL    HW123120   3.495   3.539   7.984 -0.5411 -1.4714 -1.1054
 3828SOL    HW223121   3.405   3.468   8.074 -0.0948  0.1026 -0.2612
 3829SOL     OW23122   0.415   3.728   1.520 -0.4560  0.1548 -0.6386
 3829SOL    HW123123   0.435   3.665   1.589  2.0322 -0.6472 -2.0641
 3829SOL    HW223124   0.396   3.666   1.449  2.2096  0.0929 -1.3214
 3830SOL     OW23125   3.119   3.639  16.815 -0.1584 -0.3011  0.0933
 3830SOL    HW123126   3.079   3.694  16.748  0.4134 -1.6965 -1.3836
 3830SOL    HW223127   3.161   3.566  16.770  0.8023  0.9351 -1.0106
 3831SOL     OW23128   2.278   0.103   6.622  0.2203 -0.0735  0.0891
 3831SOL    HW123129   2.254   0.105   6.529  1.2319 -1.9173 -0.1948
 3831SOL    HW223130   2.371   0.123   6.628  0.3413 -0.5217 -0.3150
 3832SOL     OW23131   4.567   0.876  11.757 -0.2220 -0.1445  0.3897
 3832SOL    HW123132   4.613   0.958  11.737 -0.5744 -0.2828 -1.0277
 3832SOL    HW223133   4.604   0.844  11.839  0.1471  0.5418  0.4932
 3833SOL     OW23134   0.356   3.286   8.158  0.3277 -0.3178  0.0398
 3833SOL    HW123135   0.358   3.350   8.087  0.8628 -0.8144 -0.3906
 3833SOL    HW223136   0.407   3.323   8.230  1.1080  0.7359 -1.0545
 3834SOL     OW23137   0.200   4.086   6.741  0.0326  0.1624  0.0563
 3834SOL    HW123138   0.257   4.155   6.775  1.3199 -2.0267  2.3458
 3834SOL    HW223139   0.201   4.021   6.812  2.0253  0.0704 -0.0634
 3835SOL     OW23140   1.199   1.017   8.219  0.7027  0.2399  0.5169
 3835SOL    HW123141   1.257   1.044   8.147 -2.0694  1.2585 -1.3439
 3835SOL    HW223142   1.258   1.025   8.293  1.7581 -1.4416 -0.1464
 3836SOL     OW23143   2.794   1.558  10.089  0.3782  0.0956  0.3806
 3836SOL    HW123144   2.725   1.495  10.069  0.4204 -0.1197  0.9129
 3836SOL    HW223145   2.801   1.611  10.009 -1.7208 -0.5962 -0.2563
 3837SOL     OW23146   3.519   3.164   7.409 -0.7541  0.0417 -0.4567
 3837SOL    HW123147   3.564   3.247   7.427 -1.6890  1.1497 -3.1968
 3837SOL    HW223148   3.589   3.102   7.388  0.3080  1.5866 -1.5556
 3838SOL     OW23149   0.986   2.445   5.543 -1.3626  0.2487  0.2222
 3838SOL    HW123150   1.018   2.440   5.633  1.1320 -0.2407 -0.7070
 3838SOL    HW223151   0.904   2.493   5.560 -1.1091  0.9582 -0.5187
 3839SOL     OW23152   4.565   4.030  11.367  0.1937  0.5187 -0.2236
 3839SOL    HW123153   4.512   3.994  11.437 -2.8335  1.8642 -1.7893
 3839SOL    HW223154   4.501   4.089  11.326 -0.2670  0.8928  1.0302
 3840SOL     OW23155   3.672   1.456   5.383 -0.3939 -0.2772  0.1157
 3840SOL    HW123156   3.766   1.471   5.370 -0.1959  0.3737  2.2916
 3840SOL    HW223157   3.660   1.381   5.326  1.0909 -0.9010  0.6352
 3841SOL     OW23158   3.091   3.478   4.413 -0.4764  0.0281  0.3495
 3841SOL    HW123159   3.171   3.426   4.413  0.0073  0.7690 -1.5181
 3841SOL    HW223160   3.073   3.469   4.319 -0.0094 -0.2045  0.2823
 3842SOL     OW23161   1.430   4.463   2.013 -0.0424 -0.7119 -0.2225
 3842SOL    HW123162   1.409   4.409   1.937 -1.2065  1.3020 -1.3549
 3842SOL    HW223163   1.346   4.492   2.048  1.0089 -1.2362  2.7077
 3843SOL     OW23164   3.174   1.813   0.888 -0.7344 -0.5352  0.7249
 3843SOL    HW123165   3.217   1.785   0.808 -2.1008 -0.0686 -0.1691
 3843SOL    HW223166   3.114   1.882   0.860  1.8633  1.0041 -1.1232
 3844SOL     OW23167   0.546   1.046   6.970 -0.3154 -0.1515 -0.7792
 3844SOL    HW123168   0.611   1.116   6.958  0.7210 -0.6589  1.8018
 3844SOL    HW223169   0.570   1.011   7.056  0.6361 -1.0943 -1.4320
 3845SOL     OW23170   4.608   1.904   1.067  0.5645  0.0020 -0.1454
 3845SOL    HW123171   4.639   1.827   1.020  0.4148  0.4168 -0.9216
 3845SOL    HW223172   4.674   1.969   1.043 -0.3791  1.3802  0.9904
 3846SOL     OW23173   2.246   4.456   6.741 -0.0404 -0.0219  0.3642
 3846SOL    HW123174   2.277   4.409   6.663  1.2014 -1.1580  1.5485
 3846SOL    HW223175   2.227   4.383   6.800 -0.2379 -0.3106 -0.0563
 3847SOL     OW23176   2.532   3.398  13.294 -0.2516  0.6965 -0.7562
 3847SOL    HW123177   2.492   3.456  13.359  1.5440  0.5481  0.4977
 3847SOL    HW223178   2.466   3.331  13.274 -0.6376  0.7564  0.3196
 3848SOL     OW23179   4.475   3.192   9.831  0.2097 -0.0345 -0.1879
 3848SOL    HW123180   4.391   3.200   9.787  0.3998 -0.3643 -0.6180
 3848SOL    HW223181   4.488   3.098   9.848  0.1598 -0.2522 -1.3505
 3849SOL     OW23182   0.112   0.837  11.211 -0.5659  0.0735 -0.3836
 3849SOL    HW123183   0.168   0.759  11.207 -0.9170 -0.0983 -1.8098
 3849SOL    HW223184   0.136   0.855  11.302  1.8603  0.7514 -1.1417
 3850SOL     OW23185   4.717   2.808   4.155  0.4231  0.0715  0.0536
 3850SOL    HW123186   0.030   2.751   4.209 -2.0696 -2.1084  0.2028
 3850SOL    HW223187   4.724   2.763   4.070 -2.8000 -0.5541  0.1200
 3851SOL     OW23188   2.530   3.335  13.663 -0.5558 -0.4481  0.1217
 3851SOL    HW123189   2.604   3.287  13.700 -0.5018 -1.4234 -1.2728
 3851SOL    HW223190   2.456   3.302  13.714  1.0139 -0.4251  2.4056
 3852SOL     OW23191   3.820   4.444   1.906 -0.1909 -0.6056 -0.0225
 3852SOL    HW123192   3.885   4.415   1.970  1.5937  0.3212 -1.4282
 3852SOL    HW223193   3.849   4.431   1.816 -0.8620  2.2468 -0.6428
 3853SOL     OW23194   2.355   0.043   5.280 -0.0954 -0.1176 -0.2749
 3853SOL    HW123195   2.276   0.089   5.308  0.3584  0.3831  0.1667
 3853SOL    HW223196   2.415   0.068   5.350  0.7783  0.0098 -1.0748
 3854SOL     OW23197   0.074   3.581  17.706 -0.0565  0.1512 -0.7143
 3854SOL    HW123198   0.025   3.613   0.024  2.6349  2.0101  0.2400
 3854SOL    HW223199   0.041   3.650  17.648 -0.9917 -1.6934 -2.3502
 3855SOL     OW23200   2.321   1.060   1.757  0.0235  0.1243  0.0717
 3855SOL    HW123201   2.301   1.144   1.796  3.8532  0.3001  1.6637
 3855SOL    HW223202   2.280   1.061   1.670 -2.1544  1.2968  1.1125
 3856SOL     OW23203   2.478   4.627  14.573 -0.9344 -0.1914  0.2623
 3856SOL    HW123204   2.397   4.616  14.622  0.2006  1.3751  2.4934
 3856SOL    HW223205   2.541   4.673  14.628  0.4516  0.0353 -1.4886
 3857SOL     OW23206   2.747   4.667   8.181 -0.1421  0.1466 -0.0004
 3857SOL    HW123207   2.714   0.016   8.179  0.3600  0.3452  0.6287
 3857SOL    HW223208   2.697   4.626   8.110  0.7185 -1.2067  0.1536
 3858SOL     OW23209   1.325   0.457   8.977 -0.4749  0.4415  0.3377
 3858SOL    HW123210   1.231   0.446   8.963 -0.4819 -0.8573  1.4781
 3858SOL    HW223211   1.346   0.454   8.883 -0.7347  1.4473  0.2407
 3859SOL     OW23212   3.855   1.913   8.440  0.1224 -0.1626 -1.1166
 3859SOL    HW123213   3.765   1.917   8.470  1.0646 -0.7924  1.7716
 3859SOL    HW223214   3.840   1.927   8.346  1.5660 -1.9562 -1.6238
 3860SOL     OW23215   4.627   4.056  17.725  0.3397 -0.5216 -0.0850
 3860SOL    HW123216   4.678   4.119   0.017  1.9027 -2.3023  0.5621
 3860SOL    HW223217   4.589   4.112  17.657 -1.6394 -0.9932  0.6475
 3861SOL     OW23218   0.315   2.421   3.066  0.4466  0.1873 -0.7078
 3861SOL    HW123219   0.222   2.396   3.071  0.2695  0.9655 -0.1197
 3861SOL    HW223220   0.363   2.345   3.097 -0.1520 -0.1705 -0.6577
 3862SOL     OW23221   1.542   0.071   5.402 -0.5067  0.0652  0.4988
 3862SOL    HW123222   1.471   0.018   5.439  2.4510 -2.6660  2.2080
 3862SOL    HW223223   1.530   0.160   5.437 -1.5166  0.2891 -0.4121
 3863SOL     OW23224   4.733   1.228   6.970 -0.1870  0.0048  0.4089
 3863SOL    HW123225   0.036   1.236   7.055 -0.3651  0.6840  0.4418
 3863SOL    HW223226   4.644   1.259   6.991 -0.3529  0.3444 -0.8201
 3864SOL     OW23227   0.944   0.889   0.995  0.0763 -0.1456 -0.5492
 3864SOL    HW123228   1.004   0.830   1.042  0.5208 -0.2642 -1.2637
 3864SOL    HW223229   1.008   0.930   0.937  0.5226  0.4134  0.3500
 3865SOL     OW23230   2.145   3.478   4.027 -0.1924  0.1606 -0.0284
 3865SOL    HW123231   2.163   3.436   3.944  1.3089  0.0281  0.3739
 3865SOL    HW223232   2.070   3.425   4.054 -0.4750  2.4264  3.7542
 3866SOL     OW23233   1.684   2.511   6.285  0.1879  0.0385 -0.1296
 3866SOL    HW123234   1.764   2.558   6.265  1.1934 -1.3118  0.6651
 3866SOL    HW223235   1.631   2.543   6.212  1.7677  1.3957 -0.6552
 3867SOL     OW23236   4.471   0.818   7.049  0.1400  0.4381 -0.8430
 3867SOL    HW123237   4.430   0.744   7.094  0.2828  0.8481 -0.0298
 3867SOL    HW223238   4.543   0.841   7.108  1.3341  0.0185 -2.1469
 3868SOL     OW23239   1.721   4.655   2.605 -0.6098 -0.1694  0.1584
 3868SOL    HW123240   1.775   4.730   2.626 -0.8174 -0.1284  0.5374
 3868SOL    HW223241   1.674   4.678   2.524  1.3328  0.9604 -0.6332
 3869SOL     OW23242   4.605   3.690   8.537 -0.8233  0.4712  0.1578
 3869SOL    HW123243   4.582   3.652   8.452 -2.9490 -2.8248  2.1786
 3869SOL    HW223244   4.701   3.688   8.543 -0.6368  0.6859 -2.8317
 3870SOL     OW23245   1.198   3.656   2.010  0.2521  0.1662  0.4121
 3870SOL    HW123246   1.116   3.620   2.045 -1.0225  1.6138 -1.0655
 3870SOL    HW223247   1.184   3.750   2.022  1.2817  0.2791  0.6845
 3871SOL     OW23248   3.678   2.679   6.503 -0.0594  0.0182 -0.5131
 3871SOL    HW123249   3.720   2.727   6.432  2.2073 -0.3005  0.5833
 3871SOL    HW223250   3.715   2.737   6.570  1.7263 -2.0647  0.3087
 3872SOL     OW23251   0.767   2.352   8.676  0.3923 -0.0300 -0.0491
 3872SOL    HW123252   0.821   2.332   8.600  0.4365 -0.7744  0.1798
 3872SOL    HW223253   0.692   2.294   8.662  2.6877 -2.4252 -2.4816
 3873SOL     OW23254   2.008   0.387   5.767 -0.5795 -0.0987 -0.0688
 3873SOL    HW123255   2.028   0.308   5.816  2.5268 -0.1590 -1.4532
 3873SOL    HW223256   1.917   0.368   5.743 -0.3468 -1.5678  0.2226
 3874SOL     OW23257   4.519   3.302   7.619  0.4243  0.0025  0.4698
 3874SOL    HW123258   4.458   3.362   7.576  1.0672 -0.2634 -0.7942
 3874SOL    HW223259   4.528   3.230   7.557 -0.6179 -1.9450  2.5963
 3875SOL     OW23260   2.074   2.000   3.554  0.0240 -0.1228 -0.0727
 3875SOL    HW123261   2.087   2.021   3.462 -0.4776  0.9908  0.1166
 3875SOL    HW223262   2.115   1.914   3.565  1.6678  0.5556 -1.0034
 3876SOL     OW23263   3.472   4.680   1.796 -0.2284  0.2743  0.0265
 3876SOL    HW123264   3.494   4.600   1.844 -0.8765  0.3053  0.3766
 3876SOL    HW223265   3.393   4.658   1.747 -0.3724  1.9311 -0.4802
 3877SOL     OW23266   3.085   2.432   8.265  0.1194  0.2948  0.4478
 3877SOL    HW123267   3.148   2.505   8.265 -0.0337  0.4398 -2.3326
 3877SOL    HW223268   3.090   2.407   8.357 -0.5470 -0.5815  0.2369
 3878SOL     OW23269   1.308   0.543  14.701 -0.7684 -0.0498 -0.1473
 3878SOL    HW123270   1.236   0.587  14.655  0.1845  1.7000  0.0562
 3878SOL    HW223271   1.319   0.460  14.655  0.2742 -0.3995  0.7364
 3879SOL     OW23272   2.183   2.281  15.531 -0.3086  0.0250  0.4840
 3879SOL    HW123273   2.238   2.218  15.578  1.7433  1.1245 -0.5025
 3879SOL    HW223274   2.239   2.357  15.542 -0.5429  0.1890  0.5380
 3880SOL     OW23275   3.634   2.703   6.858 -0.2074 -0.1507  0.1815
 3880SOL    HW123276   3.540   2.684   6.853 -0.6811  2.5802 -1.3055
 3880SOL    HW223277   3.670   2.615   6.865  0.7712  0.0563 -2.1231
 3881SOL     OW23278   3.239   4.444   0.792 -0.5312 -0.2334 -0.2481
 3881SOL    HW123279   3.286   4.372   0.835  3.3467  1.3308 -1.9155
 3881SOL    HW223280   3.297   4.517   0.810 -1.6068  0.0114  2.2290
 3882SOL     OW23281   1.227   3.865   1.694  0.3658  0.6683  0.7183
 3882SOL    HW123282   1.304   3.869   1.751  0.4616 -1.5823  0.7371
 3882SOL    HW223283   1.188   3.949   1.716 -1.6669 -0.0888 -0.0167
 3883SOL     OW23284   0.073   3.357   1.273 -0.0968  0.0783  0.6212
 3883SOL    HW123285   0.078   3.282   1.214 -1.6789  0.0521  0.5141
 3883SOL    HW223286   0.018   3.414   1.220  2.0476  2.0603  0.5363
 3884SOL     OW23287   0.375   3.644  15.804  0.8610  0.8524  0.0674
 3884SOL    HW123288   0.408   3.661  15.892  0.3174 -0.5855  0.5322
 3884SOL    HW223289   0.335   3.731  15.794 -0.3036  0.3113  0.0736
 3885SOL     OW23290   2.641   3.613   4.227 -0.2000 -0.2791 -0.6091
 3885SOL    HW123291   2.571   3.559   4.192  0.4678 -1.2303 -0.4679
 3885SOL    HW223292   2.711   3.584   4.170 -0.4647 -0.4383 -0.8512
 3886SOL     OW23293   0.758   2.619  13.292  0.0130 -0.0589 -0.0661
 3886SOL    HW123294   0.767   2.713  13.306 -2.1453  0.0780  0.3843
 3886SOL    HW223295   0.666   2.599  13.272  0.2002  0.2776 -1.2284
 3887SOL     OW23296   3.331   0.492   3.551 -0.0500 -0.7912  0.0961
 3887SOL    HW123297   3.375   0.535   3.624 -0.0268  2.3640 -1.7816
 3887SOL    HW223298   3.404   0.441   3.515 -0.9618 -2.0122 -0.0243
 3888SOL     OW23299   0.905   1.477   3.057 -0.0075 -0.0646  0.9439
 3888SOL    HW123300   0.870   1.493   2.970  0.9790 -0.6484  0.4336
 3888SOL    HW223301   0.995   1.511   3.055 -0.3299  0.6429 -1.2907
 3889SOL     OW23302   3.960   3.917   7.943  0.0937  0.3326  0.0289
 3889SOL    HW123303   3.915   3.850   7.891 -0.2970 -1.5262  2.7578
 3889SOL    HW223304   4.007   3.959   7.872  1.0181  1.2789  1.2092
 3890SOL     OW23305   1.224   0.836   7.079 -0.1284  0.4421 -0.1097
 3890SOL    HW123306   1.178   0.758   7.109  0.6522 -0.6624 -1.7571
 3890SOL    HW223307   1.306   0.818   7.123 -0.2503 -0.9807 -0.4593
 3891SOL     OW23308   1.730   4.311   5.544  0.5212  0.1736 -0.6767
 3891SOL    HW123309   1.641   4.336   5.519  0.0120 -0.0532  0.9199
 3891SOL    HW223310   1.719   4.325   5.638 -1.1298  0.3726 -0.9051
 3892SOL     OW23311   0.642   0.973   9.775 -0.1410 -0.4011  0.2926
 3892SOL    HW123312   0.677   1.025   9.702  3.4167 -1.0160  1.5787
 3892SOL    HW223313   0.724   0.951   9.818  1.3398  1.4327 -1.5662
 3893SOL     OW23314   2.263   0.742  10.913  0.4565 -0.1888 -0.4827
 3893SOL    HW123315   2.296   0.686  10.983  1.7410 -0.0967 -1.0184
 3893SOL    HW223316   2.295   0.827  10.942 -0.2705 -0.0505 -0.1037
 3894SOL     OW23317   1.090   0.171  15.969 -0.2482  0.0944  0.3063
 3894SOL    HW123318   1.119   0.149  16.057  0.4433 -0.1033  0.0325
 3894SOL    HW223319   1.172   0.166  15.920 -1.0865  0.6149 -1.1679
 3895SOL     OW23320   3.815   4.555   6.880  0.0289  0.5715  0.3438
 3895SOL    HW123321   3.766   4.596   6.951 -3.9779  0.5925 -2.4725
 3895SOL    HW223322   3.895   4.605   6.895 -0.8305  2.0098  0.1414
 3896SOL     OW23323   4.258   1.044   7.240 -0.2857  0.0393  0.0653
 3896SOL    HW123324   4.169   1.062   7.209 -0.0224  0.2562 -0.5651
 3896SOL    HW223325   4.293   0.982   7.176 -2.2710 -1.0500  0.0381
 3897SOL     OW23326   4.439   1.316   4.051 -0.3566 -0.7147 -0.1136
 3897SOL    HW123327   4.417   1.242   4.108  0.1789 -0.3724  0.5388
 3897SOL    HW223328   4.394   1.385   4.100  2.7055  2.9966 -2.5914
 3898SOL     OW23329   3.423   2.362   8.750 -0.2781 -0.1081  0.2610
 3898SOL    HW123330   3.470   2.425   8.695 -1.1522  0.0499 -0.3135
 3898SOL    HW223331   3.466   2.387   8.831  3.8414  1.7439 -2.4685
 3899SOL     OW23332   4.338   4.184  11.238  0.0966  0.6745 -0.0726
 3899SOL    HW123333   4.252   4.144  11.240  0.1958  0.4839  0.2657
 3899SOL    HW223334   4.329   4.229  11.154  1.3804  0.9021 -0.0885
 3900SOL     OW23335   1.382   1.792   5.742  0.2582  0.0691  0.3384
 3900SOL    HW123336   1.346   1.879   5.758 -1.2154 -0.9415  2.6053
 3900SOL    HW223337   1.404   1.763   5.831  3.1357  1.7704  0.1737
 3901SOL     OW23338   0.746   1.557   6.097 -0.5048 -0.0201  0.0523
 3901SOL    HW123339   0.730   1.643   6.058  1.3182  0.0768 -0.4527
 3901SOL    HW223340   0.799   1.576   6.174  0.0326 -1.4724  0.0410
 3902SOL     OW23341   0.984   3.928   0.154 -0.2971  0.1122  0.8927
 3902SOL    HW123342   0.925   4.001   0.133 -1.2452 -0.0029  3.1663
 3902SOL    HW223343   1.048   3.971   0.210 -0.2504  2.8526 -1.2669
 3903SOL     OW23344   0.400   0.318   9.350  0.1052  0.6693 -0.1356
 3903SOL    HW123345   0.471   0.382   9.358  1.1364 -0.4051 -0.6443
 3903SOL    HW223346   0.335   0.377   9.386 -0.8763 -0.8658  0.6013
 3904SOL     OW23347   3.153   4.210   0.672  0.2838  0.4700  0.2170
 3904SOL    HW123348   3.162   4.238   0.581  2.2950  1.2219  0.6358
 3904SOL    HW223349   3.164   4.295   0.715  2.3712  0.5304 -0.4536
 3905SOL     OW23350   0.318   3.124   2.654 -0.2819 -0.0225  0.3821
 3905SOL    HW123351   0.368   3.198   2.619 -1.9903  0.3035 -1.3811
 3905SOL    HW223352   0.288   3.069   2.582 -0.0258 -0.6591  0.7643
 3906SOL     OW23353   3.812   2.364   1.941 -0.6884 -1.0347 -0.3535
 3906SOL    HW123354   3.850   2.424   1.876  2.6566 -1.0830  1.6016
 3906SOL    HW223355   3.792   2.284   1.892  0.6514 -2.5045  1.5168
 3907SOL     OW23356   2.337   4.345   6.490 -0.5775  0.3832  0.2125
 3907SOL    HW123357   2.290   4.407   6.434 -1.6595  0.6384  1.4159
 3907SOL    HW223358   2.302   4.260   6.467  1.1342 -0.5132  0.9258
 3908SOL     OW23359   3.969   4.486  10.984  0.0749  1.1491 -0.1649
 3908SOL    HW123360   3.998   4.395  10.974  1.1253  1.2331  2.1068
 3908SOL    HW223361   4.021   4.516  11.058 -1.2577  0.0875  1.1858
 3909SOL     OW23362   1.025   2.671   7.880 -0.2514  0.8121 -0.1143
 3909SOL    HW123363   0.999   2.671   7.972 -1.3011 -0.7489 -0.4149
 3909SOL    HW223364   1.094   2.605   7.887 -0.5802  0.4250 -0.4759
 3910SOL     OW23365   2.887   4.671   3.217 -0.3497 -0.3840  0.2163
 3910SOL    HW123366   2.920   0.018   3.237 -1.1494 -0.1756  0.6260
 3910SOL    HW223367   2.936   4.617   3.278 -0.6626 -1.9580 -0.9179
 3911SOL     OW23368   0.513   2.396   5.634  0.5052  0.0594 -0.1063
 3911SOL    HW123369   0.575   2.323   5.646  0.7363 -0.1422 -2.6081
 3911SOL    HW223370   0.469   2.398   5.719  1.6323 -0.8664  0.5163
 3912SOL     OW23371   1.893   4.415  13.115  0.2946  0.3601  0.2061
 3912SOL    HW123372   1.984   4.440  13.101 -0.2241  2.5214  0.6577
 3912SOL    HW223373   1.907   4.401  13.209  0.4730 -1.9065 -0.1657
 3913SOL     OW23374   3.154   1.773   1.366  0.0362 -0.0737  0.3037
 3913SOL    HW123375   3.062   1.786   1.390 -0.2456 -0.6998 -0.4330
 3913SOL    HW223376   3.163   1.827   1.288  0.2040 -3.8487 -2.2844
 3914SOL     OW23377   3.406   2.397   5.014 -0.2699 -0.5132 -0.3431
 3914SOL    HW123378   3.450   2.329   5.065  0.9046  0.9357  0.5847
 3914SOL    HW223379   3.413   2.468   5.078  1.7349 -0.4963 -0.5690
 3915SOL     OW23380   1.347   3.957   3.911 -0.2610 -0.5427 -0.2800
 3915SOL    HW123381   1.384   4.006   3.838  1.9960 -2.4860 -0.4103
 3915SOL    HW223382   1.309   3.882   3.866 -1.5812  0.0006 -0.0644
 3916SOL     OW23383   3.406   3.917  15.587  0.0753 -0.4609 -0.3148
 3916SOL    HW123384   3.464   3.887  15.657  1.9235  0.5928 -1.4184
 3916SOL    HW223385   3.462   3.930  15.510  0.8777 -0.9622  0.1870
 3917SOL     OW23386   1.874   0.583  15.921  0.1630 -0.9504 -0.3220
 3917SOL    HW123387   1.804   0.622  15.869  1.0966  1.4950  0.2673
 3917SOL    HW223388   1.951   0.637  15.901 -0.1613 -0.7828 -1.1146
 3918SOL     OW23389   1.954   4.036   9.716 -0.1133 -0.5278  0.2270
 3918SOL    HW123390   1.959   4.043   9.811 -0.1630  0.4691  0.1527
 3918SOL    HW223391   2.029   4.091   9.692 -1.5648  1.3887  0.1200
 3919SOL     OW23392   2.221   3.076   7.446  0.2112  0.4194  0.0135
 3919SOL    HW123393   2.145   3.059   7.502  0.6509 -2.4982 -0.2847
 3919SOL    HW223394   2.288   3.021   7.486  2.5972  2.6644 -0.8938
 3920SOL     OW23395   1.211   0.362   7.953 -0.4648  0.3395 -0.5441
 3920SOL    HW123396   1.130   0.407   7.976 -1.5165 -1.1348 -1.3521
 3920SOL    HW223397   1.269   0.435   7.932  0.5592  0.7846  3.7918
 3921SOL     OW23398   1.130   4.091   8.179 -0.3368 -0.3034 -1.1914
 3921SOL    HW123399   1.185   4.076   8.102  0.7533  0.2814 -0.5206
 3921SOL    HW223400   1.178   4.069   8.259  0.2629 -0.9786 -1.7414
 3922SOL     OW23401   1.067   4.669   5.821  0.4815 -0.0271 -0.2420
 3922SOL    HW123402   1.040   0.020   5.824  0.1943 -0.1851  2.4166
 3922SOL    HW223403   1.135   4.673   5.889 -0.7211 -0.6160  0.9973
 3923SOL     OW23404   4.664   1.044   1.118  0.2939 -0.4560 -0.3111
 3923SOL    HW123405   4.720   1.112   1.078  0.4429 -0.6835 -0.4880
 3923SOL    HW223406   4.696   0.958   1.091  0.0874 -0.3724 -0.8087
 3924SOL     OW23407   1.701   4.315   1.928 -0.4153  0.5671  0.6437
 3924SOL    HW123408   1.688   4.408   1.909 -0.6415  0.4115  0.0370
 3924SOL    HW223409   1.675   4.268   1.848 -0.5907  1.1190  0.3778
 3925SOL     OW23410   4.559   4.111   7.201 -0.9512  0.1566 -0.2591
 3925SOL    HW123411   4.542   4.171   7.273 -0.7857 -0.2208  0.0997
 3925SOL    HW223412   4.646   4.133   7.167 -0.7973  1.3658  0.9254
 3926SOL     OW23413   3.117   3.767   1.514  0.1788 -0.3204  0.3452
 3926SOL    HW123414   3.161   3.697   1.562 -1.1644 -0.1558  1.8311
 3926SOL    HW223415   3.154   3.851   1.542 -1.1009  0.1915  0.4911
 3927SOL     OW23416   3.119   4.686   3.838 -0.2049 -0.2006 -0.2644
 3927SOL    HW123417   3.054   4.665   3.905 -0.1032 -0.4675 -0.2481
 3927SOL    HW223418   3.142   4.598   3.807 -2.4454  0.0166 -2.5271
 3928SOL     OW23419   2.915   1.174   4.906 -0.0417 -0.3955 -0.5032
 3928SOL    HW123420   3.004   1.139   4.902 -0.3266 -1.0394 -1.1870
 3928SOL    HW223421   2.903   1.169   5.001 -1.7919  1.4163 -0.6156
 3929SOL     OW23422   1.316   1.587   1.712  0.3827  0.1974 -0.1102
 3929SOL    HW123423   1.377   1.592   1.785  0.7271 -1.8721 -0.2616
 3929SOL    HW223424   1.274   1.501   1.720  1.8691 -0.6014 -0.9541
 3930SOL     OW23425   3.966   1.603   9.886  0.1024 -0.4411 -0.2220
 3930SOL    HW123426   3.969   1.616   9.792 -0.9276  0.5363 -0.1108
 3930SOL    HW223427   3.880   1.565   9.904 -0.3091  0.3276 -0.6159
 3931SOL     OW23428   0.771   4.136   8.554 -0.2710 -0.4004  0.0481
 3931SOL    HW123429   0.678   4.118   8.563  0.2070 -2.4969  0.5938
 3931SOL    HW223430   0.763   4.232   8.560 -1.1513 -0.4805  0.1208
 3932SOL     OW23431   3.764   1.656   5.721  0.2264 -0.5204 -0.0575
 3932SOL    HW123432   3.781   1.687   5.632  1.1382  2.0050  1.0215
 3932SOL    HW223433   3.714   1.733   5.746  1.1859 -0.5405  1.8943
 3933SOL     OW23434   3.621   1.068   0.770  0.0163  0.0539  0.4203
 3933SOL    HW123435   3.564   1.124   0.717  0.1433 -0.8854 -0.7249
 3933SOL    HW223436   3.650   1.137   0.829  0.3005 -1.2501  1.7908
 3934SOL     OW23437   0.064   2.360   2.347 -0.0398 -0.1574 -0.1588
 3934SOL    HW123438   0.004   2.381   2.276  0.4597 -1.2181 -0.8915
 3934SOL    HW223439   4.735   2.342   2.411 -0.0997 -0.0213 -0.1848
 3935SOL     OW23440   3.218   1.025   3.536 -0.5724  0.4914  0.4560
 3935SOL    HW123441   3.138   1.016   3.588 -1.1285  0.9339 -0.3272
 3935SOL    HW223442   3.204   1.108   3.492  0.1841  0.8478  0.8890
 3936SOL     OW23443   1.210   1.601   1.435  0.4117 -0.2774 -0.0843
 3936SOL    HW123444   1.153   1.526   1.419 -1.3590  1.1195 -0.2514
 3936SOL    HW223445   1.224   1.596   1.530 -1.0232  1.2924  0.2154
 3937SOL     OW23446   1.062   2.809   3.382 -1.3425  0.3020  0.4873
 3937SOL    HW123447   1.022   2.727   3.413  0.0983 -1.4322 -2.1796
 3937SOL    HW223448   0.988   2.856   3.343 -0.8155  0.0161 -0.8456
 3938SOL     OW23449   0.115   3.683   7.389 -0.1486  0.6141  0.0272
 3938SOL    HW123450   0.039   3.693   7.447 -0.4191 -1.9182  0.0990
 3938SOL    HW223451   0.107   3.590   7.368  1.5931  0.0216  2.0539
 3939SOL     OW23452   0.935   3.996  13.474  0.3359 -0.1899 -0.0204
 3939SOL    HW123453   0.948   3.901  13.483  1.6828 -0.0641 -0.5414
 3939SOL    HW223454   0.935   3.997  13.570  0.4847  1.7836 -0.0455
 3940SOL     OW23455   4.671   1.232   2.219 -0.2212 -0.3163  0.8726
 3940SOL    HW123456   4.628   1.184   2.289  3.1809 -1.2213  2.2941
 3940SOL    HW223457   4.739   1.274   2.272  1.1298  1.3685 -2.1669
 3941SOL     OW23458   2.007   2.072  10.704 -0.2056 -0.3347  0.1456
 3941SOL    HW123459   2.057   1.991  10.700 -1.3540 -1.0819  0.9019
 3941SOL    HW223460   1.989   2.073  10.798  0.3858  0.0183  0.2542
 3942SOL     OW23461   1.712   1.744   6.266  0.0318 -0.0738  0.0372
 3942SOL    HW123462   1.624   1.716   6.294 -0.6786  1.7040 -0.3981
 3942SOL    HW223463   1.746   1.664   6.226 -1.6555 -0.6678 -0.2178
 3943SOL     OW23464   1.991   2.639   1.977 -0.2936 -0.5244 -0.1483
 3943SOL    HW123465   2.087   2.643   1.970 -0.0779 -1.7875  2.0197
 3943SOL    HW223466   1.964   2.626   1.886 -2.5471 -1.6676  0.6930
 3944SOL     OW23467   4.603   2.308   5.336 -0.5278  0.4824 -0.2718
 3944SOL    HW123468   4.508   2.317   5.340 -0.7812 -1.3444 -1.9847
 3944SOL    HW223469   4.617   2.295   5.242 -0.1287  0.9239 -0.2761
 3945SOL     OW23470   2.964   3.500   3.532 -0.7194  0.6861  0.0182
 3945SOL    HW123471   2.994   3.415   3.564 -0.0378  0.8647 -0.1476
 3945SOL    HW223472   2.980   3.557   3.607 -2.0510  0.7582  0.2502
 3946SOL     OW23473   4.191   3.319   5.686  0.2011  0.1578  0.5542
 3946SOL    HW123474   4.181   3.394   5.627 -0.5471  0.6442  1.2906
 3946SOL    HW223475   4.283   3.316   5.711  0.4210 -1.1695 -0.4353
 3947SOL     OW23476   3.920   3.668   3.848  0.5215  0.0899 -0.2952
 3947SOL    HW123477   3.903   3.656   3.941 -0.5136  2.2131 -0.2263
 3947SOL    HW223478   3.972   3.592   3.819  0.7821 -0.0967  0.6685
 3948SOL     OW23479   3.996   2.905   7.199  0.2936 -0.5302  0.0380
 3948SOL    HW123480   3.902   2.916   7.210  0.6520  1.0154  1.7179
 3948SOL    HW223481   4.025   2.870   7.283  2.7270  1.3415  0.0129
 3949SOL     OW23482   1.836   1.595  16.652 -0.0867  0.3037 -0.1154
 3949SOL    HW123483   1.874   1.533  16.590 -2.1136  0.7916 -1.8482
 3949SOL    HW223484   1.918   1.625  16.691 -0.7925  0.6279  1.1105
 3950SOL     OW23485   1.680   1.996  11.103 -0.1656 -0.2803 -0.3745
 3950SOL    HW123486   1.675   2.086  11.137 -0.4749 -0.4439  0.0256
 3950SOL    HW223487   1.711   1.953  11.183  2.7675  3.4690  0.5505
 3951SOL     OW23488   3.890   3.397  16.299  0.2217  0.0573  0.6028
 3951SOL    HW123489   3.905   3.321  16.242  0.9628  1.3160 -0.8849
 3951SOL    HW223490   3.968   3.451  16.288  0.0771  0.2034  0.2633
 3952SOL     OW23491   0.933   0.651  10.794  0.1743 -0.0964 -0.1569
 3952SOL    HW123492   0.858   0.703  10.821  1.0119  0.2888  1.4025
 3952SOL    HW223493   0.950   0.674  10.702 -0.0882  0.2321 -0.1239
 3953SOL     OW23494   1.074   1.269  14.203  0.3366  0.1677  0.4553
 3953SOL    HW123495   1.053   1.178  14.224 -1.3096 -0.0380 -2.0654
 3953SOL    HW223496   1.137   1.263  14.131  0.8780  2.5983  0.7184
 3954SOL     OW23497   2.026   0.626   8.461 -0.0256  0.2569 -0.4048
 3954SOL    HW123498   1.952   0.679   8.431  0.5804 -0.0706 -2.4875
 3954SOL    HW223499   2.075   0.615   8.380 -0.8301 -0.7895 -0.7599
 3955SOL     OW23500   2.537   1.055   7.514  1.2106 -0.0506  0.4299
 3955SOL    HW123501   2.527   0.960   7.504  3.1352 -0.2460  0.3259
 3955SOL    HW223502   2.587   1.060   7.595  0.0809  3.7439  0.8610
 3956SOL     OW23503   3.223   0.182   3.728 -1.0273  0.4068  0.0088
 3956SOL    HW123504   3.196   0.100   3.770  1.0951 -0.5076 -0.3922
 3956SOL    HW223505   3.293   0.202   3.790  1.3179  0.1153 -2.5456
 3957SOL     OW23506   0.763   2.223   5.620 -0.2064 -0.0199 -0.5997
 3957SOL    HW123507   0.759   2.263   5.533  0.9894 -0.4126 -0.8383
 3957SOL    HW223508   0.856   2.224   5.641 -0.1992 -0.4386 -0.6092
 3958SOL     OW23509   4.008   1.957  15.844  0.6842 -0.0006  0.0230
 3958SOL    HW123510   4.078   1.898  15.870  0.0094 -1.4085 -1.3681
 3958SOL    HW223511   4.045   2.001  15.768 -0.5965 -1.1233 -1.2481
 3959SOL     OW23512   4.724   2.515  11.838 -0.0585  0.8535 -0.4929
 3959SOL    HW123513   4.733   2.465  11.757  0.4117 -0.2176  0.2203
 3959SOL    HW223514   4.734   2.604  11.804  1.1827  0.9606  0.1401
 3960SOL     OW23515   4.358   3.773   5.162  0.0685 -0.9391  0.2332
 3960SOL    HW123516   4.383   3.707   5.227  0.6349 -2.0533 -1.1101
 3960SOL    HW223517   4.328   3.845   5.217 -0.7219 -2.6312  2.0298
 3961SOL     OW23518   0.181   3.337   1.685 -0.4822 -0.7097 -0.2818
 3961SOL    HW123519   0.220   3.323   1.771 -0.6961 -1.7450 -0.3521
 3961SOL    HW223520   0.255   3.353   1.626 -0.6856  2.3710  0.2805
 3962SOL     OW23521   2.157   1.627   4.022 -0.4788 -0.4196 -0.0788
 3962SOL    HW123522   2.063   1.619   4.003 -0.5352  0.2833 -0.1013
 3962SOL    HW223523   2.159   1.681   4.101 -1.7624  0.3913 -0.6069
 3963SOL     OW23524   4.181   1.932   5.239  0.3609  0.4113 -0.2843
 3963SOL    HW123525   4.208   1.967   5.154  1.8520  0.1190  0.0641
 3963SOL    HW223526   4.253   1.963   5.295  0.2442  0.5323 -0.2027
 3964SOL     OW23527   2.733   4.157   4.262  0.4625  0.0508 -0.6846
 3964SOL    HW123528   2.700   4.235   4.307  1.3501  0.3080 -0.4878
 3964SOL    HW223529   2.790   4.125   4.332 -1.0783 -0.8217  0.1739
 3965SOL     OW23530   4.182   0.628   0.006  0.0270  0.1155  0.0710
 3965SOL    HW123531   4.234   0.690  17.713  0.8755 -1.4087 -0.9290
 3965SOL    HW223532   4.223   0.644   0.091  0.4337  2.1578 -0.5013
 3966SOL     OW23533   3.963   4.002   3.020 -0.0050  0.2672 -0.3598
 3966SOL    HW123534   3.878   4.016   2.978 -0.0948 -0.1819 -0.3333
 3966SOL    HW223535   4.031   4.025   2.958  0.7120  1.7357  0.9652
 3967SOL     OW23536   0.406   4.608   8.033 -0.2926  0.3070 -0.6881
 3967SOL    HW123537   0.332   4.584   7.977 -1.1123 -0.4758  0.6937
 3967SOL    HW223538   0.386   4.701   8.043  0.4036  0.2241  1.4508
 3968SOL     OW23539   1.377   3.749   6.958  0.4832 -0.1197  0.6593
 3968SOL    HW123540   1.304   3.792   7.004 -0.8291  0.4158 -1.9077
 3968SOL    HW223541   1.384   3.659   6.990 -1.9585  0.1414  1.9945
 3969SOL     OW23542   4.244   0.489   2.823  0.7125 -0.2323 -0.0429
 3969SOL    HW123543   4.238   0.546   2.899  1.9827  0.1349 -0.2099
 3969SOL    HW223544   4.296   0.420   2.865 -0.5217 -0.8969  0.3914
 3970SOL     OW23545   3.428   0.291  10.886  0.2230 -0.2647  0.0695
 3970SOL    HW123546   3.406   0.235  10.960  0.6175  0.0924  0.4608
 3970SOL    HW223547   3.472   0.359  10.938 -1.4403  1.9624 -1.4416
 3971SOL     OW23548   0.326   0.990   2.071  0.2553 -0.0980 -0.0249
 3971SOL    HW123549   0.252   1.049   2.065  0.7563  0.4460 -0.7458
 3971SOL    HW223550   0.290   0.912   2.028  2.1416 -2.3529  2.4129
 3972SOL     OW23551   0.504   0.294   5.804  0.2215  0.1059 -0.0561
 3972SOL    HW123552   0.420   0.251   5.817 -1.2404  2.6967 -0.8801
 3972SOL    HW223553   0.488   0.384   5.833 -1.4855 -0.0048 -0.6344
 3973SOL     OW23554   1.706   4.638   5.702 -0.5628  0.5797  0.1306
 3973SOL    HW123555   1.613   4.613   5.696 -0.2137 -1.2768  2.2432
 3973SOL    HW223556   1.737   4.576   5.768  0.5195  1.3557  0.3510
 3974SOL     OW23557   3.884   3.238  16.995 -0.4544 -0.3475  0.1372
 3974SOL    HW123558   3.912   3.253  17.085  1.3516 -2.3769 -0.0826
 3974SOL    HW223559   3.928   3.312  16.954 -0.1679  0.0454  1.1486
 3975SOL     OW23560   0.375   0.077   7.278 -0.0447  0.5618  0.2049
 3975SOL    HW123561   0.348   0.134   7.206 -0.2342  1.4378  0.9671
 3975SOL    HW223562   0.444   0.032   7.230  1.5940  2.5944  0.6360
 3976SOL     OW23563   0.560   3.540   1.674  0.2253 -0.3323 -0.3185
 3976SOL    HW123564   0.557   3.588   1.757  2.3396  0.5656 -0.7775
 3976SOL    HW223565   0.650   3.513   1.659  1.1107  1.8139  1.2466
 3977SOL     OW23566   2.799   4.042   8.273 -0.4536 -0.1118  0.1114
 3977SOL    HW123567   2.711   4.073   8.294 -0.8263 -2.4945  2.1532
 3977SOL    HW223568   2.809   4.100   8.198 -0.4982  0.7263  0.7543
 3978SOL     OW23569   0.938   0.203   8.494  0.8613 -0.1333  0.0716
 3978SOL    HW123570   0.878   0.212   8.420  0.0486 -1.6215  0.5664
 3978SOL    HW223571   0.898   0.271   8.549 -0.8378 -1.8535  0.9463
 3979SOL     OW23572   0.605   4.036  12.278 -0.0212  0.0660 -0.0356
 3979SOL    HW123573   0.641   3.958  12.320 -0.6254 -0.9531 -1.3992
 3979SOL    HW223574   0.672   4.098  12.307 -1.1708  1.7316 -0.9414
 3980SOL     OW23575   4.706   0.790  17.251  0.7584 -0.5277  0.4359
 3980SOL    HW123576   0.031   0.860  17.253 -0.8574  1.0186 -1.1561
 3980SOL    HW223577   4.736   0.726  17.186 -0.7717 -0.7255 -0.0819
 3981SOL     OW23578   0.870   3.502   3.935 -0.1662 -0.5044 -0.0333
 3981SOL    HW123579   0.851   3.518   4.027 -0.6942 -1.8607  0.0974
 3981SOL    HW223580   0.948   3.557   3.924  0.4361 -1.9658 -3.0746
 3982SOL     OW23581   2.995   3.849   5.875 -0.0872 -0.2036 -0.6988
 3982SOL    HW123582   3.001   3.862   5.780 -0.2206 -0.5679 -0.7555
 3982SOL    HW223583   2.933   3.776   5.880 -1.8492  1.3521 -0.1858
 3983SOL     OW23584   1.016   1.852   6.310  0.3499 -0.8435 -0.0813
 3983SOL    HW123585   1.069   1.902   6.248 -1.6049 -0.1423 -1.2093
 3983SOL    HW223586   0.926   1.881   6.296  0.6165 -0.4646 -0.9881
 3984SOL     OW23587   0.888   1.626   2.813  0.2204 -0.2318 -0.3103
 3984SOL    HW123588   0.967   1.677   2.796  0.1153  0.2991  0.7710
 3984SOL    HW223589   0.822   1.689   2.841  3.6397  2.9690  0.6875
 3985SOL     OW23590   2.116   2.621   8.193  0.1033  0.5101 -0.4498
 3985SOL    HW123591   2.099   2.691   8.130  0.4348  0.9917 -0.0025
 3985SOL    HW223592   2.195   2.655   8.235 -1.5165  3.6253  0.0711
 3986SOL     OW23593   3.248   3.139   1.678  0.4454  0.3138  0.0744
 3986SOL    HW123594   3.204   3.095   1.751 -0.3177  2.3168  0.8211
 3986SOL    HW223595   3.340   3.113   1.690  0.5770  0.9239  0.3589
 3987SOL     OW23596   3.482   0.818  13.014 -0.8443  0.2813  0.2640
 3987SOL    HW123597   3.502   0.896  13.066 -0.1973  0.1471  0.2168
 3987SOL    HW223598   3.508   0.745  13.070 -0.1662  0.7292  0.5432
 3988SOL     OW23599   4.556   3.111   4.707 -0.0669 -0.2771  0.4039
 3988SOL    HW123600   4.592   3.034   4.663  0.5950 -0.0153  0.4728
 3988SOL    HW223601   4.481   3.131   4.650 -0.9681 -1.4470  1.1897
 3989SOL     OW23602   2.160   4.230   9.746 -0.1589 -0.4966  0.0945
 3989SOL    HW123603   2.105   4.302   9.778 -0.5377 -1.4270  1.5629
 3989SOL    HW223604   2.231   4.277   9.703  1.3998 -1.1054  2.0461
 3990SOL     OW23605   0.504   0.824   1.608  0.9544 -0.2513  0.3848
 3990SOL    HW123606   0.441   0.886   1.571 -0.4109 -1.6647  0.3584
 3990SOL    HW223607   0.464   0.745   1.571  0.1078 -0.2194  1.2232
 3991SOL     OW23608   2.030   0.157   4.151  0.0282  0.1553 -0.2545
 3991SOL    HW123609   2.031   0.189   4.061 -1.0126 -0.0681 -0.3432
 3991SOL    HW223610   2.088   0.224   4.187  0.2316  0.2713 -0.8065
 3992SOL     OW23611   4.237   4.073   7.525 -0.1118 -0.0081 -0.1598
 3992SOL    HW123612   4.308   4.045   7.466  0.0373  1.6917 -0.7813
 3992SOL    HW223613   4.237   4.168   7.515  1.2666  0.0143 -0.0501
 3993SOL     OW23614   2.815   3.147   7.404 -0.0617 -0.1634  0.5394
 3993SOL    HW123615   2.866   3.110   7.331 -0.3512 -0.1679  0.3386
 3993SOL    HW223616   2.732   3.126   7.361 -0.5353 -0.7505  1.7642
 3994SOL     OW23617   1.850   0.082   8.344 -0.3513 -0.4739 -0.2618
 3994SOL    HW123618   1.844   0.178   8.348 -0.9930 -0.5536  0.6793
 3994SOL    HW223619   1.761   0.065   8.314 -0.3880 -1.0125  0.1554
 3995SOL     OW23620   3.089   2.488   7.512 -0.3371 -0.1254  0.0588
 3995SOL    HW123621   3.139   2.562   7.547  0.3214 -0.0631 -0.9960
 3995SOL    HW223622   3.134   2.467   7.430 -0.2003  0.2035  0.0486
 3996SOL     OW23623   2.231   1.830   5.695 -0.3234 -0.1016 -0.0998
 3996SOL    HW123624   2.183   1.755   5.661  1.7641 -0.6563 -1.8625
 3996SOL    HW223625   2.307   1.786   5.735  1.6506  3.3029 -0.1056
 3997SOL     OW23626   1.824   4.097   5.889 -0.4649  0.7752 -0.3100
 3997SOL    HW123627   1.771   4.059   5.959 -1.1877  3.7399  0.7278
 3997SOL    HW223628   1.865   4.167   5.940 -0.0214  1.2869 -1.3576
 3998SOL     OW23629   3.429   3.849   0.656 -0.4955  0.2166 -0.1576
 3998SOL    HW123630   3.489   3.785   0.619  0.8080  0.5533  1.3434
 3998SOL    HW223631   3.389   3.805   0.731  1.1909 -0.9901  0.0135
 3999SOL     OW23632   0.390   1.877  10.585  0.3507 -0.1455  0.4039
 3999SOL    HW123633   0.478   1.897  10.616  0.3278 -1.3415  1.2395
 3999SOL    HW223634   0.408   1.891  10.492  0.9539 -1.8168  0.2799
 4000SOL     OW23635   1.869   3.675   2.717 -0.7247  0.2691  0.3881
 4000SOL    HW123636   1.822   3.758   2.724 -0.2438  0.4822  1.2005
 4000SOL    HW223637   1.913   3.694   2.635 -1.6683 -0.1685 -0.2150
 4001SOL     OW23638   3.555   0.520   7.954  0.4334  0.3133  0.6055
 4001SOL    HW123639   3.589   0.579   8.021  2.3955 -1.7651  1.4574
 4001SOL    HW223640   3.631   0.500   7.898  0.4885  0.2967  0.6853
 4002SOL     OW23641   1.682   3.182   6.278  0.0500  0.6985 -0.4054
 4002SOL    HW123642   1.760   3.133   6.304  0.8697  1.7151 -0.9422
 4002SOL    HW223643   1.605   3.147   6.324 -0.8679  0.3584 -2.2136
 4003SOL     OW23644   2.312   4.587   8.038 -0.1809 -0.4541 -0.4157
 4003SOL    HW123645   2.304   4.657   8.103  0.8721 -1.9034  1.2891
 4003SOL    HW223646   2.404   4.601   8.017 -0.0200  1.1423  1.3399
 4004SOL     OW23647   1.183   4.228   2.241 -0.3337 -0.3046  0.4925
 4004SOL    HW123648   1.208   4.206   2.152 -0.0765 -0.3977  0.5890
 4004SOL    HW223649   1.087   4.229   2.246 -0.2045  3.5755  2.4040
 4005SOL     OW23650   3.260   4.489   7.073  0.2463  0.1690 -0.4063
 4005SOL    HW123651   3.316   4.468   7.148 -0.3898  0.3413  0.1182
 4005SOL    HW223652   3.204   4.560   7.103  2.3390  1.4363  0.5192
 4006SOL     OW23653   0.531   4.055   8.649 -0.1638 -0.0996 -0.1082
 4006SOL    HW123654   0.512   3.984   8.587  0.0241  1.4112 -1.8955
 4006SOL    HW223655   0.443   4.092   8.659 -1.0750 -2.0255 -1.0047
 4007SOL     OW23656   3.329   3.501  13.250  0.4377 -0.0938 -0.0483
 4007SOL    HW123657   3.277   3.428  13.285  0.5345  1.0032  2.4095
 4007SOL    HW223658   3.420   3.471  13.258  0.1741 -0.4895  1.5100
 4008SOL     OW23659   0.327   1.518  17.549  0.0719  0.0918 -0.1451
 4008SOL    HW123660   0.395   1.453  17.532  1.7924  1.3516  1.7583
 4008SOL    HW223661   0.367   1.598  17.514 -0.5461  0.4043 -0.1467
 4009SOL     OW23662   3.897   4.597   2.451  0.6553  0.1908  1.0270
 4009SOL    HW123663   3.832   4.531   2.473  1.0354  0.0033  1.5816
 4009SOL    HW223664   3.943   4.604   2.534  2.5462  0.9548 -0.0767
 4010SOL     OW23665   4.370   1.663   2.508 -0.4073 -0.0696 -0.3823
 4010SOL    HW123666   4.445   1.722   2.508 -1.7399  1.6589  0.8009
 4010SOL    HW223667   4.403   1.601   2.443  1.1034  1.2934 -0.9303
 4011SOL     OW23668   1.576   3.341   3.627  0.6725  0.2902 -0.2471
 4011SOL    HW123669   1.621   3.351   3.543  1.6492 -0.5080  0.1856
 4011SOL    HW223670   1.530   3.259   3.608 -1.3948  1.2846  0.4669
 4012SOL     OW23671   1.746   1.190   0.723 -0.6970 -0.1203 -0.8893
 4012SOL    HW123672   1.745   1.258   0.655  0.4237 -1.0615 -1.8342
 4012SOL    HW223673   1.711   1.114   0.676 -0.9646  0.7577 -2.1227
 4013SOL     OW23674   3.027   0.499   7.805  0.2748 -0.4238  0.4762
 4013SOL    HW123675   3.049   0.592   7.806 -1.0188 -0.1049 -0.2423
 4013SOL    HW223676   3.095   0.469   7.746 -0.6534  0.4394 -1.0355
 4014SOL     OW23677   4.432   4.334  12.859  0.6495 -0.5159 -0.1993
 4014SOL    HW123678   4.338   4.344  12.842  0.3722 -1.4541  0.7782
 4014SOL    HW223679   4.469   4.422  12.857  1.6138 -0.9545 -1.7221
 4015SOL     OW23680   0.157   3.193   8.305 -0.4053  0.2041 -0.2399
 4015SOL    HW123681   0.201   3.232   8.231 -1.0071  0.0871 -0.6566
 4015SOL    HW223682   0.231   3.147   8.346 -1.3330 -1.6389 -0.6076
 4016SOL     OW23683   3.101   0.705   4.552  0.2200 -0.0919 -0.4337
 4016SOL    HW123684   3.041   0.630   4.544 -1.0191  0.6891  1.8298
 4016SOL    HW223685   3.181   0.655   4.571  0.2997  0.3241  0.2928
 4017SOL     OW23686   1.362   4.101   8.041  0.5458  0.6498  0.0581
 4017SOL    HW123687   1.415   4.177   8.018 -2.3256  3.7509  3.5974
 4017SOL    HW223688   1.429   4.072   8.102  1.2408 -1.2983 -1.6430
 4018SOL     OW23689   0.552   3.663   5.773 -0.0240 -0.3605  0.5520
 4018SOL    HW123690   0.507   3.590   5.816 -0.4202 -0.5122 -0.1290
 4018SOL    HW223691   0.635   3.663   5.821  0.9991  0.8257 -1.2113
 4019SOL     OW23692   3.673   3.479   1.897  0.0141  0.6925 -0.1957
 4019SOL    HW123693   3.766   3.479   1.873 -0.0061 -0.6331 -0.2667
 4019SOL    HW223694   3.650   3.388   1.913 -1.2357  1.0208 -0.1458
 4020SOL     OW23695   4.694   0.566  10.466  0.1237 -0.2104 -0.3337
 4020SOL    HW123696   0.011   0.560  10.543  1.4261 -0.3013 -1.3029
 4020SOL    HW223697   4.614   0.543  10.513  1.3007 -1.1030  1.2345
 4021SOL     OW23698   3.885   3.652   4.867 -0.0628 -0.1904  0.2020
 4021SOL    HW123699   3.889   3.578   4.807  2.0197  0.0422  0.0737
 4021SOL    HW223700   3.962   3.626   4.917 -0.7361  0.9305  1.8090
 4022SOL     OW23701   2.875   0.637   3.402 -0.2154 -0.4113  0.0923
 4022SOL    HW123702   2.944   0.629   3.336  0.6607  2.6431  0.6008
 4022SOL    HW223703   2.857   0.550   3.436 -0.6115 -1.7752 -3.6427
 4023SOL     OW23704   1.027   4.659   7.330 -0.2495 -0.4783  0.3583
 4023SOL    HW123705   0.997   0.007   7.308 -1.9702 -1.6454 -1.9028
 4023SOL    HW223706   1.052   4.678   7.421 -0.6435  0.8044  0.1990
 4024SOL     OW23707   2.938   0.114   6.796 -0.0375  0.1792 -0.3459
 4024SOL    HW123708   2.897   0.173   6.733 -0.3542  0.2819 -0.0457
 4024SOL    HW223709   2.962   0.045   6.734 -0.7836 -1.6497  1.3953
 4025SOL     OW23710   3.363   1.042   6.437 -0.1687  0.1421 -0.0851
 4025SOL    HW123711   3.432   1.014   6.377 -1.7388 -2.7889 -0.5250
 4025SOL    HW223712   3.302   1.084   6.376 -0.0653  0.5548  0.0946
 4026SOL     OW23713   1.398   1.009   7.471  1.1284 -0.3121  0.0770
 4026SOL    HW123714   1.337   0.947   7.432 -0.2817  1.8314 -1.1415
 4026SOL    HW223715   1.398   1.078   7.404 -0.4059 -0.0883  0.3051
 4027SOL     OW23716   1.931   4.295   6.034 -0.2652  0.0161 -0.2601
 4027SOL    HW123717   1.981   4.236   6.090  1.0424 -1.4118 -2.9343
 4027SOL    HW223718   1.918   4.373   6.088  1.8107  0.4362 -0.3478
 4028SOL     OW23719   3.369   1.181   6.885 -0.0798 -0.5218  0.1833
 4028SOL    HW123720   3.316   1.145   6.813 -0.8191  0.6346  0.1449
 4028SOL    HW223721   3.360   1.276   6.871  0.1477 -0.4355  0.6426
 4029SOL     OW23722   0.170   0.512   3.090  0.0810 -0.1081  0.1383
 4029SOL    HW123723   0.217   0.455   3.151  1.0729 -0.7351 -1.1950
 4029SOL    HW223724   0.101   0.553   3.142 -0.0845 -0.7965  0.4537
 4030SOL     OW23725   3.408   3.221  15.659  0.3392  0.2287 -0.2191
 4030SOL    HW123726   3.453   3.276  15.723  0.3788  0.7992 -0.7364
 4030SOL    HW223727   3.313   3.219  15.669  0.7469 -1.6323  3.1669
 4031SOL     OW23728   1.691   3.957   6.113  0.5675  0.3532  0.1595
 4031SOL    HW123729   1.628   4.025   6.138 -0.0891 -0.4006  0.5876
 4031SOL    HW223730   1.694   3.893   6.185  0.7407  0.3695  0.1656
 4032SOL     OW23731   1.332   1.095   7.711  0.1688 -0.2281  0.6995
 4032SOL    HW123732   1.420   1.073   7.743  0.3166  0.0544  0.4937
 4032SOL    HW223733   1.341   1.042   7.632 -0.1069 -0.6763  0.9718
 4033SOL     OW23734   1.138   0.854   9.076 -0.1395  0.3107  0.1259
 4033SOL    HW123735   1.047   0.838   9.100  0.0834  0.2169  0.9047
 4033SOL    HW223736   1.128   0.934   9.024  0.4673  0.0191 -0.4401
 4034SOL     OW23737   3.114   3.999   2.080 -0.5245 -0.4595 -0.1989
 4034SOL    HW123738   3.029   4.041   2.087 -1.8020 -2.9288 -0.9916
 4034SOL    HW223739   3.090   3.907   2.073  0.0193 -0.7063  1.3133
 4035SOL     OW23740   0.713   2.796   1.915  0.2044 -0.2414 -0.0503
 4035SOL    HW123741   0.664   2.727   1.871 -1.1240  0.4792  0.3082
 4035SOL    HW223742   0.795   2.746   1.916  0.9704  0.9527 -2.5507
 4036SOL     OW23743   3.314   3.899   5.797  0.6309 -0.6380  0.4132
 4036SOL    HW123744   3.225   3.878   5.825  0.9062  1.1101  2.6307
 4036SOL    HW223745   3.323   3.900   5.702 -0.2605 -1.9767  0.3174
 4037SOL     OW23746   3.879   1.970   8.149  0.3482 -0.3318  0.1380
 4037SOL    HW123747   3.968   1.979   8.182  0.3906 -0.6669  0.1088
 4037SOL    HW223748   3.885   1.891   8.095 -1.3288 -1.9944  2.4049
 4038SOL     OW23749   2.222   1.085   9.511 -0.2723  0.1900  0.3147
 4038SOL    HW123750   2.309   1.060   9.480 -0.6567 -1.1775  0.3142
 4038SOL    HW223751   2.172   1.014   9.471 -0.4800  1.8028 -2.3471
 4039SOL     OW23752   1.741   3.660   9.985 -0.2183  0.3576 -0.3811
 4039SOL    HW123753   1.717   3.574  10.021  0.9067 -0.0773 -0.6773
 4039SOL    HW223754   1.800   3.630   9.917  0.1706  0.2237  0.0176
 4040SOL     OW23755   4.225   1.259  10.924  0.3006  0.1429 -0.2737
 4040SOL    HW123756   4.278   1.181  10.908 -1.8977 -1.1361 -1.4219
 4040SOL    HW223757   4.283   1.331  10.946 -0.2944  0.1368  1.2957
 4041SOL     OW23758   0.819   1.466   7.733 -0.5045  0.5907  0.5544
 4041SOL    HW123759   0.778   1.552   7.742 -1.0446  0.1664  2.1543
 4041SOL    HW223760   0.834   1.443   7.824 -1.2810 -0.9680  0.2926
 4042SOL     OW23761   2.476   2.550   8.830 -0.0051  0.8211 -0.4495
 4042SOL    HW123762   2.513   2.524   8.745  0.5976 -1.4525  0.5087
 4042SOL    HW223763   2.550   2.556   8.890  0.1484 -0.1957 -0.5323
 4043SOL     OW23764   1.881   1.099  16.795  0.0223  0.8013 -0.2204
 4043SOL    HW123765   1.890   1.192  16.815 -0.1077  1.2495 -2.2451
 4043SOL    HW223766   1.973   1.077  16.813 -0.7018 -2.3657 -0.4774
 4044SOL     OW23767   3.067   0.618   9.447  0.2611 -0.5780 -0.0767
 4044SOL    HW123768   3.114   0.677   9.388  2.0082 -0.9319  0.9460
 4044SOL    HW223769   3.024   0.691   9.491  0.4415 -1.6133  1.8632
 4045SOL     OW23770   1.279   4.148   2.009  0.4823 -0.0020  0.4876
 4045SOL    HW123771   1.270   4.209   1.936  1.2390 -2.2715 -1.4946
 4045SOL    HW223772   1.321   4.079   1.957  1.3424 -0.4704  1.7889
 4046SOL     OW23773   4.685   4.438   9.311  0.3004  1.6119 -0.4344
 4046SOL    HW123774   4.693   4.366   9.248 -2.3915  1.7103 -0.9114
 4046SOL    HW223775   0.028   4.476   9.284 -0.9872  3.4816 -1.7629
 4047SOL     OW23776   0.293   2.146   0.470  0.9250  0.0077  0.0267
 4047SOL    HW123777   0.231   2.077   0.447  1.8375 -1.1135  0.9457
 4047SOL    HW223778   0.308   2.196   0.389 -0.2065  1.4696  0.7308
 4048SOL     OW23779   3.072   0.808   9.035  0.2341  0.1221 -0.6020
 4048SOL    HW123780   3.023   0.871   8.981  1.2376  0.6024 -0.9624
 4048SOL    HW223781   3.074   0.742   8.966  0.1032  0.4040 -0.8817
 4049SOL     OW23782   0.881   1.171   5.147 -0.1162 -0.0394  0.4322
 4049SOL    HW123783   0.883   1.203   5.056 -2.1915 -1.0491  0.0155
 4049SOL    HW223784   0.803   1.218   5.178 -0.4620  0.4251 -1.1228
 4050SOL     OW23785   2.850   1.237  12.927  0.3409  0.5066  0.1720
 4050SOL    HW123786   2.847   1.333  12.931 -1.9570  0.4387  0.2033
 4050SOL    HW223787   2.765   1.234  12.882 -0.7038 -1.1395  2.2876
 4051SOL     OW23788   3.858   3.906  14.543  0.7879  0.0584 -0.1886
 4051SOL    HW123789   3.797   3.833  14.556  0.7160  0.6657  2.9562
 4051SOL    HW223790   3.942   3.860  14.554 -0.0082 -0.6474  2.8817
 4052SOL     OW23791   4.516   1.693   4.036  0.0339 -0.0760  0.5808
 4052SOL    HW123792   4.497   1.735   4.120  0.5211 -0.9554  1.1404
 4052SOL    HW223793   4.526   1.772   3.984  4.0877 -1.3414 -0.5872
 4053SOL     OW23794   4.177   0.338   6.092 -0.2294  0.3638 -0.3876
 4053SOL    HW123795   4.256   0.296   6.058 -0.8755  0.2267 -1.7217
 4053SOL    HW223796   4.112   0.324   6.024 -2.3083  3.1023  1.0197
 4054SOL     OW23797   4.287   2.620   3.401  0.1879 -0.0580 -0.0932
 4054SOL    HW123798   4.370   2.594   3.362 -0.6318  0.7239 -2.3610
 4054SOL    HW223799   4.313   2.640   3.491 -0.4821 -0.9756  0.3047
 4055SOL     OW23800   0.150   1.252  10.169  0.3863  0.1473 -0.2375
 4055SOL    HW123801   0.190   1.248  10.256 -1.1176  0.9457  0.4813
 4055SOL    HW223802   0.232   1.273  10.123 -0.6904  2.1470 -1.2459
 4056SOL     OW23803   2.091   3.885  16.638  0.2024  0.3085 -0.1915
 4056SOL    HW123804   2.061   3.976  16.629  1.4204  0.7673  0.2121
 4056SOL    HW223805   2.072   3.847  16.552  0.0760 -0.5853  0.2368
 4057SOL     OW23806   3.002   2.507   0.685 -0.3806 -0.1168  0.1506
 4057SOL    HW123807   3.011   2.412   0.678 -2.7031 -0.3302  0.1373
 4057SOL    HW223808   2.982   2.518   0.777 -0.2150 -0.3533  0.2151
 4058SOL     OW23809   3.959   2.179   8.756  0.0961  0.0751  0.4512
 4058SOL    HW123810   3.987   2.186   8.664  0.7152  0.8171  0.6975
 4058SOL    HW223811   3.867   2.196   8.736 -0.3818 -1.4049  1.4111
 4059SOL     OW23812   2.566   3.672   3.765  0.3297  0.1263 -0.5859
 4059SOL    HW123813   2.656   3.703   3.770 -0.1511  1.8268 -2.1572
 4059SOL    HW223814   2.517   3.749   3.797 -1.2704 -0.6341 -1.1945
 4060SOL     OW23815   1.354   1.928   7.943  0.5114 -0.2659 -0.3848
 4060SOL    HW123816   1.375   1.869   8.015  0.1401 -0.6539 -0.5897
 4060SOL    HW223817   1.262   1.904   7.930  0.5540 -1.0493  0.8122
 4061SOL     OW23818   2.119   2.585   6.337 -0.6007 -0.0452 -0.7539
 4061SOL    HW123819   2.097   2.563   6.247  0.1900 -0.7001 -0.7827
 4061SOL    HW223820   2.167   2.507   6.363  0.7704  0.8167 -0.7079
 4062SOL     OW23821   3.615   3.141   5.566 -0.0802  0.5103 -0.2914
 4062SOL    HW123822   3.523   3.141   5.538  0.5334  0.9758 -2.2751
 4062SOL    HW223823   3.641   3.216   5.513 -0.7150  1.5145  0.8060
 4063SOL     OW23824   4.231   4.732   4.904  0.7682 -0.4994  0.0753
 4063SOL    HW123825   4.218   4.642   4.875  1.6890 -0.5239 -0.2705
 4063SOL    HW223826   4.286   4.712   4.980  0.4237  0.6159  0.6260
 4064SOL     OW23827   1.320   2.272   6.255 -0.2107  0.0241 -0.3220
 4064SOL    HW123828   1.374   2.221   6.316  0.1279  1.3326  0.4725
 4064SOL    HW223829   1.367   2.273   6.172 -1.7134 -0.9002 -1.1877
 4065SOL     OW23830   2.610   3.522  17.116 -0.1217  0.0923 -0.4212
 4065SOL    HW123831   2.693   3.532  17.069 -0.8576 -1.6122 -2.0861
 4065SOL    HW223832   2.547   3.574  17.066  0.3830  1.8417  0.7641
 4066SOL     OW23833   3.707   1.105   6.079 -0.1181 -0.4030  0.0248
 4066SOL    HW123834   3.800   1.117   6.057  0.9222 -0.8074  4.2217
 4066SOL    HW223835   3.656   1.152   6.013 -1.0326 -0.8883  0.3832
 4067SOL     OW23836   0.016   1.115  15.281  0.6113 -0.1747  0.3833
 4067SOL    HW123837   0.017   1.135  15.187  0.1654 -0.3983  0.3301
 4067SOL    HW223838   4.695   1.185  15.302 -0.9912 -1.0159 -1.4732
 4068SOL     OW23839   2.370   2.070   1.897 -0.9624  0.3020 -0.7100
 4068SOL    HW123840   2.456   2.112   1.885 -0.4775 -0.3912  0.3562
 4068SOL    HW223841   2.396   1.981   1.871 -2.0882  0.1755 -1.3910
 4069SOL     OW23842   0.837   2.158   3.087  0.1961  0.1285 -0.1463
 4069SOL    HW123843   0.809   2.214   3.015  0.9689 -2.8709 -2.7610
 4069SOL    HW223844   0.810   2.204   3.167 -1.2666 -0.6697 -0.1886
 4070SOL     OW23845   3.838   4.088   8.397  0.2026  0.7957  0.0938
 4070SOL    HW123846   3.907   4.128   8.344  0.5690 -1.1575 -0.9385
 4070SOL    HW223847   3.867   3.998   8.379  0.0987  1.6060 -4.1752
 4071SOL     OW23848   2.236   3.391   8.210  0.6986 -0.6593  0.5456
 4071SOL    HW123849   2.253   3.469   8.156 -0.5281 -0.1505  0.9145
 4071SOL    HW223850   2.322   3.347   8.210  0.8169 -0.4241  4.0185
 4072SOL     OW23851   1.508   4.721   2.777 -0.0766  0.0962 -0.3014
 4072SOL    HW123852   1.462   4.648   2.735  1.7757 -0.0281 -2.1318
 4072SOL    HW223853   1.601   4.702   2.765  0.7297  3.1548  1.2391
 4073SOL     OW23854   4.586   1.441  17.488 -0.0434  0.2744 -0.1813
 4073SOL    HW123855   4.513   1.500  17.469 -1.8882 -1.4927  1.4663
 4073SOL    HW223856   4.665   1.494  17.481  1.2697 -1.6182  0.3733
 4074SOL     OW23857   1.298   4.052   8.892 -0.0736 -0.0417  0.2407
 4074SOL    HW123858   1.368   4.007   8.844 -0.3651  0.0584 -0.2754
 4074SOL    HW223859   1.284   4.125   8.833 -0.2342  0.7657  1.2811
 4075SOL     OW23860   2.743   2.096   2.808  0.0609  0.4496 -0.8483
 4075SOL    HW123861   2.766   2.085   2.715  1.7332 -1.2596 -0.2305
 4075SOL    HW223862   2.728   2.005   2.835 -1.6096  0.6393 -1.1272
 4076SOL     OW23863   1.485   0.876   8.772 -0.0821  0.2632  0.0459
 4076SOL    HW123864   1.474   0.862   8.866  0.9362 -1.8753 -0.1516
 4076SOL    HW223865   1.529   0.795   8.745  0.8253  0.4664  0.9030
 4077SOL     OW23866   4.304   1.847   2.817 -0.4463 -0.4396  0.0933
 4077SOL    HW123867   4.285   1.926   2.867  1.3988  0.2777 -0.3657
 4077SOL    HW223868   4.237   1.846   2.749  1.0010 -0.2551 -1.3053
 4078SOL     OW23869   1.666   3.536   1.776 -0.0933 -0.0011 -0.4146
 4078SOL    HW123870   1.583   3.487   1.780  0.4720 -1.0566 -1.4689
 4078SOL    HW223871   1.731   3.474   1.745 -1.6780 -1.6718 -0.4246
 4079SOL     OW23872   2.031   3.449   2.058  0.1000  0.0426 -0.4711
 4079SOL    HW123873   2.045   3.420   2.148 -3.9047  0.3380  0.2273
 4079SOL    HW223874   2.115   3.495   2.050  1.2128 -1.7497  0.8174
 4080SOL     OW23875   2.386   0.215   7.194 -0.5599 -0.1645 -0.0313
 4080SOL    HW123876   2.333   0.182   7.267 -2.0798  2.1385 -0.0825
 4080SOL    HW223877   2.459   0.267   7.229 -1.8035  1.0617  0.7406
 4081SOL     OW23878   2.059   2.616  12.108  0.1252  0.1920 -0.2062
 4081SOL    HW123879   2.026   2.706  12.108 -0.5372 -0.0526  0.3264
 4081SOL    HW223880   1.976   2.576  12.082  0.0369 -0.5763  1.2664
 4082SOL     OW23881   1.197   4.606   8.779  0.3318  0.4877 -0.0694
 4082SOL    HW123882   1.174   4.648   8.861 -1.3212  0.7682 -0.6591
 4082SOL    HW223883   1.118   4.565   8.743 -1.3648  2.6336  1.1769
 4083SOL     OW23884   4.600   3.450  15.332  0.1823  0.3337 -0.1062
 4083SOL    HW123885   4.693   3.458  15.309  0.2055 -1.3557 -0.5942
 4083SOL    HW223886   4.574   3.542  15.340 -0.6804 -0.0177  1.0966
 4084SOL     OW23887   1.599   1.100   4.073 -0.1971 -0.4257  0.0632
 4084SOL    HW123888   1.651   1.077   4.151  1.9061  1.4949 -0.7681
 4084SOL    HW223889   1.600   1.016   4.026 -0.0933  0.3813 -1.3486
 4085SOL     OW23890   2.596   2.696   7.787 -0.4567 -0.1295 -0.7126
 4085SOL    HW123891   2.554   2.779   7.763  0.4020  1.1589  2.3261
 4085SOL    HW223892   2.669   2.695   7.725  0.1322  0.4011 -0.0265
 4086SOL     OW23893   1.106   0.610   7.228 -0.3149  0.8170  0.4406
 4086SOL    HW123894   1.043   0.556   7.275 -0.0274  0.8353  0.8495
 4086SOL    HW223895   1.186   0.558   7.222 -0.5077  0.3429  1.9064
 4087SOL     OW23896   3.883   4.059   7.276 -0.0433  0.6672  0.5840
 4087SOL    HW123897   3.880   4.066   7.181 -1.0861  0.9936  0.6335
 4087SOL    HW223898   3.797   4.092   7.303 -1.5841 -1.6903 -1.4298
 4088SOL     OW23899   2.512   2.311   7.039  0.1513  0.0062  0.5101
 4088SOL    HW123900   2.430   2.266   7.017 -0.0651 -0.1763  1.6763
 4088SOL    HW223901   2.542   2.250   7.107 -0.7110 -1.5998 -0.5390
 4089SOL     OW23902   0.050   1.592   8.352  0.1774  0.0313 -0.4883
 4089SOL    HW123903   4.739   1.524   8.397 -1.2588  0.1911 -1.8595
 4089SOL    HW223904   0.003   1.676   8.353  0.5130  0.1863  1.4017
 4090SOL     OW23905   0.195   3.447  15.587  0.3189 -0.2435 -1.2144
 4090SOL    HW123906   0.152   3.380  15.534  0.3130 -0.6522 -0.6969
 4090SOL    HW223907   0.134   3.517  15.561  2.0485  1.4489 -0.6884
 4091SOL     OW23908   2.929   2.036   2.241 -0.3482 -0.1251  0.0176
 4091SOL    HW123909   3.007   2.063   2.193 -0.5141 -0.2494 -0.3221
 4091SOL    HW223910   2.880   1.966   2.197  1.7342 -2.2966  1.1434
 4092SOL     OW23911   0.448   0.841   4.309 -0.3174  0.4733  0.7046
 4092SOL    HW123912   0.502   0.886   4.244 -2.8632  1.7944 -0.5185
 4092SOL    HW223913   0.509   0.784   4.354  0.6524  0.7981 -0.1830
 4093SOL     OW23914   3.554   3.676   6.377 -0.3971 -0.0306 -0.2945
 4093SOL    HW123915   3.522   3.623   6.304  0.3924 -0.2886 -0.4593
 4093SOL    HW223916   3.562   3.763   6.338 -1.7265  0.2713  0.1149
 4094SOL     OW23917   1.093   3.363   9.130 -0.7005  0.2464  0.4356
 4094SOL    HW123918   1.086   3.273   9.164 -2.1401 -0.7701 -2.5037
 4094SOL    HW223919   1.019   3.401   9.178  0.0267  0.9155  1.0204
 4095SOL     OW23920   1.733   3.690   9.303 -0.2282 -0.2097 -1.0144
 4095SOL    HW123921   1.668   3.737   9.252  0.6152  1.5831 -0.4153
 4095SOL    HW223922   1.813   3.739   9.290  0.0074 -0.8860 -2.1440
 4096SOL     OW23923   1.494   1.567  13.293 -0.1829  0.0426 -0.2567
 4096SOL    HW123924   1.437   1.615  13.352  0.1503  0.5998 -0.3911
 4096SOL    HW223925   1.466   1.482  13.327 -1.1854  1.5250  2.6323
 4097SOL     OW23926   3.818   4.208   4.663 -0.6276  0.2621  0.2831
 4097SOL    HW123927   3.904   4.204   4.622 -0.5551 -1.0485  0.5826
 4097SOL    HW223928   3.817   4.125   4.710 -0.9093  0.3062  0.3544
 4098SOL     OW23929   1.247   4.467  16.980 -0.1332 -0.4157  0.0090
 4098SOL    HW123930   1.166   4.478  17.031  0.6856 -0.2661  1.2768
 4098SOL    HW223931   1.243   4.532  16.910  0.3694  0.5847  0.9065
 4099SOL     OW23932   2.423   2.416  12.231 -0.2468  0.1564 -0.0115
 4099SOL    HW123933   2.331   2.420  12.258  0.1172 -0.7191  1.4014
 4099SOL    HW223934   2.425   2.328  12.193  1.5371  0.2160 -0.0501
 4100SOL     OW23935   2.737   4.440   7.365 -0.2720  0.5875 -0.2725
 4100SOL    HW123936   2.775   4.475   7.446 -1.2435  0.9501  0.0365
 4100SOL    HW223937   2.667   4.506   7.359  0.3660  1.3693  0.8662
 4101SOL     OW23938   2.600   3.039  13.127  0.0472  0.2364 -0.0552
 4101SOL    HW123939   2.651   3.014  13.204  1.3800 -4.2952 -2.4014
 4101SOL    HW223940   2.632   2.985  13.055  1.6126  1.0662  0.0138
 4102SOL     OW23941   0.044   0.015   5.770 -0.5568  0.0993 -0.1056
 4102SOL    HW123942   0.021   4.721   5.857  1.3660  1.6398  1.0040
 4102SOL    HW223943   0.071   4.676   5.724 -0.5778  0.1005 -0.1197
 4103SOL     OW23944   4.052   3.907  13.460 -0.1850  0.4013  0.4851
 4103SOL    HW123945   4.088   3.947  13.539 -1.0465 -0.0056  1.0741
 4103SOL    HW223946   3.959   3.924  13.468  0.0978  2.3474 -0.3710
 4104SOL     OW23947   3.006   2.947   3.011  0.5854  0.6358 -0.6397
 4104SOL    HW123948   3.013   2.942   2.916  0.6013  0.1550 -0.6155
 4104SOL    HW223949   2.916   2.914   3.017  0.3652  1.4604  0.6564
 4105SOL     OW23950   4.455   0.777   0.531 -0.4527 -0.7343 -0.4962
 4105SOL    HW123951   4.493   0.865   0.530 -1.8363 -0.1354 -0.1786
 4105SOL    HW223952   4.370   0.801   0.566  0.6495  1.4802  0.6699
 4106SOL     OW23953   3.259   2.505   5.570  0.2101  0.3886  0.4996
 4106SOL    HW123954   3.335   2.562   5.557 -0.5545  1.3014  0.0205
 4106SOL    HW223955   3.186   2.552   5.530  0.6415  1.8090  1.3692
 4107SOL     OW23956   4.454   2.893  14.453  0.1669  1.0138  0.8537
 4107SOL    HW123957   4.536   2.924  14.413 -0.2015  0.8439 -0.0364
 4107SOL    HW223958   4.394   2.959  14.418 -0.5485 -0.1866 -0.1814
 4108SOL     OW23959   2.709   1.019   1.323  0.8216 -0.1213 -0.0797
 4108SOL    HW123960   2.699   0.925   1.308 -0.5198 -0.0387  0.3191
 4108SOL    HW223961   2.728   1.021   1.416 -0.4145  0.2818  0.1676
 4109SOL     OW23962   1.669   3.667   9.560  0.1263 -0.5580 -0.0500
 4109SOL    HW123963   1.753   3.697   9.595  0.8543  0.3128 -2.5175
 4109SOL    HW223964   1.687   3.682   9.467  0.4713 -1.0990 -0.0703
 4110SOL     OW23965   4.171   0.263   4.283 -0.2222 -0.5162  0.1560
 4110SOL    HW123966   4.190   0.208   4.207  0.2355  0.7089 -0.6352
 4110SOL    HW223967   4.247   0.264   4.341 -0.5010  0.9734  0.5177
 4111SOL     OW23968   4.589   3.215   8.372 -0.8248  0.1976  0.1783
 4111SOL    HW123969   4.538   3.247   8.297  1.5901  1.5327 -0.8796
 4111SOL    HW223970   4.674   3.198   8.332 -1.4202 -0.0254 -0.9890
 4112SOL     OW23971   2.563   3.080   7.316  0.0225 -0.6191 -0.4169
 4112SOL    HW123972   2.524   3.037   7.392  1.0309  2.0225  1.6041
 4112SOL    HW223973   2.570   3.005   7.257  0.0052 -1.6633  0.9044
 4113SOL     OW23974   4.672   0.782  15.374 -0.4314  0.1261  0.6532
 4113SOL    HW123975   4.637   0.754  15.289 -0.3211  0.6879  0.4210
 4113SOL    HW223976   4.628   0.717  15.429  0.6933 -0.4509  0.8648
 4114SOL     OW23977   0.138   3.824  11.985 -0.1242 -0.2422  0.0921
 4114SOL    HW123978   0.200   3.842  11.914 -0.1960 -0.2214  0.0353
 4114SOL    HW223979   0.187   3.857  12.060 -0.4427  1.0620 -0.2792
 4115SOL     OW23980   1.399   0.477  11.629  0.3026 -0.0149 -0.5087
 4115SOL    HW123981   1.477   0.429  11.656 -1.2951 -1.6718  1.1165
 4115SOL    HW223982   1.437   0.514  11.550  0.6798  0.0618 -0.2931
 4116SOL     OW23983   1.562   4.359  11.909  0.4716  0.4206 -0.1741
 4116SOL    HW123984   1.578   4.348  12.003  1.3918 -0.5950 -0.4455
 4116SOL    HW223985   1.533   4.272  11.882 -2.1837  1.8011 -1.7951
 4117SOL     OW23986   4.126   2.633   0.741  0.2368  0.6606 -0.8856
 4117SOL    HW123987   4.139   2.670   0.827  0.9968  0.3978 -0.8900
 4117SOL    HW223988   4.033   2.607   0.738  0.4134  0.0608 -1.3798
 4118SOL     OW23989   4.223   0.789   5.205 -0.7236 -0.0024 -0.2111
 4118SOL    HW123990   4.169   0.816   5.279 -0.5581  0.4573 -0.2559
 4118SOL    HW223991   4.309   0.810   5.242 -1.1755 -0.5039  1.1197
 4119SOL     OW23992   4.737   1.677   3.089 -0.1971  0.6122 -0.2206
 4119SOL    HW123993   0.001   1.583   3.105 -0.7188  0.6315  0.0388
 4119SOL    HW223994   4.658   1.670   3.035  1.1666  2.2951 -2.4491
 4120SOL     OW23995   0.910   2.868   7.446  0.5971 -0.3068  0.3470
 4120SOL    HW123996   0.837   2.929   7.459 -1.3307 -2.3818 -0.7073
 4120SOL    HW223997   0.984   2.921   7.475  2.0780 -2.0180 -0.3046
 4121SOL     OW23998   4.461   2.181  16.601 -0.4465  0.0046 -0.4148
 4121SOL    HW123999   4.373   2.182  16.637 -0.6885  1.4594 -1.0432
 4121SOL    HW224000   4.461   2.219  16.513 -0.7186  1.2570  0.1252
 4122SOL     OW24001   0.148   2.201   2.762 -0.2535  0.5443 -0.4633
 4122SOL    HW124002   0.158   2.132   2.698 -1.0413 -0.7977  0.8592
 4122SOL    HW224003   0.139   2.154   2.845  3.6673  0.9608  0.1962
 4123SOL     OW24004   4.418   4.365   0.074  0.0079  0.2126 -0.1363
 4123SOL    HW124005   4.443   4.352  17.741 -1.5399  0.9394 -0.6743
 4123SOL    HW224006   4.449   4.285   0.116 -0.4709  0.3407  0.4595
 4124SOL     OW24007   1.367   3.338  15.314 -0.3502  0.1117  0.2149
 4124SOL    HW124008   1.432   3.332  15.384  1.1982  0.6987 -1.1838
 4124SOL    HW224009   1.382   3.428  15.284 -0.3802 -0.3362 -1.1596
 4125SOL     OW24010   0.421   2.907   5.726 -0.2320 -0.3527 -0.3435
 4125SOL    HW124011   0.457   2.907   5.814  0.9685 -1.0641 -0.8465
 4125SOL    HW224012   0.459   2.830   5.686 -1.1895 -0.4113 -1.1631
 4126SOL     OW24013   0.982   0.488   6.558 -0.3411  0.3724  0.0630
 4126SOL    HW124014   1.057   0.439   6.591 -0.4331 -0.7031 -1.3273
 4126SOL    HW224015   0.966   0.547   6.632 -1.3278 -0.9078  0.8817
 4127SOL     OW24016   3.278   4.291   2.545  0.4796  0.2330 -0.3204
 4127SOL    HW124017   3.201   4.331   2.584  1.8789  1.9791  0.6780
 4127SOL    HW224018   3.316   4.242   2.618  3.3041 -0.5850 -2.3520
 4128SOL     OW24019   4.498   2.111   3.795 -0.6296 -0.2948  0.4519
 4128SOL    HW124020   4.447   2.085   3.718 -3.2116  0.2663  1.9808
 4128SOL    HW224021   4.571   2.156   3.752  0.4964 -0.8204  1.8326
 4129SOL     OW24022   2.816   2.068   2.550  0.7877  0.2630 -0.1993
 4129SOL    HW124023   2.860   2.029   2.474  1.7807  0.7299  0.1308
 4129SOL    HW224024   2.743   2.006   2.551 -0.4705  1.7735  0.6017
 4130SOL     OW24025   1.681   3.726   2.245  0.6463  0.5772  0.2112
 4130SOL    HW124026   1.704   3.633   2.241 -1.4182 -0.0420  2.3956
 4130SOL    HW224027   1.601   3.724   2.191  1.8974  2.3218 -1.6895
 4131SOL     OW24028   1.401   4.142   4.144  0.2084 -0.5561  0.0147
 4131SOL    HW124029   1.371   4.051   4.132  0.7044 -0.8708  1.0941
 4131SOL    HW224030   1.373   4.184   4.063 -0.1287 -0.8746 -0.0361
 4132SOL     OW24031   0.741   3.165  12.953  0.2219 -0.5321 -0.4571
 4132SOL    HW124032   0.736   3.259  12.935  2.2364 -0.7650 -2.3166
 4132SOL    HW224033   0.799   3.166  13.030  0.8705  0.6031 -0.9623
 4133SOL     OW24034   4.316   4.654   4.364 -1.1606  0.2370 -0.3009
 4133SOL    HW124035   4.400   4.609   4.372 -1.4485 -0.3325 -0.5479
 4133SOL    HW224036   4.253   4.582   4.362  0.0515 -0.7400 -2.6566
 4134SOL     OW24037   4.221   2.218  10.844  0.0716  0.0225 -0.2992
 4134SOL    HW124038   4.232   2.222  10.749  1.7572  1.3479 -0.0542
 4134SOL    HW224039   4.159   2.146  10.843 -0.3006  0.3535 -1.0185
 4135SOL     OW24040   1.069   2.183   7.392  1.1462  0.3275  0.1595
 4135SOL    HW124041   1.019   2.236   7.330 -1.3345 -2.6717 -0.3756
 4135SOL    HW224042   1.154   2.226   7.392  1.8007 -0.9792  0.6283
 4136SOL     OW24043   3.495   0.646   6.700 -0.5600 -0.3206 -0.2466
 4136SOL    HW124044   3.458   0.732   6.681  1.0012  0.9451  2.4559
 4136SOL    HW224045   3.587   0.673   6.698 -0.1400 -1.7513 -0.5788
 4137SOL     OW24046   3.219   1.839   8.648 -0.0593  0.7607  0.4035
 4137SOL    HW124047   3.196   1.764   8.702  0.4733  0.4940  0.2616
 4137SOL    HW224048   3.268   1.888   8.714 -0.6437  3.5435 -1.2396
 4138SOL     OW24049   0.947   3.307   9.898  0.0884  0.1751  0.2091
 4138SOL    HW124050   0.911   3.378   9.950 -0.7993 -0.1581  0.0551
 4138SOL    HW224051   0.986   3.248   9.962 -2.3810 -0.3112  1.2337
 4139SOL     OW24052   0.058   0.651   3.318 -0.0720  0.1984 -0.5298
 4139SOL    HW124053   0.052   0.565   3.360 -1.2667  0.6848  0.2940
 4139SOL    HW224054   0.076   0.719   3.384 -1.4081  0.3395 -0.3012
 4140SOL     OW24055   4.703   4.671   7.393  0.2244  0.5373 -0.0655
 4140SOL    HW124056   0.050   4.635   7.413 -0.4949 -0.7690  0.6729
 4140SOL    HW224057   4.664   4.601   7.342  1.0555  1.2180 -1.6375
 4141SOL     OW24058   3.170   2.326   8.800 -0.4832 -0.0719 -0.3163
 4141SOL    HW124059   3.263   2.340   8.783 -0.5511 -0.0042 -0.6382
 4141SOL    HW224060   3.164   2.234   8.826  0.0379 -0.5157 -1.7590
 4142SOL     OW24061   0.558   2.888   2.412 -0.3800  0.2125 -0.4209
 4142SOL    HW124062   0.582   2.977   2.438  2.8915 -1.1449  1.1711
 4142SOL    HW224063   0.606   2.880   2.330  1.5031 -1.5826  0.8521
 4143SOL     OW24064   4.434   2.583   3.690  0.0663 -0.1214 -0.1532
 4143SOL    HW124065   4.401   2.638   3.761 -1.5932  0.7352 -1.5645
 4143SOL    HW224066   4.517   2.630   3.683 -0.9482  1.9718  1.8238
 4144SOL     OW24067   4.087   2.143   6.173 -0.4512 -0.1855 -0.4944
 4144SOL    HW124068   4.040   2.217   6.212  0.8772 -0.8510  2.3600
 4144SOL    HW224069   4.015   2.111   6.118 -1.2476  1.1126 -0.2195
 4145SOL     OW24070   1.720   2.163  14.130  0.2775  0.7036  0.2635
 4145SOL    HW124071   1.649   2.117  14.086 -0.3275  0.2442  1.7401
 4145SOL    HW224072   1.737   2.100  14.200  0.6341  1.7978  1.1484
 4146SOL     OW24073   0.262   2.336   8.284 -0.9661 -0.2516 -0.5040
 4146SOL    HW124074   0.199   2.274   8.320 -0.2419 -1.6795 -1.6653
 4146SOL    HW224075   0.269   2.395   8.359 -1.9364 -2.3426  1.2397
 4147SOL     OW24076   2.196   3.912   0.865  0.3803  0.1361 -0.2104
 4147SOL    HW124077   2.162   3.823   0.878  2.4308 -0.8952 -1.8305
 4147SOL    HW224078   2.147   3.936   0.787  1.2825  0.3152 -0.7285
 4148SOL     OW24079   1.862   0.799   6.075  0.2262 -0.1351 -0.3789
 4148SOL    HW124080   1.831   0.725   6.022  1.9589  2.0949 -4.4072
 4148SOL    HW224081   1.945   0.813   6.030  0.6976 -1.0627  0.1900
 4149SOL     OW24082   4.179   0.809   3.551 -0.0590 -0.3725  0.5299
 4149SOL    HW124083   4.145   0.879   3.607 -0.6019 -1.1888  1.2128
 4149SOL    HW224084   4.266   0.787   3.585  0.4043 -3.1536 -2.4121
 4150SOL     OW24085   2.027   3.669  11.442  0.7218 -0.2397 -0.2084
 4150SOL    HW124086   1.963   3.735  11.469  1.2054  0.0252  0.2975
 4150SOL    HW224087   2.108   3.714  11.466  1.3513 -0.6178 -1.6739
 4151SOL     OW24088   0.224   3.230  14.797  0.1323  0.7110 -0.2171
 4151SOL    HW124089   0.272   3.149  14.814  1.8085  1.5734 -0.7449
 4151SOL    HW224090   0.217   3.228  14.701  0.8801 -1.5694 -0.2354
 4152SOL     OW24091   0.356   0.045  12.008  0.1284 -0.0689  0.7976
 4152SOL    HW124092   0.427   0.109  12.011 -1.2513  1.6250 -3.1204
 4152SOL    HW224093   0.367   4.732  12.087  1.3050  1.2765  1.5325
 4153SOL     OW24094   3.856   3.839   9.551  0.2855 -0.0739  0.1320
 4153SOL    HW124095   3.926   3.780   9.576 -0.7023 -0.9009  0.8957
 4153SOL    HW224096   3.776   3.793   9.574  0.4122  0.0890  0.8837
 4154SOL     OW24097   4.377   1.178  16.641 -0.1072  0.1679 -0.0903
 4154SOL    HW124098   4.298   1.130  16.619  0.8673 -1.0304 -0.9848
 4154SOL    HW224099   4.436   1.105  16.660 -1.6416 -0.7714  1.0605
 4155SOL     OW24100   4.223   3.780   3.644 -0.2260  0.2009 -0.5177
 4155SOL    HW124101   4.297   3.801   3.588 -0.8975 -0.7066 -1.7457
 4155SOL    HW224102   4.183   3.714   3.588 -0.8487 -2.2144  2.7806
 4156SOL     OW24103   0.114   4.656  10.710 -0.2216 -0.0369 -0.3497
 4156SOL    HW124104   0.124   4.712  10.633 -0.6606 -0.1550 -0.4938
 4156SOL    HW224105   0.203   4.662  10.744 -0.8738  1.1342  1.1643
 4157SOL     OW24106   1.575   4.279  10.834 -0.4218 -0.4594 -0.1018
 4157SOL    HW124107   1.575   4.220  10.758 -3.3320  1.3665 -1.5123
 4157SOL    HW224108   1.503   4.339  10.816  0.3709  0.9773  1.5917
 4158SOL     OW24109   1.275   3.823   8.409 -0.2003  0.5567 -0.1069
 4158SOL    HW124110   1.282   3.786   8.497  1.6880 -2.1007 -1.3799
 4158SOL    HW224111   1.322   3.905   8.423 -0.2703  0.4133  0.9523
 4159SOL     OW24112   0.771   4.598   5.096 -0.1901 -0.5332 -0.5520
 4159SOL    HW124113   0.735   4.600   5.007 -1.5878  0.8850  0.0443
 4159SOL    HW224114   0.750   4.687   5.126 -0.9202 -1.4020  1.5314
 4160SOL     OW24115   3.740   4.305   5.965 -0.5049 -0.5780 -0.1595
 4160SOL    HW124116   3.654   4.306   5.922 -0.4991  1.4232 -0.1028
 4160SOL    HW224117   3.796   4.317   5.888 -3.5367  1.7604 -2.0074
 4161SOL     OW24118   3.331   4.720   6.637 -0.4184 -0.0799 -0.4072
 4161SOL    HW124119   3.366   0.013   6.554 -1.4839 -1.1588 -1.2817
 4161SOL    HW224120   3.298   0.065   6.664 -2.0270 -0.8416  0.0130
 4162SOL     OW24121   0.144   0.069  12.848  0.2106 -0.0451 -0.1682
 4162SOL    HW124122   0.205   0.053  12.920  0.6421 -3.6025 -1.3060
 4162SOL    HW224123   0.182   0.141  12.798 -2.0951  1.3814  0.1712
 4163SOL     OW24124   4.236   0.295   0.820 -0.2546  0.0826 -0.1348
 4163SOL    HW124125   4.202   0.212   0.785 -0.7841  0.5711 -0.7854
 4163SOL    HW224126   4.150   0.337   0.833  0.1937  1.4750 -1.6660
 4164SOL     OW24127   3.182   1.240   5.935  0.1704 -0.0693 -0.1934
 4164SOL    HW124128   3.151   1.160   5.893  2.2811 -0.7379 -0.5002
 4164SOL    HW224129   3.184   1.300   5.861  0.2006 -1.5750 -1.4205
 4165SOL     OW24130   2.503   3.382   6.862  0.1990  0.1966 -0.6788
 4165SOL    HW124131   2.576   3.337   6.820  0.3357  0.2895 -0.5413
 4165SOL    HW224132   2.535   3.472   6.863 -1.4757  0.7986 -1.4124
 4166SOL     OW24133   3.490   2.695   4.179  0.0730  1.0076  0.2708
 4166SOL    HW124134   3.566   2.733   4.135  0.3770  1.0558  0.8273
 4166SOL    HW224135   3.472   2.759   4.248  0.6044  1.5116 -0.0611
 4167SOL     OW24136   4.068   4.201  16.874 -0.7158 -0.8564  0.0340
 4167SOL    HW124137   4.006   4.247  16.818  0.0645 -0.7139 -0.7041
 4167SOL    HW224138   4.145   4.256  16.862 -0.0103 -1.6161  1.1385
 4168SOL     OW24139   0.346   2.148   4.884  0.3379 -0.0356  0.5197
 4168SOL    HW124140   0.280   2.157   4.953 -1.6941 -0.6757 -1.3370
 4168SOL    HW224141   0.420   2.119   4.936  2.4522  0.5911 -2.1064
 4169SOL     OW24142   1.043   1.335   3.415 -0.4040 -0.0456 -0.2118
 4169SOL    HW124143   1.115   1.362   3.358  0.7213  0.3429  1.4029
 4169SOL    HW224144   1.024   1.252   3.371  1.7249 -0.9709  0.5766
 4170SOL     OW24145   3.746   3.266   5.921 -0.2047 -0.1628  0.4020
 4170SOL    HW124146   3.838   3.279   5.898  0.1395 -2.7610  0.3357
 4170SOL    HW224147   3.706   3.339   5.873  2.8559 -0.3165 -2.3282
 4171SOL     OW24148   0.983   2.860   5.860  0.2963 -0.4770 -0.3812
 4171SOL    HW124149   1.062   2.900   5.824 -1.0181  1.2243 -1.3782
 4171SOL    HW224150   0.996   2.765   5.853  0.1397 -0.7934  3.6844
 4172SOL     OW24151   3.973   2.407   0.536 -0.2415 -0.0133  0.3903
 4172SOL    HW124152   4.064   2.377   0.532  0.6450  2.7338  0.2298
 4172SOL    HW224153   3.916   2.343   0.492 -0.9801  0.8530  0.0839
 4173SOL     OW24154   2.949   4.161   5.634 -0.1704 -0.0411  0.4439
 4173SOL    HW124155   2.909   4.190   5.716 -0.8555 -0.5753  0.2972
 4173SOL    HW224156   2.998   4.083   5.659 -0.6184 -0.3797  0.2648
 4174SOL     OW24157   1.449   1.701   7.277 -0.3504  0.1284  0.1781
 4174SOL    HW124158   1.405   1.752   7.344 -1.7863 -0.6560 -0.1713
 4174SOL    HW224159   1.372   1.677   7.226 -1.6391  1.5729  1.4311
 4175SOL     OW24160   2.696   2.514   6.950 -0.1054  0.1733 -0.9126
 4175SOL    HW124161   2.643   2.447   6.906 -0.1676  0.1433 -0.7908
 4175SOL    HW224162   2.621   2.565   6.980 -0.0007  1.7178 -3.2917
 4176SOL     OW24163   3.317   1.901   0.415  0.4357  0.4415  0.5841
 4176SOL    HW124164   3.402   1.927   0.380  0.9718 -0.0637  1.5062
 4176SOL    HW224165   3.339   1.813   0.446  1.2408 -0.0597 -1.3687
 4177SOL     OW24166   0.825   4.304  11.274  0.2649  0.0439  0.0953
 4177SOL    HW124167   0.873   4.366  11.328  2.6451 -2.0476  0.3573
 4177SOL    HW224168   0.866   4.309  11.188 -1.2992 -0.5789 -0.6901
 4178SOL     OW24169   1.660   2.094   7.807 -0.4511 -0.0019 -0.1255
 4178SOL    HW124170   1.711   2.148   7.867 -0.0550  0.0437 -0.5022
 4178SOL    HW224171   1.669   2.146   7.727  0.6745 -0.3077 -0.1934
 4179SOL     OW24172   1.378   2.338  12.888 -0.0396  0.8757 -0.2053
 4179SOL    HW124173   1.297   2.373  12.851  1.0223  2.2993 -1.1402
 4179SOL    HW224174   1.433   2.335  12.810  0.4970 -1.2984  0.2599
 4180SOL     OW24175   1.219   4.724   2.969 -0.6896 -0.1600 -0.2114
 4180SOL    HW124176   1.301   0.034   2.968 -0.1238 -1.1272 -2.1287
 4180SOL    HW224177   1.227   4.672   3.049  1.7038 -1.5906 -1.3669
 4181SOL     OW24178   1.818   4.150   3.479 -0.2492  0.3677 -0.8020
 4181SOL    HW124179   1.856   4.156   3.567  0.8885 -1.1227 -1.1903
 4181SOL    HW224180   1.860   4.072   3.444  0.6447  0.2548  0.5109
 4182SOL     OW24181   0.618   1.911  11.634 -0.2435 -0.7002  0.2601
 4182SOL    HW124182   0.532   1.872  11.651 -0.9040  0.8774  0.5409
 4182SOL    HW224183   0.589   2.002  11.645 -0.3415 -0.7676  0.5702
 4183SOL     OW24184   0.442   0.004   5.889  0.1832  0.5090 -0.3697
 4183SOL    HW124185   0.450   4.649   5.895 -1.8199  0.4841  2.0003
 4183SOL    HW224186   0.446   0.031   5.981  2.6079 -1.6036  0.1461
 4184SOL     OW24187   1.784   1.186   8.018  0.0876 -0.5173  0.0285
 4184SOL    HW124188   1.854   1.247   8.043  0.1823 -0.3549 -0.6268
 4184SOL    HW224189   1.837   1.112   7.985 -1.4218 -1.9939  0.9538
 4185SOL     OW24190   3.426   1.644  12.527  0.2733  0.6714  0.3676
 4185SOL    HW124191   3.422   1.739  12.519  0.6932  0.8739  2.6041
 4185SOL    HW224192   3.335   1.616  12.521  0.6858 -0.5773 -0.0706
 4186SOL     OW24193   0.082   1.428   0.706 -0.1021  0.0323 -0.5214
 4186SOL    HW124194   0.102   1.492   0.638  2.2982 -0.1494  0.0364
 4186SOL    HW224195   0.171   1.408   0.735 -0.3865 -1.9602 -1.0045
 4187SOL     OW24196   2.489   0.285   7.899 -0.0375 -0.2884 -0.2582
 4187SOL    HW124197   2.424   0.320   7.961 -0.0368 -0.7989  0.0322
 4187SOL    HW224198   2.442   0.216   7.851 -1.6180 -0.0248  0.9026
 4188SOL     OW24199   1.926   3.889   1.763  0.2747 -0.2896 -0.0405
 4188SOL    HW124200   1.926   3.806   1.716 -1.9725 -1.7901  2.6342
 4188SOL    HW224201   1.928   3.857   1.853 -0.1380  0.5151  0.2613
 4189SOL     OW24202   3.695   4.455   4.648  0.3157  0.2758 -0.3510
 4189SOL    HW124203   3.641   4.465   4.569 -0.6775 -0.6961  0.2051
 4189SOL    HW224204   3.712   4.360   4.647  0.7440  0.3524  0.5517
 4190SOL     OW24205   4.038   1.871   6.911  0.2794 -0.1683 -0.0814
 4190SOL    HW124206   4.123   1.881   6.954  0.3010  2.4262 -0.7588
 4190SOL    HW224207   4.067   1.871   6.820  0.4850  0.6214 -0.0125
 4191SOL     OW24208   1.450   1.830  16.242 -0.1530  0.0548 -0.1754
 4191SOL    HW124209   1.364   1.816  16.201  0.4672 -1.3632 -0.9962
 4191SOL    HW224210   1.484   1.901  16.188 -1.2843  0.7868  0.0589
 4192SOL     OW24211   0.865   0.037   1.506  0.1011 -0.1752  0.8857
 4192SOL    HW124212   0.898   0.022   1.594 -2.1060  0.0286  1.7460
 4192SOL    HW224213   0.872   4.691   1.466  2.3243 -0.2975  1.5526
 4193SOL     OW24214   2.092   0.822  11.465 -0.2776 -0.0744 -0.1292
 4193SOL    HW124215   2.166   0.769  11.496 -0.6743  0.6290  1.9912
 4193SOL    HW224216   2.037   0.756  11.424  0.9706  0.2483 -2.3054
 4194SOL     OW24217   3.205   4.288   5.038 -0.7154  0.6718 -0.4634
 4194SOL    HW124218   3.118   4.268   5.004 -1.4538  3.1492 -0.0368
 4194SOL    HW224219   3.178   4.326   5.121 -0.9465  1.1100 -0.7340
 4195SOL     OW24220   1.321   2.566   4.652  0.2942 -0.1674  0.1660
 4195SOL    HW124221   1.247   2.510   4.678 -1.2601  1.0720 -1.5962
 4195SOL    HW224222   1.354   2.591   4.737 -0.8470 -0.6718  0.7604
 4196SOL     OW24223   4.649   0.457   8.345 -0.2689 -0.8316 -0.2141
 4196SOL    HW124224   4.685   0.425   8.428 -0.2276 -1.6698 -0.5572
 4196SOL    HW224225   4.716   0.440   8.279  1.4277  1.1740  0.9630
 4197SOL     OW24226   1.797   2.242   7.995  0.0938  0.4680  0.1012
 4197SOL    HW124227   1.851   2.320   7.987 -2.9648  2.3775 -1.6537
 4197SOL    HW224228   1.742   2.266   8.069  3.2677 -0.1637  2.6833
 4198SOL     OW24229   1.956   1.795  16.989  0.0630 -0.0815  0.2322
 4198SOL    HW124230   1.879   1.847  16.968  1.0924  0.6461 -1.8016
 4198SOL    HW224231   1.930   1.717  17.037  1.2902 -0.7048 -0.0900
 4199SOL     OW24232   0.840   1.090  11.854 -0.0031  0.7518  0.5175
 4199SOL    HW124233   0.910   1.031  11.880 -0.8556 -0.7903 -0.6912
 4199SOL    HW224234   0.884   1.146  11.790 -0.3033 -0.1738 -0.5017
 4200SOL     OW24235   2.709   1.461   0.699 -0.2528  0.4119  0.2695
 4200SOL    HW124236   2.721   1.367   0.716 -0.5841  0.2766 -0.2331
 4200SOL    HW224237   2.731   1.454   0.606  0.4980 -2.5755  0.6504
 4201SOL     OW24238   3.393   0.967   3.705 -0.0283  0.4903  0.5331
 4201SOL    HW124239   3.323   1.007   3.653  0.3238  0.6269  0.1578
 4201SOL    HW224240   3.348   0.942   3.785 -0.8599 -1.8106 -0.6697
 4202SOL     OW24241   0.337   1.546   5.549  0.8852  0.3112  0.3514
 4202SOL    HW124242   0.317   1.569   5.458  1.9078 -1.3893 -0.3055
 4202SOL    HW224243   0.281   1.610   5.594 -2.0746 -1.3241 -0.9801
 4203SOL     OW24244   1.082   2.356   6.391 -0.1614  0.6758  0.3119
 4203SOL    HW124245   1.162   2.316   6.356 -0.5814  0.8009 -0.7896
 4203SOL    HW224246   1.096   2.361   6.485  0.4939 -0.1246  0.2553
 4204SOL     OW24247   2.152   1.800   7.809  0.6182 -0.6080  0.0349
 4204SOL    HW124248   2.237   1.787   7.766  0.0780  0.4387 -1.3493
 4204SOL    HW224249   2.176   1.792   7.902 -0.9961  1.2909  0.6017
 4205SOL     OW24250   0.084   2.866  11.499 -0.2005 -0.7580  0.4458
 4205SOL    HW124251   0.098   2.944  11.445  1.6658  0.5905  2.8457
 4205SOL    HW224252   0.065   2.800  11.433 -1.7060  0.2884 -0.1581
 4206SOL     OW24253   3.237   3.932   8.593 -0.3400 -0.5339 -0.6540
 4206SOL    HW124254   3.152   3.962   8.562 -1.0019 -0.2821  1.4041
 4206SOL    HW224255   3.213   3.842   8.616  0.1048 -0.8685 -1.4990
 4207SOL     OW24256   2.803   3.830   3.757  0.0836  0.2171  0.4336
 4207SOL    HW124257   2.810   3.851   3.850  1.9857 -1.3818  0.6644
 4207SOL    HW224258   2.874   3.885   3.724 -0.6803  0.8661 -0.1044
 4208SOL     OW24259   0.003   1.462   4.891 -0.8953  0.3048  0.0712
 4208SOL    HW124260   4.691   1.392   4.851  2.6284 -1.4454 -1.4077
 4208SOL    HW224261   4.710   1.464   4.981  0.3745 -0.9897  0.5657
 4209SOL     OW24262   3.643   0.563   1.692 -0.0804 -0.2012  0.2593
 4209SOL    HW124263   3.633   0.585   1.785 -2.2236 -0.0482 -0.0154
 4209SOL    HW224264   3.718   0.504   1.699  1.7349  1.9152 -1.2279
 4210SOL     OW24265   2.084   3.301  17.468 -0.2627 -0.4683  0.0301
 4210SOL    HW124266   2.125   3.383  17.439  0.6664 -1.8811 -2.6578
 4210SOL    HW224267   2.070   3.310  17.562  4.2312 -2.0618  0.8368
 4211SOL     OW24268   1.195   0.059  13.408 -0.2051 -0.4170 -0.7290
 4211SOL    HW124269   1.254   0.042  13.482 -1.2986 -0.6443  0.0829
 4211SOL    HW224270   1.258   0.069  13.336  1.1563  0.0142  0.5029
 4212SOL     OW24271   1.542   1.263  17.615 -0.0057 -0.2410  0.7856
 4212SOL    HW124272   1.607   1.249  17.684 -0.7403 -1.6066  1.2073
 4212SOL    HW224273   1.583   1.209  17.547 -1.6465  0.3215 -0.6503
 4213SOL     OW24274   4.074   2.493   9.602  0.4230 -0.0785 -0.3760
 4213SOL    HW124275   4.129   2.420   9.631 -1.3839 -1.8828 -1.5326
 4213SOL    HW224276   4.005   2.447   9.555 -0.9814  0.1556  1.4520
 4214SOL     OW24277   3.575   0.744   3.201  1.1850  0.1442 -0.1726
 4214SOL    HW124278   3.602   0.836   3.198 -0.8722  0.7361 -1.0653
 4214SOL    HW224279   3.657   0.696   3.191  0.1896 -1.2245 -1.7074
 4215SOL     OW24280   1.018   2.758   9.052 -0.8692 -0.4567  0.3840
 4215SOL    HW124281   1.006   2.818   8.978 -2.0259 -1.1204  0.0297
 4215SOL    HW224282   1.102   2.717   9.029  1.1752  3.2062  1.2780
 4216SOL     OW24283   2.133   0.316   8.342  0.0917 -0.0574 -0.7044
 4216SOL    HW124284   2.166   0.399   8.307  1.1280 -0.3202 -0.3597
 4216SOL    HW224285   2.055   0.297   8.292 -2.1091 -1.2845  3.1810
 4217SOL     OW24286   4.678   3.285   9.706 -0.4159 -0.2031  0.2954
 4217SOL    HW124287   4.597   3.274   9.755 -0.3067 -1.4057  0.2214
 4217SOL    HW224288   4.725   3.354   9.753 -2.0723 -1.5348  3.9236
 4218SOL     OW24289   1.557   4.599  11.797  0.6959 -0.5661 -0.6218
 4218SOL    HW124290   1.651   4.610  11.783  1.0683 -2.9113 -0.0281
 4218SOL    HW224291   1.560   4.511  11.837  0.8819 -1.0567 -1.7267
 4219SOL     OW24292   0.781   1.544   3.921  0.0867  0.2722  0.1537
 4219SOL    HW124293   0.825   1.459   3.913 -0.4525  0.2568 -2.7487
 4219SOL    HW224294   0.696   1.513   3.889  1.3010 -3.5576  0.5639
 4220SOL     OW24295   4.658   0.145   7.215 -0.4500  0.4654 -0.0901
 4220SOL    HW124296   4.692   0.082   7.279 -0.7958  1.1620  0.7731
 4220SOL    HW224297   4.611   0.089   7.153  0.2074 -0.4899  0.2644
 4221SOL     OW24298   1.716   2.772   4.640  0.0980  0.1135  0.2216
 4221SOL    HW124299   1.690   2.706   4.576  0.6029 -0.2961  0.4393
 4221SOL    HW224300   1.807   2.745   4.645  0.2316  0.1092 -2.2600
 4222SOL     OW24301   3.577   3.327   3.691  0.7351 -0.1373 -0.2512
 4222SOL    HW124302   3.622   3.404   3.728 -0.3387  0.7621 -0.7973
 4222SOL    HW224303   3.545   3.349   3.603 -2.0088 -0.4348  0.6714
 4223SOL     OW24304   1.459   0.822   4.588 -0.8214  0.0294 -0.2342
 4223SOL    HW124305   1.363   0.826   4.590 -0.6525  3.7884 -1.8785
 4223SOL    HW224306   1.489   0.860   4.506  0.5989  1.7975  1.1142
 4224SOL     OW24307   3.240   1.089   6.175 -0.3162  0.0643  0.3124
 4224SOL    HW124308   3.218   1.113   6.085  3.2338  0.9650 -0.3222
 4224SOL    HW224309   3.313   1.030   6.158 -1.4479 -0.3555 -3.0008
 4225SOL     OW24310   1.739   3.129   3.156  0.6972  0.0917 -0.0177
 4225SOL    HW124311   1.648   3.152   3.136  1.2477  1.2316 -1.2040
 4225SOL    HW224312   1.730   3.147   3.250  0.3625 -2.7475  0.4787
 4226SOL     OW24313   3.499   2.788  12.745  0.3141 -0.5478  0.1726
 4226SOL    HW124314   3.441   2.860  12.721  0.0781 -0.3673  1.2471
 4226SOL    HW224315   3.561   2.763  12.677  0.5008 -1.9162  0.8348
 4227SOL     OW24316   3.737   3.837   6.951  0.5267  0.0174  0.3139
 4227SOL    HW124317   3.793   3.774   6.997 -0.9231 -1.3434  0.2197
 4227SOL    HW224318   3.741   3.810   6.860 -0.4025 -3.6018  1.3623
 4228SOL     OW24319   1.666   2.084   8.616  0.0669 -0.2020  0.6030
 4228SOL    HW124320   1.731   2.151   8.635  0.4493 -0.3586 -0.1108
 4228SOL    HW224321   1.597   2.126   8.564  0.7844  1.0899  0.7085
 4229SOL     OW24322   3.622   4.469  15.933  0.4027 -0.1783  0.0413
 4229SOL    HW124323   3.648   4.547  15.982 -1.5707  0.3399  0.2648
 4229SOL    HW224324   3.606   4.420  16.013  0.2523 -2.4336 -1.3683
 4230SOL     OW24325   0.038   4.060  10.727  0.0183  0.1070  0.1383
 4230SOL    HW124326   0.030   4.140  10.778 -2.0953 -0.3625  0.5348
 4230SOL    HW224327   0.060   4.102  10.644  2.9840 -0.2720  0.7410
 4231SOL     OW24328   3.956   4.434  16.749 -0.6979  0.5635 -0.0376
 4231SOL    HW124329   3.899   4.471  16.816 -1.8896 -1.3661 -0.0064
 4231SOL    HW224330   4.034   4.490  16.756  0.1980 -0.5887 -0.7072
 4232SOL     OW24331   4.550   0.458   8.013  0.2158 -0.2443 -0.2802
 4232SOL    HW124332   4.571   0.377   8.058  0.3764  0.4564  0.8954
 4232SOL    HW224333   4.640   0.475   7.987  0.4555 -0.5566  0.3772
 4233SOL     OW24334   1.430   3.339   7.368 -0.2769  0.1617 -0.3389
 4233SOL    HW124335   1.393   3.427   7.371 -0.4622  0.1498 -2.4757
 4233SOL    HW224336   1.386   3.306   7.446  1.7230 -0.2579  0.6215
 4234SOL     OW24337   0.303   4.076   9.366  0.8536  0.2590  0.5523
 4234SOL    HW124338   0.284   4.061   9.459 -0.1296 -1.7981  0.0395
 4234SOL    HW224339   0.323   4.169   9.362 -0.3192  0.4154 -1.5145
 4235SOL     OW24340   3.520   1.234   5.903  0.1714  0.0397  0.1162
 4235SOL    HW124341   3.563   1.280   5.831 -1.1329 -1.6379 -1.6980
 4235SOL    HW224342   3.478   1.163   5.856  0.1957 -0.8904  1.4972
 4236SOL     OW24343   2.296   0.069   8.199  0.3419 -0.3571 -0.6641
 4236SOL    HW124344   2.271   0.149   8.153 -0.5850  0.1506  0.7194
 4236SOL    HW224345   2.324   0.116   8.278  0.6325  0.9692 -1.5481
 4237SOL     OW24346   4.735   4.445   8.982 -0.3046 -0.1368  0.5080
 4237SOL    HW124347   4.706   4.357   9.005 -3.0095 -0.5889 -4.7494
 4237SOL    HW224348   4.668   4.510   9.004 -1.2430 -0.1117 -2.3636
 4238SOL     OW24349   3.177   0.473   0.659 -0.1321  0.0193 -0.5237
 4238SOL    HW124350   3.265   0.466   0.622 -0.7771  0.9623 -2.2165
 4238SOL    HW224351   3.200   0.525   0.736  3.0202  0.7483 -1.9686
 4239SOL     OW24352   4.567   0.328   1.440 -0.3878  0.0645  0.5493
 4239SOL    HW124353   4.576   0.323   1.345  3.5181  1.3510  0.8444
 4239SOL    HW224354   4.512   0.250   1.450 -1.0288  0.6154  1.3039
 4240SOL     OW24355   0.878   2.278   7.917  0.0258 -0.1192  0.4563
 4240SOL    HW124356   0.848   2.188   7.934 -0.9977  0.2027  0.2839
 4240SOL    HW224357   0.863   2.275   7.823  1.0595 -1.2487  0.3265
 4241SOL     OW24358   3.997   4.078  15.668 -0.1805  0.3023 -0.2121
 4241SOL    HW124359   3.922   4.120  15.710 -1.3002  0.9995 -2.8911
 4241SOL    HW224360   3.969   3.988  15.681 -1.2092  0.4435 -1.3699
 4242SOL     OW24361   1.185   2.503  15.852 -0.1321 -0.6567 -0.6974
 4242SOL    HW124362   1.120   2.443  15.815 -0.6225  0.6410 -1.9393
 4242SOL    HW224363   1.168   2.582  15.799  0.3798  0.6788  1.1217
 4243SOL     OW24364   0.303   1.761  12.425 -0.2378  0.8203 -0.1577
 4243SOL    HW124365   0.390   1.788  12.397 -0.3716  1.2921 -0.1101
 4243SOL    HW224366   0.249   1.838  12.406  0.5327  1.6133  0.9098
 4244SOL     OW24367   4.706   1.558   0.125 -0.0105  0.0408 -0.3252
 4244SOL    HW124368   0.004   1.617   0.060  1.6449  0.4620  1.0559
 4244SOL    HW224369   4.717   1.474   0.081  0.8806 -0.1718  0.3158
 4245SOL     OW24370   3.668   1.739  16.793  0.1337  0.3016 -0.5501
 4245SOL    HW124371   3.637   1.826  16.770 -1.1803  0.5740  2.2111
 4245SOL    HW224372   3.586   1.691  16.774 -0.1627  1.5685 -2.5045
 4246SOL     OW24373   0.769   2.008   3.581 -0.0929 -1.0730  0.2304
 4246SOL    HW124374   0.798   1.981   3.494  1.4332  0.7421  0.1945
 4246SOL    HW224375   0.697   2.068   3.563  2.0561  0.5637 -2.6852
 4247SOL     OW24376   0.753   1.255   7.051  0.0694 -0.0790 -0.1456
 4247SOL    HW124377   0.691   1.254   7.124 -0.9144 -1.2676 -0.9691
 4247SOL    HW224378   0.833   1.290   7.087  0.4342 -0.0638 -0.9707
 4248SOL     OW24379   0.147   0.296   0.015 -0.2484 -0.2237 -0.4538
 4248SOL    HW124380   0.109   0.265  17.690 -0.8434 -1.4231  0.2671
 4248SOL    HW224381   0.070   0.346   0.041  1.0611  0.8361  1.3451
 4249SOL     OW24382   3.164   0.802   1.484  0.5073 -0.2651 -0.2032
 4249SOL    HW124383   3.147   0.896   1.483 -0.7121 -0.4866 -0.9028
 4249SOL    HW224384   3.238   0.793   1.544  0.4308 -2.0323 -0.3556
 4250SOL     OW24385   1.831   4.314   7.607 -0.2061 -0.9799 -0.4150
 4250SOL    HW124386   1.867   4.342   7.691 -0.9512  0.3373 -0.5425
 4250SOL    HW224387   1.744   4.286   7.634 -0.2004 -1.2675 -0.6988
 4251SOL     OW24388   2.749   3.263   6.762  0.2686 -0.3131 -0.0457
 4251SOL    HW124389   2.785   3.238   6.848  0.4874 -1.5111 -0.4824
 4251SOL    HW224390   2.818   3.224   6.709 -0.0529 -0.8158 -0.0915
 4252SOL     OW24391   0.257   1.383  11.746 -0.4475  0.4420  0.5310
 4252SOL    HW124392   0.193   1.447  11.713 -1.1639  0.5026  2.0511
 4252SOL    HW224393   0.202   1.305  11.756  0.6468 -0.4709 -0.7183
 4253SOL     OW24394   3.249   1.605   5.923 -0.1220 -0.9650 -0.2091
 4253SOL    HW124395   3.179   1.608   5.989 -0.3901 -1.6120 -0.4601
 4253SOL    HW224396   3.324   1.648   5.964  0.4637 -0.8340 -1.4203
 4254SOL     OW24397   1.196   3.084   5.340 -0.1333 -0.2182 -0.3664
 4254SOL    HW124398   1.197   3.038   5.256 -2.0055 -1.1889  0.1533
 4254SOL    HW224399   1.221   3.171   5.309 -1.4023  0.8518  1.6256
 4255SOL     OW24400   4.053   2.160  10.025  0.5649 -0.1935 -0.2360
 4255SOL    HW124401   3.978   2.148   9.966 -0.3499  1.2919  0.6216
 4255SOL    HW224402   4.034   2.109  10.104  2.0461 -0.0480  0.2083
 4256SOL     OW24403   4.315   0.734   0.257 -0.0545  0.4041 -0.5248
 4256SOL    HW124404   4.315   0.755   0.351 -1.9491 -1.9739 -0.0100
 4256SOL    HW224405   4.314   0.825   0.226  2.6676  0.0755 -1.5812
 4257SOL     OW24406   4.342   3.967   3.152 -0.0076  0.7984 -0.2276
 4257SOL    HW124407   4.398   4.018   3.093  3.5046 -0.5879  1.8600
 4257SOL    HW224408   4.362   3.878   3.126  1.1578  1.4852 -1.6888
 4258SOL     OW24409   0.047   4.179  10.482 -0.0060 -0.2000 -0.1879
 4258SOL    HW124410   0.086   4.165  10.395  0.5505 -1.6059  0.2937
 4258SOL    HW224411   0.072   4.269  10.502 -0.9134 -0.3595  1.6652
 4259SOL     OW24412   1.950   4.262   2.032 -0.5994  0.7950 -0.3392
 4259SOL    HW124413   1.928   4.260   2.125  0.9771 -1.0410  0.0033
 4259SOL    HW224414   1.868   4.285   1.988 -2.0203 -0.4429  1.6834
 4260SOL     OW24415   2.553   3.988   3.671 -0.1742 -0.1325  0.5769
 4260SOL    HW124416   2.606   4.003   3.593 -0.1809 -0.8335  0.4385
 4260SOL    HW224417   2.614   3.937   3.725  0.0395  0.4787  0.9273
 4261SOL     OW24418   1.646   4.303  10.189 -0.7935 -0.5407 -0.0187
 4261SOL    HW124419   1.640   4.370  10.121 -0.6813 -0.2488  0.2632
 4261SOL    HW224420   1.737   4.284  10.168 -1.0215  2.9746 -4.2843
 4262SOL     OW24421   1.137   1.095   7.149  0.1922  0.1509 -0.0856
 4262SOL    HW124422   1.153   1.002   7.130  2.0706  0.8543 -1.8844
 4262SOL    HW224423   1.206   1.109   7.213  1.2622 -0.6843 -1.0687
 4263SOL     OW24424   4.320   4.217   9.383 -0.2610 -0.3832  0.0277
 4263SOL    HW124425   4.389   4.151   9.389 -0.2820 -0.6212 -2.4250
 4263SOL    HW224426   4.251   4.175   9.435  1.7166 -2.4883  0.9966
 4264SOL     OW24427   0.924   2.100   3.782 -0.1482  0.7543 -0.4248
 4264SOL    HW124428   0.867   2.050   3.724  2.6850 -0.7879 -1.8661
 4264SOL    HW224429   0.930   2.182   3.733 -1.0498  0.1275 -1.5526
 4265SOL     OW24430   4.624   1.556  16.394 -0.5737 -0.4053  0.1390
 4265SOL    HW124431   4.654   1.636  16.438 -0.2778 -1.3219  1.6342
 4265SOL    HW224432   4.662   1.573  16.308  0.2568  0.3057  0.6494
 4266SOL     OW24433   3.880   2.544   8.310 -0.4348 -0.1289 -0.4167
 4266SOL    HW124434   3.852   2.452   8.306  3.2934 -1.2313 -1.3845
 4266SOL    HW224435   3.976   2.539   8.304 -0.2822  1.7701  0.4364
 4267SOL     OW24436   2.397   0.162  17.649  0.5762 -0.2973 -0.0833
 4267SOL    HW124437   2.382   0.256  17.635 -1.7530 -0.7146 -0.3444
 4267SOL    HW224438   2.491   0.156  17.632  0.3764 -0.5375 -1.0903
 4268SOL     OW24439   1.309   2.237   5.768 -0.2398 -0.4688  0.0083
 4268SOL    HW124440   1.343   2.242   5.858  1.3769 -0.3412 -0.6143
 4268SOL    HW224441   1.371   2.177   5.727 -0.0657 -1.4716  1.7312
 4269SOL     OW24442   0.560   0.201   3.777  0.6265 -0.1364 -0.7229
 4269SOL    HW124443   0.572   0.247   3.694 -0.3160  1.2703 -0.0737
 4269SOL    HW224444   0.573   0.109   3.753  1.3512 -0.6645  1.6139
 4270SOL     OW24445   2.670   2.234   6.627 -0.1653  0.9354 -0.6724
 4270SOL    HW124446   2.679   2.328   6.641 -1.9332  1.0458 -0.2396
 4270SOL    HW224447   2.622   2.230   6.544  0.1024  0.8788 -0.8231
 4271SOL     OW24448   3.798   1.909   7.010 -0.0705  0.5137  0.6565
 4271SOL    HW124449   3.867   1.903   6.944 -1.9177  1.6464 -1.3939
 4271SOL    HW224450   3.827   1.840   7.069 -0.4233 -0.2541 -0.0682
 4272SOL     OW24451   4.431   1.814  11.681  0.3666  0.6968 -0.8551
 4272SOL    HW124452   4.418   1.743  11.744 -0.6047  0.5930 -1.1820
 4272SOL    HW224453   4.525   1.832  11.673  1.0218 -2.6914 -1.0908
 4273SOL     OW24454   1.640   0.457  17.269  0.0305  0.0218  0.1165
 4273SOL    HW124455   1.585   0.494  17.200 -1.2602 -1.4868  0.3367
 4273SOL    HW224456   1.650   0.366  17.241 -1.3477  0.6367 -2.4048
 4274SOL     OW24457   2.972   3.734  14.942  0.4927  0.0094 -0.6141
 4274SOL    HW124458   2.959   3.684  14.862  1.9426 -0.7039 -0.4042
 4274SOL    HW224459   2.987   3.661  15.002  3.2516  1.0073 -0.0826
 4275SOL     OW24460   3.518   4.207   8.885  0.0297 -0.2557 -0.1978
 4275SOL    HW124461   3.537   4.133   8.827  1.0600  0.0692 -0.2709
 4275SOL    HW224462   3.437   4.247   8.853 -0.2295 -0.3690  0.3221
 4276SOL     OW24463   3.581   3.074   8.896 -0.2458  0.1983 -0.1951
 4276SOL    HW124464   3.625   3.076   8.980  0.0522  1.4619 -0.3856
 4276SOL    HW224465   3.506   3.016   8.913 -0.8861  0.8370 -0.8297
 4277SOL     OW24466   2.995   1.028   0.623 -0.5741  0.1717  0.4878
 4277SOL    HW124467   3.024   0.969   0.693  1.3017 -0.8982 -1.2013
 4277SOL    HW224468   3.008   0.975   0.545 -1.5701  1.2422 -0.3965
 4278SOL     OW24469   1.058   3.764   8.256 -0.1407  0.0014  0.4993
 4278SOL    HW124470   1.003   3.730   8.326  1.2901 -1.9068  0.7163
 4278SOL    HW224471   1.137   3.780   8.309  0.9943 -0.0759 -1.1635
 4279SOL     OW24472   3.381   4.187  14.705 -0.6226  1.1328  0.2922
 4279SOL    HW124473   3.351   4.138  14.628  0.9573  0.7262 -0.0615
 4279SOL    HW224474   3.298   4.203  14.749  0.9960  0.6521  3.5275
 4280SOL     OW24475   3.396   2.483   8.443  0.1444 -0.0172 -0.3316
 4280SOL    HW124476   3.352   2.538   8.378 -1.6843 -0.9519  0.1309
 4280SOL    HW224477   3.371   2.530   8.523  2.8539  1.9369 -0.5968
 4281SOL     OW24478   3.177   2.593   8.890  0.0409  0.0321  0.6175
 4281SOL    HW124479   3.225   2.603   8.972 -0.5538 -0.6642  1.0503
 4281SOL    HW224480   3.172   2.500   8.868 -0.6985  0.1866  0.1304
 4282SOL     OW24481   2.450   4.317   2.683  0.1774  0.6699  0.4400
 4282SOL    HW124482   2.448   4.408   2.654  1.4618  0.7652  0.6757
 4282SOL    HW224483   2.533   4.320   2.730 -0.0028  2.0247  0.6569
 4283SOL     OW24484   4.702   4.382   5.310  0.3082 -0.4775 -0.5925
 4283SOL    HW124485   4.682   4.432   5.389 -1.0799  0.3955 -1.5028
 4283SOL    HW224486   0.024   4.315   5.339 -0.1149  0.5050  2.6241
 4284SOL     OW24487   0.095   4.419   1.692 -0.5108 -0.0128 -0.3674
 4284SOL    HW124488   0.023   4.463   1.737 -1.3215 -2.1212  0.4199
 4284SOL    HW224489   0.039   4.382   1.624 -1.7921  1.6367 -0.2277
 4285SOL     OW24490   3.904   4.380   3.021  0.2134 -0.2563  0.1154
 4285SOL    HW124491   3.916   4.353   3.112 -0.4961 -0.8744  0.0168
 4285SOL    HW224492   3.998   4.378   3.000 -0.2279  0.3244 -1.8996
 4286SOL     OW24493   0.607   2.859   4.281  0.1835 -0.3288  0.9348
 4286SOL    HW124494   0.656   2.868   4.363 -1.9825 -2.4697  2.4478
 4286SOL    HW224495   0.679   2.861   4.218 -0.4087 -2.6187  0.1822
 4287SOL     OW24496   2.325   2.518   9.712  0.0982 -0.2668  0.2056
 4287SOL    HW124497   2.230   2.524   9.703  0.0898 -1.7431 -0.6408
 4287SOL    HW224498   2.332   2.481   9.800  0.1650  0.3770  0.4758
 4288SOL     OW24499   2.127   1.160   1.173  0.2926  0.0749  0.1220
 4288SOL    HW124500   2.062   1.105   1.129  0.1665 -1.0635  1.7125
 4288SOL    HW224501   2.079   1.203   1.244  0.4043 -0.1483  0.3304
 4289SOL     OW24502   0.326   0.778  17.692  0.3423 -0.3497 -0.1645
 4289SOL    HW124503   0.387   0.771   0.008  0.9556 -0.1380 -0.6451
 4289SOL    HW224504   0.327   0.685  17.671  2.9119 -0.0019 -1.6436
 4290SOL     OW24505   3.281   3.294   4.342  0.8354  0.1910  0.1910
 4290SOL    HW124506   3.301   3.265   4.253 -0.0368  1.5220 -0.4362
 4290SOL    HW224507   3.320   3.225   4.395  1.4518  0.8205  0.5720
 4291SOL     OW24508   1.451   3.070   4.262  0.0813  0.7576 -0.2319
 4291SOL    HW124509   1.512   2.999   4.283  0.3807  0.6883 -1.3872
 4291SOL    HW224510   1.425   3.052   4.172 -0.0613 -0.9864  0.1619
 4292SOL     OW24511   0.283   1.220   0.301 -0.6588  0.3093 -0.3118
 4292SOL    HW124512   0.367   1.180   0.280  0.3050  1.2690  1.8078
 4292SOL    HW224513   0.263   1.275   0.225  2.6043 -1.6198 -2.5849
 4293SOL     OW24514   2.821   1.596   2.825  0.4793 -0.2896  0.8147
 4293SOL    HW124515   2.791   1.538   2.755 -1.1426 -0.7493  1.8793
 4293SOL    HW224516   2.911   1.624   2.808  0.5826  0.3537  2.3574
 4294SOL     OW24517   2.472   2.194  13.648 -0.0056  0.1058 -0.7211
 4294SOL    HW124518   2.542   2.225  13.705 -0.7216  2.7166 -1.2255
 4294SOL    HW224519   2.459   2.274  13.597  0.3374  0.7160  0.1420
 4295SOL     OW24520   2.273   1.472   5.644 -0.0043  0.5311 -0.7336
 4295SOL    HW124521   2.347   1.411   5.637  1.2342  1.8684  0.7513
 4295SOL    HW224522   2.306   1.548   5.691  0.2904 -0.2876  0.3858
 4296SOL     OW24523   3.182   2.448   0.915  0.0875 -0.2913  0.6262
 4296SOL    HW124524   3.186   2.517   0.981  1.1386  0.9058 -0.7067
 4296SOL    HW224525   3.182   2.498   0.834  0.6764 -1.8032 -0.3118
 4297SOL     OW24526   2.156   4.191   6.184 -0.7081  0.0514 -0.3191
 4297SOL    HW124527   2.195   4.275   6.211 -1.1739  0.1256  0.1308
 4297SOL    HW224528   2.168   4.129   6.256  0.4715  0.1451 -0.4303
 4298SOL     OW24529   3.950   1.490   5.284 -0.1436  0.4168 -0.4218
 4298SOL    HW124530   3.972   1.431   5.212  0.7091  1.5650 -1.1022
 4298SOL    HW224531   4.004   1.449   5.352  0.3931  0.4774 -0.8171
 4299SOL     OW24532   1.628   3.643   6.732  0.2336 -0.0698  0.3526
 4299SOL    HW124533   1.622   3.569   6.672  1.8210 -0.7128  0.9948
 4299SOL    HW224534   1.534   3.663   6.740  0.0978 -1.3584  1.9051
 4300SOL     OW24535   2.345   1.419  13.338  0.3054 -0.1294 -0.1454
 4300SOL    HW124536   2.270   1.367  13.367 -1.8139  3.1674  0.2436
 4300SOL    HW224537   2.335   1.491  13.400  0.2330  0.8170 -1.2533
 4301SOL     OW24538   1.178   2.885   4.751  0.2159  0.3177  0.0603
 4301SOL    HW124539   1.127   2.965   4.749  1.2001  0.9259 -0.7026
 4301SOL    HW224540   1.208   2.869   4.661  1.2266 -0.7675  0.5921
 4302SOL     OW24541   0.421   4.074   2.936  0.0802  0.3304  0.3307
 4302SOL    HW124542   0.411   3.979   2.930 -0.7486  0.3576  1.3663
 4302SOL    HW224543   0.517   4.077   2.934  0.0083  2.2745 -0.3129
 4303SOL     OW24544   3.749   0.121   8.011  0.1771  0.0628 -0.4630
 4303SOL    HW124545   3.697   0.173   8.072 -2.9617 -4.0333  0.3576
 4303SOL    HW224546   3.784   0.187   7.951 -3.7970  1.7359 -0.9790
 4304SOL     OW24547   0.804   0.103   5.169  0.0056  0.4699  0.2609
 4304SOL    HW124548   0.843   0.059   5.244 -0.2287  0.3081  0.2891
 4304SOL    HW224549   0.800   0.193   5.200  3.7104  0.9193 -0.5419
 4305SOL     OW24550   2.496   3.093   0.465  0.0744  0.5310  0.4253
 4305SOL    HW124551   2.422   3.112   0.523 -1.3123  2.3713 -1.9024
 4305SOL    HW224552   2.475   3.003   0.442 -0.5941  0.1000  2.7433
 4306SOL     OW24553   3.353   2.676   6.837 -0.3291 -0.5715 -0.0267
 4306SOL    HW124554   3.319   2.722   6.760 -1.4160  0.4225  1.0432
 4306SOL    HW224555   3.288   2.606   6.836 -1.4975  0.5132 -0.0226
 4307SOL     OW24556   3.399   3.137   3.797  0.3188 -0.3775 -0.0843
 4307SOL    HW124557   3.435   3.066   3.743 -1.2507 -0.4982 -0.9459
 4307SOL    HW224558   3.443   3.215   3.761 -0.2185 -0.8785 -1.8367
 4308SOL     OW24559   1.727   3.007   7.821  0.4132 -0.3189  0.8455
 4308SOL    HW124560   1.752   2.926   7.776  1.1464 -0.3955  1.3926
 4308SOL    HW224561   1.734   3.060   7.742 -2.1470 -0.2366  0.6742
 4309SOL     OW24562   1.517   3.473   4.611 -0.8524  0.4449 -0.1595
 4309SOL    HW124563   1.502   3.408   4.543  0.7098 -0.6298  0.5316
 4309SOL    HW224564   1.610   3.493   4.600 -0.4314 -0.5570  1.6157
 4310SOL     OW24565   2.233   4.379   7.834  0.2250 -0.1896  0.1311
 4310SOL    HW124566   2.209   4.363   7.925 -0.5253 -1.5391 -0.3095
 4310SOL    HW224567   2.202   4.298   7.793 -1.6164 -1.5431  4.2644
 4311SOL     OW24568   1.876   3.045   4.527 -0.2795  0.3215 -0.4735
 4311SOL    HW124569   1.796   2.993   4.524 -0.3373  0.4216 -0.6834
 4311SOL    HW224570   1.840   3.108   4.588  0.0860  0.4204 -0.3623
 4312SOL     OW24571   0.623   2.699   3.499  0.1963 -0.1005 -0.2878
 4312SOL    HW124572   0.673   2.755   3.558  1.0280 -1.0739 -0.0779
 4312SOL    HW224573   0.571   2.646   3.559 -0.5477  0.5899 -0.3262
 4313SOL     OW24574   4.705   1.722  14.804 -0.2614 -0.5663 -0.2871
 4313SOL    HW124575   0.048   1.744  14.762  0.4572 -1.1333  0.8231
 4313SOL    HW224576   4.725   1.707  14.896 -0.9255  0.0233 -0.0560
 4314SOL     OW24577   3.746   3.487   7.730  0.1153  0.3115 -0.0416
 4314SOL    HW124578   3.766   3.511   7.820  1.2294 -1.5745  0.2182
 4314SOL    HW224579   3.683   3.418   7.751 -1.4303  1.7160 -0.0747
 4315SOL     OW24580   2.744   2.948   5.980  0.3239 -0.3311 -0.1104
 4315SOL    HW124581   2.802   2.918   6.050  0.4827  0.5080  0.1265
 4315SOL    HW224582   2.718   2.868   5.936  1.2381 -0.2784 -0.7620
 4316SOL     OW24583   1.481   1.143   1.816 -0.1707  0.0222  0.3034
 4316SOL    HW124584   1.484   1.048   1.816  2.2653  0.0867  3.6962
 4316SOL    HW224585   1.558   1.170   1.765 -0.0226  1.2020  1.1316
 4317SOL     OW24586   4.665   2.419   1.882  0.0990  0.5795  0.2282
 4317SOL    HW124587   4.704   2.384   1.802 -1.1308 -0.6132  0.1507
 4317SOL    HW224588   4.650   2.335   1.925  0.8732  1.0688  1.4375
 4318SOL     OW24589   2.252   0.886   2.601 -0.1209  0.3023 -0.2855
 4318SOL    HW124590   2.249   0.820   2.670  0.9411  0.7804  0.2187
 4318SOL    HW224591   2.171   0.936   2.611  0.5124  0.8449  2.0305
 4319SOL     OW24592   2.554   1.045   8.027  0.2204 -0.0223  0.1511
 4319SOL    HW124593   2.504   1.120   8.060  1.9974  1.5689 -0.8172
 4319SOL    HW224594   2.597   1.024   8.110  1.2262 -1.0816 -0.6491
 4320SOL     OW24595   1.087   0.207   5.040 -0.3152  0.4603 -0.4001
 4320SOL    HW124596   1.006   0.242   5.077  0.5260 -0.6184  2.4341
 4320SOL    HW224597   1.096   0.117   5.071  1.3504 -0.2108 -2.7949
 4321SOL     OW24598   2.514   1.442   7.458 -0.4927 -0.5225  0.5531
 4321SOL    HW124599   2.608   1.457   7.454 -1.0378  2.8021  0.2789
 4321SOL    HW224600   2.514   1.373   7.524  1.6559 -0.3112  0.7799
 4322SOL     OW24601   2.117   3.376   6.646  0.0862  0.9577  0.4144
 4322SOL    HW124602   2.167   3.369   6.727  0.2722  1.1729  0.3197
 4322SOL    HW224603   2.183   3.399   6.581 -0.5908 -0.2250 -0.6918
 4323SOL     OW24604   2.031   2.253  16.041 -0.1701  0.2404 -0.8741
 4323SOL    HW124605   1.992   2.189  16.101  1.4955 -0.1145 -0.1668
 4323SOL    HW224606   2.122   2.238  16.065 -0.3333  0.2081 -0.2638
 4324SOL     OW24607   2.622   3.923   2.254  0.3461 -1.1619  0.1326
 4324SOL    HW124608   2.601   3.960   2.169 -2.2255 -0.5930  1.0036
 4324SOL    HW224609   2.644   4.007   2.295  1.9716 -1.1646 -0.7500
 4325SOL     OW24610   3.431   0.941   1.928 -0.6866 -0.1651  0.8192
 4325SOL    HW124611   3.424   0.955   1.833 -2.8831  0.4354  1.0861
 4325SOL    HW224612   3.521   0.968   1.947 -0.6256  0.0571  0.2035
 4326SOL     OW24613   4.288   2.514   4.950  0.0966  0.5746 -0.2435
 4326SOL    HW124614   4.227   2.478   5.015  0.4455 -0.9329 -0.7600
 4326SOL    HW224615   4.234   2.554   4.882  0.4717 -1.0287 -1.4650
 4327SOL     OW24616   3.312   2.062   5.801 -0.0943 -0.4672  0.4769
 4327SOL    HW124617   3.329   2.150   5.767  0.0096  0.3382  2.5832
 4327SOL    HW224618   3.384   2.033   5.858  0.6318  0.2128 -0.0989
 4328SOL     OW24619   3.896   2.526   5.007 -0.0052  0.1126 -0.0205
 4328SOL    HW124620   3.846   2.457   5.050 -1.1320  0.6204 -0.5069
 4328SOL    HW224621   3.904   2.488   4.920 -2.4138  0.6535 -0.4634
 4329SOL     OW24622   4.680   4.254   1.564  0.5074 -0.1393  0.0484
 4329SOL    HW124623   4.658   4.181   1.507 -1.1892 -1.9664  3.0955
 4329SOL    HW224624   4.621   4.233   1.636  0.5654  2.2844  0.8038
 4330SOL     OW24625   3.094   3.171  13.631 -0.0054  0.0580 -0.2321
 4330SOL    HW124626   3.065   3.151  13.542 -3.9435  1.2686  0.7526
 4330SOL    HW224627   3.025   3.231  13.661  1.2787  1.1678  0.4862
 4331SOL     OW24628   0.715   3.807  15.202  0.3761 -0.3445  0.3051
 4331SOL    HW124629   0.691   3.816  15.294  1.3018 -2.2485  0.7233
 4331SOL    HW224630   0.626   3.794  15.170  0.5186  0.5786 -0.4675
 4332SOL     OW24631   3.851   0.434   1.149 -0.3529  0.3269  0.1567
 4332SOL    HW124632   3.837   0.507   1.209  0.7586  1.1709 -0.6179
 4332SOL    HW224633   3.774   0.383   1.175 -0.4177  0.7500  0.7933
 4333SOL     OW24634   3.368   0.857   4.216 -0.5084 -0.6155 -0.3499
 4333SOL    HW124635   3.395   0.893   4.300 -1.1476  0.2587 -0.5142
 4333SOL    HW224636   3.279   0.824   4.227 -0.2148 -1.2963 -0.0505
 4334SOL     OW24637   3.745   1.854  12.294 -0.1015 -0.3289  0.5543
 4334SOL    HW124638   3.821   1.830  12.242 -0.8956  0.2001 -0.8683
 4334SOL    HW224639   3.782   1.883  12.377  1.6234 -0.5148 -0.1379
 4335SOL     OW24640   1.198   3.695  15.128 -0.0121  0.4316  0.6273
 4335SOL    HW124641   1.218   3.732  15.042  2.0300  1.8460  1.7104
 4335SOL    HW224642   1.108   3.672  15.107  0.3479 -0.0540 -0.4281
 4336SOL     OW24643   0.946   1.729   6.740 -0.7017 -0.1467  0.0625
 4336SOL    HW124644   0.918   1.812   6.701 -4.4252 -0.9730  0.9893
 4336SOL    HW224645   0.886   1.670   6.695 -1.1415  1.4339 -1.4297
 4337SOL     OW24646   0.121   1.220   7.717 -0.4501  0.3279 -0.0622
 4337SOL    HW124647   0.206   1.224   7.761  0.4292 -0.9097 -1.6548
 4337SOL    HW224648   0.146   1.247   7.629 -0.1275 -1.8197 -0.6313
 4338SOL     OW24649   3.922   0.330   2.706  0.3970 -0.0682  0.3789
 4338SOL    HW124650   3.911   0.244   2.666  0.1984  0.6020 -1.0065
 4338SOL    HW224651   3.877   0.396   2.654 -0.0695 -0.2971  0.4910
 4339SOL     OW24652   1.184   3.771   0.873  0.2834 -0.2835  0.0620
 4339SOL    HW124653   1.153   3.748   0.961  1.4120 -1.2200  0.2217
 4339SOL    HW224654   1.172   3.866   0.880  2.9699 -0.0560  2.1427
 4340SOL     OW24655   1.342   0.222  12.906 -0.3266 -0.2200 -0.5261
 4340SOL    HW124656   1.265   0.199  12.854  0.3402  0.4657 -1.8388
 4340SOL    HW224657   1.405   0.240  12.836 -0.9309 -1.5885 -1.4141
 4341SOL     OW24658   3.695   0.993   1.583  0.0732  0.0641 -0.2377
 4341SOL    HW124659   3.681   0.904   1.551  0.3230  0.2452 -0.8645
 4341SOL    HW224660   3.745   1.029   1.510 -0.3022  0.3443 -0.3573
 4342SOL     OW24661   1.665   4.736  16.649  0.0734 -0.4229  0.1293
 4342SOL    HW124662   1.670   4.656  16.701  2.1236  0.7189  1.7280
 4342SOL    HW224663   1.716   0.061  16.699 -0.4064 -0.4850  0.6963
 4343SOL     OW24664   0.079   3.323  16.780  0.3340  0.5795 -0.5584
 4343SOL    HW124665   0.075   3.228  16.788 -2.6100  0.9311  2.0450
 4343SOL    HW224666   0.138   3.330  16.705 -0.2004  1.4131 -0.9031
 4344SOL     OW24667   0.936   1.204  13.448  0.4241 -0.3159 -0.3322
 4344SOL    HW124668   0.870   1.256  13.494 -0.9763 -1.3422 -1.1968
 4344SOL    HW224669   0.965   1.276  13.392 -0.1883  0.5751  0.4920
 4345SOL     OW24670   3.488   0.343  15.892 -0.0781 -0.1695 -0.3402
 4345SOL    HW124671   3.416   0.348  15.828  0.1499  0.9310 -0.5146
 4345SOL    HW224672   3.454   0.415  15.945 -1.0711 -1.0628  0.2301
 4346SOL     OW24673   3.312   1.379   3.245  0.9386  0.0287 -0.0174
 4346SOL    HW124674   3.342   1.463   3.279  0.9985 -0.6548  1.6039
 4346SOL    HW224675   3.302   1.391   3.150 -1.3407  1.3636  0.3889
 4347SOL     OW24676   3.403   4.595   2.716 -0.1505 -0.0364 -0.0065
 4347SOL    HW124677   3.396   4.668   2.778  0.4887 -0.6146  0.7490
 4347SOL    HW224678   3.382   4.518   2.769  0.4343  0.5671  1.1103
 4348SOL     OW24679   0.194   2.912   5.343  0.3980  0.8637  0.0668
 4348SOL    HW124680   0.231   2.869   5.266  0.9326 -0.1168  0.8747
 4348SOL    HW224681   0.270   2.954   5.382  0.6178 -1.4208  2.0937
 4349SOL     OW24682   3.997   1.127  17.384  0.2950 -0.4728 -0.1226
 4349SOL    HW124683   3.966   1.179  17.458  1.2692  0.0051 -0.0605
 4349SOL    HW224684   4.086   1.160  17.393 -0.4792  1.6105 -0.2801
 4350SOL     OW24685   0.895   1.171   8.490  0.5242  0.3456 -0.1572
 4350SOL    HW124686   0.842   1.195   8.566  0.2779 -2.8631  0.7119
 4350SOL    HW224687   0.977   1.144   8.531  2.2644  1.8508 -2.6748
 4351SOL     OW24688   3.666   3.726   3.519 -0.8626  0.1231  0.2700
 4351SOL    HW124689   3.629   3.680   3.444  0.4896 -1.1153  0.3756
 4351SOL    HW224690   3.730   3.779   3.472  0.2251 -1.6702 -0.2760
 4352SOL     OW24691   4.448   1.890   9.361  0.1340 -0.3716  0.1851
 4352SOL    HW124692   4.433   1.981   9.387  0.8987 -0.6734  1.6777
 4352SOL    HW224693   4.366   1.881   9.314 -0.0971  2.0943  0.1034
 4353SOL     OW24694   1.179   1.373   6.708  0.9171 -0.5114 -0.2493
 4353SOL    HW124695   1.175   1.469   6.710  1.2784 -0.5157  0.9825
 4353SOL    HW224696   1.161   1.358   6.801 -0.8994 -2.1850 -0.8819
 4354SOL     OW24697   0.233   3.339   0.672 -0.7520 -0.4296 -0.5920
 4354SOL    HW124698   0.265   3.264   0.723 -2.8856  0.7589  2.5185
 4354SOL    HW224699   0.141   3.344   0.696 -0.0793  1.8016  1.5585
 4355SOL     OW24700   1.672   3.463   5.333  0.1741 -0.3105 -0.1478
 4355SOL    HW124701   1.670   3.559   5.337 -0.3509 -0.2691 -1.3786
 4355SOL    HW224702   1.655   3.453   5.239 -1.0196 -1.0619  0.1551
 4356SOL     OW24703   4.469   3.849   0.009  0.5128  0.4517  0.9576
 4356SOL    HW124704   4.499   3.789  17.699  0.6424 -0.1985  1.5891
 4356SOL    HW224705   4.542   3.911  17.755 -2.0652  3.3639  0.3346
 4357SOL     OW24706   0.927   0.408   7.355  0.2630  0.0146 -0.0247
 4357SOL    HW124707   0.879   0.361   7.423 -1.9654  1.6415 -0.4617
 4357SOL    HW224708   0.978   0.460   7.418 -1.5264  1.8108 -0.0264
 4358SOL     OW24709   1.630   1.331  10.412 -0.3079 -0.4387  0.0173
 4358SOL    HW124710   1.687   1.255  10.398 -0.4958 -0.3470 -1.2069
 4358SOL    HW224711   1.593   1.340  10.325  1.8268 -0.1021 -0.8449
 4359SOL     OW24712   3.225   2.019  13.139 -0.2863 -0.5151 -0.0530
 4359SOL    HW124713   3.197   1.988  13.053 -1.0856 -1.4468  0.5474
 4359SOL    HW224714   3.294   2.076  13.105 -0.1452 -0.5029  0.2629
 4360SOL     OW24715   3.897   3.878  11.623 -0.4388  0.4685 -0.0689
 4360SOL    HW124716   3.914   3.785  11.605  0.0220  0.3662  0.9160
 4360SOL    HW224717   3.923   3.913  11.538  1.6500 -0.7763  0.0424
 4361SOL     OW24718   0.925   0.437  11.001 -0.3572 -0.2060  0.2317
 4361SOL    HW124719   1.014   0.428  11.035 -0.3617  1.2840  0.6271
 4361SOL    HW224720   0.931   0.506  10.935 -0.1167  1.6745  2.2204
 4362SOL     OW24721   3.457   0.956   4.605 -0.0440 -0.3673 -0.4479
 4362SOL    HW124722   3.384   0.919   4.555  1.2448 -0.8737 -1.9436
 4362SOL    HW224723   3.427   1.043   4.629  2.0726  0.4862 -0.9117
 4363SOL     OW24724   3.905   2.856   8.069  0.3464 -0.1664 -0.5648
 4363SOL    HW124725   3.941   2.847   7.981  0.1970  1.0705 -0.7571
 4363SOL    HW224726   3.991   2.866   8.110  0.6455 -0.2802 -1.1568
 4364SOL     OW24727   4.471   3.548  17.081 -0.0663 -0.1381  0.5542
 4364SOL    HW124728   4.471   3.479  17.015 -0.8082 -1.3550  1.8445
 4364SOL    HW224729   4.447   3.629  17.035 -0.2456 -0.2258  0.4936
 4365SOL     OW24730   3.470   2.408   3.780  0.2792  0.2672  0.0980
 4365SOL    HW124731   3.507   2.495   3.761 -1.3190  0.9688  0.2491
 4365SOL    HW224732   3.388   2.423   3.734 -0.5100 -0.3097  1.3398
 4366SOL     OW24733   1.673   0.920   2.023  0.0352  0.0260 -0.0148
 4366SOL    HW124734   1.703   0.892   1.936 -3.3997 -1.0354 -0.8503
 4366SOL    HW224735   1.581   0.898   2.038  0.2186 -0.1389  0.8684
 4367SOL     OW24736   0.398   1.729   1.895 -0.8601  0.1974 -0.1350
 4367SOL    HW124737   0.316   1.685   1.872 -0.6922 -0.3163  0.2587
 4367SOL    HW224738   0.364   1.785   1.966  1.0995 -0.0678  0.9962
 4368SOL     OW24739   3.709   1.608   6.161 -0.6688 -0.3200 -0.6033
 4368SOL    HW124740   3.640   1.574   6.103 -1.0570  0.8451 -0.8190
 4368SOL    HW224741   3.787   1.566   6.125  1.3707  0.7282  2.6901
 4369SOL     OW24742   2.956   2.964   2.427 -0.4944 -0.3463 -0.0852
 4369SOL    HW124743   3.025   2.900   2.411 -0.1360  0.2857 -1.0048
 4369SOL    HW224744   2.939   3.000   2.340  0.6841 -0.7350 -0.4775
 4370SOL     OW24745   3.545   0.657   8.326  0.3225 -0.4969 -0.7843
 4370SOL    HW124746   3.610   0.724   8.309 -0.5440  0.1285 -1.6388
 4370SOL    HW224747   3.583   0.579   8.285  1.0586 -0.2652 -0.5284
 4371SOL     OW24748   3.549   2.298   8.283 -0.2171  0.1642  0.6080
 4371SOL    HW124749   3.490   2.346   8.341 -1.9635 -3.5226  1.8838
 4371SOL    HW224750   3.516   2.209   8.292 -1.5463  0.7205  1.1716
 4372SOL     OW24751   2.298   3.410   2.969  0.1346 -0.1579 -0.2703
 4372SOL    HW124752   2.219   3.403   2.915 -0.6030  0.6873  0.7112
 4372SOL    HW224753   2.318   3.501   2.947 -1.0996  0.3352  0.6167
 4373SOL     OW24754   1.959   2.541   4.876  0.2944  0.8325  0.6670
 4373SOL    HW124755   1.988   2.630   4.853  1.5801  0.0206 -0.9020
 4373SOL    HW224756   1.934   2.510   4.789  0.4833  0.9596  0.5664
 4374SOL     OW24757   1.419   1.684   5.996 -0.1058  0.3650 -0.0597
 4374SOL    HW124758   1.336   1.651   6.030 -0.3645 -0.4212 -1.4552
 4374SOL    HW224759   1.433   1.754   6.059  0.7524 -0.0722  0.2365
 4375SOL     OW24760   4.702   0.431  15.143 -0.1831 -0.0472  0.1119
 4375SOL    HW124761   4.627   0.379  15.172 -0.1103 -0.4514 -0.4167
 4375SOL    HW224762   4.672   0.522  15.141  0.4218  0.2309  3.4179
 4376SOL     OW24763   2.744   0.505   6.028  0.6016  0.1508 -0.7571
 4376SOL    HW124764   2.839   0.514   6.037  0.7085  0.2203 -1.9899
 4376SOL    HW224765   2.737   0.410   6.015 -2.5433  0.2871  0.0006
 4377SOL     OW24766   0.669   1.473   1.380 -0.0322  0.2042 -0.4024
 4377SOL    HW124767   0.671   1.520   1.296  1.6005  0.7955 -0.0350
 4377SOL    HW224768   0.662   1.381   1.355  1.4072  0.3638 -1.4456
 4378SOL     OW24769   4.441   2.833   4.177  0.0417  0.0416 -0.0758
 4378SOL    HW124770   4.536   2.818   4.179 -0.2516 -1.3831  2.6536
 4378SOL    HW224771   4.414   2.804   4.264  0.9777 -4.7584 -1.4140
 4379SOL     OW24772   0.600   3.252   2.099  0.2504 -0.2930  0.1675
 4379SOL    HW124773   0.667   3.288   2.041 -1.7219  0.7760 -1.4080
 4379SOL    HW224774   0.637   3.164   2.111 -1.0229 -0.9432 -0.7678
 4380SOL     OW24775   2.782   1.401   5.977 -0.4158 -0.0050  0.4622
 4380SOL    HW124776   2.765   1.441   5.892 -0.6338 -0.0619  0.4792
 4380SOL    HW224777   2.727   1.452   6.035  0.8869 -0.5597  2.2027
 4381SOL     OW24778   0.780   0.629   3.870  0.2971 -0.1785  0.6230
 4381SOL    HW124779   0.853   0.685   3.843 -0.9026  0.3687 -1.5703
 4381SOL    HW224780   0.774   0.646   3.964 -0.9490  0.0856  0.4998
 4382SOL     OW24781   1.568   0.030   4.484  0.2558  0.1728  0.0314
 4382SOL    HW124782   1.623   4.698   4.456 -0.1482 -0.3226  0.5118
 4382SOL    HW224783   1.634   0.084   4.528  0.0973 -1.1324  1.8659
 4383SOL     OW24784   4.603   2.834   3.740  1.1517  0.7909 -0.1457
 4383SOL    HW124785   4.689   2.828   3.699  1.9555  0.2473  1.6197
 4383SOL    HW224786   4.625   2.778   3.814  1.8460  2.2051  0.7342
 4384SOL     OW24787   4.131   1.968   2.056  0.2812 -0.1515 -0.2195
 4384SOL    HW124788   4.113   2.059   2.078  1.1496  0.4782 -2.1201
 4384SOL    HW224789   4.040   1.940   2.053 -0.0480  1.0078 -0.9984
 4385SOL     OW24790   1.554   1.390   6.468 -0.6979 -0.6546 -0.4037
 4385SOL    HW124791   1.501   1.460   6.430 -0.4090  1.2688  2.8150
 4385SOL    HW224792   1.633   1.439   6.491  0.0878 -1.3182 -1.6648
 4386SOL     OW24793   3.879   3.260   1.796 -0.3593 -0.5365  0.4211
 4386SOL    HW124794   3.963   3.294   1.827 -1.2142  1.6177  0.4065
 4386SOL    HW224795   3.888   3.270   1.701  2.6236 -0.9863  0.6488
 4387SOL     OW24796   3.476   4.429   8.561 -0.1545  0.6894  0.2342
 4387SOL    HW124797   3.498   4.342   8.529 -4.0569  0.1382 -0.9687
 4387SOL    HW224798   3.383   4.428   8.583  0.6004 -1.4121  3.3324
 4388SOL     OW24799   0.136   1.152   6.155 -0.2134  0.2178  0.2127
 4388SOL    HW124800   0.164   1.081   6.097 -0.0328 -0.4205  1.0721
 4388SOL    HW224801   0.142   1.232   6.103  0.4208  0.7628  1.1324
 4389SOL     OW24802   0.536   3.719   2.354 -1.0424  0.1779  0.2874
 4389SOL    HW124803   0.487   3.657   2.409 -1.1706 -1.1864 -1.3660
 4389SOL    HW224804   0.578   3.766   2.426  2.5284 -1.4080 -0.7771
 4390SOL     OW24805   1.938   2.296   3.204  0.4440 -0.1225  0.3895
 4390SOL    HW124806   1.880   2.255   3.268 -1.8885  3.0540  0.2985
 4390SOL    HW224807   1.991   2.357   3.255  1.7516  0.3207 -1.4959
 4391SOL     OW24808   0.759   3.500   8.639 -0.3773 -0.1691 -0.0419
 4391SOL    HW124809   0.738   3.423   8.691  1.7569  1.1321  2.7831
 4391SOL    HW224810   0.830   3.540   8.689 -2.4379  0.1647  2.5808
 4392SOL     OW24811   0.481   1.186  10.135 -0.2403 -0.5821  0.2324
 4392SOL    HW124812   0.515   1.203  10.047  1.8672 -1.4421  0.8910
 4392SOL    HW224813   0.453   1.276  10.150  1.1129 -0.4086  1.6639
 4393SOL     OW24814   1.485   4.249   8.704 -0.0674  0.0481 -0.0016
 4393SOL    HW124815   1.421   4.291   8.761 -0.4979  0.0756 -0.5018
 4393SOL    HW224816   1.498   4.324   8.646 -1.1424 -1.6432 -2.4385
 4394SOL     OW24817   2.945   2.069   9.910 -0.1729 -0.1937  0.2831
 4394SOL    HW124818   3.030   2.047   9.872  0.0911  1.3467 -0.0415
 4394SOL    HW224819   2.977   2.060   9.999 -0.4468 -0.9967  0.2966
 4395SOL     OW24820   3.705   2.922   2.597 -0.3552 -0.1352  0.0115
 4395SOL    HW124821   3.756   3.003   2.607  0.3852 -0.8078  1.7213
 4395SOL    HW224822   3.640   2.927   2.667  0.4918  0.8405  0.7349
 4396SOL     OW24823   3.278   3.384   5.448  0.3514  0.3621 -0.2929
 4396SOL    HW124824   3.184   3.376   5.467  0.4583  1.5975  0.8199
 4396SOL    HW224825   3.271   3.411   5.357 -1.5254  0.6491 -0.0711
 4397SOL     OW24826   0.828   1.565   8.539  0.1436  0.3535 -0.4248
 4397SOL    HW124827   0.908   1.531   8.581 -0.1220  1.0394  0.6349
 4397SOL    HW224828   0.858   1.551   8.450  0.5342 -1.0356 -0.0801
 4398SOL     OW24829   4.467   4.340   3.753  0.2291 -0.1783  0.2161
 4398SOL    HW124830   4.420   4.415   3.790  1.1508  0.3177  0.3818
 4398SOL    HW224831   4.416   4.271   3.794 -0.6481  1.6844  2.2559
 4399SOL     OW24832   0.767   1.444   6.807  0.5111  0.1836  0.8303
 4399SOL    HW124833   0.796   1.361   6.768 -0.2305  0.1717  0.3179
 4399SOL    HW224834   0.734   1.406   6.889 -0.0666 -1.7489 -0.3065
 4400SOL     OW24835   0.101   2.127   4.240  0.3607  0.2050 -0.2096
 4400SOL    HW124836   0.080   2.045   4.285 -0.2362 -0.4469 -1.6680
 4400SOL    HW224837   0.092   2.199   4.303 -1.1275 -0.6893  0.6068
 4401SOL     OW24838   2.140   2.982   5.151 -0.2464  0.1349  0.2031
 4401SOL    HW124839   2.074   2.920   5.182  1.4660 -0.6307  2.3369
 4401SOL    HW224840   2.089   2.997   5.072  1.6940  0.1684 -1.0343
 4402SOL     OW24841   3.451   2.712   3.809 -0.2960  0.2611  0.2159
 4402SOL    HW124842   3.361   2.740   3.823 -0.4172 -0.5863  1.1298
 4402SOL    HW224843   3.491   2.798   3.800 -2.5710  1.4074  1.2904
 4403SOL     OW24844   1.633   2.863  11.968 -0.2234  0.4285  0.0127
 4403SOL    HW124845   1.592   2.831  12.049  2.8056  1.8087  2.1225
 4403SOL    HW224846   1.650   2.955  11.985  2.0761  0.1801 -0.9337
 4404SOL     OW24847   3.238   4.555  10.038  0.6073 -0.5357  0.0120
 4404SOL    HW124848   3.307   4.621  10.045  1.2791 -1.2079 -0.3395
 4404SOL    HW224849   3.174   4.602   9.984 -0.0632  0.8603  2.0381
 4405SOL     OW24850   3.886   4.368   3.902 -0.0101  0.2728  0.1748
 4405SOL    HW124851   3.914   4.278   3.885  0.9776  0.4146  1.0806
 4405SOL    HW224852   3.930   4.384   3.986 -1.8864 -0.4523  1.2909
 4406SOL     OW24853   3.310   0.110   8.239 -0.3264  0.5862 -0.0371
 4406SOL    HW124854   3.277   0.160   8.314 -0.9264  1.1653 -0.6833
 4406SOL    HW224855   3.230   0.075   8.201  0.8288  0.0330 -1.9431
 4407SOL     OW24856   1.571   2.423   8.082 -0.7362  0.1236  0.4393
 4407SOL    HW124857   1.541   2.332   8.089 -2.1688  0.5042 -0.8259
 4407SOL    HW224858   1.540   2.445   7.994 -1.1974 -0.9993  0.3174
 4408SOL     OW24859   1.761   0.180   7.837 -0.1144 -0.5037 -0.1473
 4408SOL    HW124860   1.849   0.187   7.874  0.1549  0.0913 -0.9022
 4408SOL    HW224861   1.723   0.268   7.845 -1.2770 -0.9982 -0.2538
 4409SOL     OW24862   1.890   4.195   4.855 -0.4472 -0.5698 -0.4439
 4409SOL    HW124863   1.925   4.262   4.914 -0.2009 -1.4996  0.4783
 4409SOL    HW224864   1.806   4.241   4.842 -0.6142 -0.4283  1.0381
 4410SOL     OW24865   4.400   2.891   2.186  0.1186 -0.7160  0.6701
 4410SOL    HW124866   4.316   2.880   2.141 -1.0377  1.6886  2.2746
 4410SOL    HW224867   4.398   2.986   2.198 -3.8906 -0.7946  0.5904
 4411SOL     OW24868   0.339   2.119  15.313 -0.4145  0.5041  0.0935
 4411SOL    HW124869   0.370   2.103  15.224  0.5539  0.6888  0.4004
 4411SOL    HW224870   0.319   2.213  15.316 -0.3027  0.5612 -1.2539
 4412SOL     OW24871   3.886   4.230   8.626  0.0409  0.3323 -0.1781
 4412SOL    HW124872   3.899   4.322   8.604 -1.6229  0.4885 -0.5467
 4412SOL    HW224873   3.846   4.192   8.548 -0.3377 -0.5680  0.4451
 4413SOL     OW24874   4.022   0.665  15.788  0.6585  0.3763  0.1368
 4413SOL    HW124875   3.946   0.607  15.794 -0.2905  1.8581  2.4001
 4413SOL    HW224876   4.009   0.736  15.725  0.7510 -0.4488 -0.8113
 4414SOL     OW24877   4.322   2.417   4.172 -1.0868 -0.1999 -0.4945
 4414SOL    HW124878   4.350   2.385   4.086 -0.0143 -1.0112  0.1626
 4414SOL    HW224879   4.263   2.487   4.145  0.4130  0.8940 -0.9718
 4415SOL     OW24880   1.771   1.383  12.597  0.3240 -0.1263  0.0766
 4415SOL    HW124881   1.786   1.294  12.630  0.5614 -0.0358  0.2099
 4415SOL    HW224882   1.751   1.365  12.505  0.6523 -0.5325  0.0850
 4416SOL     OW24883   2.106   3.128   0.208 -0.1504 -0.4614 -0.3189
 4416SOL    HW124884   2.066   3.042   0.194 -2.1276  0.6200 -1.4197
 4416SOL    HW224885   2.129   3.116   0.300 -2.3113  1.0361  0.3991
 4417SOL     OW24886   4.464   3.921   9.196  0.1671  0.4951  0.4509
 4417SOL    HW124887   4.456   3.941   9.290 -0.3059 -0.2420  0.5662
 4417SOL    HW224888   4.423   3.835   9.199  1.2823  0.0003  1.6709
 4418SOL     OW24889   2.578   1.145   4.054  0.2749  0.1493 -0.3170
 4418SOL    HW124890   2.615   1.233   4.049  0.6444  0.0640  0.9510
 4418SOL    HW224891   2.652   1.090   4.029 -0.7812 -1.1117 -0.7165
 4419SOL     OW24892   0.264   2.820  11.204  0.3365  0.4050 -0.2077
 4419SOL    HW124893   0.348   2.778  11.223  0.7794  1.4550  0.1827
 4419SOL    HW224894   0.231   2.746  11.153  1.4641 -0.0266 -0.3294
 4420SOL     OW24895   4.395   1.979   2.065 -0.2698 -0.3644  0.4231
 4420SOL    HW124896   4.414   1.889   2.038  0.6777 -0.8228  2.5865
 4420SOL    HW224897   4.300   1.973   2.060 -0.5039  1.9332  2.0144
 4421SOL     OW24898   2.884   1.377   7.090  0.3859 -0.4236  0.1816
 4421SOL    HW124899   2.905   1.445   7.155 -1.3632 -0.5344  0.8771
 4421SOL    HW224900   2.959   1.392   7.034 -0.2381 -0.4505 -0.6609
 4422SOL     OW24901   4.491   2.185   7.322 -0.7080 -0.2759  0.3495
 4422SOL    HW124902   4.479   2.251   7.253 -1.3022  0.4922  1.1835
 4422SOL    HW224903   4.523   2.248   7.387  0.6432  0.8033 -1.3501
 4423SOL     OW24904   3.210   1.089   4.377 -0.1557  0.0792  0.5317
 4423SOL    HW124905   3.254   1.172   4.360 -0.9546  0.4151  0.0533
 4423SOL    HW224906   3.185   1.090   4.469  1.8736  0.9542  1.0570
 4424SOL     OW24907   0.644   4.556  11.235  0.1666  0.6190 -0.5703
 4424SOL    HW124908   0.736   4.554  11.258  0.2706  0.9305 -0.9608
 4424SOL    HW224909   0.616   4.563  11.326 -1.9029 -1.5987 -1.0137
 4425SOL     OW24910   0.182   4.192  10.186  0.3755 -0.0606 -0.4338
 4425SOL    HW124911   0.244   4.174  10.115  1.0934  2.1162 -0.3591
 4425SOL    HW224912   0.100   4.171  10.142  0.9345 -1.3241 -0.8648
 4426SOL     OW24913   0.539   4.357   3.554 -0.0542  0.3808 -0.0400
 4426SOL    HW124914   0.605   4.377   3.487  2.0488 -0.1094  1.9139
 4426SOL    HW224915   0.487   4.436   3.538 -0.0488  0.2135 -0.9119
 4427SOL     OW24916   2.426   3.214   5.875 -0.4147 -0.1911  0.0483
 4427SOL    HW124917   2.492   3.235   5.808  0.8317 -3.0651  0.3896
 4427SOL    HW224918   2.353   3.264   5.838 -2.0200 -0.1982  3.2686
 4428SOL     OW24919   3.810   3.464   9.636  0.3928 -0.5161 -0.5012
 4428SOL    HW124920   3.779   3.460   9.726 -0.8010  1.4168 -0.8365
 4428SOL    HW224921   3.856   3.548   9.628  1.6136 -0.9556  2.0208
 4429SOL     OW24922   0.555   4.629   7.147 -0.2723  0.1356 -0.0237
 4429SOL    HW124923   0.643   4.615   7.183  0.4894 -0.2679 -2.0377
 4429SOL    HW224924   0.580   4.653   7.058  1.0301 -2.4433 -0.3511
 4430SOL     OW24925   0.637   0.233   7.923  0.0127  0.2853  0.1021
 4430SOL    HW124926   0.623   0.187   8.006  0.5185 -1.5554 -0.8425
 4430SOL    HW224927   0.640   0.160   7.861 -0.7361 -1.1456  1.7675
 4431SOL     OW24928   0.989   2.930   5.526 -0.1529 -0.1640 -0.3432
 4431SOL    HW124929   0.915   2.988   5.507  0.0234 -0.0298 -0.6236
 4431SOL    HW224930   1.051   2.993   5.488 -1.2733  0.8932 -0.4424
 4432SOL     OW24931   3.567   2.709  11.295 -0.9026  0.1325 -0.1891
 4432SOL    HW124932   3.522   2.694  11.378  0.5755  0.6425  0.7045
 4432SOL    HW224933   3.494   2.730  11.236 -1.3303 -0.5780  0.0790
 4433SOL     OW24934   4.195   1.168   0.316 -0.7458  0.4373 -0.3146
 4433SOL    HW124935   4.246   1.246   0.339  1.4278 -1.4426  1.2178
 4433SOL    HW224936   4.267   1.120   0.275 -0.8945 -0.8795  0.9562
 4434SOL     OW24937   3.014   2.870   6.514  0.0441 -0.5103 -0.2344
 4434SOL    HW124938   2.927   2.875   6.476  1.3390 -1.2526 -3.2845
 4434SOL    HW224939   3.064   2.944   6.479  1.8661 -2.4263 -1.6983
 4435SOL     OW24940   1.066   0.297   1.980  0.1634  0.0366 -0.7744
 4435SOL    HW124941   1.126   0.336   2.044 -0.7701  1.1527 -0.5735
 4435SOL    HW224942   1.033   0.368   1.925 -1.1454 -0.9420 -1.2606
 4436SOL     OW24943   3.753   3.283   3.411 -0.6946 -0.0799  0.3146
 4436SOL    HW124944   3.793   3.369   3.407  2.4792 -1.6087 -0.7161
 4436SOL    HW224945   3.816   3.228   3.364  1.1614  0.8569  1.6918
 4437SOL     OW24946   2.985   3.337  11.493 -0.1990 -0.6120 -0.3340
 4437SOL    HW124947   3.020   3.261  11.540 -1.8640 -1.8125 -1.0178
 4437SOL    HW224948   2.966   3.402  11.560  1.6886 -1.6460  1.2000
 4438SOL     OW24949   1.110   3.386   8.558 -0.4779  0.0853  0.7724
 4438SOL    HW124950   1.018   3.391   8.584 -0.4851  0.8388  0.6017
 4438SOL    HW224951   1.151   3.399   8.644  0.3641 -1.0371  0.5412
 4439SOL     OW24952   2.618   3.591  13.124  0.1065  0.5151 -0.1680
 4439SOL    HW124953   2.588   3.517  13.177 -1.5239 -0.0507 -1.8571
 4439SOL    HW224954   2.655   3.545  13.049  0.6961 -0.5033  0.7574
 4440SOL     OW24955   0.836   3.452   3.669 -0.2894  0.0251 -0.3211
 4440SOL    HW124956   0.820   3.463   3.763 -1.6863  1.3607 -0.7016
 4440SOL    HW224957   0.835   3.543   3.641 -3.2559 -0.8784 -3.1929
 4441SOL     OW24958   1.656   2.921  15.171 -0.5135  0.5505  0.2341
 4441SOL    HW124959   1.629   2.842  15.124  0.2333  0.8028 -0.6291
 4441SOL    HW224960   1.664   2.892  15.262  1.8572  1.3259  0.2713
 4442SOL     OW24961   4.360   2.127  12.515 -0.1071  0.6732 -0.6639
 4442SOL    HW124962   4.300   2.099  12.446  0.7870 -0.5067 -0.9640
 4442SOL    HW224963   4.396   2.041  12.537  1.4536  1.4895  0.0214
 4443SOL     OW24964   4.306   2.032   5.000  0.1898  1.2761  0.1610
 4443SOL    HW124965   4.257   2.044   4.918  0.6662 -1.4954 -0.5446
 4443SOL    HW224966   4.385   1.989   4.967 -0.7380  1.8449 -2.7996
 4444SOL     OW24967   3.774   3.274   2.300 -0.0495  0.8598  0.0534
 4444SOL    HW124968   3.822   3.356   2.288  2.2060 -0.7681 -1.8218
 4444SOL    HW224969   3.711   3.293   2.370  1.4532  1.6919  1.1858
 4445SOL     OW24970   1.058   0.208   1.340 -0.0975 -0.5012 -0.2477
 4445SOL    HW124971   1.005   0.219   1.261 -0.5572  1.7794  0.3848
 4445SOL    HW224972   1.004   0.147   1.391 -0.3601 -0.3075 -0.2934
 4446SOL     OW24973   1.469   3.282   0.222  0.1582  0.1510  0.3205
 4446SOL    HW124974   1.421   3.241   0.294 -1.2445 -0.8948 -1.1905
 4446SOL    HW224975   1.559   3.285   0.253 -0.4352  0.1510  2.0244
 4447SOL     OW24976   3.714   4.151   4.167 -0.0760 -0.5087 -0.2184
 4447SOL    HW124977   3.803   4.117   4.172 -0.2837 -1.0880 -0.4224
 4447SOL    HW224978   3.704   4.183   4.078 -0.9091  0.3324  0.1834
 4448SOL     OW24979   2.990   2.816   6.881  0.8319  0.6817  0.1634
 4448SOL    HW124980   2.906   2.830   6.924  0.6022 -0.7370  0.1872
 4448SOL    HW224981   3.039   2.801   6.962  0.5270  2.8590  0.7571
 4449SOL     OW24982   1.633   3.028   2.823 -0.0961  0.7262 -0.2035
 4449SOL    HW124983   1.708   3.041   2.765 -0.2802  1.3590 -0.3006
 4449SOL    HW224984   1.612   3.115   2.856 -1.1412 -0.3522  2.0021
 4450SOL     OW24985   3.133   4.544   4.932  0.4511 -0.7119 -0.2607
 4450SOL    HW124986   3.138   4.546   4.837 -0.8868 -1.4584 -0.3494
 4450SOL    HW224987   3.101   4.456   4.950  2.5612 -1.7758 -1.6253
 4451SOL     OW24988   2.443   4.455   8.359  0.1255  0.4111 -0.2967
 4451SOL    HW124989   2.384   4.517   8.402  0.7064  1.1351 -0.5384
 4451SOL    HW224990   2.498   4.456   8.437 -0.2046  0.8140 -0.0737
 4452SOL     OW24991   1.969   0.118   4.616 -0.0184 -0.8840 -0.0952
 4452SOL    HW124992   2.063   0.101   4.605  0.3460  1.0410  0.0208
 4452SOL    HW224993   1.943   0.113   4.524  0.5589  1.6966 -0.4102
 4453SOL     OW24994   3.484   2.204   6.586 -0.0854  0.2885  0.4393
 4453SOL    HW124995   3.482   2.192   6.681  1.1354  0.7766  0.5247
 4453SOL    HW224996   3.466   2.297   6.572  0.8184  0.7378  2.2902
 4454SOL     OW24997   1.829   4.499   3.541  0.7506 -0.4068  0.2796
 4454SOL    HW124998   1.887   4.574   3.539  1.2742 -0.8214  0.0907
 4454SOL    HW224999   1.868   4.448   3.613  0.0312 -1.5665 -0.1491
 4455SOL     OW25000   1.894   1.856   5.890 -0.3408  0.3132 -0.0002
 4455SOL    HW125001   1.952   1.926   5.859 -1.1443  1.5451  1.2863
 4455SOL    HW225002   1.938   1.823   5.969 -1.5333 -1.3266 -0.0349
 4456SOL     OW25003   3.847   4.291  11.638  0.7911 -0.0550 -0.0051
 4456SOL    HW125004   3.909   4.233  11.682 -0.7893 -0.6121  1.5205
 4456SOL    HW225005   3.900   4.366  11.614 -1.1434  1.0384 -0.8932
 4457SOL     OW25006   3.902   1.444   8.124  0.2883  0.1302  0.2069
 4457SOL    HW125007   3.858   1.365   8.158 -1.0025  1.0352  0.6150
 4457SOL    HW225008   3.991   1.409   8.131 -0.4732 -1.3494  2.6297
 4458SOL     OW25009   2.998   0.638   8.501 -0.2516  0.3153 -0.1848
 4458SOL    HW125010   3.011   0.553   8.542  1.3271  0.1083 -1.1030
 4458SOL    HW225011   2.931   0.673   8.559  0.0062 -1.6422  1.2812
 4459SOL     OW25012   1.093   1.548  17.682 -0.5323 -0.1105  0.5248
 4459SOL    HW125013   1.028   1.480  17.665 -0.0541 -0.2225 -0.8991
 4459SOL    HW225014   1.151   1.530  17.607 -0.3646  1.2628  0.3180
 4460SOL     OW25015   2.150   0.606   8.707 -0.5983  0.1950 -0.3926
 4460SOL    HW125016   2.125   0.626   8.617 -1.0541  0.4494 -0.2082
 4460SOL    HW225017   2.071   0.565   8.740  0.2874 -0.9206  0.3578
 4461SOL     OW25018   4.133   2.785   7.403  0.3030 -0.3839  0.1959
 4461SOL    HW125019   4.220   2.785   7.443  0.5061  1.1435 -0.2493
 4461SOL    HW225020   4.110   2.698   7.435 -0.8591  0.0224  0.4715
 4462SOL     OW25021   2.002   2.781   0.986  0.1641 -0.1389  0.3494
 4462SOL    HW125022   2.058   2.854   0.959  1.1785  0.0391  3.0185
 4462SOL    HW225023   2.017   2.718   0.916  0.4667 -0.4690  0.7176
 4463SOL     OW25024   0.640   1.005   7.697 -0.0389 -0.3574 -0.1803
 4463SOL    HW125025   0.682   1.047   7.772 -0.2428 -1.0782  0.3468
 4463SOL    HW225026   0.579   0.951   7.748  0.8667 -0.2136  1.0579
 4464SOL     OW25027   0.996   3.094   9.126 -0.0721  0.0195 -0.0192
 4464SOL    HW125028   1.051   3.065   9.199 -1.7729 -2.4256  0.3048
 4464SOL    HW225029   1.057   3.091   9.052  0.1727  2.7912  0.0753
 4465SOL     OW25030   0.928   0.579   2.786  0.1175  0.6208  0.2653
 4465SOL    HW125031   0.938   0.563   2.692  1.0168  0.0929  0.4518
 4465SOL    HW225032   1.013   0.613   2.813  0.5919  0.6986 -1.3189
 4466SOL     OW25033   3.780   4.287  10.330 -0.8874  0.3463  0.2759
 4466SOL    HW125034   3.758   4.307  10.421  1.4752 -0.7837  1.0939
 4466SOL    HW225035   3.724   4.353  10.290  1.5547 -0.3998 -4.2821
 4467SOL     OW25036   3.834   0.340   6.402  0.3882 -0.2700 -0.4468
 4467SOL    HW125037   3.790   0.283   6.338 -1.2125 -1.5780  1.7940
 4467SOL    HW225038   3.758   0.392   6.432 -0.0258 -0.2029 -1.6270
 4468SOL     OW25039   1.779   1.339   5.713 -0.3821  0.2609  0.2704
 4468SOL    HW125040   1.752   1.402   5.780 -0.9777  0.2167  0.0795
 4468SOL    HW225041   1.753   1.389   5.636 -0.7095 -2.0465 -1.1209
 4469SOL     OW25042   3.169   1.069  17.191  0.0591  0.3566 -0.2836
 4469SOL    HW125043   3.223   0.991  17.179  3.4275  2.5552  0.4694
 4469SOL    HW225044   3.132   1.090  17.105 -0.4080  1.3484  0.1576
 4470SOL     OW25045   1.267   2.269   5.058  0.4586  0.2216 -0.2919
 4470SOL    HW125046   1.325   2.293   4.985 -0.4027  5.1024  0.6382
 4470SOL    HW225047   1.208   2.215   5.005  0.3212  0.1983 -0.1148
 4471SOL     OW25048   0.862   3.769  11.273  0.5046 -0.1384 -0.0430
 4471SOL    HW125049   0.860   3.839  11.209  0.1085  0.3872  0.5438
 4471SOL    HW225050   0.912   3.694  11.241 -2.1673 -0.7713 -2.7093
 4472SOL     OW25051   2.278   2.926   9.540 -0.3219  0.0269  0.1841
 4472SOL    HW125052   2.293   3.018   9.563  0.6487  0.1713 -0.9656
 4472SOL    HW225053   2.312   2.918   9.451  0.7986 -0.1250  0.6283
 4473SOL     OW25054   4.211   4.546  13.349 -0.2586  0.8041  0.1107
 4473SOL    HW125055   4.254   4.628  13.325  0.2518  0.8115  1.0515
 4473SOL    HW225056   4.272   4.483  13.312 -0.1893  2.1635 -2.0544
 4474SOL     OW25057   1.586   4.320   2.180  0.1014 -0.6072  0.5280
 4474SOL    HW125058   1.539   4.374   2.116 -0.3919 -1.3996  0.2200
 4474SOL    HW225059   1.638   4.278   2.112 -0.7273  0.7107 -0.9365
 4475SOL     OW25060   2.406   4.540   7.079  0.3114  0.1921 -0.3955
 4475SOL    HW125061   2.477   4.553   7.142  0.1630  1.3383 -0.4659
 4475SOL    HW225062   2.430   4.452   7.050 -1.9112  0.0074 -1.6897
 4476SOL     OW25063   2.327   2.446   7.509 -0.3567 -0.2665  0.1887
 4476SOL    HW125064   2.326   2.364   7.558  1.0286  0.7873  1.9533
 4476SOL    HW225065   2.414   2.438   7.471 -0.3376 -2.0701  0.6201
 4477SOL     OW25066   4.377   0.162   4.438 -0.2294  0.4757 -0.1872
 4477SOL    HW125067   4.356   0.070   4.420 -0.1625  0.0788  1.7648
 4477SOL    HW225068   4.415   0.148   4.525 -1.1084  0.0658  0.1383
 4478SOL     OW25069   1.666   0.162  11.431 -0.1175 -0.6009  0.2981
 4478SOL    HW125070   1.600   0.227  11.405  0.5738 -1.0228 -2.4806
 4478SOL    HW225071   1.719   0.136  11.355  0.5962  1.7702 -0.0425
 4479SOL     OW25072   3.435   1.420   7.303 -0.2339 -0.1638 -0.0430
 4479SOL    HW125073   3.385   1.472   7.240  1.4403 -0.5982 -1.7209
 4479SOL    HW225074   3.520   1.460   7.286 -0.7527  0.4764 -1.1261
 4480SOL     OW25075   0.321   4.037   8.920 -0.1152  0.1444  0.8092
 4480SOL    HW125076   0.273   4.120   8.919  2.1898  1.4450 -1.6599
 4480SOL    HW225077   0.253   3.976   8.891  1.7841 -1.9124  0.6963
 4481SOL     OW25078   0.792   1.950   4.425 -0.3263  0.1590  0.3809
 4481SOL    HW125079   0.880   1.919   4.442 -1.1140 -1.4335  1.5473
 4481SOL    HW225080   0.804   2.038   4.390  0.4813  0.3829  1.2264
 4482SOL     OW25081   2.838   3.765   8.325 -0.0933  0.1577 -0.4854
 4482SOL    HW125082   2.818   3.856   8.305  2.2309  0.9623  0.7795
 4482SOL    HW225083   2.882   3.739   8.244  1.1376  0.2479  0.1480
 4483SOL     OW25084   0.791   1.365   2.245 -0.0450  0.3097  0.4524
 4483SOL    HW125085   0.883   1.369   2.271  0.3754  2.9392 -1.4411
 4483SOL    HW225086   0.777   1.271   2.250 -0.6199  0.4003  0.4945
 4484SOL     OW25087   2.632   3.537   2.551  0.4212  0.5348 -0.1455
 4484SOL    HW125088   2.703   3.491   2.596 -0.7028  1.4170  2.5226
 4484SOL    HW225089   2.642   3.624   2.590 -0.9203  1.2800 -1.4632
 4485SOL     OW25090   4.302   4.234  17.154  0.1149 -0.3284  0.2059
 4485SOL    HW125091   4.290   4.232  17.249  0.0636  1.9972  0.2569
 4485SOL    HW225092   4.397   4.226  17.152 -0.0406 -2.0878 -0.1835
 4486SOL     OW25093   0.150   2.257   6.435  0.1889 -0.1875 -0.1787
 4486SOL    HW125094   0.158   2.210   6.352  1.0524 -1.2481  0.5114
 4486SOL    HW225095   0.176   2.347   6.412 -0.6427  0.4324  1.3142
 4487SOL     OW25096   1.994   4.338   1.484 -0.0002 -0.3999 -0.6849
 4487SOL    HW125097   1.948   4.269   1.436  1.4636  0.4985 -3.3743
 4487SOL    HW225098   2.045   4.374   1.411 -0.2564  2.6658  0.6526
 4488SOL     OW25099   0.247   0.148  14.872 -0.2239 -0.5172  0.2740
 4488SOL    HW125100   0.306   0.179  14.941  1.0618 -0.8715 -0.6607
 4488SOL    HW225101   0.232   0.224  14.816  1.0387  1.0920  2.0882
 4489SOL     OW25102   2.326   3.628  13.286 -0.5660  0.2595 -0.1795
 4489SOL    HW125103   2.258   3.568  13.255 -2.5924  2.0952  0.7227
 4489SOL    HW225104   2.359   3.661  13.202  2.1790  0.8734  1.1398
 4490SOL     OW25105   0.585   2.442  15.166  0.6174  0.4511  0.6792
 4490SOL    HW125106   0.516   2.385  15.131  1.4600 -0.8198  1.0590
 4490SOL    HW225107   0.595   2.510  15.100  0.1287 -0.1383 -0.0060
 4491SOL     OW25108   2.231   3.923  10.750  0.3769 -0.2641 -0.2428
 4491SOL    HW125109   2.316   3.901  10.713  0.6686 -0.0505  0.3016
 4491SOL    HW225110   2.253   3.990  10.814  2.3333 -1.7370  0.6091
 4492SOL     OW25111   3.599   3.770  10.849 -0.3165 -0.0306  0.0079
 4492SOL    HW125112   3.643   3.811  10.775  2.9235 -0.4454  1.6902
 4492SOL    HW225113   3.641   3.816  10.922  0.6712 -2.9130  1.2742
 4493SOL     OW25114   2.414   2.645   5.999  0.2243 -0.1520  0.7321
 4493SOL    HW125115   2.407   2.734   5.966  1.0281  0.5698  2.4971
 4493SOL    HW225116   2.442   2.594   5.922  0.8882  0.9142  0.2662
 4494SOL     OW25117   1.018   3.475   6.884 -0.1774 -0.0978  0.2100
 4494SOL    HW125118   0.954   3.531   6.928 -2.9666 -0.5456 -3.3231
 4494SOL    HW225119   0.976   3.389   6.878  0.7492 -0.5285 -0.1077
 4495SOL     OW25120   2.453   0.465   5.065 -0.7915  0.0210  0.3659
 4495SOL    HW125121   2.428   0.554   5.041 -1.3608  0.7718  3.8024
 4495SOL    HW225122   2.532   0.488   5.114 -0.1742  0.2154 -0.7244
 4496SOL     OW25123   1.155   3.830   7.097 -0.1225 -0.0708 -0.6724
 4496SOL    HW125124   1.117   3.846   7.183 -0.9235 -4.1414 -0.2636
 4496SOL    HW225125   1.076   3.852   7.047  1.3408  0.8754 -2.5706
 4497SOL     OW25126   1.492   3.212   8.615 -0.0315 -0.3069  0.1500
 4497SOL    HW125127   1.566   3.265   8.587 -0.8973  1.2262  0.7715
 4497SOL    HW225128   1.429   3.283   8.631 -1.9196 -2.0561  0.5117
 4498SOL     OW25129   2.019   3.323  17.126  0.1346 -0.3326  0.3866
 4498SOL    HW125130   2.102   3.368  17.110 -0.4782  0.8818  0.5843
 4498SOL    HW225131   1.990   3.311  17.036  1.5920  0.7071 -0.2232
 4499SOL     OW25132   2.725   2.559  16.513 -0.0335 -0.2866 -0.0700
 4499SOL    HW125133   2.714   2.570  16.418  0.3718  0.1171 -0.0740
 4499SOL    HW225134   2.704   2.650  16.533  1.3038  0.2566 -1.1216
 4500SOL     OW25135   0.766   3.227   9.704  0.7564  0.6192 -0.0146
 4500SOL    HW125136   0.823   3.260   9.774 -1.1923 -0.1807  1.9369
 4500SOL    HW225137   0.769   3.135   9.733  0.4007  0.7713  0.5098
 4501SOL     OW25138   2.868   2.811   7.478  0.0740  0.2012  0.0891
 4501SOL    HW125139   2.897   2.853   7.559  1.1553  0.6581 -0.5369
 4501SOL    HW225140   2.773   2.813   7.485  0.1892 -0.0756  1.7665
 4502SOL     OW25141   0.394   1.326  12.314 -0.5227  0.2428 -0.6325
 4502SOL    HW125142   0.460   1.307  12.247  0.3126  1.6304 -0.2096
 4502SOL    HW225143   0.313   1.302  12.270 -0.3894  1.2078 -1.4229
 4503SOL     OW25144   1.774   2.231   4.266  0.4403  0.5403  0.1149
 4503SOL    HW125145   1.767   2.136   4.275  1.0628  0.5874  1.1094
 4503SOL    HW225146   1.750   2.253   4.176 -2.2637  0.8127  0.9216
 4504SOL     OW25147   1.329   3.645   4.522 -0.2571  0.3266 -0.3445
 4504SOL    HW125148   1.395   3.581   4.548  0.8629  1.8252  0.5247
 4504SOL    HW225149   1.300   3.676   4.608  0.9064  0.8352 -0.1370
 4505SOL     OW25150   1.642   1.980   2.513  0.6601 -0.0123  0.3107
 4505SOL    HW125151   1.591   1.910   2.473 -0.5630  0.3178  1.2942
 4505SOL    HW225152   1.724   1.982   2.464  0.4545  1.4596  0.0245
 4506SOL     OW25153   2.348   1.124   3.584 -0.4758  0.0728 -0.5128
 4506SOL    HW125154   2.425   1.138   3.639  0.6018  1.2582 -2.3564
 4506SOL    HW225155   2.311   1.046   3.626 -0.1488 -0.5138 -1.3138
 4507SOL     OW25156   3.458   3.271   5.140 -0.3563 -0.0519  0.3115
 4507SOL    HW125157   3.418   3.218   5.072 -0.8886 -0.2046  0.7436
 4507SOL    HW225158   3.408   3.352   5.148 -0.5711 -0.2511  0.9548
 4508SOL     OW25159   2.235   1.984  17.054  0.0382  0.8152 -0.2441
 4508SOL    HW125160   2.205   1.963  17.142 -2.7101 -1.8688 -1.8282
 4508SOL    HW225161   2.221   1.908  16.998  0.6297  0.5954 -0.0911
 4509SOL     OW25162   2.644   0.989  12.194 -0.2346  0.3340  0.0886
 4509SOL    HW125163   2.574   0.923  12.190  1.4655 -1.3861 -0.9343
 4509SOL    HW225164   2.677   0.962  12.280  0.0620 -0.4759 -0.2794
 4510SOL     OW25165   1.432   2.474   4.431 -0.2627 -0.1431 -0.0811
 4510SOL    HW125166   1.400   2.515   4.512 -1.5620  1.3880 -1.3826
 4510SOL    HW225167   1.394   2.541   4.375  0.7620 -0.6550 -1.3928
 4511SOL     OW25168   2.878   1.056   6.491  0.4374 -0.4314  0.0465
 4511SOL    HW125169   2.850   0.982   6.543  1.4268 -0.6847  0.2060
 4511SOL    HW225170   2.944   1.012   6.437  0.5009 -1.8058  1.2556
 4512SOL     OW25171   3.044   2.690  14.262  0.0280  0.2924 -0.2852
 4512SOL    HW125172   2.957   2.724  14.282  0.0266  0.0388  0.1503
 4512SOL    HW225173   3.023   2.662  14.173 -0.6697  1.8730 -0.6056
 4513SOL     OW25174   4.438   0.552   4.187 -0.2328 -0.3225 -0.8136
 4513SOL    HW125175   4.464   0.533   4.277 -1.0599 -2.1619 -0.9646
 4513SOL    HW225176   4.512   0.608   4.163  0.7783 -2.0374 -1.7814
 4514SOL     OW25177   1.895   2.007   6.677 -0.1307  0.3420  0.0187
 4514SOL    HW125178   1.938   2.082   6.635  1.0633 -0.0231  0.5959
 4514SOL    HW225179   1.884   2.041   6.766  0.3533  0.2308  0.1234
 4515SOL     OW25180   4.707   4.592   5.999 -0.1908  0.3490 -0.4527
 4515SOL    HW125181   4.694   4.528   6.069 -1.4600  1.1977  0.0769
 4515SOL    HW225182   0.057   4.620   6.015 -0.3200  1.1282 -1.0937
 4516SOL     OW25183   0.257   3.664   4.140 -0.4879 -0.4702 -0.1545
 4516SOL    HW125184   0.327   3.702   4.087 -0.0237 -0.9745  0.0931
 4516SOL    HW225185   0.214   3.747   4.160 -1.2913 -1.1028  0.7381
 4517SOL     OW25186   2.733   0.755   1.326  0.2153  0.1441 -0.1158
 4517SOL    HW125187   2.723   0.691   1.396 -0.9116  0.0724 -0.3363
 4517SOL    HW225188   2.699   0.700   1.256  0.3671  2.3221 -1.9101
 4518SOL     OW25189   4.058   0.484  10.754 -0.0850  0.1820 -0.3545
 4518SOL    HW125190   4.096   0.540  10.822 -2.5736  2.7389 -1.1072
 4518SOL    HW225191   3.978   0.446  10.790  1.2071 -0.9573  1.3164
 4519SOL     OW25192   0.192   2.049   5.801 -0.3500 -0.0617 -0.1950
 4519SOL    HW125193   0.098   2.036   5.813 -0.4558 -0.3023 -1.2846
 4519SOL    HW225194   0.180   2.125   5.744  0.2957 -0.6607 -1.1416
 4520SOL     OW25195   3.233   2.720  13.031 -0.2533 -0.0579 -0.3620
 4520SOL    HW125196   3.293   2.665  12.980  0.7674  1.6544 -0.9850
 4520SOL    HW225197   3.201   2.783  12.966  1.3942  2.9597  1.7772
 4521SOL     OW25198   0.405   3.293   8.707 -0.2635 -0.2437 -0.3486
 4521SOL    HW125199   0.458   3.347   8.649 -0.7844  1.7192  0.9874
 4521SOL    HW225200   0.391   3.356   8.778  0.2056 -0.8077  0.2476
 4522SOL     OW25201   1.747   2.890   8.564  0.3865 -0.3286  0.0271
 4522SOL    HW125202   1.815   2.832   8.529  0.5061  0.0469 -0.3592
 4522SOL    HW225203   1.679   2.884   8.498  2.1629  3.3629 -2.0818
 4523SOL     OW25204   1.234   1.828   5.491 -0.3551  0.4239 -0.2616
 4523SOL    HW125205   1.298   1.819   5.561 -0.0142  0.1356 -0.6095
 4523SOL    HW225206   1.276   1.893   5.435  1.3922  0.2129  0.8139
 4524SOL     OW25207   1.409   1.521   4.871 -0.5142  0.0638 -0.7953
 4524SOL    HW125208   1.384   1.613   4.865  2.8318  0.9901 -0.1326
 4524SOL    HW225209   1.452   1.506   4.787  2.6141 -1.8475  1.1898
 4525SOL     OW25210   2.005   2.532   3.365 -0.0359 -0.0655  0.4602
 4525SOL    HW125211   1.911   2.540   3.383 -0.4462  2.2249 -2.6470
 4525SOL    HW225212   2.008   2.615   3.318  0.6460 -0.8244 -0.8634
 4526SOL     OW25213   4.172   2.291   7.780  0.4584 -0.1416  0.0021
 4526SOL    HW125214   4.242   2.245   7.827  0.2825  0.8422  1.2359
 4526SOL    HW225215   4.150   2.224   7.715  0.9272  1.2666 -1.5802
 4527SOL     OW25216   1.296   3.749  13.616 -0.7481  0.0378  0.0585
 4527SOL    HW125217   1.310   3.656  13.597 -1.4609  0.1552 -1.0173
 4527SOL    HW225218   1.267   3.729  13.705 -0.0463 -0.6734  0.1204
 4528SOL     OW25219   0.459   2.109   3.944  0.4920  0.1170  0.1582
 4528SOL    HW125220   0.500   2.026   3.971 -2.2812 -0.9753  0.9719
 4528SOL    HW225221   0.430   2.142   4.029  0.5511 -1.7036  0.8829
 4529SOL     OW25222   3.001   4.395  13.495  0.5783 -0.1167 -0.2601
 4529SOL    HW125223   2.969   4.422  13.409 -1.7124 -0.5776  0.4374
 4529SOL    HW225224   2.930   4.419  13.555  1.8621 -0.9953  1.6121
 4530SOL     OW25225   4.596   1.103   4.385  0.0601 -0.4351 -0.0037
 4530SOL    HW125226   4.641   1.057   4.455  0.7862  2.5800  1.5239
 4530SOL    HW225227   4.660   1.167   4.353 -0.1683 -0.7311 -1.0472
 4531SOL     OW25228   0.110   2.192   1.699  0.1959 -0.5390 -0.2718
 4531SOL    HW125229   0.141   2.280   1.719 -1.2081 -0.0552 -0.2510
 4531SOL    HW225230   0.167   2.128   1.742  1.2237  0.3426 -0.3290
 4532SOL     OW25231   2.314   2.166  14.698  0.6486 -0.6642 -0.4594
 4532SOL    HW125232   2.242   2.204  14.647 -0.6483 -1.2792  0.9233
 4532SOL    HW225233   2.383   2.227  14.671 -2.2091  2.5771 -0.3823
 4533SOL     OW25234   4.510   4.722   7.951  0.4698  0.5660  0.3908
 4533SOL    HW125235   4.419   4.707   7.924  0.7069  2.4912 -1.4728
 4533SOL    HW225236   4.511   4.641   8.003 -1.7381  0.8219  0.8579
 4534SOL     OW25237   0.855   4.221   6.863  0.3682 -0.2290  0.0708
 4534SOL    HW125238   0.926   4.276   6.896  0.1450  0.5047 -0.6671
 4534SOL    HW225239   0.848   4.266   6.778 -0.7091  0.1973  0.3809
 4535SOL     OW25240   2.692   4.328   6.099 -0.2804  0.0523 -0.2078
 4535SOL    HW125241   2.746   4.267   6.149 -0.3649 -0.9551 -1.3533
 4535SOL    HW225242   2.632   4.260   6.070 -1.0447  0.9439 -0.7330
 4536SOL     OW25243   0.153   2.155  10.308  0.1298 -0.2331  0.2452
 4536SOL    HW125244   0.144   2.066  10.275  2.3723 -0.6740  0.8540
 4536SOL    HW225245   0.169   2.207  10.229  0.7527 -0.4558  0.2253
 4537SOL     OW25246   2.501   2.004   4.144 -0.0035 -0.0754  0.0104
 4537SOL    HW125247   2.447   1.938   4.188 -1.5520  1.5168  0.4905
 4537SOL    HW225248   2.437   2.073   4.128 -0.6474 -0.6775  0.0085
 4538SOL     OW25249   1.962   0.592   2.139  0.5048 -0.2709  0.0592
 4538SOL    HW125250   2.002   0.570   2.224 -0.5471 -0.0888  0.6010
 4538SOL    HW225251   1.990   0.683   2.148  0.5476 -0.3292  0.5629
 4539SOL     OW25252   0.484   1.175   5.051  0.1697 -0.1628 -0.6161
 4539SOL    HW125253   0.442   1.249   5.096 -1.6436 -1.3736 -0.3415
 4539SOL    HW225254   0.545   1.222   4.995 -1.3893  2.1814 -0.3492
 4540SOL     OW25255   4.050   1.043   1.366  0.5210  0.0891 -0.0298
 4540SOL    HW125256   4.029   1.009   1.454 -0.5166 -0.7403 -0.5934
 4540SOL    HW225257   4.073   0.966   1.315  1.3605 -0.0887  0.6243
 4541SOL     OW25258   3.912   1.838  16.690  0.7181  0.3354  0.2323
 4541SOL    HW125259   3.836   1.788  16.721 -1.3410  3.0781 -0.3890
 4541SOL    HW225260   3.890   1.842  16.597 -2.3611  3.8291  1.1429
 4542SOL     OW25261   0.917   3.801   5.747  0.5279 -0.9801 -0.0347
 4542SOL    HW125262   0.888   3.711   5.764  0.4758 -1.0207 -0.3339
 4542SOL    HW225263   0.829   3.838   5.744  0.9813  0.2607  1.6026
 4543SOL     OW25264   1.501   2.277   4.683 -0.1839  0.4688 -0.4144
 4543SOL    HW125265   1.436   2.306   4.619 -0.2921 -1.5923 -1.2350
 4543SOL    HW225266   1.574   2.252   4.625  0.9397  0.0985  1.1569
 4544SOL     OW25267   3.727   2.897   6.295 -0.0573  0.1814 -0.0679
 4544SOL    HW125268   3.789   2.922   6.364  1.0070 -0.1078 -0.9108
 4544SOL    HW225269   3.721   2.976   6.242 -0.6687  0.8893  1.0479
 4545SOL     OW25270   1.033   2.212   5.723 -0.3400  0.1367 -0.0773
 4545SOL    HW125271   1.078   2.248   5.800 -1.4345 -0.3275  0.7808
 4545SOL    HW225272   1.095   2.227   5.652 -0.9013 -2.1804 -1.0517
 4546SOL     OW25273   2.937   0.941  10.817  0.3790  0.6424 -0.4119
 4546SOL    HW125274   3.005   0.900  10.869 -1.3030 -1.4206  0.1797
 4546SOL    HW225275   2.869   0.877  10.843  0.7038 -0.5415 -2.4717
 4547SOL     OW25276   2.480   2.419   2.252 -0.4610 -0.3868 -0.7787
 4547SOL    HW125277   2.566   2.389   2.282  0.7065 -0.2319 -3.9597
 4547SOL    HW225278   2.435   2.335   2.261 -0.0689 -0.5532 -0.3784
 4548SOL     OW25279   4.398   3.575   5.529 -0.1635 -0.3182 -0.5566
 4548SOL    HW125280   4.376   3.529   5.447 -1.3463 -1.6546  0.4935
 4548SOL    HW225281   4.327   3.637   5.547 -1.8823 -1.7679 -2.3801
 4549SOL     OW25282   4.263   2.904   5.475 -0.2711 -0.1426 -0.1942
 4549SOL    HW125283   4.346   2.946   5.495 -1.4970  3.1481 -2.0803
 4549SOL    HW225284   4.289   2.815   5.450 -0.0584 -0.0727 -0.2183
 4550SOL     OW25285   4.449   3.223   5.299 -0.1286 -0.7262 -0.0940
 4550SOL    HW125286   4.500   3.155   5.344 -0.1069  1.3205  2.9628
 4550SOL    HW225287   4.397   3.168   5.241  0.6471 -1.9393  0.3539
 4551SOL     OW25288   3.635   3.472   4.003  0.1415 -0.3369  0.1477
 4551SOL    HW125289   3.637   3.520   3.920 -0.6990  0.6709  0.7176
 4551SOL    HW225290   3.542   3.461   4.022  0.0918 -3.0706 -1.7436
 4552SOL     OW25291   3.349   4.192  13.450  0.1770  0.1844  0.0489
 4552SOL    HW125292   3.327   4.277  13.488  0.2932  0.3669 -0.2894
 4552SOL    HW225293   3.271   4.169  13.400  0.4362 -1.6169  0.4625
 4553SOL     OW25294   3.661   3.962   6.400 -0.0878 -0.0912  0.1890
 4553SOL    HW125295   3.652   4.041   6.347  0.7255 -1.2277 -1.6550
 4553SOL    HW225296   3.726   3.924   6.342 -1.9958 -0.4840 -1.7093
 4554SOL     OW25297   4.214   2.073   2.932  0.1318 -0.1467 -0.0201
 4554SOL    HW125298   4.228   2.129   3.008 -1.5160 -0.8034  0.7684
 4554SOL    HW225299   4.142   2.113   2.883 -0.9282 -0.5588  1.2173
 4555SOL     OW25300   3.210   2.047   4.198  0.3365 -0.1312  0.4011
 4555SOL    HW125301   3.124   2.046   4.154  0.9360 -0.2682 -0.7614
 4555SOL    HW225302   3.265   2.046   4.120 -0.2606 -0.2685 -0.0188
 4556SOL     OW25303   1.296   1.518   8.112  0.2258 -0.0864 -0.1999
 4556SOL    HW125304   1.339   1.491   8.031  0.5569 -1.3947  0.4159
 4556SOL    HW225305   1.208   1.489   8.088 -0.1439 -0.2294  1.2911
 4557SOL     OW25306   1.629   0.013   7.382 -0.2695  0.0098  0.4510
 4557SOL    HW125307   1.623   4.710   7.468  0.8361  0.7011  0.8715
 4557SOL    HW225308   1.721   0.038   7.383  0.0404 -1.1108 -0.3442
 4558SOL     OW25309   2.584   2.935   8.401  0.0147 -0.3084 -0.3806
 4558SOL    HW125310   2.578   2.844   8.431  2.9688  0.1654  1.6498
 4558SOL    HW225311   2.569   2.929   8.306 -1.2722  1.5735 -0.2924
 4559SOL     OW25312   4.465   3.439  14.916  0.0386 -0.7432  0.0488
 4559SOL    HW125313   4.544   3.392  14.889 -0.5968 -1.3104 -0.8441
 4559SOL    HW225314   4.500   3.509  14.971 -2.8354  1.5671 -1.0787
 4560SOL     OW25315   3.364   4.057   1.394  0.9986  0.5602  0.3010
 4560SOL    HW125316   3.306   4.025   1.463  1.9314 -2.9648 -0.5268
 4560SOL    HW225317   3.309   4.127   1.359  1.3352  0.8437  0.3321
 4561SOL     OW25318   1.329   4.293   3.894  0.3119  0.3587  0.2110
 4561SOL    HW125319   1.324   4.376   3.846  2.5205  1.0169  1.0958
 4561SOL    HW225320   1.260   4.237   3.860  0.7489  0.4561 -0.8296
 4562SOL     OW25321   0.260   1.986   8.404 -0.5441  0.4439 -0.3302
 4562SOL    HW125322   0.314   2.013   8.329  0.6192  0.7627  0.6136
 4562SOL    HW225323   0.185   1.943   8.363 -0.8645  0.9894 -0.3216
 4563SOL     OW25324   0.342   3.201   4.313  0.6157  0.4533  0.4507
 4563SOL    HW125325   0.264   3.256   4.306 -2.1455 -3.4250  0.4114
 4563SOL    HW225326   0.363   3.188   4.220  1.0944  0.3891  0.5665
 4564SOL     OW25327   1.185   3.501  16.639  0.4063 -0.0043  0.7228
 4564SOL    HW125328   1.181   3.424  16.696 -1.8526  0.3188  1.0093
 4564SOL    HW225329   1.120   3.477  16.574  0.0465  2.2177  0.2828
 4565SOL     OW25330   3.719   1.152  14.322  0.2094 -0.0819  0.1858
 4565SOL    HW125331   3.715   1.057  14.310  0.6605 -0.3536  2.3263
 4565SOL    HW225332   3.756   1.161  14.410 -0.6887 -2.5959  0.8271
 4566SOL     OW25333   4.108   2.061   2.592 -0.1510 -0.1401  1.0014
 4566SOL    HW125334   4.031   2.005   2.599  0.8823 -1.6294  0.2683
 4566SOL    HW225335   4.063   2.146   2.593  1.1769  0.5172  3.5465
 4567SOL     OW25336   3.644   3.366   6.658  0.7828 -0.3915 -0.3615
 4567SOL    HW125337   3.558   3.361   6.699 -0.7583  0.3727 -3.5526
 4567SOL    HW225338   3.633   3.357   6.564 -1.3111  1.3642 -0.2622
 4568SOL     OW25339   2.316   1.084   4.032  0.1779  0.2643 -0.5881
 4568SOL    HW125340   2.403   1.114   4.054 -1.1407  2.0629  2.0864
 4568SOL    HW225341   2.255   1.156   4.046 -0.0749 -0.0102 -0.2741
 4569SOL     OW25342   1.681   3.054   8.876  0.1660  0.2597 -0.0254
 4569SOL    HW125343   1.724   3.077   8.793 -1.0280  1.3613 -0.3440
 4569SOL    HW225344   1.597   3.020   8.847 -0.0402  0.5405  0.2395
 4570SOL     OW25345   3.141   2.137   2.607 -0.1078  0.0419 -0.0769
 4570SOL    HW125346   3.144   2.077   2.533  0.0237  0.5348 -0.4672
 4570SOL    HW225347   3.065   2.103   2.654  0.2586 -0.4206  0.1942
 4571SOL     OW25348   2.392   2.076   5.682 -0.1067 -0.0410  0.0156
 4571SOL    HW125349   2.430   2.026   5.610  1.6281  0.6226  0.4678
 4571SOL    HW225350   2.317   2.018   5.696  0.3333 -1.2492 -2.6801
 4572SOL     OW25351   0.464   4.480   9.190  0.1855 -0.4435  0.3350
 4572SOL    HW125352   0.552   4.501   9.156  0.4688 -0.1828  1.2474
 4572SOL    HW225353   0.476   4.408   9.252  0.1478 -2.1331 -1.6183
 4573SOL     OW25354   1.982   3.248  14.377 -0.1672 -0.3743  0.3332
 4573SOL    HW125355   1.936   3.292  14.305  0.1387 -1.1621 -0.3434
 4573SOL    HW225356   2.058   3.306  14.376  0.2667 -0.9500 -1.1850
 4574SOL     OW25357   3.941   2.379  15.278  0.0592  0.1403  0.0705
 4574SOL    HW125358   3.973   2.456  15.230 -0.2990 -0.8362 -1.7105
 4574SOL    HW225359   3.952   2.411  15.368 -1.3427 -2.7506  1.2811
 4575SOL     OW25360   0.253   2.950   4.368 -0.1601  0.4841  0.0496
 4575SOL    HW125361   0.320   3.017   4.355  1.0160 -0.2318  2.4327
 4575SOL    HW225362   0.170   2.996   4.377 -0.0869  0.2323  1.9984
 4576SOL     OW25363   4.026   0.803   4.532  0.1135 -0.1296  0.7103
 4576SOL    HW125364   4.116   0.784   4.557  0.2082  0.1033  0.5491
 4576SOL    HW225365   4.028   0.898   4.541  0.8760  0.0219 -1.1034
 4577SOL     OW25366   0.453   2.585   6.523 -0.2519  0.1848  0.0299
 4577SOL    HW125367   0.435   2.542   6.440 -1.4753 -1.4544  1.1348
 4577SOL    HW225368   0.415   2.673   6.515 -1.3048 -0.3792 -1.1704
 4578SOL     OW25369   2.843   4.101   3.435 -0.1854  0.4540 -0.2663
 4578SOL    HW125370   2.889   4.161   3.494  1.4583 -1.1415  0.0818
 4578SOL    HW225371   2.897   4.085   3.358  1.8243 -0.5355  1.3485
 4579SOL     OW25372   0.659   3.472   7.435  0.0784 -0.3461 -0.1436
 4579SOL    HW125373   0.697   3.453   7.521  1.1988 -1.2308 -0.8256
 4579SOL    HW225374   0.579   3.506   7.475  0.0605 -1.0053  0.3745
 4580SOL     OW25375   1.745   4.473   6.943  0.3974  0.2645  0.4049
 4580SOL    HW125376   1.702   4.452   7.026 -0.1825  3.4964  0.9218
 4580SOL    HW225377   1.818   4.519   6.985  0.6619  0.7966 -0.6249
 4581SOL     OW25378   3.203   3.144  11.481  1.0063 -0.0511  0.2885
 4581SOL    HW125379   3.227   3.200  11.555 -3.1352 -0.0014  1.6124
 4581SOL    HW225380   3.291   3.118  11.455  1.3478 -1.0062  2.3448
 4582SOL     OW25381   4.614   4.526   1.164  0.8016 -0.0035  0.0103
 4582SOL    HW125382   4.673   4.452   1.154 -0.8608 -1.6969  2.5328
 4582SOL    HW225383   4.632   4.537   1.257 -1.8505 -2.4950  0.8118
 4583SOL     OW25384   4.000   1.509   3.853  0.3591 -0.2160 -0.2181
 4583SOL    HW125385   4.035   1.598   3.847  1.9546 -1.0163 -2.8627
 4583SOL    HW225386   4.070   1.477   3.796 -0.2137  0.7898 -1.4628
 4584SOL     OW25387   3.501   4.681  15.444  0.4681 -0.2087  0.1794
 4584SOL    HW125388   3.563   4.646  15.508 -0.3194  0.0705  1.0906
 4584SOL    HW225389   3.503   0.036  15.456  0.7926 -0.2913  0.7693
 4585SOL     OW25390   3.009   0.361   2.340  0.7096  0.1216  0.2585
 4585SOL    HW125391   2.982   0.448   2.312 -1.5883 -0.9962 -0.9631
 4585SOL    HW225392   2.934   0.303   2.330  2.4173 -2.2024  0.9165
 4586SOL     OW25393   2.043   3.194   1.884 -0.5962  0.3352  0.4054
 4586SOL    HW125394   2.047   3.285   1.915 -2.7942  0.3549  0.6234
 4586SOL    HW225395   2.104   3.194   1.810 -0.3298  0.0779  0.6232
 4587SOL     OW25396   1.357   1.716   0.942  0.0734 -0.0251 -0.4418
 4587SOL    HW125397   1.325   1.635   0.902  2.8503 -0.8682 -1.0166
 4587SOL    HW225398   1.430   1.676   0.990 -0.8573 -0.3089  0.7539
 4588SOL     OW25399   2.877   1.629   3.501  0.0223 -0.0776 -1.0308
 4588SOL    HW125400   2.856   1.685   3.427 -1.3094  1.7698  0.7649
 4588SOL    HW225401   2.823   1.555   3.473 -0.2310 -0.2542 -0.0558
 4589SOL     OW25402   1.859   2.666   7.837 -0.1946 -0.4265 -0.0842
 4589SOL    HW125403   1.836   2.659   7.930  0.5166 -1.5786  0.0122
 4589SOL    HW225404   1.954   2.650   7.835 -0.3041 -1.5128  3.1987
 4590SOL     OW25405   2.430   1.339   8.212 -0.0455  0.0902 -0.3169
 4590SOL    HW125406   2.345   1.311   8.179 -0.6990  2.1627 -0.4015
 4590SOL    HW225407   2.477   1.373   8.135  0.5325 -1.3002 -0.5741
 4591SOL     OW25408   4.307   3.674   3.927  0.3790  0.7209  0.6232
 4591SOL    HW125409   4.250   3.600   3.909  0.4029  0.8937 -0.1570
 4591SOL    HW225410   4.338   3.684   3.837 -0.3881  0.0500  0.2937
 4592SOL     OW25411   3.150   1.005   4.899 -0.1138  0.2158 -0.3426
 4592SOL    HW125412   3.235   1.037   4.930 -0.1581  0.2953 -0.3043
 4592SOL    HW225413   3.156   0.910   4.905  1.9135  0.2888 -1.1987
 4593SOL     OW25414   0.140   3.096  17.737 -0.1341  0.1384  0.9720
 4593SOL    HW125415   0.155   3.079   0.072  0.5752  3.1994  1.4142
 4593SOL    HW225416   0.139   3.007  17.702  0.7933 -0.0044  1.3075
 4594SOL     OW25417   3.751   0.964   5.440 -0.5353  0.1541  0.5957
 4594SOL    HW125418   3.725   0.907   5.367  0.1802  0.6491 -0.0422
 4594SOL    HW225419   3.675   0.941   5.495 -1.8478 -2.3583 -2.2876
 4595SOL     OW25420   2.916   3.952   4.835  0.2356  0.2601  0.1910
 4595SOL    HW125421   2.998   3.968   4.789  0.3667 -1.6700 -0.2474
 4595SOL    HW225422   2.870   4.036   4.830  1.6797  1.1504  2.0987
 4596SOL     OW25423   4.331   1.800   9.941 -0.4235  0.7452  0.3238
 4596SOL    HW125424   4.286   1.754  10.012 -1.1792  2.4930  0.9929
 4596SOL    HW225425   4.375   1.734   9.889  0.6551 -0.3379  2.5893
 4597SOL     OW25426   1.791   0.127   5.254  0.0034 -0.0711  0.7157
 4597SOL    HW125427   1.828   0.200   5.305 -3.6819  1.1907  1.5641
 4597SOL    HW225428   1.709   0.112   5.300  0.2274  0.5427  1.3246
 4598SOL     OW25429   4.401   2.455   8.761 -0.5907  0.4225 -0.0758
 4598SOL    HW125430   4.339   2.395   8.802 -0.1311  1.2399  1.8516
 4598SOL    HW225431   4.349   2.535   8.759 -0.1561  0.6694 -1.2349
 4599SOL     OW25432   2.436   1.766   9.631  0.6957 -0.1720  0.2221
 4599SOL    HW125433   2.352   1.797   9.596  0.6884 -0.7676 -0.2790
 4599SOL    HW225434   2.417   1.784   9.724 -0.0460  1.3176 -0.2210
 4600SOL     OW25435   3.933   0.208   3.536 -0.8791 -0.1318  0.6183
 4600SOL    HW125436   3.881   0.274   3.581  0.4771  1.0607  0.3997
 4600SOL    HW225437   3.856   0.186   3.483 -0.4248 -0.3486  0.0473
 4601SOL     OW25438   0.985   2.931   7.872 -0.1732 -0.4959  0.1191
 4601SOL    HW125439   1.037   2.960   7.948  0.9521 -0.1379 -0.7889
 4601SOL    HW225440   0.999   2.837   7.876 -0.2362 -0.5435 -0.8523
 4602SOL     OW25441   3.332   3.182  10.505 -0.3674 -0.5718  0.4152
 4602SOL    HW125442   3.403   3.156  10.446 -0.1954 -0.1666  0.4432
 4602SOL    HW225443   3.324   3.277  10.493 -0.7189 -0.5671  0.6870
 4603SOL     OW25444   3.996   2.940   9.103  0.0112  0.1464  0.2357
 4603SOL    HW125445   4.091   2.938   9.090 -0.1806 -0.0145 -1.1297
 4603SOL    HW225446   3.975   2.858   9.147 -1.9438  0.4728 -0.1049
 4604SOL     OW25447   4.210   1.455   2.821 -0.0741 -0.4636 -0.0042
 4604SOL    HW125448   4.301   1.441   2.846  0.6642  0.5372 -2.1133
 4604SOL    HW225449   4.175   1.521   2.881  2.5448 -1.1005  2.2138
 4605SOL     OW25450   0.284   0.715  17.355  0.2053 -0.3973  0.6523
 4605SOL    HW125451   0.285   0.659  17.277 -0.7559  0.7204 -0.1748
 4605SOL    HW225452   0.302   0.652  17.424  1.5417  2.3181  2.7482
 4606SOL     OW25453   2.049   2.998   4.332  0.0808  0.4328  0.6491
 4606SOL    HW125454   1.992   3.001   4.409 -0.5991 -1.7432  0.2304
 4606SOL    HW225455   2.086   2.909   4.339 -2.2355 -0.5046  0.9856
 4607SOL     OW25456   1.813   1.726   3.750  0.4013  0.1734 -0.3988
 4607SOL    HW125457   1.750   1.696   3.684  0.7578  0.1348 -0.7203
 4607SOL    HW225458   1.834   1.642   3.789 -1.6841 -0.8998 -1.5688
 4608SOL     OW25459   4.192   4.466   2.964  0.3753  0.0298  0.1551
 4608SOL    HW125460   4.207   4.392   2.905  0.6060 -0.0515  0.3138
 4608SOL    HW225461   4.255   4.535   2.939 -1.4574  0.2160 -3.9877
 4609SOL     OW25462   1.640   3.869   2.772  0.2600 -0.2787  0.3748
 4609SOL    HW125463   1.596   3.907   2.696 -0.0612 -2.8547 -0.7502
 4609SOL    HW225464   1.712   3.929   2.790 -0.5569  0.8852 -0.2224
 4610SOL     OW25465   0.904   3.630   3.158 -0.3340  0.3008  0.1496
 4610SOL    HW125466   0.890   3.542   3.193  2.0702 -0.7193 -1.4704
 4610SOL    HW225467   0.830   3.637   3.097 -1.3630 -1.4962  1.2121
 4611SOL     OW25468   0.133   2.950   3.046  0.5068  0.0868 -0.3980
 4611SOL    HW125469   0.111   2.896   2.970  1.9550  0.4965 -1.0996
 4611SOL    HW225470   0.228   2.952   3.036  0.3380  3.5662 -1.1519
 4612SOL     OW25471   4.371   2.633  16.227  0.4712  0.3646 -0.2100
 4612SOL    HW125472   4.422   2.681  16.162  0.5549  0.2043 -0.2604
 4612SOL    HW225473   4.335   2.704  16.282 -0.7406  0.1837 -0.7567
 4613SOL     OW25474   1.895   0.503   0.737 -0.0447 -0.1807 -0.2912
 4613SOL    HW125475   1.827   0.556   0.697  0.8109 -0.2681 -1.8872
 4613SOL    HW225476   1.948   0.483   0.659  0.1612 -0.7913 -0.0004
 4614SOL     OW25477   2.549   0.703   5.872  0.2780 -0.4910  0.1595
 4614SOL    HW125478   2.457   0.721   5.888 -0.1653 -0.8668 -2.0395
 4614SOL    HW225479   2.569   0.643   5.944  2.6828 -0.2178 -0.2661
 4615SOL     OW25480   2.841   2.385  14.242 -0.5812 -0.0781 -0.4690
 4615SOL    HW125481   2.856   2.293  14.220 -1.7930 -0.1646 -0.9210
 4615SOL    HW225482   2.918   2.400  14.297  0.6987 -2.6338 -1.5373
 4616SOL     OW25483   3.314   1.801   5.086  0.3629  0.2022  0.3837
 4616SOL    HW125484   3.325   1.893   5.064 -0.3994 -0.2062 -1.6736
 4616SOL    HW225485   3.404   1.779   5.109  1.1554  1.5341 -1.4192
 4617SOL     OW25486   3.335   0.794  17.081 -0.3739 -0.0373  0.7385
 4617SOL    HW125487   3.330   0.871  17.024 -1.0012 -1.5882 -1.3143
 4617SOL    HW225488   3.368   0.725  17.023 -0.7719 -0.5215  1.1041
 4618SOL     OW25489   3.461   3.783   9.184  0.1033 -0.1248 -1.2549
 4618SOL    HW125490   3.514   3.859   9.212 -0.6962 -0.7038  1.8609
 4618SOL    HW225491   3.484   3.782   9.091 -1.1125  1.4577 -1.5753
 4619SOL     OW25492   3.504   2.060   6.016 -0.0785  0.2979 -0.3031
 4619SOL    HW125493   3.470   2.146   6.043  1.2059  0.5565  0.5100
 4619SOL    HW225494   3.542   2.026   6.097 -0.8812 -3.0762 -1.3663
 4620SOL     OW25495   3.680   2.428   6.892  0.6797  0.3221 -0.0850
 4620SOL    HW125496   3.610   2.434   6.957  0.7696  1.1126 -0.0645
 4620SOL    HW225497   3.697   2.335   6.911  0.3228  0.1650 -0.5285
 4621SOL     OW25498   2.858   4.675   2.301  0.3316  0.5237  0.2981
 4621SOL    HW125499   2.931   4.704   2.246  1.8586 -1.0197  1.5188
 4621SOL    HW225500   2.831   4.599   2.251 -1.9588  0.6587  1.3444
 4622SOL     OW25501   3.753   3.204  10.556 -0.4457 -0.6725  0.2337
 4622SOL    HW125502   3.817   3.174  10.491 -2.0781 -0.5629 -1.4317
 4622SOL    HW225503   3.792   3.179  10.640 -0.1879 -4.3919 -1.0006
 4623SOL     OW25504   3.461   0.718   2.100 -0.2537  0.3530  0.2051
 4623SOL    HW125505   3.449   0.801   2.055 -2.3098  0.3255  0.7237
 4623SOL    HW225506   3.422   0.739   2.185 -0.7117 -0.4628  0.2021
 4624SOL     OW25507   3.236   3.054   7.001 -0.0758  0.2682 -0.1319
 4624SOL    HW125508   3.255   2.972   7.047  1.3172  0.8796  0.3918
 4624SOL    HW225509   3.246   3.028   6.909 -1.4375 -1.7886  0.3035
 4625SOL     OW25510   1.033   0.521   4.483  0.0890 -0.3570 -0.1880
 4625SOL    HW125511   0.969   0.486   4.420 -1.5877  2.5244 -0.0769
 4625SOL    HW225512   1.044   0.449   4.545 -1.1549  0.3539  0.8409
 4626SOL     OW25513   1.111   1.240   1.978 -0.0732  0.3044 -0.2859
 4626SOL    HW125514   1.128   1.245   2.072 -0.6053 -3.1185  0.0046
 4626SOL    HW225515   1.066   1.156   1.977  0.0949  0.2062  4.0045
 4627SOL     OW25516   2.510   0.209   1.609 -0.5562 -0.4009  0.4095
 4627SOL    HW125517   2.433   0.260   1.586  0.1868  0.2738 -0.5695
 4627SOL    HW225518   2.565   0.272   1.656 -2.3773  1.0441  0.6051
 4628SOL     OW25519   0.385   4.197  12.350  0.2243  0.4946  0.4387
 4628SOL    HW125520   0.310   4.142  12.328  0.5938  0.0008  0.4176
 4628SOL    HW225521   0.448   4.126  12.341  1.0491  1.3382 -0.4810
 4629SOL     OW25522   0.455   2.205   7.459 -0.7050 -0.2251 -0.5631
 4629SOL    HW125523   0.519   2.269   7.426 -0.9993  0.5578  0.3981
 4629SOL    HW225524   0.404   2.203   7.378 -0.2777  1.6038 -0.8768
 4630SOL     OW25525   4.047   1.950  12.685  0.1963 -0.4787 -0.1683
 4630SOL    HW125526   4.098   1.871  12.666  2.2157  1.1749 -1.6705
 4630SOL    HW225527   4.117   2.013  12.697 -2.0661  2.0044 -0.0641
 4631SOL     OW25528   1.932   2.808   2.852 -0.3485  0.2517 -0.2300
 4631SOL    HW125529   2.027   2.804   2.842 -0.4914 -0.1896 -1.3697
 4631SOL    HW225530   1.897   2.765   2.774 -2.0025  0.7637  0.2128
 4632SOL     OW25531   3.962   1.841   6.408  0.5221  0.3409 -0.1184
 4632SOL    HW125532   3.968   1.929   6.370 -1.6875  0.3099 -0.5315
 4632SOL    HW225533   4.021   1.861   6.481 -1.0237  0.7650  1.0137
 4633SOL     OW25534   2.889   1.821  14.834 -0.0023  0.3264 -0.2047
 4633SOL    HW125535   2.856   1.849  14.919 -1.6438 -3.7188  0.4827
 4633SOL    HW225536   2.961   1.884  14.829 -0.6019  1.0431  0.3463
 4634SOL     OW25537   1.859   0.466   4.283 -0.5028  0.4487 -0.0777
 4634SOL    HW125538   1.772   0.488   4.250 -0.0757  2.6093  0.2125
 4634SOL    HW225539   1.837   0.442   4.373 -2.4430 -1.3580 -1.0291
 4635SOL     OW25540   1.665   4.256  15.944  0.4977 -0.4210 -0.4520
 4635SOL    HW125541   1.582   4.303  15.935 -0.4435 -1.8996  0.6736
 4635SOL    HW225542   1.620   4.177  15.916 -1.7435 -0.2550  2.7180
 4636SOL     OW25543   0.350   4.464  12.269  0.0322 -0.0852 -0.1937
 4636SOL    HW125544   0.343   4.475  12.364 -1.7115  0.5147 -0.3950
 4636SOL    HW225545   0.375   4.372  12.280 -0.3888 -0.4182 -1.9599
 4637SOL     OW25546   4.236   3.067   7.346  0.1790  0.3239  0.1260
 4637SOL    HW125547   4.185   2.986   7.356  3.0818 -1.3942  1.1251
 4637SOL    HW225548   4.305   3.034   7.289 -1.2773 -3.8013  0.7020
 4638SOL     OW25549   0.388   3.935   2.243  0.1789  0.2378 -0.4815
 4638SOL    HW125550   0.419   3.847   2.264 -0.4346 -0.1541 -1.2381
 4638SOL    HW225551   0.320   3.922   2.178 -1.3217 -1.0758  1.3532
 4639SOL     OW25552   0.875   3.740   7.945 -0.1758  0.5256  0.3169
 4639SOL    HW125553   0.946   3.804   7.932 -0.2685  0.7230  0.7915
 4639SOL    HW225554   0.803   3.784   7.990 -0.6820  2.8825 -2.7633
 4640SOL     OW25555   4.492   1.768   6.690  0.3959  0.5176  0.0525
 4640SOL    HW125556   4.539   1.839   6.647 -1.4147  1.5055 -0.2736
 4640SOL    HW225557   4.562   1.738   6.748  0.1980  0.8804  0.4761
 4641SOL     OW25558   4.590   4.463   4.603  0.1221 -0.2515  0.0983
 4641SOL    HW125559   4.553   4.480   4.516 -1.9922  0.0975  1.0540
 4641SOL    HW225560   4.676   4.431   4.577 -1.7130 -2.0151 -3.8478
 4642SOL     OW25561   1.814   0.437   8.473  0.2641 -0.4395 -0.0730
 4642SOL    HW125562   1.896   0.475   8.507 -1.0897  2.1432  0.3441
 4642SOL    HW225563   1.794   0.397   8.558  0.1044  0.5016  0.3345
 4643SOL     OW25564   4.656   2.011   9.874  0.0958  0.3684  0.0480
 4643SOL    HW125565   4.659   2.072   9.948  0.6891 -1.0732  1.2027
 4643SOL    HW225566   4.720   1.952   9.912 -0.4827 -0.6032 -0.5008
 4644SOL     OW25567   0.888   4.527  12.558 -0.1399 -0.5822 -0.3088
 4644SOL    HW125568   0.911   4.516  12.466  0.5425  0.4523 -0.2645
 4644SOL    HW225569   0.796   4.502  12.551 -0.9373  2.0108  0.8257
 4645SOL     OW25570   2.910   2.483   0.065 -0.4093 -0.0883 -0.1309
 4645SOL    HW125571   2.830   2.476   0.117  0.0009  0.1740  0.5304
 4645SOL    HW225572   2.934   2.575   0.075  0.0912 -0.4774  2.1399
 4646SOL     OW25573   0.079   2.353  10.617  0.0844  0.3843 -1.0695
 4646SOL    HW125574   0.111   2.267  10.590  1.6170  0.4364  0.5560
 4646SOL    HW225575   4.726   2.344  10.636  0.1227 -0.4401 -1.3064
 4647SOL     OW25576   4.439   2.328   3.091  0.0105 -0.1221  0.1047
 4647SOL    HW125577   4.515   2.318   3.148 -1.2582  0.5821  1.9349
 4647SOL    HW225578   4.364   2.302   3.146  0.0631 -1.9617 -0.7016
 4648SOL     OW25579   2.988   2.766   3.491  0.1865  0.5790  0.4242
 4648SOL    HW125580   3.034   2.806   3.417  1.5865 -0.4710  0.7365
 4648SOL    HW225581   2.912   2.823   3.502 -1.0201 -1.3708  2.2737
 4649SOL     OW25582   3.151   1.065  16.654 -0.7941 -0.3111 -0.5926
 4649SOL    HW125583   3.174   1.066  16.562  0.6563  1.3963 -0.2150
 4649SOL    HW225584   3.155   1.158  16.677 -0.8632 -0.4080 -0.1819
 4650SOL     OW25585   2.971   2.754   7.223 -0.0973  0.3642 -0.0362
 4650SOL    HW125586   2.978   2.778   7.315  0.9688 -1.3949  0.3458
 4650SOL    HW225587   2.889   2.798   7.199  0.5141  1.7328  0.4320
 4651SOL     OW25588   1.527   0.165   5.993  0.0020  0.0660  0.1072
 4651SOL    HW125589   1.511   0.248   5.948 -0.8100  0.2052  0.6605
 4651SOL    HW225590   1.500   0.170   6.085 -0.0574 -1.1910  0.1491
 4652SOL     OW25591   4.665   1.850   9.019  0.1488 -0.4171  0.0006
 4652SOL    HW125592   4.587   1.897   9.048 -0.4041 -0.2201 -1.7618
 4652SOL    HW225593   4.692   1.807   9.100 -1.4966 -1.3216  0.0653
 4653SOL     OW25594   1.827   3.175   8.429  0.5626  0.2372 -0.2490
 4653SOL    HW125595   1.734   3.160   8.416  0.3083  2.8919 -1.4366
 4653SOL    HW225596   1.845   3.105   8.492  0.3258 -1.1090 -1.6779
 4654SOL     OW25597   2.832   3.006   3.544 -0.0949 -0.0523 -0.0501
 4654SOL    HW125598   2.897   3.069   3.511 -1.8365  0.7217 -2.0368
 4654SOL    HW225599   2.752   3.051   3.515  1.1167  1.0062 -1.7668
 4655SOL     OW25600   1.559   3.545  13.642 -0.1629  0.0541 -0.0615
 4655SOL    HW125601   1.551   3.634  13.679 -1.6727 -0.6393  1.2882
 4655SOL    HW225602   1.653   3.553  13.628 -0.3272  0.2583 -1.0159
 4656SOL     OW25603   2.706   4.454   4.910 -0.1374  0.0855  0.2170
 4656SOL    HW125604   2.658   4.372   4.893 -4.7489  1.9886  4.0189
 4656SOL    HW225605   2.637   4.505   4.953 -0.7130 -0.4185 -0.0974
 4657SOL     OW25606   1.802   2.838   7.621  0.2407  0.9671  0.2977
 4657SOL    HW125607   1.834   2.762   7.670  0.1600  1.3012  0.8742
 4657SOL    HW225608   1.875   2.865   7.566  1.2054 -2.4060 -0.0838
 4658SOL     OW25609   1.280   1.001  12.398  0.0193  0.6330 -0.8216
 4658SOL    HW125610   1.187   1.021  12.404 -0.0160 -0.9872  4.0558
 4658SOL    HW225611   1.278   0.910  12.368  0.2160  0.2364  0.3545
 4659SOL     OW25612   1.794   2.595   8.115 -0.4436 -0.0863 -0.1615
 4659SOL    HW125613   1.824   2.533   8.181  0.8545  0.0426 -0.6358
 4659SOL    HW225614   1.718   2.549   8.080  0.4672 -0.4440 -1.6971
 4660SOL     OW25615   0.346   3.813   8.531 -0.3443 -0.1379 -0.2273
 4660SOL    HW125616   0.327   3.774   8.446 -0.3460 -0.7663  0.0618
 4660SOL    HW225617   0.384   3.738   8.577  1.9983  0.3000 -1.4180
 4661SOL     OW25618   4.401   4.704  10.669  0.7101 -0.2107  0.0077
 4661SOL    HW125619   4.427   4.613  10.680  1.0406 -0.1043  0.1171
 4661SOL    HW225620   4.460   0.014  10.726 -1.2597 -0.0351  1.8977
 4662SOL     OW25621   3.564   4.528   3.251 -0.1061 -0.4896  0.0711
 4662SOL    HW125622   3.633   4.555   3.312  0.7561  1.3067 -1.6878
 4662SOL    HW225623   3.598   4.567   3.170 -1.3043  0.2029 -0.1019
 4663SOL     OW25624   1.920   2.908   4.106  0.0831  0.4512  0.6820
 4663SOL    HW125625   1.839   2.951   4.078  1.5160  3.7460  1.5562
 4663SOL    HW225626   1.933   2.954   4.189  0.5079  0.6128  0.5257
 4664SOL     OW25627   4.188   3.153   6.482 -0.5014  0.7089  0.8066
 4664SOL    HW125628   4.202   3.247   6.476 -2.9328  0.8360 -2.9881
 4664SOL    HW225629   4.255   3.128   6.546  0.7442  1.4179 -0.2462
 4665SOL     OW25630   0.474   4.274   1.794 -0.3268  0.2188 -0.1805
 4665SOL    HW125631   0.384   4.243   1.791 -0.4686  0.8513 -2.3001
 4665SOL    HW225632   0.517   4.193   1.766 -0.3679 -0.5505  2.0090
 4666SOL     OW25633   0.716   0.666  12.876 -0.1379 -0.4264  0.4313
 4666SOL    HW125634   0.739   0.588  12.927 -0.2789  0.1204  1.3421
 4666SOL    HW225635   0.801   0.685  12.836 -0.9512  1.7643 -0.2161
 4667SOL     OW25636   2.377   0.807  16.509 -0.0352 -0.0214  0.4225
 4667SOL    HW125637   2.308   0.865  16.477  0.1342  0.0225  0.1307
 4667SOL    HW225638   2.332   0.756  16.576  2.4466 -0.7991  1.4997
 4668SOL     OW25639   1.924   2.739   6.951  0.6419  0.1686 -0.2736
 4668SOL    HW125640   1.939   2.729   7.045  0.1373  1.5339 -0.0469
 4668SOL    HW225641   1.954   2.656   6.915  0.4680  0.2053 -0.5063
 4669SOL     OW25642   3.505   0.235   1.446  0.5123 -0.0698  0.1093
 4669SOL    HW125643   3.596   0.214   1.467  0.7055  0.7008  0.0239
 4669SOL    HW225644   3.456   0.153   1.456 -0.5166  0.7358  1.8653
 4670SOL     OW25645   2.779   4.437   5.847 -0.1502 -0.9473 -0.1198
 4670SOL    HW125646   2.778   4.391   5.931 -1.6551 -0.6679  0.0088
 4670SOL    HW225647   2.692   4.429   5.809  0.6667 -1.3943 -1.8962
 4671SOL     OW25648   3.593   1.242  12.038 -0.2879 -0.3010 -0.5919
 4671SOL    HW125649   3.599   1.283  12.125  0.7254  0.5812 -1.0814
 4671SOL    HW225650   3.579   1.321  11.987  1.1292  0.6349  0.4494
 4672SOL     OW25651   2.108   2.863   5.577  0.2633 -0.2778  0.3720
 4672SOL    HW125652   2.112   2.768   5.585  2.9322 -0.2540 -0.4378
 4672SOL    HW225653   2.015   2.881   5.589  0.5725  1.8656 -0.4451
 4673SOL     OW25654   4.673   1.858   8.354  0.2125  0.3174  0.2866
 4673SOL    HW125655   4.676   1.877   8.448 -1.9534  0.0089  0.4092
 4673SOL    HW225656   4.586   1.818   8.347  0.6262 -0.7380  1.1963
 4674SOL     OW25657   1.653   3.543   7.490 -0.4684  0.0794  0.4241
 4674SOL    HW125658   1.560   3.546   7.512 -0.6796  0.0641 -0.4731
 4674SOL    HW225659   1.686   3.455   7.509  3.2665  1.3002 -0.3852
 4675SOL     OW25660   2.742   3.320   3.402 -0.3911 -0.2036  0.2877
 4675SOL    HW125661   2.727   3.370   3.482 -1.7695  2.0120 -1.3813
 4675SOL    HW225662   2.701   3.236   3.423  2.1555 -1.1062  1.6547
 4676SOL     OW25663   4.652   3.721   2.881 -0.1808 -0.0657  0.3938
 4676SOL    HW125664   4.574   3.666   2.867  0.0268 -0.3562  0.3931
 4676SOL    HW225665   4.629   3.790   2.819 -0.0930  1.0643  1.6406
 4677SOL     OW25666   1.128   1.325  12.614  0.3985 -0.4083  0.0750
 4677SOL    HW125667   1.075   1.320  12.534 -1.0021 -1.1210  1.0433
 4677SOL    HW225668   1.118   1.235  12.645 -1.1614 -0.1057  0.4855
 4678SOL     OW25669   1.396   3.113   2.185 -0.0200 -0.0390 -0.2094
 4678SOL    HW125670   1.343   3.181   2.143  1.5236  0.9202 -0.6344
 4678SOL    HW225671   1.373   3.128   2.277  0.7183 -0.4156  0.0372
 4679SOL     OW25672   2.756   4.569   7.610  0.1825  0.1897 -0.4242
 4679SOL    HW125673   2.671   4.564   7.653  0.3425  3.0304  0.2142
 4679SOL    HW225674   2.797   4.649   7.644  1.5753 -0.7788  0.1951
 4680SOL     OW25675   1.937   1.603   7.806 -0.1923 -0.2401 -0.0646
 4680SOL    HW125676   1.899   1.691   7.810  1.3333  0.5330 -2.7210
 4680SOL    HW225677   2.026   1.626   7.832 -0.2485 -0.8022  0.6332
 4681SOL     OW25678   1.548   4.477  16.764 -0.1726  0.1788  0.2359
 4681SOL    HW125679   1.598   4.428  16.698 -0.0979 -0.6496  0.9125
 4681SOL    HW225680   1.488   4.406  16.782  0.1721 -0.1348  0.1562
 4682SOL     OW25681   2.164   4.676   7.121  0.4443 -0.3146  0.3521
 4682SOL    HW125682   2.250   4.635   7.132  0.3704 -1.2297 -2.4593
 4682SOL    HW225683   2.164   4.697   7.028 -1.0429 -0.7746  0.2490
 4683SOL     OW25684   2.429   4.577   2.669  0.2498  0.2014 -0.1106
 4683SOL    HW125685   2.397   4.582   2.759 -1.4902  0.1900 -0.7258
 4683SOL    HW225686   2.476   4.660   2.663  1.4097 -0.4914 -0.6427
 4684SOL     OW25687   0.272   2.823   6.482 -0.6544  1.2672  0.0566
 4684SOL    HW125688   0.235   2.875   6.411  2.6287  0.9478 -1.8824
 4684SOL    HW225689   0.195   2.772   6.508  0.0226  0.2682  0.1179
 4685SOL     OW25690   3.791   1.966   4.679  0.6190  0.3761 -0.1510
 4685SOL    HW125691   3.813   2.054   4.710 -1.3165  1.0909 -0.8089
 4685SOL    HW225692   3.697   1.980   4.675  0.6907  0.6895 -0.6393
 4686SOL     OW25693   0.406   3.892   9.835 -0.1836 -0.1060  0.0868
 4686SOL    HW125694   0.500   3.880   9.826  0.3503  3.6143  0.6134
 4686SOL    HW225695   0.398   3.929   9.923  1.5901 -1.5485  0.8528
 4687SOL     OW25696   0.702   0.878   4.483 -0.1333 -0.5077  0.7350
 4687SOL    HW125697   0.673   0.789   4.500 -2.1108 -0.5541 -2.9540
 4687SOL    HW225698   0.795   0.869   4.460 -0.2642 -0.4898  0.1953
 4688SOL     OW25699   3.062   2.276   6.301 -0.8548  0.2508  0.2616
 4688SOL    HW125700   2.991   2.241   6.354  0.1228  1.4256  2.3633
 4688SOL    HW225701   3.074   2.356   6.353  1.5801  0.2016 -0.2257
 4689SOL     OW25702   0.206   2.957   6.256 -0.1207 -0.3266  0.4015
 4689SOL    HW125703   0.149   2.885   6.231  0.2822 -0.3864 -0.3479
 4689SOL    HW225704   0.147   3.031   6.243  0.1224 -0.0346  0.9542
 4690SOL     OW25705   0.292   3.970  15.261 -0.0142  0.8734  0.1442
 4690SOL    HW125706   0.278   4.017  15.179 -1.3938 -0.6087 -0.4650
 4690SOL    HW225707   0.214   3.977  15.317  1.1229  2.6388  1.5148
 4691SOL     OW25708   1.640   1.477   2.955  0.1553 -0.2436 -0.4801
 4691SOL    HW125709   1.714   1.421   2.930  0.0394 -0.6974  0.1910
 4691SOL    HW225710   1.665   1.568   2.940 -1.1530  0.2456  0.3479
 4692SOL     OW25711   0.983   3.702   9.077  0.3584  0.1025  0.3349
 4692SOL    HW125712   0.905   3.699   9.022 -0.2174  2.1440  1.0521
 4692SOL    HW225713   0.967   3.635   9.144  0.0623  0.5272  0.6871
 4693SOL     OW25714   1.016   0.028  13.661 -0.5630  0.0178 -0.6015
 4693SOL    HW125715   1.095   0.082  13.662 -0.5780  0.0211  0.1206
 4693SOL    HW225716   0.959   0.070  13.725  0.0652 -0.7204  0.4430
 4694SOL     OW25717   1.205   2.447   3.870 -0.5043 -0.2738  0.3443
 4694SOL    HW125718   1.236   2.446   3.780 -1.5700  2.1627 -0.0328
 4694SOL    HW225719   1.111   2.439   3.854 -0.7863  0.2441  1.7618
 4695SOL     OW25720   4.671   0.943   4.094  0.4080  0.5419 -0.5235
 4695SOL    HW125721   4.724   1.001   4.148  2.1377 -1.9551  0.4539
 4695SOL    HW225722   4.659   0.992   4.013  1.4175  1.1897 -0.2797
 4696SOL     OW25723   0.001   0.483   2.004  0.3542  0.0556 -0.1893
 4696SOL    HW125724   0.059   0.431   1.948  0.3827  0.0749 -0.1777
 4696SOL    HW225725   4.696   0.410   2.046 -0.6307  1.9026  2.0104
 4697SOL     OW25726   4.079   1.607   7.390 -0.1757 -0.3666  0.4836
 4697SOL    HW125727   4.140   1.604   7.316  0.2062  0.1126  0.7740
 4697SOL    HW225728   4.127   1.672   7.441  3.1876 -2.4109 -0.1024
 4698SOL     OW25729   3.852   3.581   2.431 -0.1665  0.4791  0.2220
 4698SOL    HW125730   3.822   3.667   2.403 -1.8197 -0.2711 -0.3258
 4698SOL    HW225731   3.789   3.562   2.500 -1.3806 -2.6217 -1.7216
 4699SOL     OW25732   2.463   2.074  13.177  0.4876 -0.5300 -0.2963
 4699SOL    HW125733   2.506   2.158  13.159  2.1553 -1.4489 -0.6177
 4699SOL    HW225734   2.491   2.025  13.100  0.8201 -0.7038 -0.0637
 4700SOL     OW25735   2.639   4.159   6.784  0.0194 -0.0548  0.5779
 4700SOL    HW125736   2.616   4.185   6.694 -0.9460  1.6217  1.3135
 4700SOL    HW225737   2.724   4.203   6.779 -1.7097  3.1379 -0.8717
 4701SOL     OW25738   2.824   3.391  10.133 -0.3621 -0.6584 -0.2026
 4701SOL    HW125739   2.785   3.327  10.193 -0.0553 -0.0128  0.6744
 4701SOL    HW225740   2.785   3.350  10.056  0.8674  0.7947 -1.5683
 4702SOL     OW25741   1.857   3.747   5.092 -0.2611 -0.3075  0.1949
 4702SOL    HW125742   1.825   3.791   5.171 -2.8851  1.4229 -1.8514
 4702SOL    HW225743   1.854   3.812   5.022 -0.8689 -0.2884  0.2355
 4703SOL     OW25744   0.510   3.753   4.468  0.3401  0.2863 -0.4800
 4703SOL    HW125745   0.527   3.691   4.539 -1.4601  0.1491 -0.1537
 4703SOL    HW225746   0.501   3.691   4.395  3.6382 -0.6433 -0.0638
 4704SOL     OW25747   2.873   1.402   4.617 -0.3816  0.0960  0.2115
 4704SOL    HW125748   2.845   1.438   4.533 -3.3164 -1.5787  0.4724
 4704SOL    HW225749   2.829   1.318   4.610  1.0309 -0.6314  0.0323
 4705SOL     OW25750   2.586   2.635   2.883 -0.2565  0.1079 -0.2176
 4705SOL    HW125751   2.525   2.567   2.912  0.1895 -0.9957 -1.8606
 4705SOL    HW225752   2.522   2.691   2.840  1.7769  1.3855 -1.6020
 4706SOL     OW25753   1.057   1.217   2.846  0.4100 -0.0163  1.0332
 4706SOL    HW125754   1.015   1.236   2.762  0.2559 -1.2389  0.8198
 4706SOL    HW225755   1.132   1.275   2.853 -1.3012  1.9687  2.8422
 4707SOL     OW25756   2.932   2.295   4.212  0.2316 -0.0055  0.2746
 4707SOL    HW125757   2.948   2.221   4.153 -0.8963  0.6837 -0.8868
 4707SOL    HW225758   2.904   2.251   4.292 -0.0589  0.7522  0.5929
 4708SOL     OW25759   2.572   4.448   2.255 -0.2348 -0.2458 -0.2923
 4708SOL    HW125760   2.554   4.446   2.162 -0.4793  0.8896 -0.2644
 4708SOL    HW225761   2.483   4.424   2.283  0.1111  0.3589  1.3674
 4709SOL     OW25762   4.041   1.254   2.697 -0.0859 -0.3735  0.4391
 4709SOL    HW125763   4.102   1.241   2.625 -0.7989  2.8297 -0.7134
 4709SOL    HW225764   4.099   1.293   2.763 -0.9830  0.5152  0.7114
 4710SOL     OW25765   4.695   0.471  17.557 -0.3765 -0.6122 -0.6517
 4710SOL    HW125766   4.606   0.436  17.562 -0.0855 -1.3469 -0.5657
 4710SOL    HW225767   4.671   0.564  17.566  0.2513 -0.7916  2.9824
 4711SOL     OW25768   3.479   2.872   8.642  0.1280 -0.8752 -0.2040
 4711SOL    HW125769   3.492   2.831   8.727  1.4970  1.5591  0.7636
 4711SOL    HW225770   3.388   2.902   8.650  0.8345  0.8979  1.2500
 4712SOL     OW25771   0.506   2.763   9.313 -0.3149  0.0733  0.4327
 4712SOL    HW125772   0.582   2.790   9.364 -0.7298  1.3110  0.3782
 4712SOL    HW225773   0.522   2.668   9.312 -1.9951 -0.2153  0.8107
 4713SOL     OW25774   2.567   1.056   9.915 -0.0433 -0.5181 -0.4380
 4713SOL    HW125775   2.650   1.102   9.926 -0.7469  1.2832 -2.5947
 4713SOL    HW225776   2.528   1.108   9.845 -0.9665 -3.2688 -1.9939
 4714SOL     OW25777   4.539   4.325   7.437  0.2326  0.8663  0.3892
 4714SOL    HW125778   4.584   4.387   7.379 -0.4165  2.1593  1.2597
 4714SOL    HW225779   4.613   4.304   7.494  0.0448 -3.7891 -1.1632
 4715SOL     OW25780   3.955   0.167   5.523 -0.3193  0.4103 -0.0573
 4715SOL    HW125781   3.874   0.117   5.534  0.1467 -1.2334 -4.0607
 4715SOL    HW225782   4.002   0.109   5.463  0.1765  0.9035 -0.1424
 4716SOL     OW25783   0.454   3.537   4.308  0.5424  0.3843 -0.0294
 4716SOL    HW125784   0.415   3.507   4.390 -0.1632 -1.0001 -0.8737
 4716SOL    HW225785   0.382   3.561   4.250 -0.2405  2.5587  1.8319
 4717SOL     OW25786   3.601   2.838   1.283 -0.5745 -0.1248  0.8904
 4717SOL    HW125787   3.673   2.881   1.331 -1.8046  0.2719  2.3709
 4717SOL    HW225788   3.588   2.755   1.328 -0.8199  0.3570  1.7103
 4718SOL     OW25789   4.204   2.270   3.564 -0.0574  0.0059 -0.0713
 4718SOL    HW125790   4.153   2.346   3.536 -1.3995 -0.3617  1.3940
 4718SOL    HW225791   4.142   2.222   3.619  0.4588 -1.0663 -0.4200
 4719SOL     OW25792   2.084   3.297  17.745  0.1145 -0.7930 -0.1954
 4719SOL    HW125793   2.104   3.230   0.053  0.5076  0.1560  0.6322
 4719SOL    HW225794   2.007   3.343   0.021  0.5837 -0.3314  0.2337
 4720SOL     OW25795   1.330   3.466   3.617 -0.4646  0.5027 -0.1652
 4720SOL    HW125796   1.370   3.396   3.669 -0.3048 -0.4654 -1.5604
 4720SOL    HW225797   1.315   3.418   3.535 -1.1450 -1.7743  1.2745
 4721SOL     OW25798   4.138   2.861   6.473  0.6641  1.2663 -0.5426
 4721SOL    HW125799   4.130   2.955   6.455  0.6792  1.8115  2.2749
 4721SOL    HW225800   4.143   2.859   6.568 -1.0487 -0.8994 -0.4942
 4722SOL     OW25801   3.590   1.730   7.970 -0.1500  0.3276 -0.1622
 4722SOL    HW125802   3.622   1.660   8.028 -2.1548  1.1686  1.9332
 4722SOL    HW225803   3.496   1.728   7.987 -0.0777 -2.0406 -0.0084
 4723SOL     OW25804   2.320   0.880   7.321  0.8975 -0.3419  0.1931
 4723SOL    HW125805   2.245   0.880   7.379  1.3298  0.4666  0.7527
 4723SOL    HW225806   2.354   0.970   7.320 -1.3676  0.5060  1.1004
 4724SOL     OW25807   2.810   3.393   1.323  0.2254 -1.1864 -0.8868
 4724SOL    HW125808   2.898   3.385   1.361 -1.7054 -1.0805  3.5891
 4724SOL    HW225809   2.824   3.379   1.229 -0.7896 -0.0163 -1.2106
 4725SOL     OW25810   4.582   0.303   7.610 -0.0799  0.0012 -0.3509
 4725SOL    HW125811   4.666   0.285   7.652 -0.8380 -2.0339  0.2857
 4725SOL    HW225812   4.565   0.393   7.639  0.8580 -0.4795  1.6774
 4726SOL     OW25813   4.232   0.034   9.012 -0.7021 -0.0215 -0.1874
 4726SOL    HW125814   4.256   0.030   9.105 -0.0545  0.1796 -0.3507
 4726SOL    HW225815   4.178   4.696   8.999 -1.2093  0.2025  0.5923
 4727SOL     OW25816   1.016   0.687   3.141 -0.3665 -0.0305  0.3699
 4727SOL    HW125817   0.958   0.755   3.175  1.4412  0.7208  1.9481
 4727SOL    HW225818   1.074   0.744   3.091 -0.8318  2.5771  2.8602
 4728SOL     OW25819   4.190   4.274   0.997  0.1114  0.5852  0.3844
 4728SOL    HW125820   4.254   4.321   1.051 -0.0147  1.3040 -0.0910
 4728SOL    HW225821   4.135   4.346   0.965 -0.7665 -0.1971  0.1284
 4729SOL     OW25822   4.453   2.363   0.779  0.1481  0.3784 -0.5376
 4729SOL    HW125823   4.402   2.412   0.843  1.1827  1.3275 -0.4428
 4729SOL    HW225824   4.479   2.290   0.836 -0.1992 -0.0882 -0.9795
 4730SOL     OW25825   1.959   0.009   5.650 -0.3344  0.1503  0.4010
 4730SOL    HW125826   1.870   0.013   5.684  0.0440 -0.4632  1.4339
 4730SOL    HW225827   2.002   0.008   5.735  0.2961  0.9154  0.0938
 4731SOL     OW25828   3.984   2.303   5.584  0.1140 -0.1857 -0.4183
 4731SOL    HW125829   3.982   2.285   5.678 -0.1559  2.5681  0.1210
 4731SOL    HW225830   4.071   2.281   5.551  0.4480 -1.0026  1.0105
 4732SOL     OW25831   0.939   3.097   3.992 -0.4133 -0.7407  0.0022
 4732SOL    HW125832   0.992   3.149   3.930  0.3020 -1.0030  0.3903
 4732SOL    HW225833   1.016   3.061   4.037  0.3344  2.2958  1.1715
 4733SOL     OW25834   4.718   2.765  11.722  0.2909  0.0257 -0.1940
 4733SOL    HW125835   0.015   2.823  11.656  2.8695  0.1178  1.3406
 4733SOL    HW225836   4.643   2.819  11.744  1.3986  1.2538  0.5884
 4734SOL     OW25837   0.144   0.233   9.004  0.3274 -0.7370  0.1444
 4734SOL    HW125838   0.156   0.172   9.076  1.1920 -0.1889  0.4697
 4734SOL    HW225839   0.117   0.177   8.931  0.2819  0.4649 -0.7674
 4735SOL     OW25840   0.877   0.370  10.135 -0.6679  0.0243  0.0423
 4735SOL    HW125841   0.829   0.355  10.216 -1.7659  0.3789 -0.5358
 4735SOL    HW225842   0.832   0.446  10.097 -0.8209  0.4557  1.0812
 4736SOL     OW25843   2.124   0.260   2.338 -0.2232  0.1775  0.0348
 4736SOL    HW125844   2.201   0.236   2.287  0.1476  0.5842  0.3980
 4736SOL    HW225845   2.128   0.200   2.412  0.2237 -0.6604 -0.6747
 4737SOL     OW25846   3.273   1.370   6.245  0.1723  0.3578 -0.4935
 4737SOL    HW125847   3.213   1.425   6.194  0.6795  0.3442 -1.0946
 4737SOL    HW225848   3.232   1.287   6.223  0.6387 -0.0937  0.3331
 4738SOL     OW25849   0.499   3.968  17.392  0.1496 -0.4726 -0.1587
 4738SOL    HW125850   0.428   3.905  17.379  2.5277 -2.9759 -1.0364
 4738SOL    HW225851   0.558   3.956  17.318  1.5035  1.9586  0.5297
 4739SOL     OW25852   3.789   4.142   1.667  0.0490  0.1439 -0.6606
 4739SOL    HW125853   3.738   4.213   1.708 -1.5485 -1.8038  0.7203
 4739SOL    HW225854   3.717   4.090   1.632  0.6982 -1.3546  0.2047
 4740SOL     OW25855   4.095   2.764   5.652 -0.2585 -0.4360 -0.3351
 4740SOL    HW125856   4.147   2.832   5.610 -1.4749  0.4753 -0.3458
 4740SOL    HW225857   4.052   2.717   5.579  1.1433 -0.1042 -1.3812
 4741SOL     OW25858   3.970   1.029   2.381  0.3023  0.0185  0.2015
 4741SOL    HW125859   3.881   1.002   2.358  0.1086  0.6956  0.1786
 4741SOL    HW225860   3.959   1.121   2.402 -0.3160  0.3705 -1.6535
 4742SOL     OW25861   2.689   4.190  10.749  0.3632  0.4220 -0.9217
 4742SOL    HW125862   2.645   4.195  10.664 -0.6630  2.0602 -0.2883
 4742SOL    HW225863   2.772   4.228  10.721 -0.3668  1.4329 -1.7405
 4743SOL     OW25864   3.875   3.553  15.966 -0.2764 -0.1850  0.1106
 4743SOL    HW125865   3.802   3.565  15.905  1.9958  0.1738 -2.5276
 4743SOL    HW225866   3.828   3.569  16.048  1.1330 -1.5509  1.2008
 4744SOL     OW25867   1.984   0.757   0.519  0.5137  0.1725 -0.3707
 4744SOL    HW125868   1.931   0.690   0.475 -1.2195  1.2241  0.1266
 4744SOL    HW225869   1.914   0.808   0.560  0.2181 -0.7520  0.2862
 4745SOL     OW25870   3.548   3.533   9.800  0.7570  0.0415  0.0172
 4745SOL    HW125871   3.487   3.567   9.866  0.8197  1.8372 -0.8376
 4745SOL    HW225872   3.491   3.458   9.783 -1.4413  1.4951  0.9143
 4746SOL     OW25873   3.488   0.334   7.734 -0.2226  0.5567  0.4265
 4746SOL    HW125874   3.471   0.246   7.768 -0.6561 -0.1248 -1.5689
 4746SOL    HW225875   3.541   0.376   7.803 -0.9255 -1.3640  2.1403
 4747SOL     OW25876   0.630   2.954   2.124 -0.8881 -0.6324 -0.3344
 4747SOL    HW125877   0.670   2.902   2.054  1.0415  0.7512 -0.2507
 4747SOL    HW225878   0.547   2.910   2.105 -1.2038 -1.1451  2.3178
 4748SOL     OW25879   1.789   0.319   5.601  0.1736  0.1686 -0.3690
 4748SOL    HW125880   1.775   0.345   5.510  1.8405  1.2142 -0.3116
 4748SOL    HW225881   1.711   0.269   5.627  1.4945 -1.2145  0.8988
 4749SOL     OW25882   3.478   3.709  11.324  0.2487  0.3354  0.3444
 4749SOL    HW125883   3.540   3.778  11.347  1.2210  0.0851 -1.4877
 4749SOL    HW225884   3.398   3.762  11.312 -0.8435 -1.7598 -1.6085
 4750SOL     OW25885   4.284   3.110   2.574 -0.5494 -0.0776 -0.0866
 4750SOL    HW125886   4.230   3.183   2.604 -2.3430 -0.2177 -2.9136
 4750SOL    HW225887   4.217   3.041   2.580  0.8439 -1.1079  3.4702
 4751SOL     OW25888   0.243   1.927  13.703  0.3563 -0.2470  0.1313
 4751SOL    HW125889   0.238   1.892  13.792  0.3077 -2.5345 -0.7597
 4751SOL    HW225890   0.228   1.843  13.658 -0.6586  0.1395 -0.2738
 4752SOL     OW25891   0.647   3.581   4.688  0.3488  0.5660  0.2183
 4752SOL    HW125892   0.591   3.525   4.634  1.6408  0.7735 -1.3236
 4752SOL    HW225893   0.666   3.515   4.755  2.0421  0.8678  0.0403
 4753SOL     OW25894   0.944   0.224   2.452  0.0339 -0.9326 -0.0843
 4753SOL    HW125895   0.874   0.210   2.389  3.3505  0.1908 -4.0265
 4753SOL    HW225896   0.982   0.307   2.425 -1.4454 -0.4558 -0.6848
 4754SOL     OW25897   4.189   1.756   3.611  0.1500 -0.7515  0.1272
 4754SOL    HW125898   4.133   1.751   3.533 -0.6427 -0.4910  0.6828
 4754SOL    HW225899   4.188   1.663   3.635  1.8118 -1.3327 -2.0227
 4755SOL     OW25900   0.943   4.207  10.190  1.0415  0.5724 -0.6635
 4755SOL    HW125901   0.968   4.127  10.144  2.7053  0.9440 -0.4163
 4755SOL    HW225902   0.869   4.236  10.138  0.7328  1.8044  0.4764
 4756SOL     OW25903   4.149   2.017   4.765  0.6791 -0.1357 -0.9406
 4756SOL    HW125904   4.160   1.933   4.720  1.1929 -0.2073 -0.6850
 4756SOL    HW225905   4.198   2.066   4.699 -0.3983  0.3668 -1.3658
 4757SOL     OW25906   0.595   0.823   9.116  0.0962 -0.3242 -0.6928
 4757SOL    HW125907   0.541   0.880   9.062  0.0590  1.7110  1.4941
 4757SOL    HW225908   0.566   0.736   9.088  1.5831 -1.4003  1.1017
 4758SOL     OW25909   2.989   3.750   7.848 -0.1153  0.1393 -0.4808
 4758SOL    HW125910   3.075   3.710   7.843  0.5478  1.6841 -1.6343
 4758SOL    HW225911   2.930   3.690   7.803  2.3759 -1.6647 -1.3147
 4759SOL     OW25912   4.397   0.207   5.958  0.4969  0.0375  0.4522
 4759SOL    HW125913   4.457   0.187   6.031  1.0818  0.9301  0.2162
 4759SOL    HW225914   4.439   0.277   5.909  1.3225 -0.0656  1.0048
 4760SOL     OW25915   2.452   1.365   0.546  0.3052 -0.2278  0.0511
 4760SOL    HW125916   2.473   1.312   0.624 -0.0980 -1.2033 -0.5011
 4760SOL    HW225917   2.399   1.431   0.591  0.3940 -1.2944  1.7443
 4761SOL     OW25918   1.942   0.320   6.538 -0.5392  0.6371 -0.1926
 4761SOL    HW125919   1.928   0.366   6.455 -1.1424  1.9627  0.6408
 4761SOL    HW225920   1.971   0.392   6.594  1.2219  1.0764 -1.6366
 4762SOL     OW25921   3.633   3.065  11.630  0.2617  0.0028  0.3592
 4762SOL    HW125922   3.569   3.136  11.639 -0.3870 -0.4870 -0.4180
 4762SOL    HW225923   3.641   3.071  11.535 -0.6357  0.5755  0.3179
 4763SOL     OW25924   0.799   4.206   7.592  0.2991 -0.4024  0.6169
 4763SOL    HW125925   0.885   4.212   7.550 -0.3840  0.0443 -0.7035
 4763SOL    HW225926   0.740   4.193   7.518 -0.4171  0.2910  1.0673
 4764SOL     OW25927   0.969   1.892  16.891 -0.3189  0.1319  0.0072
 4764SOL    HW125928   1.033   1.849  16.834  2.3467  1.9863  1.5548
 4764SOL    HW225929   0.948   1.971  16.841 -1.2150 -0.0172  0.1626
 4765SOL     OW25930   2.885   3.423   8.465  0.2585 -0.3065  0.0363
 4765SOL    HW125931   2.833   3.454   8.391 -0.7110 -1.1344  0.3634
 4765SOL    HW225932   2.968   3.432   8.418 -1.2097 -1.5360 -2.7959
 4766SOL     OW25933   1.309   1.590   4.538  0.1217  1.0598 -0.4167
 4766SOL    HW125934   1.404   1.596   4.537  0.0710  1.8660  0.0161
 4766SOL    HW225935   1.288   1.674   4.579  0.9888  0.6286  0.8825
 4767SOL     OW25936   3.374   4.047   3.220  0.0247  0.0487  0.4201
 4767SOL    HW125937   3.344   4.129   3.258 -2.1866 -0.2749 -0.6085
 4767SOL    HW225938   3.464   4.047   3.252  0.9654 -0.6529 -2.1805
 4768SOL     OW25939   4.698   1.094  11.606 -0.4333  0.1400 -0.1348
 4768SOL    HW125940   4.678   1.173  11.654 -1.0233  0.6081 -1.1499
 4768SOL    HW225941   0.001   1.120  11.524 -0.0947 -0.3289 -0.1084
 4769SOL     OW25942   3.416   3.054   9.271  0.2543 -0.2974 -0.2864
 4769SOL    HW125943   3.368   2.987   9.321  0.1470 -1.2089 -1.6183
 4769SOL    HW225944   3.507   3.028   9.283  0.5586  0.8964 -0.0658
 4770SOL     OW25945   1.738   1.007   8.666 -0.5407 -0.1981 -0.3391
 4770SOL    HW125946   1.645   0.985   8.669 -0.6008  0.0023 -0.7772
 4770SOL    HW225947   1.775   0.984   8.752  1.3104 -1.1019 -1.3956
 4771SOL     OW25948   3.991   4.509  11.525 -0.1251  0.1184  0.1428
 4771SOL    HW125949   4.066   4.568  11.525 -0.6120  0.7336 -0.1887
 4771SOL    HW225950   3.922   4.568  11.495  0.7997  0.1780 -1.8757
 4772SOL     OW25951   4.242   1.369  17.629 -0.7124 -0.2238 -0.0801
 4772SOL    HW125952   4.300   1.386  17.703  1.4295  2.4297 -2.3951
 4772SOL    HW225953   4.231   1.455  17.590  0.6122 -1.0209 -2.2498
 4773SOL     OW25954   0.420   1.297   5.633 -0.2711  0.7587  0.6679
 4773SOL    HW125955   0.397   1.382   5.597 -1.2688 -0.4041 -1.3792
 4773SOL    HW225956   0.352   1.237   5.603  0.3293 -0.6349  2.0662
 4774SOL     OW25957   1.355   4.650  16.032  0.2776  0.3075  0.4182
 4774SOL    HW125958   1.413   4.685  15.964 -1.7792  2.3452 -0.3071
 4774SOL    HW225959   1.408   4.664  16.111 -0.8246 -1.6673  1.4983
 4775SOL     OW25960   1.808   2.808   2.312 -0.3829 -0.5043 -0.1424
 4775SOL    HW125961   1.819   2.714   2.304 -1.9081 -0.7658  0.8719
 4775SOL    HW225962   1.824   2.848   2.227 -0.2891 -0.5206 -0.1320
 4776SOL     OW25963   3.669   3.839  11.854  0.1694 -0.1567 -0.5173
 4776SOL    HW125964   3.639   3.909  11.913  0.3336 -0.5698  0.0610
 4776SOL    HW225965   3.687   3.762  11.908  0.1005  0.5815  0.5717
 4777SOL     OW25966   0.887   3.268  16.779 -0.3105  0.2905  0.2296
 4777SOL    HW125967   0.925   3.352  16.804 -1.5801  0.6706  0.8813
 4777SOL    HW225968   0.830   3.246  16.852 -0.5816 -0.8859 -0.3366
 4778SOL     OW25969   4.395   2.675  13.604 -0.2692 -0.5172  0.0171
 4778SOL    HW125970   4.468   2.614  13.612 -0.7340 -1.0001  0.5637
 4778SOL    HW225971   4.385   2.669  13.509 -0.5484  2.3278 -0.1347
 4779SOL     OW25972   1.545   0.519   6.077 -0.4305  0.1095  0.2970
 4779SOL    HW125973   1.509   0.503   5.990  0.1393  1.2636 -0.1413
 4779SOL    HW225974   1.471   0.561   6.121 -1.0947 -0.6254 -0.1236
 4780SOL     OW25975   2.114   4.304  15.858  0.2919 -0.1927  0.2331
 4780SOL    HW125976   2.026   4.340  15.845 -0.0717 -0.7172  1.2172
 4780SOL    HW225977   2.148   4.295  15.769 -1.4962 -3.1286 -0.1479
 4781SOL     OW25978   2.503   1.701   2.911 -0.3697 -0.5765 -0.0749
 4781SOL    HW125979   2.455   1.740   2.984  0.2745 -1.9678  1.1129
 4781SOL    HW225980   2.574   1.764   2.901 -1.4149  0.9420  2.0556
 4782SOL     OW25981   4.363   1.478   7.499 -0.6868  0.1811 -0.7696
 4782SOL    HW125982   4.285   1.430   7.525  0.1452  0.3688  2.0203
 4782SOL    HW225983   4.387   1.430   7.419  0.0636 -0.0442 -0.4154
 4783SOL     OW25984   3.423   3.196   9.538  0.3841 -0.3344 -0.1752
 4783SOL    HW125985   3.401   3.192   9.631  0.6117  1.6751 -0.0323
 4783SOL    HW225986   3.512   3.161   9.535  0.2377 -0.8070  1.2227
 4784SOL     OW25987   2.973   2.126   7.870  0.0468  0.0806 -0.4917
 4784SOL    HW125988   2.924   2.174   7.937 -1.6667 -1.1557 -0.8422
 4784SOL    HW225989   2.916   2.156   7.799 -0.4752 -1.5402 -0.7603
 4785SOL     OW25990   2.354   0.717   3.355 -0.3870  0.2528 -0.2861
 4785SOL    HW125991   2.304   0.756   3.284 -0.5540  0.5300 -0.0178
 4785SOL    HW225992   2.432   0.686   3.309  0.1957  0.4295  0.5733
 4786SOL     OW25993   0.849   3.134   6.696 -0.4582 -0.5359  0.4038
 4786SOL    HW125994   0.940   3.119   6.723 -0.3557 -2.2483 -0.8929
 4786SOL    HW225995   0.811   3.136   6.784  1.4385 -1.2440  1.2403
 4787SOL     OW25996   0.955   3.424   1.335 -0.1222  0.4376 -0.0986
 4787SOL    HW125997   0.924   3.355   1.394 -4.5108  0.8661 -1.9377
 4787SOL    HW225998   1.049   3.406   1.336 -0.6937 -2.5405  0.2250
 4788SOL     OW25999   2.163   2.127   3.328 -0.3196  0.1242  0.7942
 4788SOL    HW126000   2.107   2.149   3.252  1.5751 -0.9874 -0.9257
 4788SOL    HW226001   2.250   2.154   3.300 -1.3826  0.4783 -2.2443
 4789SOL     OW26002   3.099   4.713   5.500  0.4154 -0.0750 -0.4662
 4789SOL    HW126003   3.034   4.691   5.433 -1.7515  1.1640  1.2387
 4789SOL    HW226004   3.044   0.015   5.566 -0.7338 -1.0112 -0.8254
 4790SOL     OW26005   4.660   0.461   7.325 -0.5387 -0.1763  0.1284
 4790SOL    HW126006   4.727   0.394   7.338 -0.4665 -0.0826  0.2355
 4790SOL    HW226007   4.682   0.526   7.391 -2.0856 -0.0288  0.5016
 4791SOL     OW26008   3.828   4.678   2.197  0.6585 -0.5829 -0.2353
 4791SOL    HW126009   3.828   4.683   2.292 -0.7214 -0.7599 -0.2207
 4791SOL    HW226010   3.779   4.596   2.198 -0.5309  0.1113 -0.8588
 4792SOL     OW26011   3.847   3.402  12.290  0.2158 -0.4933  0.2126
 4792SOL    HW126012   3.912   3.446  12.344 -0.6248  0.4945  0.4213
 4792SOL    HW226013   3.773   3.456  12.317  0.2859 -0.4970  0.4122
 4793SOL     OW26014   0.564   1.528   1.966 -0.1108 -0.5083  0.3314
 4793SOL    HW126015   0.488   1.494   2.013  0.0041 -1.5941 -0.2789
 4793SOL    HW226016   0.523   1.608   1.935 -0.0980 -0.5990  0.0837
 4794SOL     OW26017   0.507   2.106   1.982  0.0656  0.0684 -1.0327
 4794SOL    HW126018   0.567   2.043   1.943  1.5423  0.0496  1.2744
 4794SOL    HW226019   0.530   2.114   2.075 -1.5641 -1.7336 -0.4803
 4795SOL     OW26020   1.786   2.849   1.786  0.1086  0.0547 -0.2036
 4795SOL    HW126021   1.709   2.798   1.812  0.1796 -0.7874 -1.6581
 4795SOL    HW226022   1.820   2.771   1.741  0.0447 -0.8778  1.3645
 4796SOL     OW26023   2.469   4.118   3.417  0.2175 -0.2008 -0.0606
 4796SOL    HW126024   2.541   4.055   3.417  0.5744  0.2065  0.1443
 4796SOL    HW226025   2.405   4.049   3.434 -1.9536  1.5439 -1.2399
 4797SOL     OW26026   2.852   4.419   0.371 -0.1076  0.1056  0.2969
 4797SOL    HW126027   2.868   4.499   0.320 -0.3221 -0.7906 -1.1860
 4797SOL    HW226028   2.772   4.383   0.333 -0.0539 -1.5617  1.8336
 4798SOL     OW26029   2.581   3.994   7.672 -0.3316 -0.4800 -0.2906
 4798SOL    HW126030   2.668   4.004   7.711 -0.5056  0.4634 -0.1410
 4798SOL    HW226031   2.573   3.900   7.655 -1.0737 -0.1504 -1.7897
 4799SOL     OW26032   1.475   4.737   6.539 -0.4012  0.2943  0.4228
 4799SOL    HW126033   1.437   4.659   6.498 -0.7755  0.5843  0.2258
 4799SOL    HW226034   1.500   4.694   6.621  1.7029 -0.3810 -0.5837
 4800SOL     OW26035   0.981   2.333   8.879 -0.3302 -0.2572  0.2034
 4800SOL    HW126036   0.920   2.353   8.808 -0.2257 -0.4772  0.0510
 4800SOL    HW226037   0.931   2.372   8.951 -2.2727 -1.6565 -0.3693
 4801SOL     OW26038   4.381   3.940  15.353 -0.1293 -0.5521  0.6649
 4801SOL    HW126039   4.300   3.893  15.335  1.3262 -2.6140 -0.4885
 4801SOL    HW226040   4.342   4.016  15.396  2.1491  0.2526  1.3554
 4802SOL     OW26041   0.830   3.300   4.505 -0.2259 -0.1380 -0.2657
 4802SOL    HW126042   0.889   3.375   4.498  1.8772 -1.4937  2.7888
 4802SOL    HW226043   0.778   3.318   4.427 -1.9233 -1.3172  0.5927
 4803SOL     OW26044   2.658   1.785   4.491  0.2440  0.6132  0.3740
 4803SOL    HW126045   2.747   1.759   4.465 -0.7222 -1.4321 -0.8765
 4803SOL    HW226046   2.625   1.773   4.402  1.6919 -1.0991  0.0521
 4804SOL     OW26047   3.617   4.221   5.647 -0.0169 -0.2673  0.6345
 4804SOL    HW126048   3.557   4.174   5.705  0.2201 -1.1506  0.1686
 4804SOL    HW226049   3.554   4.251   5.582 -1.5920 -3.0170  0.8847
 4805SOL     OW26050   1.780   3.290   8.018  0.5239  0.4789  0.5650
 4805SOL    HW126051   1.787   3.368   8.072  0.3221  0.3003  0.8470
 4805SOL    HW226052   1.869   3.257   8.000  0.9918  1.2982  1.4043
 4806SOL     OW26053   3.143   3.169  11.207  0.0275 -0.0062  0.5709
 4806SOL    HW126054   3.158   3.167  11.302 -0.1127 -0.8521  0.5740
 4806SOL    HW226055   3.137   3.264  11.197  0.0711 -0.0780 -0.0959
 4807SOL     OW26056   2.542   4.592   1.266  0.5251  0.4381  0.1616
 4807SOL    HW126057   2.580   4.675   1.293 -0.4310 -0.0181  2.8112
 4807SOL    HW226058   2.451   4.619   1.265  0.9001  1.7258  0.9325
 4808SOL     OW26059   1.099   3.992  16.055  0.8959  0.1252  0.0772
 4808SOL    HW126060   1.057   3.960  16.135  1.1719 -1.5956 -0.4706
 4808SOL    HW226061   1.125   4.080  16.082  0.2674 -0.2994  2.1086
 4809SOL     OW26062   4.555   1.636   3.716  0.0253  0.3074 -0.1337
 4809SOL    HW126063   4.527   1.696   3.785 -2.0456 -0.5467 -0.2321
 4809SOL    HW226064   4.583   1.695   3.646 -1.5673  0.6873 -0.4537
 4810SOL     OW26065   0.423   3.450   4.567 -0.3028 -0.2497  0.2232
 4810SOL    HW126066   0.446   3.359   4.586 -0.1666 -0.6075 -1.6593
 4810SOL    HW226067   0.352   3.463   4.630  0.5936  0.2152  1.1378
 4811SOL     OW26068   2.732   0.455   4.165  0.0731  0.3475 -0.2330
 4811SOL    HW126069   2.665   0.440   4.231  1.0324  1.8890  1.0992
 4811SOL    HW226070   2.710   0.400   4.090  1.6441  0.7223 -0.9756
 4812SOL     OW26071   4.502   1.358   9.469 -0.8469 -0.0072  0.2307
 4812SOL    HW126072   4.422   1.322   9.508  0.8662 -2.3056  1.6420
 4812SOL    HW226073   4.559   1.281   9.468  0.0233  0.6454 -0.3135
 4813SOL     OW26074   4.012   0.551   1.550 -0.2403 -0.1418  0.2607
 4813SOL    HW126075   4.056   0.495   1.485  0.8628  0.9787  0.0451
 4813SOL    HW226076   3.962   0.614   1.497 -0.6224  0.7563  1.6822
 4814SOL     OW26077   1.730   1.466   7.708  0.6159 -0.0551 -0.5155
 4814SOL    HW126078   1.676   1.534   7.668  1.7717  1.0344 -0.2012
 4814SOL    HW226079   1.809   1.511   7.736 -0.9819  2.6038 -0.2528
 4815SOL     OW26080   3.417   4.625   6.885 -0.5787 -0.3812  0.0458
 4815SOL    HW126081   3.410   4.619   6.789  0.8310 -0.5720 -0.0403
 4815SOL    HW226082   3.346   4.567   6.912 -0.6567 -0.9372 -1.3110
 4816SOL     OW26083   3.146   0.829   8.339 -0.0718  0.1379 -0.3291
 4816SOL    HW126084   3.082   0.871   8.282 -0.5469  1.3877  1.1149
 4816SOL    HW226085   3.111   0.740   8.342  0.5198 -0.0545  0.7359
 4817SOL     OW26086   2.943   1.260   2.821 -0.0457  0.2537  0.1524
 4817SOL    HW126087   2.900   1.318   2.757  0.3635  2.0909  1.5318
 4817SOL    HW226088   2.915   1.173   2.794  0.4339 -0.1402  0.9416
 4818SOL     OW26089   2.541   4.263   4.586 -0.0064  0.3038  0.1733
 4818SOL    HW126090   2.491   4.335   4.626 -0.0478 -0.9412  2.3562
 4818SOL    HW226091   2.556   4.300   4.499 -1.0909  1.3735  0.4467
 4819SOL     OW26092   0.362   2.550   0.209  0.6587 -0.3327 -0.3905
 4819SOL    HW126093   0.318   2.468   0.230 -0.2630  1.0835  3.0880
 4819SOL    HW226094   0.431   2.538   0.274  1.6694 -0.0530 -1.3958
 4820SOL     OW26095   2.374   3.497   5.117  0.1191 -0.1711 -0.4172
 4820SOL    HW126096   2.337   3.479   5.203  1.6416  0.2465  0.3127
 4820SOL    HW226097   2.304   3.552   5.081  0.2978  0.3537  0.0509
 4821SOL     OW26098   3.224   0.218   3.083  0.4112  0.4850  0.1536
 4821SOL    HW126099   3.284   0.289   3.058 -0.3586  1.0991  0.0376
 4821SOL    HW226100   3.141   0.266   3.088 -0.1503 -0.4239 -0.5598
 4822SOL     OW26101   1.208   3.339   7.548 -0.3771  0.4661 -0.6819
 4822SOL    HW126102   1.209   3.295   7.633  3.0734 -0.5530 -1.2518
 4822SOL    HW226103   1.214   3.428   7.582  0.6261  1.7767 -4.3990
 4823SOL     OW26104   0.764   3.441   8.250 -0.2117  0.1910  0.2228
 4823SOL    HW126105   0.832   3.382   8.216  0.1123 -0.0575  1.3075
 4823SOL    HW226106   0.710   3.458   8.172 -2.4029  0.1819  1.7590
 4824SOL     OW26107   4.035   2.116   4.072 -0.3109  0.3968  0.6131
 4824SOL    HW126108   4.116   2.075   4.043 -2.2376 -2.3595 -0.8759
 4824SOL    HW226109   4.024   2.192   4.016 -1.4315 -1.0053 -1.0672
 4825SOL     OW26110   3.631   1.130  17.659 -0.2437  0.3331  0.0021
 4825SOL    HW126111   3.597   1.054  17.706 -0.3056  0.0127 -0.5682
 4825SOL    HW226112   3.605   1.198  17.722 -0.9492 -0.7813  0.8941
 4826SOL     OW26113   0.765   4.161   7.837 -0.2112  0.0769 -0.1028
 4826SOL    HW126114   0.778   4.185   7.745  0.4496 -0.0322 -0.0360
 4826SOL    HW226115   0.852   4.158   7.878 -0.8152 -0.6613  1.1196
 4827SOL     OW26116   2.939   4.249   4.527 -0.0129 -0.1139  0.0392
 4827SOL    HW126117   2.903   4.161   4.520  0.4657 -0.3425  0.5271
 4827SOL    HW226118   3.021   4.239   4.480 -0.4577  1.7502 -1.1715
 4828SOL     OW26119   4.035   1.785   3.871 -0.2399  0.4058  0.5031
 4828SOL    HW126120   3.991   1.868   3.892 -1.0560 -0.1339  0.8981
 4828SOL    HW226121   4.100   1.813   3.806 -0.5650  1.1087  0.4835
 4829SOL     OW26122   2.443   3.451   6.265  0.1615 -0.2512 -0.3915
 4829SOL    HW126123   2.362   3.401   6.255  0.2093 -0.1970 -1.0388
 4829SOL    HW226124   2.415   3.533   6.304  2.6175  0.6980 -0.5890
 4830SOL     OW26125   2.595   1.175   5.245  0.8168 -0.3639 -0.6009
 4830SOL    HW126126   2.571   1.223   5.166 -2.0517 -2.2810 -0.8905
 4830SOL    HW226127   2.690   1.183   5.237  0.8138  0.7855  0.5734
 4831SOL     OW26128   4.680   1.342  17.727 -0.6768 -0.7994 -0.3666
 4831SOL    HW126129   4.627   1.360  17.650 -0.3534  2.4434  0.1543
 4831SOL    HW226130   0.010   1.290  17.688  1.4101  1.0760  0.8514
 4832SOL     OW26131   1.983   2.974   9.759  0.0644  0.0209  0.2074
 4832SOL    HW126132   2.056   2.971   9.821 -0.7558 -2.0361  1.0664
 4832SOL    HW226133   1.975   3.068   9.743 -0.5959 -0.2874 -1.3474
 4833SOL     OW26134   2.275   1.532   5.178 -0.7053 -0.0751 -0.4822
 4833SOL    HW126135   2.239   1.477   5.109 -0.0100 -2.3239  0.8981
 4833SOL    HW226136   2.322   1.463   5.226  0.4172 -0.1410 -1.6884
 4834SOL     OW26137   1.644   4.258   6.539  0.7064  0.3212 -0.6410
 4834SOL    HW126138   1.691   4.231   6.618 -3.3509 -0.3315  1.5867
 4834SOL    HW226139   1.722   4.297   6.501  1.5983  1.5866  2.4944
 4835SOL     OW26140   3.491   2.340   2.935 -0.0255  0.2610  0.0066
 4835SOL    HW126141   3.457   2.421   2.898  0.2932 -0.4724 -1.8986
 4835SOL    HW226142   3.409   2.291   2.942  0.5859 -0.5957  1.2402
 4836SOL     OW26143   1.345   3.259   8.167  0.6001  0.4335 -0.1006
 4836SOL    HW126144   1.269   3.282   8.220 -0.3568 -0.9802 -0.8622
 4836SOL    HW226145   1.301   3.237   8.085 -0.1872  1.0453  0.1606
 4837SOL     OW26146   2.717   2.298  13.754  0.2679  0.5402  0.4282
 4837SOL    HW126147   2.708   2.392  13.771  1.7653  0.6384  0.6799
 4837SOL    HW226148   2.777   2.273  13.824  1.2444  1.0723 -0.2022
 4838SOL     OW26149   4.662   1.403   2.527 -0.2616 -0.1294 -0.2765
 4838SOL    HW126150   4.725   1.332   2.534 -0.7008 -0.3345  1.7318
 4838SOL    HW226151   4.658   1.433   2.618 -0.4728  1.7823 -0.9028
 4839SOL     OW26152   3.420   0.948  17.326  0.7730 -0.1743  0.1615
 4839SOL    HW126153   3.514   0.956  17.310  0.4806  1.9152 -0.4697
 4839SOL    HW226154   3.391   0.896  17.251  3.0894 -0.4511 -0.5499
 4840SOL     OW26155   4.177   2.242  15.823  0.0950  0.1268  0.3326
 4840SOL    HW126156   4.210   2.295  15.895  0.2411 -0.3976  0.6506
 4840SOL    HW226157   4.250   2.182  15.812 -0.3342 -0.4004  0.3715
 4841SOL     OW26158   2.606   4.186   2.408  0.2128  0.0835  0.1201
 4841SOL    HW126159   2.599   4.275   2.371 -1.8810 -0.7469 -1.4655
 4841SOL    HW226160   2.514   4.175   2.434 -0.7822 -0.4737 -3.5509
 4842SOL     OW26161   1.919   0.412   8.743 -0.0234  0.2682 -0.3420
 4842SOL    HW126162   1.836   0.412   8.791  0.8062  0.7803  1.1005
 4842SOL    HW226163   1.980   0.372   8.805 -1.1416 -0.5043  0.2470
 4843SOL     OW26164   4.348   0.440   8.330 -0.0925  0.1802 -0.7967
 4843SOL    HW126165   4.441   0.456   8.314  0.0882 -0.1886 -0.1539
 4843SOL    HW226166   4.359   0.404   8.419  1.0227 -1.0492 -1.4226
 4844SOL     OW26167   0.381   4.156   5.219 -1.0756  0.1784 -0.3205
 4844SOL    HW126168   0.453   4.107   5.179 -0.9138 -0.1423  0.3509
 4844SOL    HW226169   0.421   4.221   5.276 -2.7671  1.4054 -0.5162
 4845SOL     OW26170   4.684   3.527   8.127 -0.4378  0.1545 -0.2112
 4845SOL    HW126171   0.006   3.545   8.198 -0.6613 -0.9844  0.2660
 4845SOL    HW226172   4.602   3.551   8.169 -0.6656 -0.9598 -0.0259
 4846SOL     OW26173   4.611   2.476   4.198  0.1211 -0.1604  0.7741
 4846SOL    HW126174   4.524   2.509   4.220  0.0342 -0.6427  1.1411
 4846SOL    HW226175   4.667   2.505   4.270  1.0266 -1.5762  0.6439
 4847SOL     OW26176   3.657   1.394   3.833  0.2196  0.4865  0.0254
 4847SOL    HW126177   3.708   1.337   3.776  0.1862 -0.9220  1.3961
 4847SOL    HW226178   3.585   1.338   3.860 -0.6690  1.3987 -0.4697
 4848SOL     OW26179   1.756   4.705   2.154 -0.0215  0.1606 -0.1541
 4848SOL    HW126180   1.710   4.657   2.222  0.7239 -0.3250  0.0045
 4848SOL    HW226181   1.712   4.671   2.076 -0.1434 -0.0787  0.0218
 4849SOL     OW26182   0.992   1.691   7.538  0.2353  0.2626  0.2399
 4849SOL    HW126183   1.016   1.777   7.571  0.1434  0.7301 -0.8956
 4849SOL    HW226184   1.036   1.628   7.595  2.9085 -0.1047 -2.2326
 4850SOL     OW26185   3.770   4.693   8.334 -0.0539 -0.0287  0.0867
 4850SOL    HW126186   3.740   4.682   8.424 -2.5143 -0.1479 -0.7309
 4850SOL    HW226187   3.691   4.713   8.283  0.0317  2.5393  0.9624
 4851SOL     OW26188   4.297   1.149   4.382  0.0452 -0.1949  0.5807
 4851SOL    HW126189   4.345   1.098   4.317 -1.8842 -0.4926 -0.6354
 4851SOL    HW226190   4.367   1.206   4.414 -0.3638  0.3908  0.4510
 4852SOL     OW26191   2.242   0.315   8.046 -0.4812  0.7891 -0.0371
 4852SOL    HW126192   2.195   0.393   8.075 -2.4031 -0.9641  1.6071
 4852SOL    HW226193   2.166   0.271   8.007  1.1987  1.1140 -3.6566
 4853SOL     OW26194   3.930   1.043   7.135  0.7914 -0.3748  0.3465
 4853SOL    HW126195   3.887   1.084   7.060 -1.6395 -0.0921  1.9138
 4853SOL    HW226196   3.940   0.954   7.101  1.5530 -1.2986  3.0087
 4854SOL     OW26197   0.510   1.100   0.230  0.3569 -0.2257 -0.3888
 4854SOL    HW126198   0.561   1.076   0.152  0.3938  0.5047 -0.5908
 4854SOL    HW226199   0.490   1.013   0.266  0.1570 -0.5208 -1.1966
 4855SOL     OW26200   3.955   0.408   0.895  0.4676  0.4670 -0.4099
 4855SOL    HW126201   3.950   0.501   0.874 -0.4099  1.1346  2.8268
 4855SOL    HW226202   3.929   0.408   0.987  1.0024 -0.8145 -0.2599
 4856SOL     OW26203   4.221   1.369   8.154  0.0773 -0.6657  0.0423
 4856SOL    HW126204   4.248   1.456   8.125 -1.6479  0.2229  1.0940
 4856SOL    HW226205   4.253   1.365   8.244 -1.1191  2.5695  0.5997
 4857SOL     OW26206   0.961   1.154   4.173 -0.6724 -0.2259  0.4222
 4857SOL    HW126207   0.899   1.110   4.232 -1.0642 -1.9139 -1.2742
 4857SOL    HW226208   1.027   1.191   4.231  1.0400 -0.4833 -1.3616
 4858SOL     OW26209   3.199   2.828   3.874 -0.2746  0.5475  0.0287
 4858SOL    HW126210   3.138   2.816   3.946 -0.9647 -0.1783 -0.6704
 4858SOL    HW226211   3.142   2.800   3.802  0.3475 -2.3433  0.6670
 4859SOL     OW26212   2.289   3.348   3.271 -0.0386  0.3122  0.3821
 4859SOL    HW126213   2.201   3.384   3.281 -0.7010 -1.9017  2.5494
 4859SOL    HW226214   2.298   3.388   3.185 -0.3883  1.1686  0.7336
 4860SOL     OW26215   1.736   0.610   4.519 -0.2342 -0.0127 -0.0878
 4860SOL    HW126216   1.690   0.637   4.599  2.3338 -2.1887  2.1180
 4860SOL    HW226217   1.805   0.552   4.552 -0.8898 -0.8518 -0.1949
 4861SOL     OW26218   2.123   3.120   6.071 -0.0185 -0.1467  0.1853
 4861SOL    HW126219   2.099   3.035   6.109  0.9922  0.1243  1.4150
 4861SOL    HW226220   2.144   3.088   5.983 -3.7527 -1.9193 -0.0542
 4862SOL     OW26221   1.003   2.866  14.968  0.5745  0.7093  0.0913
 4862SOL    HW126222   1.079   2.920  14.993  2.6727 -1.2012 -2.1494
 4862SOL    HW226223   0.950   2.912  15.032  1.4688  1.6148  0.1872
 4863SOL     OW26224   4.463   2.724   8.111  0.4694  0.2076 -0.4866
 4863SOL    HW126225   4.460   2.699   8.203  0.9136 -1.1898 -0.8488
 4863SOL    HW226226   4.545   2.774   8.105  1.3643 -1.0480  1.1545
 4864SOL     OW26227   0.634   0.330   3.556  0.6374 -0.1020 -0.5531
 4864SOL    HW126228   0.713   0.360   3.603  0.4304  1.1683 -1.0269
 4864SOL    HW226229   0.673   0.336   3.469 -0.0917  1.0138 -0.7996
 4865SOL     OW26230   2.845   0.063  12.098  0.3245  0.2795  0.2745
 4865SOL    HW126231   2.810   0.106  12.176 -1.0355 -0.6088  0.1456
 4865SOL    HW226232   2.849   4.714  12.132  0.8197  0.3334  0.3690
 4866SOL     OW26233   0.940   4.637   3.789  0.0543 -0.0646 -0.0597
 4866SOL    HW126234   0.990   4.667   3.865  2.0759 -0.7246 -1.1263
 4866SOL    HW226235   0.953   4.713   3.733  0.1023  1.2734  1.7512
 4867SOL     OW26236   2.803   0.817   7.978 -0.1724 -0.0871 -0.0439
 4867SOL    HW126237   2.829   0.762   8.051 -0.4007 -1.4568 -0.9926
 4867SOL    HW226238   2.871   0.883   7.985 -0.3268  0.1525 -0.7385
 4868SOL     OW26239   2.286   2.209   3.726  0.1472  0.6332  0.4066
 4868SOL    HW126240   2.293   2.133   3.784 -1.3109  0.7781  0.7566
 4868SOL    HW226241   2.326   2.173   3.647 -1.2666 -1.2859  0.5623
 4869SOL     OW26242   0.031   1.894   4.346  0.1277  0.5294  0.3833
 4869SOL    HW126243   4.697   1.904   4.405 -1.2061 -1.1910 -1.0001
 4869SOL    HW226244   0.025   1.799   4.331 -1.0028  0.4256  1.5369
 4870SOL     OW26245   0.235   1.481   2.651 -0.4386 -0.9131 -0.1417
 4870SOL    HW126246   0.283   1.405   2.619  0.3096  0.5815 -2.5726
 4870SOL    HW226247   0.214   1.523   2.567 -0.6722  1.2629  0.9838
 4871SOL     OW26248   2.454   0.820   2.489  0.6622 -0.1266  0.1500
 4871SOL    HW126249   2.479   0.906   2.455  0.3635 -0.6464 -1.4085
 4871SOL    HW226250   2.370   0.849   2.526  0.3052  2.3808 -2.5513
 4872SOL     OW26251   4.611   3.499   7.368  0.1367 -0.1428 -0.4639
 4872SOL    HW126252   4.525   3.520   7.331 -0.3840  0.4629  1.0839
 4872SOL    HW226253   4.611   3.547   7.451  1.5974 -0.0980 -0.5016
 4873SOL     OW26254   2.465   4.597  12.709 -0.0359 -0.7122 -0.1691
 4873SOL    HW126255   2.511   4.556  12.636 -0.5058  0.0216 -0.8831
 4873SOL    HW226256   2.378   4.588  12.670  0.3088 -0.0243 -1.0914
 4874SOL     OW26257   3.711   0.740   1.489  0.3397 -0.0906  0.0132
 4874SOL    HW126258   3.772   0.703   1.425 -1.4147 -1.7134 -0.7035
 4874SOL    HW226259   3.698   0.664   1.545 -0.3494 -1.1324 -1.5542
 4875SOL     OW26260   2.997   0.109   6.327 -0.0146  0.3498 -0.3764
 4875SOL    HW126261   3.029   0.193   6.360 -0.9265 -0.0947  1.6103
 4875SOL    HW226262   3.044   0.046   6.382 -1.3328 -0.5983 -0.3566
 4876SOL     OW26263   3.673   2.326   3.954 -0.5315  0.7987  0.0624
 4876SOL    HW126264   3.624   2.388   3.900 -1.5557 -0.6520 -0.6485
 4876SOL    HW226265   3.695   2.249   3.902  1.1796  1.0814  0.3724
 4877SOL     OW26266   2.823   1.067   2.013  0.3304  0.2883 -0.0184
 4877SOL    HW126267   2.870   1.062   1.929  2.3129 -1.0293  1.1689
 4877SOL    HW226268   2.832   0.973   2.030 -0.7926  0.5573  1.9863
 4878SOL     OW26269   0.242   3.306   2.984  0.2073 -0.3771 -0.3552
 4878SOL    HW126270   0.183   3.247   2.937  0.5451 -0.0873 -1.1367
 4878SOL    HW226271   0.212   3.284   3.072  1.2131 -0.5638 -0.0703
 4879SOL     OW26272   3.126   4.527  12.466 -0.2142 -0.6043  0.3053
 4879SOL    HW126273   3.163   4.551  12.551  1.0908  0.2727 -0.5299
 4879SOL    HW226274   3.127   4.608  12.416 -2.9922 -0.9726 -0.3781
 4880SOL     OW26275   0.603   3.630   1.913 -0.0999  0.1664 -0.0853
 4880SOL    HW126276   0.518   3.641   1.956  0.1183 -0.1691  0.4280
 4880SOL    HW226277   0.660   3.626   1.990  0.5383 -2.4495 -0.6839
 4881SOL     OW26278   4.191   2.860   6.737  0.2513 -0.3673  0.2377
 4881SOL    HW126279   4.123   2.926   6.749  1.3570  0.4751  1.9250
 4881SOL    HW226280   4.209   2.851   6.831 -0.3026  3.6229  0.7103
 4882SOL     OW26281   2.343   2.120   6.934 -0.4324 -0.3459 -0.2666
 4882SOL    HW126282   2.399   2.043   6.926  0.5446  0.6332 -2.9561
 4882SOL    HW226283   2.338   2.142   6.841 -0.7970 -1.0833 -0.4156
 4883SOL     OW26284   1.341   4.409   2.972  0.1498 -0.3294 -0.1103
 4883SOL    HW126285   1.419   4.372   2.933 -0.4720 -1.3279 -0.3999
 4883SOL    HW226286   1.367   4.474   3.037 -0.3952 -1.6538  1.4194
 4884SOL     OW26287   0.523   4.739  11.086  0.2758 -0.4561 -0.1510
 4884SOL    HW126288   0.543   4.662  11.139  0.7370 -0.3195 -0.1238
 4884SOL    HW226289   0.488   0.061  11.150  0.0631 -1.8955  1.1360
 4885SOL     OW26290   2.743   2.848   1.965  0.3239 -0.1881  0.3017
 4885SOL    HW126291   2.816   2.789   1.984  0.1292 -0.4404  0.2686
 4885SOL    HW226292   2.722   2.866   2.057 -1.8584  0.4212 -0.3099
 4886SOL     OW26293   3.094   2.720   4.116  0.2995 -0.2720 -0.2831
 4886SOL    HW126294   3.103   2.794   4.176  3.0913 -2.3419  1.8693
 4886SOL    HW226295   3.057   2.657   4.177 -2.0188  0.0193 -1.3751
 4887SOL     OW26296   0.064   0.386   0.978  0.6587 -0.0333  0.1266
 4887SOL    HW126297   0.012   0.327   1.032  0.1805  1.0212  0.8140
 4887SOL    HW226298   0.152   0.349   0.986  1.4495  1.4043 -2.0080
 4888SOL     OW26299   1.128   2.187   4.860 -0.0348  0.1228  0.7690
 4888SOL    HW126300   1.155   2.212   4.771 -3.1916 -1.7764 -0.7099
 4888SOL    HW226301   1.071   2.115   4.835 -0.0099 -0.0527  1.2151
 4889SOL     OW26302   4.646   2.570   8.811  0.6592  0.6048 -0.0844
 4889SOL    HW126303   4.578   2.505   8.794 -0.3819  1.6844 -0.0423
 4889SOL    HW226304   4.595   2.651   8.809  1.8776  1.3928  0.6515
 4890SOL     OW26305   1.100   3.841   0.625  0.2023  0.3305 -0.3013
 4890SOL    HW126306   1.019   3.791   0.623 -0.3959  1.4007 -3.0094
 4890SOL    HW226307   1.146   3.809   0.703 -0.6451 -1.3814 -0.5078
 4891SOL     OW26308   1.325   0.769   9.639 -0.4678  0.2285 -0.1553
 4891SOL    HW126309   1.340   0.783   9.733  1.6587 -0.6139 -0.3623
 4891SOL    HW226310   1.353   0.851   9.599 -0.8864  0.5740  0.2515
 4892SOL     OW26311   4.613   3.732   1.538  0.1427 -0.0966  0.4433
 4892SOL    HW126312   4.557   3.754   1.612 -1.5025 -3.2682  0.1657
 4892SOL    HW226313   4.690   3.691   1.576  0.6333 -0.9406 -1.4330
 4893SOL     OW26314   1.437   1.407   2.263 -0.0237  0.1275 -0.2427
 4893SOL    HW126315   1.389   1.325   2.259  1.4247 -0.7125 -0.3393
 4893SOL    HW226316   1.461   1.424   2.172 -2.4422  0.7431 -0.7689
 4894SOL     OW26317   0.360   0.443   3.607  0.3269 -0.0686 -0.3540
 4894SOL    HW126318   0.412   0.487   3.674  3.2072 -1.0126 -1.9622
 4894SOL    HW226319   0.430   0.426   3.543  0.8563  1.2278 -0.1261
 4895SOL     OW26320   0.584   4.139   3.211  0.1350  0.7902  0.0024
 4895SOL    HW126321   0.602   4.228   3.242  0.0418  1.0559 -0.7119
 4895SOL    HW226322   0.500   4.153   3.168  0.1725  2.3075  0.4366
 4896SOL     OW26323   1.773   3.945   5.665  0.5414 -0.6813  0.1527
 4896SOL    HW126324   1.820   3.862   5.662  1.4975 -0.1912  1.7553
 4896SOL    HW226325   1.819   4.001   5.727  0.3961  0.2159 -0.5417
 4897SOL     OW26326   1.316   0.042   4.454  0.0292  0.1946  0.0666
 4897SOL    HW126327   1.409   0.030   4.472 -0.0241 -1.5132 -0.7757
 4897SOL    HW226328   1.308   0.122   4.403  0.7817  1.5606  2.1033
 4898SOL     OW26329   0.570   0.048  17.010 -0.7866 -0.3430 -0.1038
 4898SOL    HW126330   0.478   0.026  17.021 -0.9928  1.2933  1.5130
 4898SOL    HW226331   0.551   0.142  17.007 -0.1620 -0.2304 -0.5457
 4899SOL     OW26332   0.362   4.271   4.462 -0.5170 -0.2719  0.1150
 4899SOL    HW126333   0.427   4.294   4.529 -0.8295  0.5670  0.1346
 4899SOL    HW226334   0.378   4.177   4.456  3.0571  0.3404 -0.0570
 4900SOL     OW26335   3.736   0.297   6.699 -0.0410 -0.0506 -0.0336
 4900SOL    HW126336   3.678   0.228   6.730  0.8775 -0.8193 -0.0119
 4900SOL    HW226337   3.755   0.271   6.609 -2.0574  2.2715 -1.1381
 4901SOL     OW26338   1.987   4.641   8.169  0.1933  0.2646 -0.1474
 4901SOL    HW126339   2.040   4.599   8.237 -0.0558  0.0411 -0.0927
 4901SOL    HW226340   1.946   4.715   8.214  0.5279  1.3915 -1.7299
 4902SOL     OW26341   1.458   1.952  13.743 -0.1394 -0.1815 -0.0731
 4902SOL    HW126342   1.389   1.897  13.707 -1.5885  0.1685  2.1702
 4902SOL    HW226343   1.410   1.986  13.818  0.0405 -2.0778  0.8995
 4903SOL     OW26344   0.985   3.603   6.629 -0.0406  0.5411  0.0999
 4903SOL    HW126345   0.895   3.570   6.627 -0.5091  1.9319 -1.8041
 4903SOL    HW226346   1.024   3.546   6.694 -0.1244 -1.1201 -1.3117
 4904SOL     OW26347   2.903   3.111   2.188 -0.3594 -0.1196  0.4668
 4904SOL    HW126348   2.810   3.126   2.206 -0.4601  0.0965 -0.2023
 4904SOL    HW226349   2.942   3.178   2.243 -1.0534 -0.1071  0.9418
 4905SOL     OW26350   0.104   3.726   5.737  0.3314  0.6928 -0.0457
 4905SOL    HW126351   0.057   3.790   5.789 -0.7271 -0.0702 -0.0532
 4905SOL    HW226352   0.101   3.773   5.654 -1.8209 -2.0489 -1.5525
 4906SOL     OW26353   0.950   1.428   7.111  0.2911 -0.0039  0.2237
 4906SOL    HW126354   0.989   1.391   7.031  1.1002  1.4615 -0.0505
 4906SOL    HW226355   1.028   1.467   7.151 -0.6473 -0.0809  2.0951
 4907SOL     OW26356   2.379   0.075  13.634  0.1821  0.1132  0.0215
 4907SOL    HW126357   2.291   0.083  13.599  1.4054 -0.8122 -3.2053
 4907SOL    HW226358   2.356   0.094  13.726  1.3411 -2.2902  0.8069
 4908SOL     OW26359   4.365   0.130  14.698  0.1883 -0.8518  0.0761
 4908SOL    HW126360   4.322   0.054  14.737  0.4716 -0.5528  0.9763
 4908SOL    HW226361   4.453   0.125  14.735 -0.0174 -0.9319  0.5473
 4909SOL     OW26362   2.603   2.473   7.388  0.7132  0.0132  0.2608
 4909SOL    HW126363   2.565   2.402   7.336 -0.0925 -0.2604  1.2257
 4909SOL    HW226364   2.667   2.505   7.324  1.7896 -1.1986  0.7442
 4910SOL     OW26365   0.558   4.358   4.674 -0.2758 -0.0470 -0.3122
 4910SOL    HW126366   0.645   4.397   4.671 -0.5738  0.6768  0.2528
 4910SOL    HW226367   0.558   4.317   4.761 -0.1170 -2.0416 -1.2590
 4911SOL     OW26368   0.419   2.730  10.549 -0.3811  0.1891 -0.1315
 4911SOL    HW126369   0.506   2.712  10.587 -0.6185  0.4480  0.5410
 4911SOL    HW226370   0.391   2.808  10.597 -0.6840  0.5634 -0.9192
 4912SOL     OW26371   3.466   1.685   3.898  0.4415 -0.0503  0.3312
 4912SOL    HW126372   3.420   1.768   3.904  3.5040  1.6630  0.1054
 4912SOL    HW226373   3.557   1.713   3.886  0.4569 -0.4202 -0.4060
 4913SOL     OW26374   1.987   0.709  11.201  0.1274 -0.4860  0.7358
 4913SOL    HW126375   1.919   0.680  11.261 -0.7140  1.2624  0.6130
 4913SOL    HW226376   1.994   0.804  11.202 -0.6242 -0.3872 -1.9846
 4914SOL     OW26377   4.415   0.550   3.460  0.0332 -0.0285 -0.0294
 4914SOL    HW126378   4.430   0.605   3.537  1.7210  0.1336 -0.4717
 4914SOL    HW226379   4.425   0.615   3.390 -1.0854  0.6234  0.4117
 4915SOL     OW26380   2.327   3.423   3.515 -0.1226 -0.2214  0.6132
 4915SOL    HW126381   2.339   3.407   3.422 -1.6164 -0.0163  0.3868
 4915SOL    HW226382   2.255   3.361   3.531 -0.2554 -0.7421 -2.0998
 4916SOL     OW26383   1.758   1.567  10.906  0.3133 -0.4665 -0.8497
 4916SOL    HW126384   1.851   1.545  10.896  0.7570  0.3880  1.5446
 4916SOL    HW226385   1.747   1.566  11.001 -0.4794  0.0374 -0.9424
 4917SOL     OW26386   2.342   3.589   8.957 -0.4550  0.4522  0.3180
 4917SOL    HW126387   2.327   3.648   8.883 -3.7887  0.5387  1.0582
 4917SOL    HW226388   2.307   3.647   9.025 -1.0646 -0.9942  1.2383
 4918SOL     OW26389   1.602   0.794   4.330 -0.2973 -0.1468  0.1045
 4918SOL    HW126390   1.549   0.755   4.260 -1.2443 -0.7343  1.1452
 4918SOL    HW226391   1.641   0.725   4.382  1.0866 -0.1276 -0.9213
 4919SOL     OW26392   4.323   2.224  10.361  0.1120  0.1761 -0.4923
 4919SOL    HW126393   4.306   2.208  10.269 -0.8539 -1.3505 -0.0574
 4919SOL    HW226394   4.417   2.204  10.362 -0.4789 -2.5376  1.3389
 4920SOL     OW26395   0.836   3.389   2.316 -0.5160  0.2409 -0.4031
 4920SOL    HW126396   0.803   3.399   2.405  2.1953  0.6587  0.5416
 4920SOL    HW226397   0.847   3.295   2.328 -0.2910  0.3526  0.2441
 4921SOL     OW26398   3.398   3.441   6.208 -0.0891  0.3608 -0.5569
 4921SOL    HW126399   3.457   3.495   6.156  2.0680 -0.8049  0.6611
 4921SOL    HW226400   3.342   3.429   6.132 -0.0466  2.9239 -1.0107
 4922SOL     OW26401   3.063   1.853   6.304 -0.4269 -0.0674  0.2698
 4922SOL    HW126402   2.983   1.802   6.314  1.1504 -2.9195 -1.4586
 4922SOL    HW226403   3.064   1.876   6.212  0.7219 -0.0700  0.2727
 4923SOL     OW26404   3.881   4.344  11.252  0.5171  0.1963  0.0820
 4923SOL    HW126405   3.960   4.289  11.257 -0.4822 -1.3432 -1.1219
 4923SOL    HW226406   3.929   4.424  11.275  1.6164 -0.3941 -0.1406
 4924SOL     OW26407   1.279   2.498   2.031  0.2684  0.1557  0.0615
 4924SOL    HW126408   1.346   2.491   2.099 -0.0360  0.1110  0.3564
 4924SOL    HW226409   1.263   2.592   2.027 -0.4570  0.0124 -0.3650
 4925SOL     OW26410   4.335   1.955  12.108  0.0734  0.0319  0.2686
 4925SOL    HW126411   4.370   1.964  12.020 -1.4839 -0.6875 -0.4209
 4925SOL    HW226412   4.399   2.003  12.161  0.6244 -0.9349  0.4853
 4926SOL     OW26413   3.375   0.819  11.973  0.4036 -0.2356  0.0772
 4926SOL    HW126414   3.301   0.785  12.023  0.0315  0.1641 -0.2001
 4926SOL    HW226415   3.381   0.908  12.007  1.1286  0.1277 -1.0092
 4927SOL     OW26416   0.538   1.509   2.945  0.1442  0.1865 -0.3113
 4927SOL    HW126417   0.446   1.534   2.949 -0.3440 -1.6582 -0.5123
 4927SOL    HW226418   0.549   1.503   2.850  0.8492  0.0697 -0.2236
 4928SOL     OW26419   2.123   0.766  12.825 -0.4238 -0.3237 -0.2329
 4928SOL    HW126420   2.028   0.777  12.819 -0.0731  2.2645 -1.3758
 4928SOL    HW226421   2.133   0.718  12.907 -0.1112  4.2883  2.4222
 4929SOL     OW26422   1.902   0.769   4.296  0.2424 -0.3095  0.2157
 4929SOL    HW126423   1.882   0.690   4.346 -0.2746  0.2263  0.8612
 4929SOL    HW226424   1.814   0.807   4.291  0.6071  0.8020  2.1719
 4930SOL     OW26425   2.758   0.187   5.794  0.2833  0.2287  0.1718
 4930SOL    HW126426   2.829   0.139   5.751  0.1523  0.0406  0.1672
 4930SOL    HW226427   2.724   0.246   5.727 -3.6422 -2.6070 -0.3319
 4931SOL     OW26428   0.135   4.406   2.143  0.5013 -0.2946 -0.3594
 4931SOL    HW126429   0.203   4.452   2.094  0.4991  1.1731  1.0039
 4931SOL    HW226430   0.159   4.449   2.225 -4.4673 -0.9211  1.4112
 4932SOL     OW26431   0.314   1.536  14.429 -0.2264 -0.0898  0.0819
 4932SOL    HW126432   0.315   1.445  14.462 -0.0312  0.0165  0.3707
 4932SOL    HW226433   0.363   1.582  14.497 -2.8107 -0.7075  2.3748
 4933SOL     OW26434   2.132   4.095   1.874 -0.2042 -0.3909  0.2481
 4933SOL    HW126435   2.100   4.015   1.915 -0.1610 -0.6563 -0.2278
 4933SOL    HW226436   2.110   4.162   1.938 -0.9959 -2.4155  2.1232
 4934SOL     OW26437   0.101   2.066   8.648  0.0144  0.3846  0.6580
 4934SOL    HW126438   0.184   2.020   8.639 -0.8487 -1.3833  1.8341
 4934SOL    HW226439   0.074   2.057   8.739 -0.4980  0.2672  0.4995
 4935SOL     OW26440   4.608   1.836   5.356  0.0091  0.1164  0.2838
 4935SOL    HW126441   4.639   1.786   5.432 -0.3256  0.5050  0.6759
 4935SOL    HW226442   4.647   1.789   5.282 -1.5095  1.3435 -1.2838
 4936SOL     OW26443   4.251   1.132   7.529 -0.2071  0.2236  0.5523
 4936SOL    HW126444   4.188   1.203   7.526  2.0275  2.1949 -0.0428
 4936SOL    HW226445   4.251   1.099   7.439  0.1672  2.0197 -0.1019
 4937SOL     OW26446   3.004   0.618   1.808  0.5536  0.2037 -0.4843
 4937SOL    HW126447   3.086   0.603   1.855  0.5856  1.1675 -0.2447
 4937SOL    HW226448   2.944   0.660   1.869 -0.2005  0.5737 -1.4829
 4938SOL     OW26449   3.984   0.481   3.338  0.1333  0.4638 -0.5490
 4938SOL    HW126450   4.064   0.431   3.323 -0.6560 -1.8469  2.8582
 4938SOL    HW226451   3.979   0.499   3.432  1.6398 -0.9490 -0.1932
 4939SOL     OW26452   3.750   2.900   2.979  0.3233 -0.3994 -0.5327
 4939SOL    HW126453   3.772   2.816   3.020  1.3381 -0.8324 -1.9731
 4939SOL    HW226454   3.668   2.880   2.934  0.2334  1.4630 -1.2162
 4940SOL     OW26455   1.122   2.104   3.194  0.3963 -0.0943  0.6238
 4940SOL    HW126456   1.047   2.074   3.144  0.8573  2.5655 -1.6169
 4940SOL    HW226457   1.196   2.085   3.136  0.5939  1.8745  0.2217
 4941SOL     OW26458   4.522   0.321   3.399  0.0256  0.0935 -0.6925
 4941SOL    HW126459   4.481   0.407   3.407 -2.8334 -1.3568  0.2928
 4941SOL    HW226460   4.522   0.311   3.495  0.8736  3.0576 -0.3738
 4942SOL     OW26461   0.041   3.102   5.214 -0.1732  0.1923 -0.5569
 4942SOL    HW126462   4.718   3.059   5.156 -0.7190  1.2130 -0.7147
 4942SOL    HW226463   0.083   3.023   5.248 -0.7919  1.2493  2.5847
 4943SOL     OW26464   2.135   3.240   4.853  0.0112  0.2351  0.1506
 4943SOL    HW126465   2.194   3.304   4.814 -1.0175  0.2338 -1.3789
 4943SOL    HW226466   2.064   3.303   4.864  1.7656  1.7855  2.5057
 4944SOL     OW26467   0.752   1.967   0.741  0.3494 -0.8949 -0.0553
 4944SOL    HW126468   0.700   2.009   0.672 -0.3070  1.1021  1.6392
 4944SOL    HW226469   0.758   2.041   0.802  1.1292 -0.4790 -0.6455
 4945SOL     OW26470   3.458   3.750  12.534  0.3517  0.5229 -0.0272
 4945SOL    HW126471   3.545   3.770  12.569  0.0027  1.0127  0.5563
 4945SOL    HW226472   3.458   3.772  12.441 -1.0641 -2.7862 -0.8053
 4946SOL     OW26473   2.523   3.099   9.515  0.2945  0.2554 -0.1646
 4946SOL    HW126474   2.476   3.182   9.530 -0.7265 -0.7711  2.2393
 4946SOL    HW226475   2.587   3.123   9.448  1.1297 -2.2108 -0.2370
 4947SOL     OW26476   0.078   3.174  13.864 -0.4851 -0.2452 -0.3784
 4947SOL    HW126477   4.736   3.204  13.826 -0.4900 -0.3449 -0.4489
 4947SOL    HW226478   0.060   3.080  13.868  1.0014 -0.4506  1.3958
 4948SOL     OW26479   0.646   0.499   9.331 -0.3327  0.1866 -0.4489
 4948SOL    HW126480   0.729   0.469   9.296 -1.5260 -2.6044 -0.9075
 4948SOL    HW226481   0.613   0.537   9.250 -0.4386  2.0405  0.4528
 4949SOL     OW26482   3.599   1.446   1.877 -0.1618  0.1035 -0.3849
 4949SOL    HW126483   3.584   1.364   1.830  0.2371  1.0947 -2.2652
 4949SOL    HW226484   3.540   1.426   1.949 -1.0790 -1.4456 -1.5667
 4950SOL     OW26485   2.181   1.534  16.385  0.2582 -0.0997 -0.4765
 4950SOL    HW126486   2.129   1.608  16.355 -1.0297 -1.2453 -1.0842
 4950SOL    HW226487   2.260   1.585  16.403  0.6115 -1.0066  0.5400
 4951SOL     OW26488   1.552   2.352  13.099  0.1994  0.1177  0.3441
 4951SOL    HW126489   1.505   2.354  13.182 -0.6657 -0.3509 -0.1370
 4951SOL    HW226490   1.475   2.350  13.042 -0.3932 -1.2068  1.1818
 4952SOL     OW26491   1.715   1.060   1.678  0.3293 -0.0386  0.3792
 4952SOL    HW126492   1.748   1.039   1.591 -2.3318  0.8651 -0.8274
 4952SOL    HW226493   1.742   0.978   1.720  0.6969 -0.9041 -1.5483
 4953SOL     OW26494   3.832   1.258   3.670  0.0151  0.0292  0.5953
 4953SOL    HW126495   3.871   1.175   3.697  1.9872  0.7394 -0.0856
 4953SOL    HW226496   3.783   1.237   3.590 -0.6870 -3.4487  1.9123
 4954SOL     OW26497   0.436   4.297  17.749 -0.3191 -0.2878 -0.1463
 4954SOL    HW126498   0.359   4.353   0.002  0.8245  1.3474 -0.4016
 4954SOL    HW226499   0.475   4.325   0.074 -0.4552 -1.9123  0.4683
 4955SOL     OW26500   2.768   2.881   9.390 -0.2145 -0.3523 -0.3000
 4955SOL    HW126501   2.807   2.796   9.409  3.3277  1.1417 -0.8579
 4955SOL    HW226502   2.792   2.917   9.475  0.5885 -1.1550 -0.1841
 4956SOL     OW26503   0.999   2.150   2.793 -0.4067 -0.0282 -0.0889
 4956SOL    HW126504   0.908   2.146   2.763 -0.0959 -0.9600 -0.9332
 4956SOL    HW226505   1.039   2.093   2.727 -1.2529  0.8125 -1.3278
 4957SOL     OW26506   0.088   0.475   7.997 -0.7914 -0.5339  0.4096
 4957SOL    HW126507   0.127   0.467   8.084  1.7438  1.9319 -0.4888
 4957SOL    HW226508   0.139   0.549   7.963 -2.0217 -0.1545 -0.6092
 4958SOL     OW26509   0.545   1.005   6.550  0.6430  0.6077 -0.0814
 4958SOL    HW126510   0.584   0.945   6.486  1.5131 -1.5945  2.5007
 4958SOL    HW226511   0.622   1.022   6.604 -0.2383 -1.1031  1.7146
 4959SOL     OW26512   3.535   2.745   6.190 -0.0876  0.0669 -0.3357
 4959SOL    HW126513   3.575   2.665   6.157 -0.8412 -0.1140 -0.8067
 4959SOL    HW226514   3.618   2.779   6.221  0.0175 -0.7018  0.2287
 4960SOL     OW26515   1.320   4.075   2.835  0.1967 -0.4349  0.8439
 4960SOL    HW126516   1.346   4.000   2.889  4.6148  0.0761 -0.6433
 4960SOL    HW226517   1.396   4.132   2.844  0.0078  0.0795 -0.8742
 4961SOL     OW26518   3.697   1.889   7.777  0.5052  0.0662  0.4385
 4961SOL    HW126519   3.648   1.866   7.856  1.0470  0.7376  0.9743
 4961SOL    HW226520   3.788   1.862   7.790  0.9699  1.4303  0.0893
 4962SOL     OW26521   2.969   1.098   8.773  0.1099 -0.2337 -0.6463
 4962SOL    HW126522   3.018   1.024   8.737 -1.0586 -0.6550 -1.3763
 4962SOL    HW226523   2.968   1.158   8.698  2.3123  0.0461 -0.4650
 4963SOL     OW26524   3.211   2.920   5.098 -0.0227 -0.0693 -0.0717
 4963SOL    HW126525   3.205   3.003   5.051 -2.9417  0.4119  1.1464
 4963SOL    HW226526   3.171   2.859   5.037 -0.9953  0.3244  0.1813
 4964SOL     OW26527   2.838   0.487   4.826  0.6682 -0.4742 -0.1217
 4964SOL    HW126528   2.776   0.495   4.898  1.4476  1.0728  0.3685
 4964SOL    HW226529   2.920   0.464   4.870  0.5598  0.4188  0.5496
 4965SOL     OW26530   0.770   3.270  15.219 -0.1620 -0.1020  0.5340
 4965SOL    HW126531   0.758   3.327  15.294  0.7791 -1.1314  1.4681
 4965SOL    HW226532   0.699   3.300  15.161  1.5534 -0.0085 -1.5097
 4966SOL     OW26533   4.709   0.214   1.178 -0.3658 -0.0220  0.7041
 4966SOL    HW126534   0.007   0.131   1.207  1.1161  0.4913  0.2399
 4966SOL    HW226535   4.649   0.176   1.114  0.9961  2.4438 -1.9850
 4967SOL     OW26536   0.742   0.568   6.903 -0.6409 -0.0685  0.2491
 4967SOL    HW126537   0.725   0.516   6.981 -0.4581  1.3499  1.2413
 4967SOL    HW226538   0.666   0.626   6.904 -0.2476  0.4228  1.4702
 4968SOL     OW26539   2.089   0.805   5.947  0.4475  0.7300  0.3476
 4968SOL    HW126540   2.151   0.794   6.019 -1.1920 -0.9807  1.5105
 4968SOL    HW226541   2.104   0.729   5.891 -1.0022  0.1459  0.7537
 4969SOL     OW26542   2.734   0.047   6.340  0.1973  0.0822 -0.3738
 4969SOL    HW126543   2.730   4.720   6.272  1.4225 -1.8246  1.4361
 4969SOL    HW226544   2.825   0.076   6.329 -0.2879  1.6153 -0.3287
 4970SOL     OW26545   0.682   4.660   8.723  0.2953  0.1996 -0.2062
 4970SOL    HW126546   0.754   4.619   8.771 -1.7765  0.1030  2.7730
 4970SOL    HW226547   0.612   4.657   8.788 -1.1589 -0.9967 -1.8337
 4971SOL     OW26548   2.050   1.989   9.938  0.6433  0.0927 -0.5057
 4971SOL    HW126549   2.117   2.031   9.884  1.0255  0.8475  0.5519
 4971SOL    HW226550   2.056   1.902   9.898  0.3274 -0.2303  0.1446
 4972SOL     OW26551   3.400   0.933   9.801 -0.7737  0.2386 -0.0438
 4972SOL    HW126552   3.353   0.894   9.874 -0.6686 -1.2338 -0.7631
 4972SOL    HW226553   3.471   0.980   9.845  0.9579 -1.1171 -1.3607
 4973SOL     OW26554   0.312   0.323   0.288 -0.0454 -0.2618 -0.0111
 4973SOL    HW126555   0.356   0.248   0.329 -0.7769 -1.8748 -2.1841
 4973SOL    HW226556   0.240   0.276   0.247 -0.6357  0.7351 -0.0969
 4974SOL     OW26557   1.897   0.314   7.276  0.2429 -0.7418  0.1665
 4974SOL    HW126558   1.982   0.341   7.243 -0.2038 -1.0319 -1.2314
 4974SOL    HW226559   1.838   0.362   7.218 -0.2063 -1.2130  0.2292
 4975SOL     OW26560   4.363   0.613   0.996 -0.2180 -0.2624  0.1782
 4975SOL    HW126561   4.342   0.530   1.040  0.0968 -0.1913  0.4597
 4975SOL    HW226562   4.448   0.586   0.963  0.1614 -0.2061  1.1240
 4976SOL     OW26563   2.640   3.690  16.385  0.4459 -0.8137 -0.0699
 4976SOL    HW126564   2.557   3.732  16.407  0.5981  1.3196 -3.5249
 4976SOL    HW226565   2.624   3.600  16.413  0.0259 -0.6337  0.2661
 4977SOL     OW26566   1.834   3.679   1.966  0.6541  0.3408  0.1013
 4977SOL    HW126567   1.769   3.644   1.906  0.4625  1.1494 -0.1635
 4977SOL    HW226568   1.811   3.635   2.048  1.6560 -0.1877  0.0987
 4978SOL     OW26569   3.085   1.649   8.844  0.0091  0.0444 -0.3412
 4978SOL    HW126570   3.005   1.639   8.794  0.7918 -1.6675 -1.2719
 4978SOL    HW226571   3.108   1.557   8.859 -0.0728  0.4818  2.4124
 4979SOL     OW26572   4.441   1.951  10.580  0.2464 -0.3669 -0.1932
 4979SOL    HW126573   4.532   1.979  10.571  0.3758 -1.0348 -1.0213
 4979SOL    HW226574   4.403   1.980  10.663  1.5950 -2.2945  1.0941
 4980SOL     OW26575   3.520   2.086   9.111 -0.0159 -0.4532  0.5558
 4980SOL    HW126576   3.508   2.005   9.161  0.3238 -1.5131 -1.0767
 4980SOL    HW226577   3.431   2.122   9.112 -1.1957 -3.3394 -0.2792
 4981SOL     OW26578   2.070   4.406   2.906 -0.3163  0.1205 -0.0002
 4981SOL    HW126579   2.038   4.335   2.962 -0.1152  0.2543  0.2852
 4981SOL    HW226580   2.052   4.481   2.964 -1.1274 -0.0909  0.0098
 4982SOL     OW26581   3.172   3.675   1.918  0.0072  0.2203 -0.0419
 4982SOL    HW126582   3.079   3.685   1.937  0.2321 -1.8478  2.0938
 4982SOL    HW226583   3.170   3.619   1.840  1.6735  0.6648 -0.4029
 4983SOL     OW26584   1.730   3.742   8.281 -0.4334  0.2170  0.0380
 4983SOL    HW126585   1.647   3.697   8.295  0.6553 -1.1919  1.9987
 4983SOL    HW226586   1.777   3.701   8.209  0.0932  1.0251 -0.0728
 4984SOL     OW26587   1.358   3.561   3.206 -0.3869  0.1843  0.0890
 4984SOL    HW126588   1.395   3.646   3.185 -0.8355 -0.1625 -2.1422
 4984SOL    HW226589   1.349   3.519   3.121  2.6143  2.0113 -1.1035
 4985SOL     OW26590   0.497   0.524   7.493 -0.1192  0.2858 -0.0966
 4985SOL    HW126591   0.508   0.443   7.543 -0.2590  1.3565  1.6577
 4985SOL    HW226592   0.418   0.561   7.532 -1.4684 -1.1940 -1.3925
 4986SOL     OW26593   2.895   2.386  13.547 -0.0425 -0.5722 -0.4958
 4986SOL    HW126594   2.962   2.335  13.503 -1.9603 -1.7924 -1.9866
 4986SOL    HW226595   2.832   2.323  13.581  0.3237 -1.3195 -1.2201
 4987SOL     OW26596   4.718   2.001  13.336 -0.3031 -0.0931 -0.5016
 4987SOL    HW126597   0.010   2.078  13.382  0.6788  0.1945 -1.6584
 4987SOL    HW226598   0.034   1.997  13.258  0.8114  0.4042  0.2829
 4988SOL     OW26599   1.474   0.744  17.495 -0.3549  0.0956  0.3162
 4988SOL    HW126600   1.426   0.683  17.438  3.4670 -0.5838 -2.2053
 4988SOL    HW226601   1.549   0.700  17.535 -0.9653  1.1629  2.6126
 4989SOL     OW26602   1.276   1.407   7.231  0.5524 -0.1505  0.2366
 4989SOL    HW126603   1.268   1.365   7.316  1.1469 -1.5724 -0.4057
 4989SOL    HW226604   1.230   1.491   7.241  1.1760 -0.1272  2.7199
 4990SOL     OW26605   2.285   1.775  10.337  0.1439 -0.8080  0.1964
 4990SOL    HW126606   2.284   1.725  10.418  0.5591  2.0485  1.9283
 4990SOL    HW226607   2.349   1.841  10.361 -2.3673  1.9319 -0.6402
 4991SOL     OW26608   2.063   2.472  15.361 -0.0143  0.2391  0.4208
 4991SOL    HW126609   1.974   2.486  15.393  0.9080  0.4490  2.9685
 4991SOL    HW226610   2.096   2.403  15.419 -1.9568 -0.7522  0.3227
 4992SOL     OW26611   1.109   0.739   6.102 -0.0731 -0.3178 -0.3398
 4992SOL    HW126612   1.077   0.728   6.192 -3.3173  1.2403 -1.2849
 4992SOL    HW226613   1.041   0.726   6.036 -0.8952 -1.2347  0.6723
 4993SOL     OW26614   2.520   1.971   8.230 -0.2272  0.2842 -0.6880
 4993SOL    HW126615   2.549   1.886   8.195 -0.3194  1.3423 -3.3693
 4993SOL    HW226616   2.485   1.949   8.316 -1.1047  0.2221 -1.0586
 4994SOL     OW26617   2.696   4.344   9.229  0.0689 -0.4489  0.3337
 4994SOL    HW126618   2.644   4.422   9.208 -0.3120 -1.4158 -2.3680
 4994SOL    HW226619   2.734   4.363   9.315  0.8134  2.7186 -0.6981
 4995SOL     OW26620   3.845   2.549   7.218  0.2454  0.0556 -0.2405
 4995SOL    HW126621   3.772   2.580   7.272  0.4809 -2.4263  1.5174
 4995SOL    HW226622   3.833   2.454   7.215  2.8431 -0.2505 -1.2600
 4996SOL     OW26623   3.166   4.340   0.426  0.4837  0.2035  0.2754
 4996SOL    HW126624   3.175   4.372   0.336 -2.7020  1.4070  0.3742
 4996SOL    HW226625   3.108   4.404   0.469  0.2980  0.9937 -1.1306
 4997SOL     OW26626   3.789   3.884  13.480  0.2447  0.1069  0.3886
 4997SOL    HW126627   3.694   3.897  13.482  0.1621 -0.4667 -0.0456
 4997SOL    HW226628   3.796   3.793  13.508 -1.7230 -0.2636 -0.3461
 4998SOL     OW26629   1.754   4.131   4.420 -0.1221 -0.5130 -0.0185
 4998SOL    HW126630   1.663   4.161   4.419 -0.1652 -0.6686 -0.6134
 4998SOL    HW226631   1.750   4.054   4.364  1.3449  0.5136 -1.5617
 4999SOL     OW26632   0.598   1.738   4.782  0.2674  0.5050  0.0162
 4999SOL    HW126633   0.560   1.808   4.729  0.3085  0.4290 -0.1158
 4999SOL    HW226634   0.599   1.667   4.718  0.3067  0.4302  0.1004
 5000SOL     OW26635   0.546   1.139   3.917 -0.2592  0.3255  0.0570
 5000SOL    HW126636   0.548   1.050   3.881 -1.0676  0.4530 -0.3149
 5000SOL    HW226637   0.632   1.178   3.906 -0.5291  1.5201  2.2459
 5001SOL     OW26638   1.285   3.460  13.632  0.4710 -0.2929 -0.0512
 5001SOL    HW126639   1.260   3.426  13.719 -1.9075 -2.0932 -1.4378
 5001SOL    HW226640   1.377   3.439  13.618  1.0665  1.9101  0.6343
 5002SOL     OW26641   2.366   0.501   3.529  0.2058  0.0459  0.5652
 5002SOL    HW126642   2.364   0.575   3.468  0.5347  0.3827  0.9597
 5002SOL    HW226643   2.457   0.490   3.557  0.1539  0.0164  0.7207
 5003SOL     OW26644   3.044   0.821  10.529 -0.1625 -0.3240  0.3017
 5003SOL    HW126645   3.123   0.862  10.496 -0.0356 -0.9360 -0.1701
 5003SOL    HW226646   3.068   0.788  10.615 -2.1037  1.5791  1.5650
 5004SOL     OW26647   2.211   2.574   7.070 -0.1660  0.7709 -0.1680
 5004SOL    HW126648   2.159   2.534   7.000 -0.3370  2.0857 -0.7899
 5004SOL    HW226649   2.145   2.620   7.122  0.0094 -0.2272  0.9388
 5005SOL     OW26650   0.027   4.148   5.758  0.4138  0.5003  0.1605
 5005SOL    HW126651   0.122   4.151   5.757  0.4784 -2.1865  0.1635
 5005SOL    HW226652   0.016   4.137   5.663 -1.6382 -1.0572  0.5783
 5006SOL     OW26653   2.388   3.789   8.722  0.1481  0.3037 -0.0457
 5006SOL    HW126654   2.333   3.747   8.655  1.4305 -1.0808 -0.2450
 5006SOL    HW226655   2.472   3.771   8.681  0.6961 -1.0773  1.6827
 5007SOL     OW26656   3.849   4.165   7.892 -0.0814 -0.3320 -0.2916
 5007SOL    HW126657   3.833   4.241   7.836 -0.1546  1.4715  2.2192
 5007SOL    HW226658   3.931   4.125   7.862 -0.7798 -0.0356 -2.6541
 5008SOL     OW26659   0.603   2.180   2.230 -0.2120 -0.4559  0.1901
 5008SOL    HW126660   0.577   2.186   2.321  0.1973  0.6623  0.2286
 5008SOL    HW226661   0.661   2.104   2.225  1.3205  0.7571 -0.3520
 5009SOL     OW26662   0.309   0.873   8.121 -0.5504  0.0462  0.2283
 5009SOL    HW126663   0.278   0.874   8.212  0.1107  0.0753  0.4565
 5009SOL    HW226664   0.255   0.946   8.090 -1.6380 -0.7974  0.1245
 5010SOL     OW26665   2.750   3.976   2.524  0.3008  0.1769  0.0894
 5010SOL    HW126666   2.781   4.020   2.603 -0.1131 -1.5185  1.2073
 5010SOL    HW226667   2.697   4.046   2.486  0.3461  0.4165  0.4676
 5011SOL     OW26668   0.211   2.118   2.478  0.0810 -0.2994  0.2688
 5011SOL    HW126669   0.144   2.050   2.488  0.6303 -0.8150  0.4703
 5011SOL    HW226670   0.155   2.187   2.443  1.4834 -0.0652 -1.5651
 5012SOL     OW26671   3.899   0.854  11.925 -0.4390  0.3458  0.3317
 5012SOL    HW126672   3.854   0.853  11.840 -0.5064  0.2880  0.3678
 5012SOL    HW226673   3.903   0.761  11.945  0.5569 -0.3585 -3.0870
 5013SOL     OW26674   0.006   2.980   6.872 -0.4368 -0.3030 -0.5905
 5013SOL    HW126675   4.681   3.050   6.865  0.6305  0.8179  0.6400
 5013SOL    HW226676   0.078   3.013   6.926 -0.7110  0.3734 -0.6449
 5014SOL     OW26677   1.790   2.449   8.397 -0.5565 -0.1295 -0.1971
 5014SOL    HW126678   1.759   2.455   8.487  0.5071 -0.1466  0.1746
 5014SOL    HW226679   1.751   2.369   8.364  2.7728 -1.7495 -0.2089
 5015SOL     OW26680   4.548   1.288   3.289 -0.4530  0.0449  0.3179
 5015SOL    HW126681   4.558   1.315   3.381  0.8973  1.1765 -0.1544
 5015SOL    HW226682   4.475   1.341   3.259  1.2057  1.9040 -0.4732
 5016SOL     OW26683   3.992   4.293   6.794  0.6436  0.2820  0.5164
 5016SOL    HW126684   3.957   4.218   6.746  3.0241 -1.4819  1.5513
 5016SOL    HW226685   3.907   4.337   6.806 -0.4818 -2.7779  3.7892
 5017SOL     OW26686   0.603   3.463   9.762  0.3607  0.3924  0.9978
 5017SOL    HW126687   0.667   3.393   9.770 -0.0187 -0.1309 -0.4757
 5017SOL    HW226688   0.556   3.460   9.845 -2.2101  1.9409 -0.3979
 5018SOL     OW26689   4.636   2.041  16.833 -0.6454  0.2389  0.0743
 5018SOL    HW126690   4.618   2.105  16.765  0.3819  0.4903  0.0336
 5018SOL    HW226691   4.731   2.050  16.834 -0.6183  0.0504 -2.4837
 5019SOL     OW26692   1.474   3.737  11.406 -0.0403 -0.4046 -0.3403
 5019SOL    HW126693   1.500   3.786  11.484 -1.7937 -1.4154  0.8989
 5019SOL    HW226694   1.555   3.686  11.409  0.9046  1.0231 -1.7920
 5020SOL     OW26695   0.301   4.080  14.759 -0.3492 -0.4447  0.4470
 5020SOL    HW126696   0.336   4.133  14.687  0.4263  2.5855  3.0036
 5020SOL    HW226697   0.207   4.097  14.755 -0.6129 -2.1056 -0.0928
 5021SOL     OW26698   1.024   2.576   6.911  0.2199  0.1713  0.1741
 5021SOL    HW126699   0.972   2.636   6.965 -1.2576 -1.8447  0.9803
 5021SOL    HW226700   1.068   2.638   6.852 -0.1661 -1.4596 -1.8297
 5022SOL     OW26701   1.287   4.595   6.932 -0.1952  0.1595  0.3403
 5022SOL    HW126702   1.278   4.673   6.987 -0.5568 -1.8684  3.1668
 5022SOL    HW226703   1.379   4.596   6.909 -0.1794  1.1107  0.4368
 5023SOL     OW26704   0.268   4.390   8.133  0.0348  0.0714 -0.0081
 5023SOL    HW126705   0.316   4.470   8.111  0.6956 -0.7458 -1.5694
 5023SOL    HW226706   0.237   4.417   8.219 -1.5442  0.7075 -0.7834
 5024SOL     OW26707   1.405   1.159   6.377  0.4463  0.5189  0.3847
 5024SOL    HW126708   1.462   1.219   6.425 -0.6264  1.2036  0.8285
 5024SOL    HW226709   1.439   1.074   6.406 -1.0188 -0.8301 -1.8524
 5025SOL     OW26710   4.688   1.880  12.787  0.2012 -0.2188 -0.3601
 5025SOL    HW126711   0.031   1.855  12.747  1.5400  0.2069  2.1204
 5025SOL    HW226712   4.677   1.968  12.752  0.4276 -0.6032 -1.3845
 5026SOL     OW26713   1.159   3.122   6.492  0.2990 -0.1181 -0.1433
 5026SOL    HW126714   1.182   3.212   6.472 -0.2048  0.5230  2.1538
 5026SOL    HW226715   1.186   3.116   6.584  0.8820 -1.7506 -0.4058
 5027SOL     OW26716   0.044   4.424   7.645 -0.0497 -0.1282  0.2099
 5027SOL    HW126717   0.118   4.419   7.706  1.0658  0.9405 -1.0589
 5027SOL    HW226718   0.001   4.508   7.663  0.3950  0.1124  0.1679
 5028SOL     OW26719   3.411   1.420   2.690  0.5673 -0.2354 -0.5156
 5028SOL    HW126720   3.345   1.488   2.703  0.9397  0.0880 -0.2940
 5028SOL    HW226721   3.362   1.339   2.681 -0.6998  0.4355  0.2505
 5029SOL     OW26722   1.962   4.034   7.839 -0.3968 -0.4038 -0.0490
 5029SOL    HW126723   1.877   4.013   7.880 -0.2775 -0.6163  0.0882
 5029SOL    HW226724   2.017   3.961   7.867 -0.4997 -1.5086 -2.7222
 5030SOL     OW26725   3.998   0.562   7.644 -0.3845 -0.1494 -0.0622
 5030SOL    HW126726   3.903   0.557   7.631 -0.4334 -1.1782  0.7437
 5030SOL    HW226727   4.006   0.630   7.711 -0.2826  0.6903 -0.9225
 5031SOL     OW26728   4.007   3.313   7.079  0.0166  0.1092  0.6873
 5031SOL    HW126729   3.921   3.273   7.092 -1.1154  2.2079 -0.4067
 5031SOL    HW226730   3.988   3.377   7.010 -1.5755 -1.5628 -0.4480
 5032SOL     OW26731   3.110   0.993   6.813  0.2187 -0.1777  0.1286
 5032SOL    HW126732   3.078   1.069   6.764 -1.0774 -0.7175  0.1344
 5032SOL    HW226733   3.103   1.021   6.904 -2.2570  1.3951 -0.5443
 5033SOL     OW26734   2.799   3.930   7.004 -0.2072  0.5245  0.0675
 5033SOL    HW126735   2.827   3.933   7.095 -0.3502  0.2505  0.1197
 5033SOL    HW226736   2.859   3.861   6.974 -0.8044 -0.3602  0.8931
 5034SOL     OW26737   1.442   3.309  15.047  0.1661  0.6550  0.2214
 5034SOL    HW126738   1.409   3.314  15.137  1.6363  2.8514  0.6249
 5034SOL    HW226739   1.534   3.287  15.062  1.2924  2.9787 -3.2154
 5035SOL     OW26740   0.229   4.581   8.531  0.3858  0.4906  0.4324
 5035SOL    HW126741   0.240   4.671   8.562 -0.7397  0.4986  0.8406
 5035SOL    HW226742   0.164   4.553   8.596 -3.2888  1.3447 -2.9098
 5036SOL     OW26743   1.822   2.830   3.443 -0.1296 -1.0334  0.3163
 5036SOL    HW126744   1.851   2.812   3.354 -0.3227 -2.1938  0.4944
 5036SOL    HW226745   1.798   2.923   3.443  0.4653 -0.8842  1.6798
 5037SOL     OW26746   2.163   1.297   1.859  0.4170 -0.4345 -0.1249
 5037SOL    HW126747   2.172   1.389   1.832 -0.6702  0.4553  2.4996
 5037SOL    HW226748   2.089   1.277   1.802  0.4043  2.5917 -1.1578
 5038SOL     OW26749   4.151   0.051   0.772  0.2883  0.5532  0.8750
 5038SOL    HW126750   4.072   0.013   0.811  1.4554 -1.0227  1.6792
 5038SOL    HW226751   4.195   4.707   0.757  0.0893 -0.1090  3.9642
 5039SOL     OW26752   4.583   0.108   6.112 -0.5728  0.2350  0.5259
 5039SOL    HW126753   4.620   0.102   6.201  0.0941  1.0478  0.3052
 5039SOL    HW226754   4.614   0.022   6.081 -0.9763  0.5043 -0.6192
 5040SOL     OW26755   4.267   4.399   3.230  0.3302  0.2266 -0.0980
 5040SOL    HW126756   4.237   4.417   3.141 -1.0098 -2.1244 -0.1305
 5040SOL    HW226757   4.193   4.434   3.281  0.7022  1.7169 -0.5935
 5041SOL     OW26758   4.338   4.349  11.044 -0.1047 -0.1514  0.0423
 5041SOL    HW126759   4.320   4.442  11.037 -0.0175 -0.1154  0.3020
 5041SOL    HW226760   4.286   4.315  10.970  1.6188 -0.5096 -1.0043
 5042SOL     OW26761   0.844   3.107   2.325  0.1854 -0.3891 -0.0884
 5042SOL    HW126762   0.851   3.025   2.276 -0.2827 -0.1367 -0.5801
 5042SOL    HW226763   0.762   3.098   2.373  0.1298  1.5228  0.1892
 5043SOL     OW26764   2.988   0.497   3.758  0.4695 -0.0307 -0.2063
 5043SOL    HW126765   3.044   0.522   3.685  1.7338 -0.3884  0.6442
 5043SOL    HW226766   3.063   0.466   3.809  0.7374  0.5988 -0.2190
 5044SOL     OW26767   1.550   1.226   9.697 -0.1481 -0.6067  0.2507
 5044SOL    HW126768   1.623   1.264   9.745 -0.2171  0.5088 -0.5381
 5044SOL    HW226769   1.570   1.251   9.607  1.5794 -0.2663  0.7277
 5045SOL     OW26770   0.642   1.681   8.714 -0.1266 -0.0928 -0.2334
 5045SOL    HW126771   0.728   1.662   8.676  0.1451 -0.7044  0.6808
 5045SOL    HW226772   0.663   1.771   8.738  0.7189 -0.3572  0.0359
 5046SOL     OW26773   2.828   4.287   8.568  0.1459  0.5285 -0.3761
 5046SOL    HW126774   2.825   4.383   8.574 -1.1758  0.4262  0.6983
 5046SOL    HW226775   2.902   4.283   8.508  0.7382  0.7531  0.3548
 5047SOL     OW26776   1.601   1.932   3.729 -0.0767 -0.1909  0.1028
 5047SOL    HW126777   1.519   1.942   3.778  1.1330 -0.1753  2.1219
 5047SOL    HW226778   1.677   1.916   3.784  0.3009 -1.2095 -0.7267
 5048SOL     OW26779   1.066   4.123   6.413  0.3179 -0.3743 -0.4410
 5048SOL    HW126780   1.132   4.191   6.399 -1.6973  2.0474  1.7922
 5048SOL    HW226781   0.982   4.165   6.395 -0.1460 -1.7321 -1.5014
 5049SOL     OW26782   3.927   4.715   7.731 -0.3841 -0.0397 -0.9078
 5049SOL    HW126783   3.902   0.035   7.661 -2.2335 -0.4349 -0.5802
 5049SOL    HW226784   4.021   4.731   7.720  0.1229 -0.4925  2.6035
 5050SOL     OW26785   3.195   2.155   3.460  0.0967 -0.5539  0.3922
 5050SOL    HW126786   3.226   2.107   3.536 -0.0180  0.9915  1.4118
 5050SOL    HW226787   3.105   2.172   3.489 -0.1979 -2.2003  0.4171
 5051SOL     OW26788   3.316   4.080   1.896  0.3042 -0.6016  0.2991
 5051SOL    HW126789   3.257   4.039   1.960 -0.2519  0.7106  0.6380
 5051SOL    HW226790   3.398   4.033   1.912  0.3098 -0.8340 -0.3906
 5052SOL     OW26791   2.012   4.727   1.174 -0.4806  0.4235  0.2349
 5052SOL    HW126792   2.092   4.682   1.200 -0.7617 -1.2204 -1.7631
 5052SOL    HW226793   1.950   4.654   1.164 -1.6852  1.3354  0.9830
 5053SOL     OW26794   0.509   3.834   8.875 -0.4032  0.0541 -0.0629
 5053SOL    HW126795   0.442   3.902   8.879 -1.3512 -0.8072 -1.2579
 5053SOL    HW226796   0.507   3.788   8.790 -1.0055  0.0438 -0.0440
 5054SOL     OW26797   0.408   4.437  12.542  0.1134 -0.2349  0.3627
 5054SOL    HW126798   0.353   4.481  12.606 -0.5322  0.5348 -0.7227
 5054SOL    HW226799   0.403   4.347  12.574  0.0025 -0.6675 -0.8341
 5055SOL     OW26800   0.443   2.837   6.176  0.4965  0.1567 -0.2671
 5055SOL    HW126801   0.429   2.743   6.168  0.0287  0.1040  1.1819
 5055SOL    HW226802   0.358   2.881   6.174  0.5405  0.2378 -0.3772
 5056SOL     OW26803   2.102   3.462   7.112 -0.3148  0.1774  0.1820
 5056SOL    HW126804   2.131   3.457   7.203  1.2076 -1.1201 -0.3824
 5056SOL    HW226805   2.127   3.553   7.094  2.3487 -0.3579  1.2705
 5057SOL     OW26806   2.074   4.410   8.540 -0.2599  0.0511  0.3322
 5057SOL    HW126807   2.144   4.346   8.552  0.7090  0.7334 -1.7506
 5057SOL    HW226808   1.998   4.355   8.558  1.0038 -1.3252  1.4360
 5058SOL     OW26809   0.707   1.811   8.437  0.3823  0.5938  0.0420
 5058SOL    HW126810   0.666   1.875   8.496 -2.4366 -0.7626 -0.4535
 5058SOL    HW226811   0.684   1.729   8.480  0.3893  0.9478  0.7275
 5059SOL     OW26812   1.411   3.947   1.066 -0.0349 -0.2099 -0.1561
 5059SOL    HW126813   1.395   3.869   1.013 -1.5413 -0.7268  1.0531
 5059SOL    HW226814   1.457   3.910   1.142  0.1755 -1.6413 -0.9754
 5060SOL     OW26815   2.006   0.994   7.945  0.0386 -0.2239  0.1555
 5060SOL    HW126816   2.053   0.971   8.026 -0.8111  1.0094  0.9909
 5060SOL    HW226817   2.079   0.987   7.883  0.1248  0.4067  0.1851
 5061SOL     OW26818   0.206   4.588  10.373 -0.1474 -0.1067  0.0251
 5061SOL    HW126819   0.120   4.547  10.365 -0.6986  0.7850  1.3449
 5061SOL    HW226820   0.176   4.670  10.414  1.3727 -0.3478  1.5779
 5062SOL     OW26821   0.358   1.691   7.785 -0.3988  0.5698  0.1945
 5062SOL    HW126822   0.302   1.749   7.733 -1.2690 -1.1816 -0.7990
 5062SOL    HW226823   0.303   1.691   7.863 -0.4533  0.6946  0.1565
 5063SOL     OW26824   1.786   0.457   7.527 -0.4239 -0.7117  0.1936
 5063SOL    HW126825   1.729   0.390   7.565  1.3386 -2.1706  0.3119
 5063SOL    HW226826   1.836   0.408   7.461 -2.5553  0.3377 -2.2019
 5064SOL     OW26827   3.477   2.647  11.538 -0.2394 -0.5166 -0.0097
 5064SOL    HW126828   3.497   2.572  11.594 -0.3172 -1.3282 -1.0742
 5064SOL    HW226829   3.489   2.718  11.601  1.8961  0.1336 -1.1474
 5065SOL     OW26830   0.473   1.632   5.851  0.1849 -0.1040 -0.4180
 5065SOL    HW126831   0.523   1.551   5.865  1.8974  0.9833 -0.3141
 5065SOL    HW226832   0.534   1.701   5.827  1.0838 -0.4133  0.9650
 5066SOL     OW26833   1.097   1.713  11.592  0.5316 -0.3976  0.3734
 5066SOL    HW126834   1.087   1.772  11.517  0.6580 -0.7608  0.0644
 5066SOL    HW226835   1.008   1.679  11.588  0.4605  0.2939 -4.2999
 5067SOL     OW26836   2.304   2.794   4.099  0.5748 -0.3043  0.0043
 5067SOL    HW126837   2.278   2.708   4.067  2.7456 -0.7903 -0.4666
 5067SOL    HW226838   2.400   2.786   4.095  0.4699 -1.4752 -0.1580
 5068SOL     OW26839   3.087   3.030   9.512 -0.7769 -0.3398  0.3373
 5068SOL    HW126840   3.172   2.998   9.481  1.2699  2.4342  2.9946
 5068SOL    HW226841   3.036   2.956   9.544 -0.7258 -0.7085 -0.4402
 5069SOL     OW26842   1.538   2.918   1.187 -0.4794  0.0955 -0.6615
 5069SOL    HW126843   1.618   2.927   1.136 -0.4270  2.0998 -0.2243
 5069SOL    HW226844   1.575   2.917   1.276 -1.5560 -2.0154 -0.2130
 5070SOL     OW26845   4.325   1.163  14.090 -0.0535  0.1551  0.1770
 5070SOL    HW126846   4.375   1.208  14.158 -2.6260  2.2155  0.6611
 5070SOL    HW226847   4.386   1.183  14.018  1.1948  1.4691  1.5883
 5071SOL     OW26848   3.411   4.184   6.521  0.4854  0.0798 -0.3738
 5071SOL    HW126849   3.356   4.134   6.461  2.3607 -1.2705 -0.9486
 5071SOL    HW226850   3.436   4.110   6.577 -1.3513  0.4344  0.9015
 5072SOL     OW26851   1.787   2.301   8.731 -0.1254 -0.4977 -0.2564
 5072SOL    HW126852   1.809   2.391   8.753 -0.1305 -0.6211  0.2550
 5072SOL    HW226853   1.868   2.261   8.761  0.7166  1.7182  0.4081
 5073SOL     OW26854   4.389   3.018   1.722  0.0002  0.1773 -0.0346
 5073SOL    HW126855   4.412   2.927   1.744  1.5067  1.4679  3.6052
 5073SOL    HW226856   4.473   3.064   1.721  0.1101 -0.0431 -4.5743
 5074SOL     OW26857   2.993   3.504   7.115  0.8080  0.2830 -0.4331
 5074SOL    HW126858   3.067   3.453   7.082  0.3324  0.3457 -1.6027
 5074SOL    HW226859   2.990   3.477   7.206 -1.7728  0.9466 -0.3220
 5075SOL     OW26860   0.903   0.491   4.272 -0.7258  0.4341  0.5623
 5075SOL    HW126861   0.872   0.576   4.241  3.0849  1.6645  0.0536
 5075SOL    HW226862   0.855   0.436   4.210  0.9851 -1.0821  0.5873
 5076SOL     OW26863   0.864   4.162   0.111  0.7378 -0.0566  0.2886
 5076SOL    HW126864   0.775   4.187   0.135 -0.0982 -3.0029  0.3467
 5076SOL    HW226865   0.912   4.239   0.139  1.5785 -0.7817  0.8615
 5077SOL     OW26866   4.005   1.699  12.320 -0.7116  0.3219  0.0738
 5077SOL    HW126867   3.995   1.628  12.384  2.1128  0.1504  0.3313
 5077SOL    HW226868   3.981   1.670  12.232  2.5863  1.5504 -1.2018
 5078SOL     OW26869   4.125   0.859   0.923 -0.4375 -0.3248  0.2352
 5078SOL    HW126870   4.154   0.770   0.903  0.6732  0.4820 -1.8537
 5078SOL    HW226871   4.113   0.853   1.017 -0.6446  0.2348  0.2423
 5079SOL     OW26872   3.172   4.553   6.396  0.2138 -0.4552 -0.3538
 5079SOL    HW126873   3.199   4.488   6.460  1.2927  0.7706  0.4366
 5079SOL    HW226874   3.201   4.627   6.450 -0.6484 -0.4117  0.0500
 5080SOL     OW26875   3.914   4.170   1.031  0.6859 -0.1250 -0.2483
 5080SOL    HW126876   3.982   4.235   1.012  0.6419  0.8105  2.9712
 5080SOL    HW226877   3.976   4.097   1.037 -0.0719 -0.8253 -0.8270
 5081SOL     OW26878   2.418   2.753   4.447 -0.5742 -0.1482 -0.3683
 5081SOL    HW126879   2.326   2.775   4.458 -0.6424  0.3996 -2.1240
 5081SOL    HW226880   2.431   2.709   4.363  2.6631 -0.4450  0.2614
 5082SOL     OW26881   0.451   0.546   7.072  0.2729  0.0979  0.2972
 5082SOL    HW126882   0.466   0.454   7.092  1.2587  0.5082  1.4460
 5082SOL    HW226883   0.505   0.587   7.140 -0.4780  2.1710 -0.3611
 5083SOL     OW26884   1.141   0.572   9.330  0.3987 -0.0536  0.1997
 5083SOL    HW126885   1.065   0.613   9.370 -0.9670  0.3744 -2.7948
 5083SOL    HW226886   1.192   0.546   9.406  0.0894 -0.0659  0.4037
 5084SOL     OW26887   3.766   1.117   7.346 -0.0859  0.0421  0.2804
 5084SOL    HW126888   3.704   1.052   7.312  0.9641 -0.3781 -0.8201
 5084SOL    HW226889   3.840   1.105   7.287 -1.7764 -0.6834 -1.6741
 5085SOL     OW26890   3.206   3.917  14.985 -0.0923 -0.4253  0.2335
 5085SOL    HW126891   3.149   3.841  14.998  1.3883 -1.3770  1.2209
 5085SOL    HW226892   3.245   3.908  15.072 -2.1818  1.0494  1.3098
 5086SOL     OW26893   4.500   0.816   6.307  0.8902  0.0136 -0.3045
 5086SOL    HW126894   4.408   0.839   6.322 -0.0879 -2.8794 -1.7541
 5086SOL    HW226895   4.489   0.738   6.251 -0.6538  0.2892 -0.3959
 5087SOL     OW26896   4.300   1.171   4.980 -0.4872  0.2418 -0.2526
 5087SOL    HW126897   4.259   1.239   4.927 -0.1157 -0.0385 -0.8948
 5087SOL    HW226898   4.256   1.096   4.939 -1.0574  0.3046  0.2359
 5088SOL     OW26899   0.962   4.503   2.345  0.3496 -0.1488 -0.6318
 5088SOL    HW126900   0.996   4.525   2.432 -1.5971  0.2686  0.0199
 5088SOL    HW226901   1.032   4.537   2.289 -1.6399  1.3543 -2.1978
 5089SOL     OW26902   3.658   3.471   5.771  0.1686  0.0313  0.4237
 5089SOL    HW126903   3.597   3.508   5.707  0.9635  1.9496  0.7697
 5089SOL    HW226904   3.725   3.534   5.744  0.9520 -1.0557 -0.1620
 5090SOL     OW26905   2.458   0.870   1.013 -0.2686 -0.3437  0.3201
 5090SOL    HW126906   2.495   0.958   1.020 -1.4894 -0.0621  3.3573
 5090SOL    HW226907   2.372   0.889   0.975 -0.8188  0.3244  1.8974
 5091SOL     OW26908   2.165   4.549   4.377 -0.0358  0.6403  0.3289
 5091SOL    HW126909   2.177   4.514   4.466  0.9560 -1.3689 -0.6024
 5091SOL    HW226910   2.070   4.549   4.363  0.2079  2.1726 -1.2994
 5092SOL     OW26911   1.204   3.368   6.373  0.1844  0.3075 -0.0727
 5092SOL    HW126912   1.139   3.429   6.337  0.1595  0.2487 -0.1280
 5092SOL    HW226913   1.262   3.365   6.297  1.5318 -1.0727  1.0218
 5093SOL     OW26914   1.448   2.131   3.289  0.4859  0.5101 -0.2545
 5093SOL    HW126915   1.407   2.121   3.203 -0.3966  1.9662 -0.0137
 5093SOL    HW226916   1.439   2.227   3.287 -0.8117  0.3629 -2.5199
 5094SOL     OW26917   1.307   4.486   3.716  0.4680 -0.4231  0.2412
 5094SOL    HW126918   1.367   4.461   3.646  1.1819  0.0793  0.6740
 5094SOL    HW226919   1.288   4.577   3.693  1.7641 -0.3244 -0.4180
 5095SOL     OW26920   3.800   3.203   2.752 -0.0675 -0.4216 -0.6360
 5095SOL    HW126921   3.709   3.185   2.774  1.3143 -1.8338  3.8646
 5095SOL    HW226922   3.817   3.297   2.763  2.1154 -1.0237  1.2557
 5096SOL     OW26923   0.315   0.323  12.817 -0.5951  0.1134 -0.4058
 5096SOL    HW126924   0.375   0.383  12.775 -1.9806  0.9036 -1.2614
 5096SOL    HW226925   0.256   0.387  12.857 -0.1852  0.6386 -0.6538
 5097SOL     OW26926   0.516   4.355   6.577  0.2622  0.5712 -0.1830
 5097SOL    HW126927   0.599   4.358   6.624  0.4980 -0.9264 -0.5073
 5097SOL    HW226928   0.505   4.260   6.580 -0.8202  0.7717  1.8935
 5098SOL     OW26929   4.238   3.313   8.340 -0.0492 -0.0923 -0.1776
 5098SOL    HW126930   4.246   3.255   8.416  1.0920  0.6640  0.2855
 5098SOL    HW226931   4.146   3.294   8.320 -0.6608  0.4542  2.0838
 5099SOL     OW26932   2.131   0.405   7.177  0.4829 -0.2411  0.0444
 5099SOL    HW126933   2.215   0.450   7.173 -0.0667  0.7361 -0.4255
 5099SOL    HW226934   2.112   0.375   7.088  2.6282 -0.1933 -0.4388
 5100SOL     OW26935   2.956   1.432  12.132  0.0956  0.7105  0.3891
 5100SOL    HW126936   2.887   1.433  12.065  2.4448  2.4111 -2.0277
 5100SOL    HW226937   2.979   1.522  12.154 -0.0161  0.8887 -0.2134
 5101SOL     OW26938   4.603   2.517  13.663 -0.3207 -0.5022  0.0144
 5101SOL    HW126939   4.548   2.470  13.726 -3.1016 -0.2877 -2.2917
 5101SOL    HW226940   4.622   2.445  13.602 -0.4560 -0.4028 -0.1426
 5102SOL     OW26941   1.518   0.633   3.231 -0.0842  0.8180  0.4789
 5102SOL    HW126942   1.443   0.581   3.201  0.1271 -0.1822  1.7167
 5102SOL    HW226943   1.512   0.719   3.188  0.8886 -0.0418 -1.3505
 5103SOL     OW26944   1.154   0.207   5.552  0.1852  0.1381  0.3547
 5103SOL    HW126945   1.194   0.255   5.625 -1.2572 -0.6058  1.6346
 5103SOL    HW226946   1.112   0.279   5.506  0.8142 -0.1883 -0.7166
 5104SOL     OW26947   1.479   0.848   1.812 -0.1326 -0.3027  0.5251
 5104SOL    HW126948   1.392   0.851   1.851 -0.3190 -1.8399  0.2337
 5104SOL    HW226949   1.478   0.765   1.765  1.6996 -1.5059  2.6535
 5105SOL     OW26950   0.530   0.031  17.414  0.6841 -0.1423  0.3713
 5105SOL    HW126951   0.515   4.682  17.445 -0.4081  0.2939  1.0791
 5105SOL    HW226952   0.542   0.082  17.494  1.8147 -1.1959  0.8779
 5106SOL     OW26953   0.986   0.735  13.224 -0.2065  0.2677  0.4754
 5106SOL    HW126954   0.925   0.667  13.254 -0.2397 -0.0508 -0.3119
 5106SOL    HW226955   0.950   0.808  13.274  0.2659 -0.8884  2.5139
 5107SOL     OW26956   2.726   1.288   3.018 -0.3320 -0.2518 -0.4712
 5107SOL    HW126957   2.809   1.262   3.059 -0.6759 -1.1036 -0.3134
 5107SOL    HW226958   2.753   1.268   2.928 -0.1489 -1.3882 -0.1671
 5108SOL     OW26959   3.643   1.273   3.428  0.1171 -0.4408 -0.0804
 5108SOL    HW126960   3.635   1.271   3.332 -1.4733 -0.1667  0.0336
 5108SOL    HW226961   3.578   1.331   3.467 -1.1194 -1.3000 -0.8556
 5109SOL     OW26962   2.716   2.643   3.785 -0.1342  0.6159  0.0375
 5109SOL    HW126963   2.627   2.632   3.750  0.8110 -0.2378 -2.1097
 5109SOL    HW226964   2.766   2.577   3.737  0.3586 -0.0005  1.4046
 5110SOL     OW26965   1.256   2.785  11.152 -0.2920  0.6066 -1.0925
 5110SOL    HW126966   1.340   2.777  11.198  0.0748 -1.6889 -2.1687
 5110SOL    HW226967   1.267   2.704  11.102 -1.3543 -1.3499  1.8443
 5111SOL     OW26968   3.426   1.300  16.758  0.3971  0.3832 -0.2579
 5111SOL    HW126969   3.441   1.242  16.683 -1.1100 -0.6628  0.2457
 5111SOL    HW226970   3.343   1.344  16.744 -0.1786 -0.4512  0.5528
 5112SOL     OW26971   2.425   2.181   5.363 -0.1261  0.0001  0.6679
 5112SOL    HW126972   2.346   2.143   5.323 -0.3971 -0.5562  1.7343
 5112SOL    HW226973   2.405   2.274   5.365 -1.5416 -0.2623 -0.8471
 5113SOL     OW26974   1.514   0.110   5.053 -0.5484 -0.1238 -0.1903
 5113SOL    HW126975   1.540   0.134   5.142 -2.2029  0.6293  0.0926
 5113SOL    HW226976   1.588   0.060   5.019 -0.4352  0.7331 -1.1860
 5114SOL     OW26977   1.148   3.609   5.696  0.0121 -0.1990  0.1402
 5114SOL    HW126978   1.109   3.567   5.773  1.8570 -0.7999  0.7451
 5114SOL    HW226979   1.067   3.616   5.646 -0.2210 -0.1616  0.5274
 5115SOL     OW26980   0.962   2.293   3.575  0.2322  0.7377  0.2996
 5115SOL    HW126981   0.965   2.386   3.597 -0.3279  0.9584 -0.5509
 5115SOL    HW226982   0.895   2.289   3.507  0.6031  1.7565 -0.1159
 5116SOL     OW26983   3.997   2.407  16.072 -0.2853  0.7760 -0.2565
 5116SOL    HW126984   3.982   2.499  16.049  0.0633  0.2933 -2.3700
 5116SOL    HW226985   3.914   2.371  16.041 -0.4464  0.2905  0.7559
 5117SOL     OW26986   0.356   0.260   3.953 -0.3701  1.0322 -0.1919
 5117SOL    HW126987   0.440   0.259   3.907 -1.1949 -1.2352 -1.6329
 5117SOL    HW226988   0.296   0.245   3.880  0.6814  0.3086 -0.9102
 5118SOL     OW26989   1.113   4.462   6.079 -0.2868 -0.5798 -0.6857
 5118SOL    HW126990   1.023   4.443   6.054 -0.1367 -1.5095 -0.5019
 5118SOL    HW226991   1.118   4.440   6.172  2.3288  1.7896 -0.2686
 5119SOL     OW26992   4.629   0.717   5.233 -0.4386 -0.3037 -0.2773
 5119SOL    HW126993   4.646   0.636   5.185  1.1085  1.2753 -2.3842
 5119SOL    HW226994   4.699   0.776   5.206  0.8318 -1.3713  0.7071
 5120SOL     OW26995   3.708   0.383  12.525 -0.0779  0.1757  0.5979
 5120SOL    HW126996   3.790   0.373  12.478  0.7794  2.9003  1.4850
 5120SOL    HW226997   3.723   0.464  12.575 -1.3650  1.9174 -1.8557
 5121SOL     OW26998   0.997   3.246   7.371 -0.0743 -0.2203 -0.3102
 5121SOL    HW126999   0.934   3.316   7.357 -0.6269 -0.9444 -1.4062
 5121SOL    HW227000   1.076   3.300   7.377 -1.5152  1.6929  1.1745
 5122SOL     OW27001   0.119   0.108   0.565  0.2356  0.1689 -0.0052
 5122SOL    HW127002   0.065   0.144   0.636 -1.3586 -0.2011 -1.0292
 5122SOL    HW227003   0.193   0.168   0.562 -0.1202  0.6497  0.7793
 5123SOL     OW27004   4.535   1.842   2.662  0.2781  0.1258  0.4042
 5123SOL    HW127005   4.464   1.895   2.626 -0.0254 -0.9363 -0.5794
 5123SOL    HW227006   4.481   1.793   2.724  1.2471  1.6597  2.4697
 5124SOL     OW27007   2.266   3.276   1.511 -0.4328  0.2091  0.1949
 5124SOL    HW127008   2.185   3.327   1.521 -0.6383  0.0624 -0.7360
 5124SOL    HW227009   2.283   3.276   1.416 -0.2341 -0.2980  0.2348
 5125SOL     OW27010   3.044   3.587   3.802  0.0298 -0.6590  0.8267
 5125SOL    HW127011   3.073   3.496   3.796 -1.4784 -0.9455 -2.4168
 5125SOL    HW227012   2.951   3.575   3.819 -0.7051 -0.0464 -2.7064
 5126SOL     OW27013   4.023   0.044  12.068 -0.3181  0.4873  0.8152
 5126SOL    HW127014   3.972   4.714  12.107  0.9545 -2.7742 -3.3329
 5126SOL    HW227015   4.056   0.004  11.987  1.2390 -0.5575  1.9673
 5127SOL     OW27016   2.751   0.627  14.878 -0.2079 -0.1335 -0.8596
 5127SOL    HW127017   2.675   0.644  14.934  0.3714  0.8994 -0.3792
 5127SOL    HW227018   2.831   0.654  14.922 -1.1380  1.7023 -0.2829
 5128SOL     OW27019   3.430   0.988   1.657  0.0552  0.1766 -0.5105
 5128SOL    HW127020   3.394   0.901   1.639  2.8583 -0.7613 -1.5742
 5128SOL    HW227021   3.523   0.971   1.639  0.3334 -0.0754  1.1744
 5129SOL     OW27022   0.005   0.987   6.885  0.2206 -0.2592  0.5217
 5129SOL    HW127023   4.740   1.074   6.926 -1.1570 -0.7235  1.3215
 5129SOL    HW227024   0.034   0.939   6.963 -0.6016 -1.9842 -0.2435
 5130SOL     OW27025   4.588   2.414  14.977  0.6650 -0.3693 -0.5791
 5130SOL    HW127026   4.618   2.505  14.970  0.7658 -0.3713 -0.1915
 5130SOL    HW227027   4.514   2.417  14.917 -0.5679  1.0559  1.0258
 5131SOL     OW27028   3.777   1.533   7.862  0.7342  0.1408 -0.6631
 5131SOL    HW127029   3.795   1.484   7.942 -2.6077  0.1119  0.0319
 5131SOL    HW227030   3.741   1.468   7.802  1.0243  0.7869 -1.5476
 5132SOL     OW27031   1.537   3.554   9.767 -0.6284 -0.2201  0.2662
 5132SOL    HW127032   1.610   3.503   9.801 -1.2990 -1.9056 -0.8197
 5132SOL    HW227033   1.591   3.596   9.699  0.3828  0.1727  1.3018
 5133SOL     OW27034   1.701   0.323  17.537  0.4137 -0.5515 -0.0952
 5133SOL    HW127035   1.707   0.238  17.495 -1.7817 -1.1452  0.7561
 5133SOL    HW227036   1.656   0.371  17.468 -0.6487  1.9468  2.2906
 5134SOL     OW27037   2.956   3.632  14.690 -0.0089 -0.3552  0.7126
 5134SOL    HW127038   3.037   3.590  14.661 -0.3900 -0.7787  0.2667
 5134SOL    HW227039   2.910   3.548  14.689 -0.5502  0.0204 -4.0240
 5135SOL     OW27040   3.260   2.200  15.743  0.3340 -0.2947  0.7873
 5135SOL    HW127041   3.203   2.131  15.777 -1.1762  0.5033 -0.1660
 5135SOL    HW227042   3.332   2.147  15.708  0.7342 -0.3418  1.6960
 5136SOL     OW27043   2.685   4.711   3.921  0.3706  0.1781 -0.2590
 5136SOL    HW127044   2.617   4.714   3.854 -1.0865 -0.8802  1.1688
 5136SOL    HW227045   2.693   4.617   3.937  0.7778 -0.2340 -2.9330
 5137SOL     OW27046   4.263   2.399  16.028 -0.0183 -0.0330 -0.1142
 5137SOL    HW127047   4.288   2.464  16.093  2.0151 -0.7168 -0.2066
 5137SOL    HW227048   4.168   2.400  16.044 -0.7793 -1.4819 -4.6115
 5138SOL     OW27049   0.739   0.493   9.827 -0.0423 -0.3511 -0.5100
 5138SOL    HW127050   0.687   0.525   9.753 -0.4959 -3.6486 -1.6177
 5138SOL    HW227051   0.690   0.538   9.896  0.3067 -1.0028  0.1589
 5139SOL     OW27052   2.017   0.777  17.359  0.2076 -0.7392 -0.1581
 5139SOL    HW127053   1.945   0.715  17.377  0.2015 -0.8327 -0.5073
 5139SOL    HW227054   1.968   0.848  17.319  0.6152 -1.0966 -1.2756
 5140SOL     OW27055   1.006   2.574   5.844 -0.0951  0.1653  0.5120
 5140SOL    HW127056   1.075   2.545   5.903 -0.0137  1.5736  1.1186
 5140SOL    HW227057   0.924   2.572   5.894 -2.0619  0.0305 -2.7041
 5141SOL     OW27058   0.700   4.064   0.329  0.1075  0.1773  0.6409
 5141SOL    HW127059   0.627   4.104   0.377  0.7194  0.5355  1.2807
 5141SOL    HW227060   0.665   4.066   0.240  1.4457  0.1079  0.1093
 5142SOL     OW27061   3.919   2.436   7.888 -0.3191  0.1704 -0.3608
 5142SOL    HW127062   4.009   2.403   7.880 -0.2722 -0.0180  0.9395
 5142SOL    HW227063   3.878   2.353   7.912  1.2946 -0.1638  1.2514
 5143SOL     OW27064   0.688   4.664  12.723  0.3574  0.1949 -0.6055
 5143SOL    HW127065   0.723   4.712  12.648  0.0402  0.5745 -0.5100
 5143SOL    HW227066   0.619   4.726  12.746 -0.1966 -0.1209 -1.4199
 5144SOL     OW27067   3.540   2.504   7.373 -0.6628 -0.2747  0.3614
 5144SOL    HW127068   3.522   2.421   7.417 -0.3435 -0.5855 -0.0901
 5144SOL    HW227069   3.571   2.549   7.453 -3.9099 -0.2401  1.5841
 5145SOL     OW27070   3.447   2.662   3.026  0.2371 -0.1879 -0.1492
 5145SOL    HW127071   3.412   2.652   3.115  1.8253 -0.7654  0.4113
 5145SOL    HW227072   3.540   2.678   3.043  0.0272 -0.6389  1.4076
 5146SOL     OW27073   3.516   4.426   6.442  0.4952 -0.4113  0.3752
 5146SOL    HW127074   3.459   4.349   6.447  0.6164 -0.4689  0.9142
 5146SOL    HW227075   3.564   4.407   6.523  1.2206 -1.5203 -0.3037
 5147SOL     OW27076   2.427   2.675  12.443 -0.4543 -0.1265 -0.3136
 5147SOL    HW127077   2.350   2.628  12.474 -1.6964  0.7781 -2.0253
 5147SOL    HW227078   2.445   2.720  12.525  1.5392  1.2815 -1.5228
 5148SOL     OW27079   0.156   2.236   0.862  0.6393  0.3267 -0.0543
 5148SOL    HW127080   0.133   2.164   0.920 -1.3440 -0.3320 -1.6848
 5148SOL    HW227081   0.111   2.308   0.906 -0.1186 -0.3345  0.2459
 5149SOL     OW27082   1.240   0.396   6.680  0.4890 -0.5560 -0.2013
 5149SOL    HW127083   1.257   0.481   6.720 -1.5850 -0.1528 -0.2075
 5149SOL    HW227084   1.322   0.352   6.705  1.5971  1.8192  0.3037
 5150SOL     OW27085   4.447   0.599   6.147 -0.4156  0.0822  0.0324
 5150SOL    HW127086   4.374   0.580   6.087  0.0404 -1.3683 -0.0476
 5150SOL    HW227087   4.515   0.618   6.083 -1.4394  1.3517 -0.7034
 5151SOL     OW27088   2.007   2.048  16.253  0.0414 -0.1400 -0.1230
 5151SOL    HW127089   1.932   2.013  16.302 -0.9419  3.2797  0.7916
 5151SOL    HW227090   2.058   2.080  16.327  2.3121  0.7481 -2.0743
 5152SOL     OW27091   1.034   2.420  14.444 -0.2191  0.1173 -0.2613
 5152SOL    HW127092   0.962   2.395  14.387  1.0456  2.4958 -2.9079
 5152SOL    HW227093   1.025   2.515  14.453 -2.6452 -0.0716 -0.7933
 5153SOL     OW27094   1.688   0.634   1.649  0.2882 -0.0657  0.5623
 5153SOL    HW127095   1.731   0.565   1.700  0.7842 -0.8419 -0.9274
 5153SOL    HW227096   1.603   0.630   1.692  0.3438  1.8718  0.8795
 5154SOL     OW27097   2.116   2.594   8.615 -0.4910  0.4231  0.1089
 5154SOL    HW127098   2.170   2.671   8.596  0.9552 -0.2819  1.3253
 5154SOL    HW227099   2.168   2.561   8.689  0.0077  0.6898 -0.1246
 5155SOL     OW27100   2.986   1.330   7.593 -0.0039  0.0609  0.2251
 5155SOL    HW127101   3.061   1.318   7.534 -1.5234  0.8806 -1.8974
 5155SOL    HW227102   3.026   1.359   7.674 -0.8246  0.5624  0.4453
 5156SOL     OW27103   2.684   2.864  11.092  0.0227 -0.5662 -0.0904
 5156SOL    HW127104   2.777   2.881  11.109  0.2881 -1.0790 -1.0181
 5156SOL    HW227105   2.662   2.951  11.059 -0.1274 -1.7343 -3.0962
 5157SOL     OW27106   1.871   4.369  17.420 -0.1483 -0.0997  0.2943
 5157SOL    HW127107   1.924   4.393  17.344  0.1760 -0.2130  0.4873
 5157SOL    HW227108   1.842   4.286  17.383  1.1552 -0.3348 -0.2187
 5158SOL     OW27109   2.482   4.446   7.750 -0.5273 -0.1795  0.1625
 5158SOL    HW127110   2.472   4.380   7.681  2.0534  1.7510 -2.0921
 5158SOL    HW227111   2.389   4.444   7.773 -0.8914 -1.1819 -1.3559
 5159SOL     OW27112   4.564   1.721  17.148 -0.0481  0.4938  0.0361
 5159SOL    HW127113   4.525   1.643  17.109  0.0983 -0.6321  2.1224
 5159SOL    HW227114   4.521   1.795  17.104 -3.6198 -1.5897  0.0976
 5160SOL     OW27115   1.591   0.893  15.970  0.1729 -0.0045 -0.3119
 5160SOL    HW127116   1.630   0.825  15.915 -1.3893  0.5916 -2.1309
 5160SOL    HW227117   1.639   0.970  15.940  0.6398 -0.1641  0.0159
 5161SOL     OW27118   2.112   2.341   4.251  0.1057 -0.5503  0.6254
 5161SOL    HW127119   2.153   2.263   4.214  0.6019 -0.4635  0.9868
 5161SOL    HW227120   2.186   2.366   4.307 -0.4345  0.6186  0.8129
 5162SOL     OW27121   1.513   4.210   4.393  0.2766 -0.8385  0.3339
 5162SOL    HW127122   1.471   4.226   4.308  0.2028 -2.1096  0.1220
 5162SOL    HW227123   1.510   4.293   4.440 -3.0776 -0.6712 -0.1630
 5163SOL     OW27124   3.406   4.228  11.357 -0.4750  0.0677 -0.4414
 5163SOL    HW127125   3.378   4.318  11.376 -3.7201 -0.8401 -0.9486
 5163SOL    HW227126   3.491   4.235  11.400 -1.1975  0.4397  0.9072
 5164SOL     OW27127   1.217   4.083   9.528  0.0178 -0.1138  0.0023
 5164SOL    HW127128   1.298   4.034   9.523  0.6219  0.8132  0.5865
 5164SOL    HW227129   1.223   4.160   9.471 -1.7798 -0.2628 -0.3895
 5165SOL     OW27130   1.645   1.428   2.498 -1.2005  0.3696 -0.6498
 5165SOL    HW127131   1.579   1.392   2.557 -0.4704 -0.5943 -0.4276
 5165SOL    HW227132   1.605   1.515   2.501 -1.9110  0.1640 -3.6338
 5166SOL     OW27133   0.500   0.866  16.859 -0.4189 -0.3262 -0.1076
 5166SOL    HW127134   0.585   0.848  16.821 -0.0706  0.8077  0.1341
 5166SOL    HW227135   0.513   0.948  16.907  0.8444 -1.0772  0.8392
 5167SOL     OW27136   0.049   1.610   1.117 -0.3057 -0.0889  0.2699
 5167SOL    HW127137   4.728   1.653   1.056  2.5947  2.3021 -0.9446
 5167SOL    HW227138   4.731   1.583   1.188 -0.9026 -1.5351 -0.7740
 5168SOL     OW27139   3.386   2.730   5.485  0.1056  0.1583  0.0458
 5168SOL    HW127140   3.481   2.737   5.497 -0.0080 -2.7414  2.5078
 5168SOL    HW227141   3.382   2.800   5.420  0.8087  0.1478 -0.0077
 5169SOL     OW27142   3.096   0.398   4.291  0.6738  0.3406  0.1805
 5169SOL    HW127143   3.060   0.357   4.212 -0.1903 -0.0223  0.7688
 5169SOL    HW227144   3.018   0.428   4.337 -0.4595 -3.0929  0.4935
 5170SOL     OW27145   2.035   1.914   8.823 -0.4455  0.7246 -0.2215
 5170SOL    HW127146   2.124   1.948   8.833 -0.4272  0.6770 -0.2216
 5170SOL    HW227147   1.991   1.989   8.783  0.5913  0.6517 -1.5181
 5171SOL     OW27148   1.534   0.474   7.759 -0.3006  0.0614  0.3370
 5171SOL    HW127149   1.568   0.433   7.839  0.8927  0.2346 -0.0953
 5171SOL    HW227150   1.515   0.564   7.786  2.8108  0.4539  1.1582
 5172SOL     OW27151   3.904   4.534   1.632  0.0884  0.9864 -0.3005
 5172SOL    HW127152   3.858   4.558   1.552  0.4137 -1.5830 -1.2736
 5172SOL    HW227153   3.984   4.493   1.599 -0.9802  0.3328 -2.0661
 5173SOL     OW27154   0.417   1.325  17.237 -0.1346  0.3489 -0.1498
 5173SOL    HW127155   0.467   1.298  17.314 -1.2140 -0.5657  0.2360
 5173SOL    HW227156   0.358   1.390  17.275 -0.6059  0.5307 -1.1931
 5174SOL     OW27157   1.260   2.105   7.756  0.0896  0.2453 -0.5808
 5174SOL    HW127158   1.324   2.168   7.722  0.6375  0.0357  0.0669
 5174SOL    HW227159   1.289   2.076   7.843  1.0515  0.5357 -0.7997
 5175SOL     OW27160   3.281   3.386   9.407  0.3205 -0.3547  0.3181
 5175SOL    HW127161   3.332   3.464   9.428  1.2241 -0.6528 -0.8217
 5175SOL    HW227162   3.323   3.325   9.468  2.4029  0.3483 -0.4293
 5176SOL     OW27163   1.447   3.420   5.947 -0.0152  0.2242  0.5306
 5176SOL    HW127164   1.484   3.345   5.994  2.0464  0.4962 -0.6787
 5176SOL    HW227165   1.388   3.378   5.884 -1.0247  0.6534  1.1858
 5177SOL     OW27166   0.887   3.496   9.302  0.2445 -0.1125  0.4440
 5177SOL    HW127167   0.917   3.447   9.379  1.4360 -2.2722 -1.4060
 5177SOL    HW227168   0.838   3.557   9.357  0.1390 -0.1020  0.3362
 5178SOL     OW27169   1.414   1.982  15.407  0.2824 -0.0849 -0.4501
 5178SOL    HW127170   1.341   2.027  15.364 -0.7368 -0.7766  0.5506
 5178SOL    HW227171   1.456   1.921  15.347 -0.0084  0.1828 -0.9277
 5179SOL     OW27172   2.238   1.294  15.242  0.0030  0.0145  0.0950
 5179SOL    HW127173   2.169   1.340  15.291  0.4834  0.4982  0.3118
 5179SOL    HW227174   2.317   1.311  15.292  1.2370 -0.7020 -1.6342
 5180SOL     OW27175   3.591   1.060   9.953 -1.1365  0.1243  0.3187
 5180SOL    HW127176   3.685   1.056   9.937 -1.0582 -1.2660  1.1521
 5180SOL    HW227177   3.586   1.081  10.046  1.1397 -0.5061  0.5630
 5181SOL     OW27178   0.957   0.762  12.793 -0.2652 -0.4667  0.3639
 5181SOL    HW127179   1.052   0.764  12.807 -0.2899 -0.2819  0.4914
 5181SOL    HW227180   0.950   0.766  12.698 -0.8081  1.3829  0.4871
 5182SOL     OW27181   3.231   0.043   0.565  0.1409 -0.6927  0.6319
 5182SOL    HW127182   3.196   0.117   0.514 -1.0911 -2.1205 -0.5797
 5182SOL    HW227183   3.176   4.710   0.539 -0.5148 -0.8019  2.3342
 5183SOL     OW27184   4.285   3.347   7.254 -0.6002  0.6451 -0.1340
 5183SOL    HW127185   4.215   3.344   7.189 -0.2749 -1.1072 -0.4016
 5183SOL    HW227186   4.284   3.254   7.272 -2.7437  0.6008 -0.5104
 5184SOL     OW27187   3.310   0.285   4.100 -0.3737  0.2559  0.0374
 5184SOL    HW127188   3.367   0.307   4.174  0.0476 -1.5590  0.2548
 5184SOL    HW227189   3.319   0.190   4.093  0.7631  0.1960  2.3939
 5185SOL     OW27190   1.459   3.123   7.192  0.2882 -0.2521 -0.2020
 5185SOL    HW127191   1.445   3.180   7.117 -1.0572 -1.2111 -0.6807
 5185SOL    HW227192   1.418   3.180   7.258 -1.2691  0.7794 -2.0643
 5186SOL     OW27193   2.523   3.198   1.600  0.0367  0.1464 -0.3895
 5186SOL    HW127194   2.558   3.273   1.552  1.3256 -0.8185 -0.9571
 5186SOL    HW227195   2.435   3.214   1.567 -0.2689 -2.7980 -1.0209
 5187SOL     OW27196   1.737   2.668  16.900  0.5416  0.1330 -0.1400
 5187SOL    HW127197   1.710   2.620  16.978  1.5916 -1.1304 -0.5368
 5187SOL    HW227198   1.828   2.671  16.930  0.3574 -1.6884  0.5784
 5188SOL     OW27199   0.244   2.938   2.484 -0.2084  0.4277  0.1991
 5188SOL    HW127200   0.255   2.859   2.537 -0.3287  0.9635  1.0028
 5188SOL    HW227201   0.333   2.945   2.451  0.0782  0.6211  1.0470
 5189SOL     OW27202   2.544   1.001  10.973  0.1345  0.2793 -0.7472
 5189SOL    HW127203   2.551   0.906  10.975  1.8063  0.3872 -1.5741
 5189SOL    HW227204   2.601   1.019  11.049 -1.6509 -1.2850  0.9571
 5190SOL     OW27205   3.618   4.727   7.722  0.0037  0.2632 -0.3554
 5190SOL    HW127206   3.708   4.710   7.750 -0.4034 -1.1159  0.0999
 5190SOL    HW227207   3.617   4.673   7.643  1.4973 -2.5306  1.5486
 5191SOL     OW27208   2.758   0.491  17.049 -1.1187  0.2015 -0.3987
 5191SOL    HW127209   2.797   0.568  17.008  0.1764 -0.4038 -0.3194
 5191SOL    HW227210   2.830   0.445  17.091  0.4762  2.5726 -0.5481
 5192SOL     OW27211   2.815   1.155   6.200 -0.2143 -0.2651  0.5315
 5192SOL    HW127212   2.847   1.201   6.277 -1.7371 -0.2845  1.1854
 5192SOL    HW227213   2.822   1.214   6.125  3.0463 -1.1415  0.1497
 5193SOL     OW27214   4.598   0.787  11.146 -0.4061 -0.0417 -0.2967
 5193SOL    HW127215   4.690   0.810  11.133 -1.1441  2.1997 -1.6184
 5193SOL    HW227216   4.583   0.795  11.240  1.5909 -1.4323  0.1306
 5194SOL     OW27217   0.072   1.558  12.380 -0.5102 -0.0233  0.4669
 5194SOL    HW127218   0.036   1.643  12.405  0.5271  0.6384 -0.3313
 5194SOL    HW227219   0.084   1.522  12.468 -0.6565 -3.1214 -0.7713
 5195SOL     OW27220   4.053   3.653   9.614 -0.6519 -0.4894 -0.3113
 5195SOL    HW127221   4.098   3.706   9.548  0.7989 -1.9351 -0.4999
 5195SOL    HW227222   4.120   3.648   9.682  0.3389  1.5616 -1.1440
 5196SOL     OW27223   0.448   0.892  12.837 -0.0299 -0.4802  0.5231
 5196SOL    HW127224   0.395   0.821  12.872 -1.4316  0.0059 -0.6085
 5196SOL    HW227225   0.454   0.862  12.746 -1.3203  1.6631 -0.2677
 5197SOL     OW27226   3.314   4.558   7.395  0.1099  0.2093  0.1098
 5197SOL    HW127227   3.291   4.573   7.487 -0.4758  0.5632 -0.0963
 5197SOL    HW227228   3.338   4.648   7.371  0.4725  0.0958  0.0448
 5198SOL     OW27229   3.958   2.854  11.562  0.0042  0.4345 -0.1335
 5198SOL    HW127230   3.889   2.881  11.501 -0.1830 -1.2101 -0.6488
 5198SOL    HW227231   3.999   2.784  11.512  2.5802  1.6158  0.3418
 5199SOL     OW27232   2.839   3.906  10.511 -0.5110  0.2810 -0.2620
 5199SOL    HW127233   2.920   3.867  10.478  0.7303 -0.0048  3.1042
 5199SOL    HW227234   2.795   3.829  10.546  1.2820  0.7161  2.9997
 5200SOL     OW27235   4.047   3.712   8.561 -0.6261 -0.4309 -0.6416
 5200SOL    HW127236   4.105   3.638   8.575 -1.9839 -1.4091 -0.1571
 5200SOL    HW227237   4.097   3.758   8.493  2.4730 -2.1214  0.4867
 5201SOL     OW27238   4.274   0.170  11.423  0.2482  0.0382  0.0538
 5201SOL    HW127239   4.234   0.196  11.340 -1.6788 -4.7842 -0.4850
 5201SOL    HW227240   4.249   0.078  11.428 -1.4254  0.5780  1.5902
 5202SOL     OW27241   0.977   2.282   2.408  0.1399 -0.2030  0.4954
 5202SOL    HW127242   0.901   2.329   2.374 -0.6314  0.4266  3.0277
 5202SOL    HW227243   1.013   2.344   2.472  1.2245  2.0739 -2.3607
 5203SOL     OW27244   1.598   1.042   7.804  0.1817 -0.4539  0.0645
 5203SOL    HW127245   1.655   1.082   7.739  1.1419  0.5380  1.5217
 5203SOL    HW227246   1.640   1.058   7.888  1.1165 -0.2118 -0.4595
 5204SOL     OW27247   2.392   2.180   6.104  0.1689  0.1812 -0.0868
 5204SOL    HW127248   2.457   2.167   6.035 -0.2676  1.4868 -0.7465
 5204SOL    HW227249   2.401   2.097   6.150  1.1759  0.9154  1.0607
 5205SOL     OW27250   4.283   2.862   9.368  0.5161  0.5745 -0.1062
 5205SOL    HW127251   4.287   2.927   9.298 -2.8921  1.2073  0.2829
 5205SOL    HW227252   4.321   2.906   9.445 -1.3428  0.9769  0.5809
 5206SOL     OW27253   0.619   0.131   8.534  0.3046  0.6628  0.1029
 5206SOL    HW127254   0.542   0.079   8.555  3.1468 -3.2766  0.8005
 5206SOL    HW227255   0.679   0.089   8.596 -0.4359 -0.8459 -0.2076
 5207SOL     OW27256   1.463   3.515   6.246  0.0841 -0.3135 -0.0647
 5207SOL    HW127257   1.421   3.576   6.184 -0.5227 -0.7143 -0.0518
 5207SOL    HW227258   1.531   3.473   6.194 -1.3293 -3.0307  0.2436
 5208SOL     OW27259   4.054   4.680   3.496 -0.2097 -0.1813  0.4046
 5208SOL    HW127260   4.025   4.596   3.530 -1.1087 -1.2041 -2.8766
 5208SOL    HW227261   3.974   4.728   3.518 -1.0821 -1.3773 -0.2134
 5209SOL     OW27262   4.568   4.301  16.880 -0.1518 -0.1433  0.5710
 5209SOL    HW127263   4.611   4.252  16.809 -0.9516  0.2819 -0.2071
 5209SOL    HW227264   4.645   4.354  16.900  0.2488 -1.0135  1.3550
 5210SOL     OW27265   0.824   4.099  11.471  0.6327 -0.2367  0.3335
 5210SOL    HW127266   0.833   4.152  11.392 -1.2288  0.3821  0.5372
 5210SOL    HW227267   0.808   4.167  11.536  0.3355  0.5764 -0.5946
 5211SOL     OW27268   2.313   3.362  13.490 -0.0899  0.4260 -0.0850
 5211SOL    HW127269   2.286   3.451  13.511  0.7896  0.5247  0.5924
 5211SOL    HW227270   2.393   3.360  13.541 -1.5509  0.7072  2.2230
 5212SOL     OW27271   2.414   0.008   3.796  0.3820 -0.2052 -0.3726
 5212SOL    HW127272   2.410   0.057   3.878 -0.7803  2.3078 -1.9207
 5212SOL    HW227273   2.365   0.062   3.734  0.8277  0.0248 -0.5236
 5213SOL     OW27274   2.240   1.067   1.493 -0.2499 -0.2161 -0.4061
 5213SOL    HW127275   2.317   1.071   1.437  0.1535  0.3205  0.1826
 5213SOL    HW227276   2.193   1.137   1.447 -0.5538  0.1343  0.4424
 5214SOL     OW27277   2.452   2.664   7.000 -0.3763 -0.2050 -0.0344
 5214SOL    HW127278   2.383   2.598   7.009 -0.1982 -0.5188 -0.9974
 5214SOL    HW227279   2.391   2.738   6.995  0.7867  0.8779  1.9011
 5215SOL     OW27280   0.303   1.689   1.170 -0.1570  0.1381  0.1880
 5215SOL    HW127281   0.234   1.671   1.106  0.2356  0.6763 -0.3902
 5215SOL    HW227282   0.370   1.658   1.109  0.2472  1.1658  0.1103
 5216SOL     OW27283   1.714   3.383   9.887  0.3210 -0.3557 -0.0213
 5216SOL    HW127284   1.787   3.362   9.945  0.1987  0.4654  0.4402
 5216SOL    HW227285   1.636   3.345   9.929  0.2687 -1.5421 -1.1920
 5217SOL     OW27286   1.719   4.582   3.152  0.3432  0.3720 -0.8395
 5217SOL    HW127287   1.791   4.604   3.094  0.5334  2.2068  0.0830
 5217SOL    HW227288   1.764   4.526   3.216 -1.5555  0.6722  0.7790
 5218SOL     OW27289   4.112   1.688   1.931 -0.0497 -0.5220  0.5734
 5218SOL    HW127290   4.154   1.730   2.006 -0.7935 -0.5638  1.0109
 5218SOL    HW227291   4.165   1.610   1.915  1.7541  0.0291  3.7592
 5219SOL     OW27292   0.430   2.996   5.443 -0.0216  0.2698  0.6742
 5219SOL    HW127293   0.461   3.087   5.446 -0.1189  0.2785  1.5133
 5219SOL    HW227294   0.437   2.984   5.538 -0.5490 -2.0902  0.4061
 5220SOL     OW27295   3.507   0.428  14.646 -0.1107 -0.1050 -0.3435
 5220SOL    HW127296   3.489   0.473  14.729  0.3524  0.0897 -0.3484
 5220SOL    HW227297   3.420   0.412  14.610 -0.5909  0.5960  0.5047
 5221SOL     OW27298   0.455   0.034   1.365 -0.1603  0.0945  0.6518
 5221SOL    HW127299   0.489   4.720   1.435 -1.1496  1.1124  1.9165
 5221SOL    HW227300   0.363   0.009   1.360 -0.0923  0.1368 -0.8621
 5222SOL     OW27301   0.806   3.060   1.833  0.0999  0.0473  0.4283
 5222SOL    HW127302   0.791   2.967   1.850 -1.1758 -0.4142 -3.2738
 5222SOL    HW227303   0.720   3.102   1.822 -0.2825 -0.6464  0.7323
 5223SOL     OW27304   1.025   0.138   3.682  0.0540  0.2733 -0.2230
 5223SOL    HW127305   1.073   0.214   3.649  2.4344 -2.0504 -2.1116
 5223SOL    HW227306   0.958   0.178   3.737  1.2777  0.9822  0.7297
 5224SOL     OW27307   4.122   0.605   6.180  0.0325  0.1752  0.0107
 5224SOL    HW127308   4.126   0.539   6.110 -1.4498 -3.0337  2.9633
 5224SOL    HW227309   4.206   0.648   6.167  0.5537 -0.8395  0.0209
 5225SOL     OW27310   4.096   2.862   3.292 -0.1754 -0.1758  0.1435
 5225SOL    HW127311   4.162   2.820   3.346  1.5741 -1.0174 -2.6564
 5225SOL    HW227312   4.113   2.817   3.209  0.5342 -3.4526  2.1009
 5226SOL     OW27313   2.740   4.029   1.529  0.2290 -0.2690 -0.0672
 5226SOL    HW127314   2.650   4.011   1.557  0.1132 -0.5656 -0.6367
 5226SOL    HW227315   2.783   3.944   1.537 -0.3989 -0.5869 -0.0260
 5227SOL     OW27316   1.080   0.925   2.817  0.3872 -0.2668  0.6703
 5227SOL    HW127317   1.078   1.018   2.841  1.1016  0.1981 -1.0857
 5227SOL    HW227318   1.163   0.907   2.861  1.2418  0.9807 -0.4378
 5228SOL     OW27319   1.955   4.723   3.464 -0.0772 -0.2325 -0.0427
 5228SOL    HW127320   1.877   0.010   3.416 -0.2058 -0.7822 -0.1413
 5228SOL    HW227321   2.016   4.709   3.392 -2.2932  1.7036 -2.2636
 5229SOL     OW27322   4.612   0.288   2.172 -0.0161  0.1121 -0.0768
 5229SOL    HW127323   4.676   0.254   2.234  0.5551  0.8030 -0.2978
 5229SOL    HW227324   4.565   0.213   2.135 -1.1932  1.3129 -1.0197
 5230SOL     OW27325   2.640   3.904   3.419 -0.5943  0.3622 -0.1430
 5230SOL    HW127326   2.662   3.811   3.423 -0.1286  0.6728  4.3047
 5230SOL    HW227327   2.729   3.936   3.411 -1.2007  2.0911  0.0069
 5231SOL     OW27328   0.932   2.372   9.270  0.5259 -0.4613 -0.0293
 5231SOL    HW127329   0.897   2.287   9.242 -1.2283  0.4047 -0.4790
 5231SOL    HW227330   1.004   2.334   9.319  1.8032  1.1075 -0.6946
 5232SOL     OW27331   4.065   0.297   2.970 -0.3815 -0.0845 -0.0406
 5232SOL    HW127332   4.155   0.267   2.958  0.3362  0.7692  2.9852
 5232SOL    HW227333   4.039   0.340   2.889  0.7288 -3.0628 -1.9952
 5233SOL     OW27334   1.236   2.691   1.511  0.0370 -0.3910  0.0952
 5233SOL    HW127335   1.228   2.785   1.529  0.3386 -0.3263 -0.1006
 5233SOL    HW227336   1.328   2.695   1.484 -0.5207  2.4434 -1.3929
 5234SOL     OW27337   3.277   2.671   7.986  0.3479  0.1368  0.0220
 5234SOL    HW127338   3.310   2.662   7.896  0.6535 -0.4207  0.1901
 5234SOL    HW227339   3.271   2.767   7.990  0.8489  0.1151  1.4191
 5235SOL     OW27340   2.866   0.426   8.941  0.3037 -0.2356 -0.2962
 5235SOL    HW127341   2.773   0.448   8.944 -0.3038 -2.7091 -1.0056
 5235SOL    HW227342   2.895   0.432   9.033 -0.2009  1.1862 -0.2389
 5236SOL     OW27343   3.378   0.218   5.755 -0.0188  0.0752  0.1102
 5236SOL    HW127344   3.467   0.224   5.721 -0.7792  1.5906 -1.6156
 5236SOL    HW227345   3.379   0.264   5.839 -2.1111  0.5484 -0.1076
 5237SOL     OW27346   0.348   2.051  16.051  0.0578 -0.2746  0.3573
 5237SOL    HW127347   0.345   2.123  16.114 -1.4312 -0.0372  0.0134
 5237SOL    HW227348   0.408   2.093  15.989 -1.3031  2.5976  1.0120
 5238SOL     OW27349   0.938   1.229   6.646 -0.5234  0.1251  0.7073
 5238SOL    HW127350   0.984   1.177   6.580 -0.9581 -0.9796  1.2695
 5238SOL    HW227351   1.005   1.295   6.662 -1.3126  0.7378  1.4620
 5239SOL     OW27352   1.516   2.489   6.490 -0.3833 -0.0130  0.1583
 5239SOL    HW127353   1.557   2.480   6.404  1.0854  4.7491  0.3825
 5239SOL    HW227354   1.490   2.581   6.489  3.1440  0.9889  0.2657
 5240SOL     OW27355   3.552   0.688  13.278  0.5570  0.4308  0.0882
 5240SOL    HW127356   3.587   0.605  13.311  3.9140  0.7917 -2.6367
 5240SOL    HW227357   3.556   0.742  13.357 -1.3960 -1.1308  1.2772
 5241SOL     OW27358   0.780   0.829   0.215 -0.0970  0.1263 -0.1718
 5241SOL    HW127359   0.744   0.902   0.164  0.3815 -1.5971 -2.9255
 5241SOL    HW227360   0.700   0.777   0.214  0.2242 -0.3508 -0.8538
 5242SOL     OW27361   3.121   2.317  17.449 -0.4586  0.1577 -0.1047
 5242SOL    HW127362   3.161   2.404  17.441  0.0122 -0.1229 -0.8106
 5242SOL    HW227363   3.188   2.252  17.427 -2.5699 -1.6081 -1.2369
 5243SOL     OW27364   2.418   0.114   2.809  0.2766 -0.6346  0.2931
 5243SOL    HW127365   2.509   0.144   2.815 -0.3743  1.6014 -0.9658
 5243SOL    HW227366   2.425   0.026   2.846  3.4568 -1.3053 -1.8957
 5244SOL     OW27367   2.544   1.011  15.483 -0.2888 -0.1705 -0.1126
 5244SOL    HW127368   2.618   1.072  15.474 -1.1754  1.0377  0.7365
 5244SOL    HW227369   2.557   0.961  15.403 -2.1129 -0.2886 -0.3284
 5245SOL     OW27370   1.477   4.044   5.670 -0.0041  0.5312  0.2486
 5245SOL    HW127371   1.462   3.951   5.653 -0.3570  0.3612  1.4814
 5245SOL    HW227372   1.572   4.036   5.663 -0.2492 -0.4080 -2.0270
 5246SOL     OW27373   3.840   1.770   5.203  0.2731  0.2292 -0.0799
 5246SOL    HW127374   3.871   1.681   5.220  0.3217  0.3619  0.5294
 5246SOL    HW227375   3.849   1.777   5.108  2.4097  2.0885  0.2583
 5247SOL     OW27376   2.594   2.495   5.088  0.2048 -0.3414 -0.2799
 5247SOL    HW127377   2.645   2.470   5.165 -0.9260 -0.3755  0.4617
 5247SOL    HW227378   2.571   2.408   5.058  1.0318 -0.7375  0.2369
 5248SOL     OW27379   1.775   1.381  14.454 -0.2187 -0.3509  0.0502
 5248SOL    HW127380   1.702   1.347  14.403 -0.8892  0.8204  0.2284
 5248SOL    HW227381   1.790   1.460  14.402 -2.0015 -0.9858 -1.4080
 5249SOL     OW27382   2.077   2.589   5.629  0.0550 -0.9205  0.4219
 5249SOL    HW127383   2.025   2.612   5.552  1.2897 -1.2843 -0.5262
 5249SOL    HW227384   2.094   2.495   5.618 -1.3976 -1.1103 -0.2173
 5250SOL     OW27385   4.302   4.375   5.592  0.1908 -0.8304  0.1964
 5250SOL    HW127386   4.369   4.424   5.640 -0.7627  1.3118 -0.6693
 5250SOL    HW227387   4.297   4.423   5.510  2.2973  0.0434  0.5841
 5251SOL     OW27388   4.362   3.126   6.243 -0.0892 -0.0690  0.4643
 5251SOL    HW127389   4.314   3.110   6.324 -1.6153 -1.3110 -0.6819
 5251SOL    HW227390   4.448   3.148   6.278 -0.9335  0.1060  2.4011
 5252SOL     OW27391   2.204   3.799   5.508  0.6858  0.4146  0.5636
 5252SOL    HW127392   2.154   3.790   5.427 -0.1483 -2.8283  1.4563
 5252SOL    HW227393   2.171   3.874   5.558  0.3418  0.7574 -0.1922
 5253SOL     OW27394   1.728   2.286   7.222  0.1894  0.0831  0.1979
 5253SOL    HW127395   1.718   2.212   7.282  0.2067  2.0466  2.6164
 5253SOL    HW227396   1.809   2.329   7.251 -0.3131 -0.1736  1.9407
 5254SOL     OW27397   0.329   0.956   6.352  0.2909  0.1363 -0.1475
 5254SOL    HW127398   0.340   1.033   6.408 -0.7841  1.5810 -1.9220
 5254SOL    HW227399   0.272   0.989   6.282 -1.9954 -0.7582  1.2805
 5255SOL     OW27400   2.743   1.392  11.424  0.7581  0.2270 -0.0182
 5255SOL    HW127401   2.730   1.452  11.498 -1.2749 -1.5951  1.0984
 5255SOL    HW227402   2.736   1.454  11.352 -1.1207  0.1893  0.1444
 5256SOL     OW27403   4.113   1.777  10.338 -1.1679 -0.2255 -1.0354
 5256SOL    HW127404   4.204   1.768  10.308  0.3044 -0.5739  3.5655
 5256SOL    HW227405   4.128   1.784  10.432  2.0622  0.1778 -1.5861
 5257SOL     OW27406   3.908   0.554  11.901  0.1294  0.2190 -0.2741
 5257SOL    HW127407   3.984   0.499  11.922  0.8170  1.3031  0.0915
 5257SOL    HW227408   3.890   0.535  11.809  1.7617  1.9340 -0.9510
 5258SOL     OW27409   4.222   0.893   7.663  0.1413  0.0049 -0.4773
 5258SOL    HW127410   4.152   0.868   7.603 -1.7471  0.2526  1.6595
 5258SOL    HW227411   4.244   0.975   7.619 -0.8767  0.6753  0.2652
 5259SOL     OW27412   3.377   4.512  11.455  0.2798 -0.1194 -0.3936
 5259SOL    HW127413   3.418   4.539  11.537 -1.5316 -1.0713  0.8072
 5259SOL    HW227414   3.452   4.517  11.395  1.2952 -0.0348  0.8791
 5260SOL     OW27415   3.897   0.770  11.282 -0.0458 -0.3676 -0.4822
 5260SOL    HW127416   3.947   0.812  11.352 -0.5893  0.5741 -0.6413
 5260SOL    HW227417   3.806   0.798  11.300  0.7621  1.1654  1.3004
 5261SOL     OW27418   4.470   3.425   4.267 -0.0260  0.2952 -0.4702
 5261SOL    HW127419   4.539   3.472   4.314  1.1262 -1.1784 -0.6804
 5261SOL    HW227420   4.518   3.353   4.227  1.0358  0.0301  1.2734
 5262SOL     OW27421   2.404   2.821   8.739 -0.1676  0.0950  0.0009
 5262SOL    HW127422   2.492   2.856   8.724  0.5464 -1.7808 -0.1904
 5262SOL    HW227423   2.425   2.735   8.775  1.1910  0.6772  0.5877
 5263SOL     OW27424   1.628   2.034  11.893 -0.8678 -0.6822  0.0165
 5263SOL    HW127425   1.575   1.991  11.825  0.3061  0.2008 -1.4626
 5263SOL    HW227426   1.718   2.025  11.862 -1.2431 -0.4583 -1.1742
 5264SOL     OW27427   2.753   0.892   6.217 -0.1527 -0.3690  0.2208
 5264SOL    HW127428   2.771   0.985   6.201 -0.4927 -0.8046 -2.5494
 5264SOL    HW227429   2.819   0.847   6.164 -0.7134 -0.4817 -0.3794
 5265SOL     OW27430   1.530   3.796   5.563  0.3630 -0.1718 -0.0101
 5265SOL    HW127431   1.453   3.753   5.526  1.0365 -0.2849 -1.2779
 5265SOL    HW227432   1.562   3.737   5.631  3.2283  1.8542  0.4290
 5266SOL     OW27433   3.189   3.483  11.358 -0.0301 -0.0205 -0.2347
 5266SOL    HW127434   3.150   3.428  11.426  0.0464  0.7034  0.3942
 5266SOL    HW227435   3.257   3.426  11.323  0.4181  0.0325  0.5594
 5267SOL     OW27436   1.615   1.014   0.558  0.3912  0.1203  0.1938
 5267SOL    HW127437   1.570   0.978   0.481 -0.4220 -0.1383  0.7827
 5267SOL    HW227438   1.543   1.074   0.578 -0.8657 -0.2337 -3.2537
 5268SOL     OW27439   4.697   2.880  17.058  0.0860 -0.3974 -0.2407
 5268SOL    HW127440   4.679   2.967  17.022 -1.2926 -1.0136 -1.0313
 5268SOL    HW227441   4.669   2.885  17.150  1.1315  2.9951 -0.1143
 5269SOL     OW27442   0.981   4.447   8.720 -0.0464  0.4002 -0.6083
 5269SOL    HW127443   0.940   4.476   8.802 -0.6224  0.1530 -0.8109
 5269SOL    HW227444   0.907   4.396   8.686 -1.1495  1.0278  0.8567
 5270SOL     OW27445   2.193   2.120   0.718  0.5060 -0.2109 -0.1894
 5270SOL    HW127446   2.274   2.095   0.761 -0.3950  0.5486  1.9446
 5270SOL    HW227447   2.150   2.180   0.779 -1.5953 -1.1010 -0.7874
 5271SOL     OW27448   4.433   0.599   6.618  0.1266  0.0833 -0.3556
 5271SOL    HW127449   4.380   0.521   6.632 -0.7346  0.9502  1.2218
 5271SOL    HW227450   4.475   0.572   6.537 -0.7070  1.2935 -1.1970
 5272SOL     OW27451   3.481   1.291   9.289  0.3521 -0.0911  0.0316
 5272SOL    HW127452   3.430   1.250   9.359 -0.2720 -0.1467 -0.4580
 5272SOL    HW227453   3.494   1.378   9.327 -3.0264 -0.5249  2.1986
 5273SOL     OW27454   0.135   4.603  12.225  0.3755  0.6586  0.2531
 5273SOL    HW127455   0.080   4.528  12.199 -2.1430  2.3132  0.8006
 5273SOL    HW227456   0.215   4.554  12.245 -1.1857 -1.2622  1.8885
 5274SOL     OW27457   1.620   2.759   9.135  0.0864  0.4955  0.4994
 5274SOL    HW127458   1.616   2.788   9.226 -0.7677  0.3050  0.5207
 5274SOL    HW227459   1.708   2.721   9.136 -0.0453  0.2329  2.1614
 5275SOL     OW27460   1.908   1.524   8.590  0.1095  0.3165  0.3717
 5275SOL    HW127461   1.898   1.620   8.586  0.0218  0.2672 -0.7445
 5275SOL    HW227462   1.816   1.497   8.589  0.0844  0.4432 -0.9659
 5276SOL     OW27463   4.177   2.163  10.587 -0.3530 -0.6812  0.3137
 5276SOL    HW127464   4.131   2.236  10.546  1.3323  0.6989  0.8509
 5276SOL    HW227465   4.250   2.155  10.525 -0.0586 -1.7046  0.7823
 5277SOL     OW27466   4.547   1.669   7.103  0.5099 -0.1068  0.0373
 5277SOL    HW127467   4.631   1.668   7.058 -0.0646 -0.6479 -1.0177
 5277SOL    HW227468   4.559   1.731   7.175 -0.4566 -0.1524  0.2325
 5278SOL     OW27469   1.720   0.454   2.515  0.1801 -0.9983  0.5303
 5278SOL    HW127470   1.777   0.389   2.474 -0.3931 -0.3177 -1.3233
 5278SOL    HW227471   1.741   0.430   2.606  2.7284  0.7609  0.4181
 5279SOL     OW27472   0.996   4.271   9.445  0.0680  0.1871 -0.4806
 5279SOL    HW127473   0.994   4.312   9.532  2.0530  0.8076 -0.7423
 5279SOL    HW227474   1.084   4.300   9.422  0.5206  0.3809  1.4445
 5280SOL     OW27475   4.210   2.486   6.844 -0.1258 -0.0831  0.4246
 5280SOL    HW127476   4.160   2.525   6.917  1.5091 -0.5159  1.7662
 5280SOL    HW227477   4.173   2.526   6.765  0.4792  0.5941  0.4838
 5281SOL     OW27478   1.573   0.250   8.996 -0.4207 -0.7028  0.1371
 5281SOL    HW127479   1.488   0.293   8.999 -0.0151  0.3314 -3.2215
 5281SOL    HW227480   1.626   0.321   8.962  0.0479 -0.8962  0.4688
 5282SOL     OW27481   0.016   3.578   6.388  0.5938 -0.0205 -0.1316
 5282SOL    HW127482   0.025   3.661   6.435  1.2790  1.6860 -3.2423
 5282SOL    HW227483   0.074   3.525   6.443  1.1304 -0.6149 -1.2637
 5283SOL     OW27484   1.105   2.103  17.502  0.2991 -0.1472  0.4938
 5283SOL    HW127485   1.151   2.130  17.422 -0.9710  1.5621  0.3411
 5283SOL    HW227486   1.099   2.181  17.558  0.3741 -0.6563  1.2128
 5284SOL     OW27487   0.933   3.917   6.953  0.2186 -0.6402  0.5880
 5284SOL    HW127488   0.969   3.878   6.873  0.2135  0.6699 -0.0609
 5284SOL    HW227489   0.943   4.011   6.935  2.4629 -0.6511  1.7203
 5285SOL     OW27490   2.132   1.201   2.843 -0.2535  0.1465  0.5267
 5285SOL    HW127491   2.117   1.207   2.749  1.5169  0.4171  0.2606
 5285SOL    HW227492   2.153   1.109   2.858  0.7168  0.8205  3.2594
 5286SOL     OW27493   4.466   2.686   5.620  0.2675 -0.3332 -0.5786
 5286SOL    HW127494   4.539   2.733   5.660  0.5564 -2.1067  1.0005
 5286SOL    HW227495   4.408   2.676   5.696 -0.8098  2.2735 -1.0603
 5287SOL     OW27496   4.528   4.506   5.772 -0.1651 -0.3385 -0.2517
 5287SOL    HW127497   4.561   4.501   5.861 -1.7407  2.1667  0.4756
 5287SOL    HW227498   4.464   4.574   5.792 -2.0091 -1.6625 -1.5663
 5288SOL     OW27499   1.218   0.539  11.828 -0.5473 -0.2704  0.3906
 5288SOL    HW127500   1.275   0.571  11.899  0.4306  1.8483 -1.3437
 5288SOL    HW227501   1.279   0.532  11.755 -2.4160 -0.7104 -1.1132
 5289SOL     OW27502   2.128   2.663  13.776 -0.0123 -0.1669  0.4491
 5289SOL    HW127503   2.039   2.644  13.748 -0.2159  1.4411 -0.0014
 5289SOL    HW227504   2.136   2.749  13.734 -1.5421  0.5717  1.6706
 5290SOL     OW27505   1.107   1.396   9.379  0.0491 -0.7752  0.4930
 5290SOL    HW127506   1.129   1.472   9.325 -2.1705 -0.4890  0.0028
 5290SOL    HW227507   1.133   1.429   9.465 -0.8182  0.0848  0.4297
 5291SOL     OW27508   0.780   3.081   7.834 -0.0977  0.2333 -0.0873
 5291SOL    HW127509   0.838   3.008   7.853 -2.4238 -1.4057  0.8161
 5291SOL    HW227510   0.830   3.125   7.766 -0.3506  0.8791  0.1362
 5292SOL     OW27511   0.397   2.561   6.159  0.2574 -0.1969  0.2335
 5292SOL    HW127512   0.341   2.552   6.236 -2.9122 -0.1852 -2.0504
 5292SOL    HW227513   0.458   2.492   6.183  0.9536  0.1905 -0.4465
 5293SOL     OW27514   4.059   4.462   6.254  0.0456 -0.4127 -0.2265
 5293SOL    HW127515   4.148   4.493   6.238 -0.3725 -0.3129 -2.4129
 5293SOL    HW227516   4.018   4.512   6.324  0.1038  1.1435 -1.3070
 5294SOL     OW27517   1.919   3.583   6.853  0.0623  0.7444 -0.0072
 5294SOL    HW127518   1.829   3.606   6.872 -0.9337 -1.7462 -1.5713
 5294SOL    HW227519   1.958   3.641   6.918  1.5322  0.1527 -0.3453
 5295SOL     OW27520   4.118   4.279  11.415 -0.2102 -0.2429  0.6990
 5295SOL    HW127521   4.073   4.345  11.468 -0.2580 -0.0771  0.4512
 5295SOL    HW227522   4.189   4.248  11.470 -0.0316 -0.8658  0.1164
 5296SOL     OW27523   0.120   4.393   8.353  0.5614  0.0028  0.0308
 5296SOL    HW127524   0.143   4.462   8.414 -1.0563  0.9265 -0.4002
 5296SOL    HW227525   0.026   4.405   8.365  0.6090 -1.4949  1.7951
 5297SOL     OW27526   2.676   2.615  12.841  0.8586  0.4395 -0.3360
 5297SOL    HW127527   2.677   2.541  12.780 -0.2510  0.0325  0.1352
 5297SOL    HW227528   2.770   2.628  12.850  0.7750  1.9194 -1.6168
 5298SOL     OW27529   1.054   4.721  11.151  1.1863 -0.4334  0.0241
 5298SOL    HW127530   0.965   4.734  11.116  0.4546 -1.4977  1.4817
 5298SOL    HW227531   1.090   4.656  11.091  0.2739  1.1058 -2.1993
 5299SOL     OW27532   0.272   0.562   7.659  0.0336 -0.2092 -0.2482
 5299SOL    HW127533   0.341   0.551   7.724 -0.8186 -2.3976  0.2980
 5299SOL    HW227534   0.231   0.643   7.688  0.6126  0.1256 -0.3623
 5300SOL     OW27535   1.363   1.975   6.395 -0.8180 -0.4058 -0.3253
 5300SOL    HW127536   1.323   1.959   6.480 -1.2278 -0.5911 -0.5551
 5300SOL    HW227537   1.423   2.048   6.409  0.1778 -1.0831 -1.0255
 5301SOL     OW27538   0.590   4.483   5.853 -0.2970 -0.5510 -0.1304
 5301SOL    HW127539   0.664   4.484   5.913  0.9067  0.1695 -1.6213
 5301SOL    HW227540   0.633   4.499   5.769  0.8976 -0.5172  0.4896
 5302SOL     OW27541   3.010   0.219   3.299 -0.6275 -0.2427  0.0055
 5302SOL    HW127542   2.932   0.200   3.351 -1.7793  0.4282 -1.4633
 5302SOL    HW227543   3.060   0.282   3.351 -0.7823  0.0760 -0.2318
 5303SOL     OW27544   4.191   3.807   9.432  0.2234 -0.1860  0.0522
 5303SOL    HW127545   4.278   3.786   9.398  1.2015  2.0439  1.1736
 5303SOL    HW227546   4.147   3.791   9.349 -0.0715  0.9505 -0.0129
 5304SOL     OW27547   2.952   4.439   3.056  0.0613  0.2625 -0.0864
 5304SOL    HW127548   3.000   4.373   3.006  0.2059 -0.3620  0.8742
 5304SOL    HW227549   2.989   4.450   3.144 -2.5232 -0.3450  1.0551
 5305SOL     OW27550   3.108   0.349   6.404 -0.1078 -0.1984  0.8082
 5305SOL    HW127551   3.140   0.388   6.486  2.3023 -3.8356  1.6108
 5305SOL    HW227552   3.030   0.403   6.395  0.7203  0.5546 -1.6823
 5306SOL     OW27553   1.228   4.199   6.828  0.7330  0.3879 -0.2353
 5306SOL    HW127554   1.200   4.137   6.761 -0.4758 -0.6644  1.2225
 5306SOL    HW227555   1.323   4.197   6.814  0.4355 -0.2529 -2.1066
 5307SOL     OW27556   1.580   1.256   7.417 -0.0178 -0.2498  0.0899
 5307SOL    HW127557   1.627   1.175   7.436  1.6630  1.3554  2.8135
 5307SOL    HW227558   1.653   1.313   7.440 -0.5798 -0.3758  2.1705
 5308SOL     OW27559   2.229   3.213   9.655 -0.1047 -0.0484 -0.8066
 5308SOL    HW127560   2.163   3.205   9.724  0.8392 -0.7791  0.0229
 5308SOL    HW227561   2.198   3.295   9.618  0.4780  1.2819  1.6801
 5309SOL     OW27562   4.193   3.376   4.651  0.4116 -0.0866  0.1803
 5309SOL    HW127563   4.107   3.395   4.689 -1.5279 -2.8896 -2.8315
 5309SOL    HW227564   4.232   3.463   4.661  1.2842 -0.6987  2.2131
 5310SOL     OW27565   0.666   4.236   6.126  0.0765 -0.4400  0.2166
 5310SOL    HW127566   0.572   4.254   6.130  0.2776  0.3892  1.3516
 5310SOL    HW227567   0.670   4.202   6.037  1.4906  0.9421 -0.2377
 5311SOL     OW27568   1.921   2.180  16.803 -0.6319  0.4342 -0.6941
 5311SOL    HW127569   1.844   2.159  16.855  0.3537 -0.7559  0.2934
 5311SOL    HW227570   1.886   2.244  16.741 -0.9117 -1.0277 -2.0742
 5312SOL     OW27571   3.603   1.232   1.712  0.8839 -0.6492 -0.0725
 5312SOL    HW127572   3.655   1.153   1.697 -2.3983 -2.8773  0.3191
 5312SOL    HW227573   3.517   1.211   1.677  1.1894 -1.5927 -0.2578
 5313SOL     OW27574   2.909   2.049   9.621  0.2948  0.0250 -0.2957
 5313SOL    HW127575   2.837   1.992   9.595  0.4274 -0.7611  1.0190
 5313SOL    HW227576   2.881   2.056   9.712  1.3227  2.4968 -0.1592
 5314SOL     OW27577   2.554   1.981   6.465  0.3587  0.0770  0.2153
 5314SOL    HW127578   2.578   1.889   6.455 -0.6621 -0.0135 -1.3692
 5314SOL    HW227579   2.502   1.986   6.384  2.3596  0.2578 -1.0731
 5315SOL     OW27580   2.640   1.435   8.053  0.1109 -0.2022 -0.1128
 5315SOL    HW127581   2.648   1.427   7.958  1.5071  0.1512 -0.0216
 5315SOL    HW227582   2.734   1.440   8.073  0.2994  0.5398 -1.1869
 5316SOL     OW27583   1.205   0.830   4.526 -0.6273  0.2825  0.3213
 5316SOL    HW127584   1.141   0.827   4.597 -1.7352 -3.0223 -0.8254
 5316SOL    HW227585   1.177   0.752   4.478  0.3054  0.4459 -0.4913
 5317SOL     OW27586   0.645   2.513  13.588  0.2596 -0.4278 -0.1657
 5317SOL    HW127587   0.725   2.536  13.542  0.3665  0.7342  0.5945
 5317SOL    HW227588   0.595   2.592  13.569  3.2582  1.2752 -0.9000
 5318SOL     OW27589   1.854   4.047   2.815  0.2297 -0.2596 -0.6420
 5318SOL    HW127590   1.888   4.109   2.751 -1.3959 -0.1145 -1.3744
 5318SOL    HW227591   1.883   4.098   2.891 -2.1746  0.0845  0.0347
 5319SOL     OW27592   4.578   2.548   5.123  0.8955  0.3827  0.5251
 5319SOL    HW127593   4.550   2.555   5.214 -0.6332 -0.0828  0.0992
 5319SOL    HW227594   4.497   2.579   5.083  0.5323 -0.6293  0.4815
 5320SOL     OW27595   4.355   0.286   1.068  0.3201 -0.3950 -0.0755
 5320SOL    HW127596   4.311   0.270   0.985  1.8318 -1.1487 -0.7455
 5320SOL    HW227597   4.391   0.201   1.091  2.1270  0.6184  0.8765
 5321SOL     OW27598   4.466   3.322  16.933 -0.0982 -0.3470 -0.5097
 5321SOL    HW127599   4.403   3.250  16.935  1.2660 -1.5701 -1.5663
 5321SOL    HW227600   4.473   3.340  16.839 -1.0715  0.3151 -0.4461
 5322SOL     OW27601   2.811   1.583   5.737 -0.4020 -0.6259 -0.4986
 5322SOL    HW127602   2.902   1.612   5.735 -0.5520 -0.1001  0.2477
 5322SOL    HW227603   2.776   1.665   5.702  0.0241 -0.0161  0.4884
 5323SOL     OW27604   4.049   0.593   6.765  0.4832 -0.0828 -0.3476
 5323SOL    HW127605   4.065   0.667   6.706  0.5429 -1.4126 -1.9856
 5323SOL    HW227606   4.106   0.527   6.726 -2.7570 -1.9487 -1.8898
 5324SOL     OW27607   0.820   0.375   5.280  0.1423  0.1034  0.2531
 5324SOL    HW127608   0.753   0.373   5.348  0.8115 -1.0007  0.8716
 5324SOL    HW227609   0.807   0.464   5.248 -0.1480 -1.0867 -2.9717
 5325SOL     OW27610   2.984   3.210   4.700  0.2903  0.0774 -0.2826
 5325SOL    HW127611   3.000   3.117   4.685  1.9664  0.3293 -0.0333
 5325SOL    HW227612   2.898   3.206   4.743 -0.1884  1.7622 -1.0961
 5326SOL     OW27613   4.168   2.431  13.921 -0.6982 -0.1913  0.2869
 5326SOL    HW127614   4.103   2.401  13.857  1.0736 -2.5528 -0.3941
 5326SOL    HW227615   4.191   2.521  13.896  1.8435 -0.9082  0.0549
 5327SOL     OW27616   4.628   4.387   6.165 -0.1171  0.6562 -0.4982
 5327SOL    HW127617   4.654   4.376   6.257 -3.0698 -0.6807  0.1714
 5327SOL    HW227618   4.619   4.299   6.131  0.9684  0.2886  0.1417
 5328SOL     OW27619   4.080   1.921   6.632 -0.0431 -0.0701 -0.2071
 5328SOL    HW127620   4.038   2.006   6.649  0.7546 -0.1558  2.2285
 5328SOL    HW227621   4.170   1.942   6.658 -0.4168  0.3458  0.7648
 5329SOL     OW27622   1.314   2.407  13.246 -0.1701  0.0184  0.5064
 5329SOL    HW127623   1.243   2.365  13.195  1.0521 -0.9693 -0.3853
 5329SOL    HW227624   1.281   2.363  13.325  1.8020 -2.8308 -0.2458
 5330SOL     OW27625   4.080   2.190   2.196  0.3703  0.1799 -0.1309
 5330SOL    HW127626   4.089   2.282   2.221  2.0168  0.2114 -0.8384
 5330SOL    HW227627   3.998   2.155   2.230  0.2050 -0.3610 -1.1055
 5331SOL     OW27628   2.748   0.283   2.974  0.8091  0.4358 -0.5172
 5331SOL    HW127629   2.732   0.328   3.058  0.2065 -0.1127 -0.3345
 5331SOL    HW227630   2.680   0.323   2.920 -0.2263 -0.1850  0.3079
 5332SOL     OW27631   1.053   1.180  15.078  0.4588  0.0382  0.5048
 5332SOL    HW127632   1.005   1.175  15.161  1.3799 -0.4689  1.0150
 5332SOL    HW227633   1.135   1.210  15.118  1.3553  0.0386 -1.3341
 5333SOL     OW27634   0.323   3.300  16.507 -0.0691  0.1853  0.1993
 5333SOL    HW127635   0.291   3.364  16.570  1.3951 -0.0543  1.1864
 5333SOL    HW227636   0.382   3.346  16.447  0.4066 -1.7897 -0.8433
 5334SOL     OW27637   0.782   1.908   3.322  0.6005  0.2896  0.3179
 5334SOL    HW127638   0.839   1.831   3.319 -0.6697 -0.6314 -0.2559
 5334SOL    HW227639   0.803   1.947   3.237 -2.4013  1.1986 -0.0005
 5335SOL     OW27640   1.215   1.185   6.183 -0.0554  0.1341 -0.1705
 5335SOL    HW127641   1.200   1.272   6.219 -0.7727 -1.1038  2.5326
 5335SOL    HW227642   1.287   1.161   6.242 -0.1946 -0.7777 -0.3681
 5336SOL     OW27643   3.732   0.219  11.149 -0.6850  0.1066 -0.3609
 5336SOL    HW127644   3.680   0.293  11.119  0.7361  1.1653 -0.2256
 5336SOL    HW227645   3.764   0.194  11.062  3.6928 -1.2534  1.6322
 5337SOL     OW27646   4.615   1.401  14.803 -0.3238  0.8291  0.1701
 5337SOL    HW127647   4.623   1.339  14.876 -1.3429  1.4129  0.7830
 5337SOL    HW227648   4.533   1.383  14.757 -0.5586 -0.2445  0.9921
 5338SOL     OW27649   4.484   3.579   6.422  0.0356  0.1847  0.0995
 5338SOL    HW127650   4.460   3.664   6.459  1.5178  2.0569 -3.2398
 5338SOL    HW227651   4.558   3.608   6.368 -0.2810 -1.3207 -1.1272
 5339SOL     OW27652   0.674   3.373   4.291  0.1235  0.0716  0.2540
 5339SOL    HW127653   0.589   3.415   4.285 -0.1043 -0.1971  1.6425
 5339SOL    HW227654   0.670   3.318   4.213  1.4137  0.1939  0.0883
 5340SOL     OW27655   3.776   0.842  14.040  0.0771 -0.1296  0.1214
 5340SOL    HW127656   3.739   0.917  13.993  0.5411 -0.5111 -0.8435
 5340SOL    HW227657   3.728   0.776  13.990 -0.2316  2.4700 -3.0186
 5341SOL     OW27658   1.430   0.984   9.855 -0.3092 -0.7686  0.3351
 5341SOL    HW127659   1.485   1.059   9.834 -0.7919 -0.5180 -0.0228
 5341SOL    HW227660   1.494   0.946   9.916  2.4846  2.7677 -0.3939
 5342SOL     OW27661   2.833   4.049   2.061  0.0226  0.0946  0.3351
 5342SOL    HW127662   2.836   4.083   2.151 -1.5629  1.6385 -0.1939
 5342SOL    HW227663   2.750   4.089   2.035 -0.8872 -0.7018  2.0088
 5343SOL     OW27664   3.727   0.248  13.175 -0.1453  0.0040 -0.0906
 5343SOL    HW127665   3.659   0.232  13.240  0.6304 -0.5316  0.5885
 5343SOL    HW227666   3.758   0.158  13.165  0.5240 -0.2665  4.5651
 5344SOL     OW27667   2.359   3.555   4.498 -0.1079 -0.4887 -0.5631
 5344SOL    HW127668   2.339   3.547   4.405 -1.0383 -0.1531 -0.3886
 5344SOL    HW227669   2.347   3.650   4.501  0.0148 -0.5560  2.0114
 5345SOL     OW27670   1.946   2.332   9.814 -0.7559  0.0260  0.6494
 5345SOL    HW127671   1.954   2.378   9.898 -0.5850  1.6902 -0.2891
 5345SOL    HW227672   1.983   2.391   9.749 -1.3012  0.6913  0.9524
 5346SOL     OW27673   0.186   3.069   8.628 -0.1778 -0.2251 -0.0858
 5346SOL    HW127674   0.118   3.002   8.637 -0.1711 -0.1594  0.4038
 5346SOL    HW227675   0.185   3.119   8.709 -1.4624 -1.6185  0.7514
 5347SOL     OW27676   3.665   3.657  11.635 -0.1023 -0.3403 -0.0623
 5347SOL    HW127677   3.727   3.593  11.672  1.8246  1.0163 -0.9521
 5347SOL    HW227678   3.678   3.732  11.693 -0.2688 -0.4702  0.1426
 5348SOL     OW27679   3.733   0.610  10.478  0.0347  0.7762  0.3600
 5348SOL    HW127680   3.787   0.660  10.539 -1.8163 -1.2914  3.6715
 5348SOL    HW227681   3.801   0.596  10.412  0.4495  0.2536  0.9022
 5349SOL     OW27682   3.013   0.792  11.067  0.1266  0.6878 -0.3056
 5349SOL    HW127683   3.012   0.818  11.159 -4.4066  0.7379 -0.3575
 5349SOL    HW227684   3.054   0.706  11.076 -2.6032 -0.5175  0.4843
 5350SOL     OW27685   0.550   4.504   3.922 -0.6383  0.1291  0.7012
 5350SOL    HW127686   0.583   4.591   3.945  1.7263  0.1409 -2.7638
 5350SOL    HW227687   0.628   4.465   3.883  0.0205  0.0396  2.0984
 5351SOL     OW27688   3.161   3.379   4.814  0.2451 -0.1037 -0.1711
 5351SOL    HW127689   3.111   3.460   4.822 -1.5166 -1.4060  2.0452
 5351SOL    HW227690   3.117   3.322   4.751 -0.7405 -0.4922  0.8699
 5352SOL     OW27691   3.876   3.774   1.827 -0.2777  0.6121  0.3358
 5352SOL    HW127692   3.816   3.829   1.775 -1.2339 -2.1231 -1.4795
 5352SOL    HW227693   3.901   3.848   1.883 -0.4249  0.1225  1.0424
 5353SOL     OW27694   0.602   4.624  14.297 -0.0641  0.3443  0.3220
 5353SOL    HW127695   0.527   4.565  14.301  0.5257 -0.4611 -0.6084
 5353SOL    HW227696   0.603   4.611  14.202 -0.0915 -1.6456  0.5921
 5354SOL     OW27697   3.684   1.295   2.340 -0.5254  0.0759 -0.9790
 5354SOL    HW127698   3.662   1.381   2.306 -2.7768  1.0877  2.9848
 5354SOL    HW227699   3.751   1.301   2.408 -0.4385  1.4187 -1.1856
 5355SOL     OW27700   3.811   0.684   4.643 -0.1579 -0.4112 -0.5226
 5355SOL    HW127701   3.869   0.708   4.570  0.0565 -0.5438 -0.3984
 5355SOL    HW227702   3.864   0.712   4.718 -2.6079 -3.8336  2.4547
 5356SOL     OW27703   2.508   0.698   4.426  0.0634 -0.8676 -0.7753
 5356SOL    HW127704   2.551   0.619   4.392  0.4856 -0.4046 -1.3184
 5356SOL    HW227705   2.503   0.694   4.522 -2.2089  2.4682 -0.7810
 5357SOL     OW27706   0.809   2.943   3.356  0.3305 -0.1743 -0.3977
 5357SOL    HW127707   0.782   3.034   3.348  0.1055 -0.1835  0.3024
 5357SOL    HW227708   0.793   2.919   3.447 -0.4084  1.4096 -0.1124
 5358SOL     OW27709   2.975   4.022   9.324 -0.2838 -0.1894  0.3043
 5358SOL    HW127710   2.955   4.078   9.399  1.8839  0.0420  0.6992
 5358SOL    HW227711   2.948   3.945   9.374  0.3025  0.1846  1.2012
 5359SOL     OW27712   1.617   3.345   6.983  0.0710 -0.3100 -0.0576
 5359SOL    HW127713   1.540   3.403   6.988  1.1532  1.0399  0.9230
 5359SOL    HW227714   1.628   3.335   6.889 -1.0150 -0.9946 -0.1164
 5360SOL     OW27715   3.736   0.836   0.655 -0.0024  0.2500  0.2078
 5360SOL    HW127716   3.710   0.918   0.696 -1.3632 -1.3570  2.5753
 5360SOL    HW227717   3.832   0.837   0.650 -0.0447  0.6622 -0.5842
 5361SOL     OW27718   3.722   0.105   2.000  0.0272  0.2775 -0.0417
 5361SOL    HW127719   3.751   0.057   1.922 -0.2528 -1.0567  0.6717
 5361SOL    HW227720   3.753   0.053   2.074 -0.8762  0.5030  0.4929
 5362SOL     OW27721   1.667   1.052   4.337  0.3003 -0.6119  0.4780
 5362SOL    HW127722   1.656   0.958   4.329  2.8400 -1.0275  1.7332
 5362SOL    HW227723   1.761   1.071   4.335  0.0666  0.5616  0.2416
 5363SOL     OW27724   0.267   0.652   6.915  0.1692 -0.6114  0.3017
 5363SOL    HW127725   0.314   0.612   6.988  0.5231 -1.1722 -0.2320
 5363SOL    HW227726   0.215   0.710   6.972  2.7570  0.4596  1.5549
 5364SOL     OW27727   0.804   3.974   3.452 -0.9053  0.0915 -0.1500
 5364SOL    HW127728   0.868   4.028   3.407  1.1385 -1.6888  0.6238
 5364SOL    HW227729   0.795   4.029   3.530 -0.0222 -0.0124  0.0196
 5365SOL     OW27730   1.651   3.331  17.533  0.2412  0.2170  0.4219
 5365SOL    HW127731   1.630   3.377  17.452  0.6036  0.6047  0.5502
 5365SOL    HW227732   1.728   3.279  17.511  1.1165  1.2167  1.1348
 5366SOL     OW27733   0.886   2.649   3.138  0.4469  0.7844 -0.3414
 5366SOL    HW127734   0.797   2.677   3.160  0.7122  1.7794 -0.5518
 5366SOL    HW227735   0.884   2.561   3.175  1.5383 -0.1931 -2.5990
 5367SOL     OW27736   3.762   4.058  10.163  0.0844 -0.1730 -0.7286
 5367SOL    HW127737   3.770   4.139  10.214  1.1750 -1.0614  0.5059
 5367SOL    HW227738   3.668   4.045  10.149 -0.4783  1.4831  1.5309
 5368SOL     OW27739   2.114   3.503  16.549  0.3360 -0.6453 -0.0833
 5368SOL    HW127740   2.030   3.545  16.568 -0.3471 -2.2028  0.2931
 5368SOL    HW227741   2.154   3.516  16.636 -0.8454  1.0165  0.2125
 5369SOL     OW27742   4.308   2.043   5.881  0.3615 -0.2400 -0.2979
 5369SOL    HW127743   4.263   2.113   5.928  1.0357  0.7368 -1.1173
 5369SOL    HW227744   4.343   2.089   5.805  0.4956  0.6340  0.2868
 5370SOL     OW27745   3.330   0.480   5.640  0.3741 -0.1386  0.1633
 5370SOL    HW127746   3.394   0.422   5.599  1.1803  3.2446 -3.4805
 5370SOL    HW227747   3.261   0.416   5.627  0.6994 -0.5703  0.5721
 5371SOL     OW27748   1.035   3.025   7.220  0.1566  0.2577 -0.3970
 5371SOL    HW127749   0.996   3.104   7.257  0.8995  1.2949 -1.8176
 5371SOL    HW227750   0.987   2.963   7.274  1.7205  0.8032  1.6159
 5372SOL     OW27751   0.522   0.806   8.786  0.6250  0.5934  0.0341
 5372SOL    HW127752   0.438   0.763   8.773  0.5021  0.7418  0.3138
 5372SOL    HW227753   0.507   0.875   8.851  1.3323 -0.5110  1.3626
 5373SOL     OW27754   1.666   3.106   9.150  0.1828  0.3812 -0.4270
 5373SOL    HW127755   1.715   3.028   9.175  0.2326  0.7671  0.7179
 5373SOL    HW227756   1.658   3.082   9.058  1.0397  0.4337 -0.5133
 5374SOL     OW27757   0.995   3.420   2.105 -0.3720  0.0074  0.1780
 5374SOL    HW127758   0.943   3.377   2.037  2.0371  0.5565 -2.0047
 5374SOL    HW227759   0.939   3.403   2.181 -1.1801  0.2133 -0.3676
 5375SOL     OW27760   0.883   3.100   6.431  0.4028  0.1581 -0.1381
 5375SOL    HW127761   0.978   3.101   6.441  0.4370 -0.4285 -0.3846
 5375SOL    HW227762   0.858   3.111   6.523  2.7302 -1.1213  0.6313
 5376SOL     OW27763   1.605   1.585   1.807  0.7256  0.0305 -0.0998
 5376SOL    HW127764   1.670   1.590   1.737  1.8013 -0.0497  0.8823
 5376SOL    HW227765   1.613   1.667   1.855  2.9102 -0.6328  0.6788
 5377SOL     OW27766   2.218   0.527   0.707 -0.1980  0.4194 -0.2205
 5377SOL    HW127767   2.266   0.448   0.732 -1.0764 -0.3893 -1.0998
 5377SOL    HW227768   2.179   0.513   0.620  1.6574  1.2532 -1.1871
 5378SOL     OW27769   0.153   3.383   8.524 -0.7308  0.1368  0.1514
 5378SOL    HW127770   0.141   3.318   8.455 -1.1567  0.1488  0.2133
 5378SOL    HW227771   0.212   3.336   8.584 -2.4139  0.0580  1.7476
 5379SOL     OW27772   1.944   1.095   4.311  0.1635  0.3147  0.2607
 5379SOL    HW127773   2.038   1.084   4.324  0.0726  0.9486  1.4313
 5379SOL    HW227774   1.948   1.182   4.270 -0.6969 -0.3240 -1.2010
 5380SOL     OW27775   3.234   0.903   3.918  0.1520 -0.4476 -0.0879
 5380SOL    HW127776   3.182   0.940   3.989  0.0185  0.0648 -0.4512
 5380SOL    HW227777   3.168   0.843   3.883 -1.6299 -0.0285  2.5388
 5381SOL     OW27778   0.439   2.430   5.003  0.0288  0.5059  0.0917
 5381SOL    HW127779   0.459   2.340   5.029 -0.3343  0.2586 -0.4907
 5381SOL    HW227780   0.441   2.428   4.907  1.5483  1.9693  0.0903
 5382SOL     OW27781   0.611   1.437   2.595  0.4109  0.2615 -0.0159
 5382SOL    HW127782   0.521   1.410   2.609  0.2857 -0.2410 -1.9125
 5382SOL    HW227783   0.609   1.455   2.501 -0.9678 -1.2934 -0.2770
 5383SOL     OW27784   2.487   0.857   4.156 -0.5652  0.1955 -0.4411
 5383SOL    HW127785   2.457   0.803   4.230 -2.3609  0.0407 -1.2804
 5383SOL    HW227786   2.516   0.930   4.210  0.3268 -1.0968  0.8435
 5384SOL     OW27787   3.744   3.617   2.128 -0.2886 -0.3218 -0.5999
 5384SOL    HW127788   3.752   3.615   2.032 -2.1487 -1.6245 -0.7305
 5384SOL    HW227789   3.820   3.569   2.161 -1.1573 -1.4932 -0.3218
 5385SOL     OW27790   4.389   1.359   0.350 -0.3180 -0.3684 -0.1713
 5385SOL    HW127791   4.483   1.370   0.364 -1.1904  2.5463  3.4462
 5385SOL    HW227792   4.358   1.350   0.440 -2.9401  0.9503 -0.9560
 5386SOL     OW27793   1.528   0.809  13.576  0.1696  0.2167 -0.3460
 5386SOL    HW127794   1.511   0.809  13.482 -0.8900 -1.6479 -0.1603
 5386SOL    HW227795   1.559   0.900  13.579  0.9218 -0.1032  1.8954
 5387SOL     OW27796   0.650   4.448  12.443 -0.0773  0.9086  1.1717
 5387SOL    HW127797   0.561   4.444  12.478 -1.2116  0.7168 -1.7299
 5387SOL    HW227798   0.665   4.538  12.416  0.0327  0.1314 -1.3742
 5388SOL     OW27799   3.491   2.043  13.453 -0.2116 -0.8237 -0.5413
 5388SOL    HW127800   3.508   2.122  13.401  2.3510 -0.1278  1.4040
 5388SOL    HW227801   3.584   2.025  13.465 -0.2704 -2.1834 -2.0924
 5389SOL     OW27802   3.175   3.939   0.689  0.0578 -0.8194  0.4459
 5389SOL    HW127803   3.185   4.031   0.716 -1.5391 -1.1608  2.2098
 5389SOL    HW227804   3.251   3.922   0.634  1.8254  0.8316  2.3285
 5390SOL     OW27805   1.768   1.339  11.398  0.8014  0.4258  0.1010
 5390SOL    HW127806   1.718   1.314  11.475  1.4477 -0.7108  0.1574
 5390SOL    HW227807   1.835   1.270  11.393  0.7286  0.3646 -0.0297
 5391SOL     OW27808   1.950   3.234   1.421 -0.0677 -0.8120 -0.3258
 5391SOL    HW127809   1.962   3.319   1.464 -2.5485 -0.6977  0.1701
 5391SOL    HW227810   1.933   3.173   1.492 -1.2383 -1.2073 -0.9387
 5392SOL     OW27811   4.454   2.574   7.633  0.0161 -0.0459 -0.6537
 5392SOL    HW127812   4.371   2.584   7.679  1.3827  1.2984  1.5028
 5392SOL    HW227813   4.436   2.617   7.549 -2.3564  1.6922  0.7394
 5393SOL     OW27814   4.261   2.014   4.468  0.3891 -0.4475 -0.0085
 5393SOL    HW127815   4.350   2.042   4.446 -0.1941 -0.0994 -1.9400
 5393SOL    HW227816   4.222   2.052   4.389 -0.0762  1.7744  1.3027
 5394SOL     OW27817   3.636   0.738   0.437  0.2478  0.1905  0.8796
 5394SOL    HW127818   3.674   0.774   0.517  0.6759 -1.3207  1.3511
 5394SOL    HW227819   3.632   0.646   0.462  0.1048 -0.4536 -1.5185
 5395SOL     OW27820   3.502   4.349   8.200  0.0751  0.4270  0.0293
 5395SOL    HW127821   3.528   4.345   8.293  1.5865  1.7337 -0.3215
 5395SOL    HW227822   3.587   4.343   8.157  1.5373  4.4364  2.2714
 5396SOL     OW27823   2.208   0.477  15.984  0.3322  0.0868  0.7508
 5396SOL    HW127824   2.204   0.382  15.999 -0.2874 -0.1101 -0.6743
 5396SOL    HW227825   2.298   0.494  16.012  0.5285 -1.1289  0.8702
 5397SOL     OW27826   4.138   2.034   8.202  0.1052  0.2913 -0.0966
 5397SOL    HW127827   4.188   2.100   8.251  0.3510 -0.3631  0.5277
 5397SOL    HW227828   4.162   2.036   8.110  0.7808  1.0394  0.0955
 5398SOL     OW27829   0.960   2.790  15.665 -0.3111  0.0731  0.1854
 5398SOL    HW127830   0.989   2.867  15.616  0.1801 -0.6439 -0.6234
 5398SOL    HW227831   0.951   2.721  15.599  0.9105  1.6931 -1.6666
 5399SOL     OW27832   3.613   4.299   1.487  0.3293  0.3016 -0.0903
 5399SOL    HW127833   3.564   4.310   1.569 -0.6793  0.1556 -0.6641
 5399SOL    HW227834   3.657   4.384   1.484  1.0505 -0.0838 -0.4025
 5400SOL     OW27835   4.520   0.521   2.671  0.2447 -0.3166 -0.4067
 5400SOL    HW127836   4.535   0.494   2.580 -0.1184 -1.4032 -0.1520
 5400SOL    HW227837   4.497   0.612   2.655 -0.6933 -0.3468  0.7946
 5401SOL     OW27838   4.662   4.542  11.245  0.4501 -0.8179  0.2873
 5401SOL    HW127839   4.569   4.526  11.264  0.2859  1.5345  1.4527
 5401SOL    HW227840   4.668   4.497  11.160  1.1573  1.3651 -0.8283
 5402SOL     OW27841   2.447   0.872   8.612 -0.3115  0.0898 -0.1705
 5402SOL    HW127842   2.379   0.935   8.590  0.6839  0.6266 -1.6810
 5402SOL    HW227843   2.523   0.928   8.629 -0.9083  0.6226  0.7398
 5403SOL     OW27844   4.171   2.485  17.562  0.1520  0.2415  0.3368
 5403SOL    HW127845   4.158   2.579  17.575 -3.7646 -0.3524  0.4910
 5403SOL    HW227846   4.261   2.492  17.530  0.4569 -1.6794  0.8143
 5404SOL     OW27847   4.554   3.948   4.503  0.4766 -0.7992 -0.1312
 5404SOL    HW127848   4.555   3.931   4.597  1.3554  0.8471  0.1563
 5404SOL    HW227849   4.476   3.903   4.469 -0.5027  1.2366 -0.6050
 5405SOL     OW27850   3.641   4.600   0.636 -0.3399 -0.7440 -0.8639
 5405SOL    HW127851   3.570   4.544   0.607 -0.4169 -0.6769 -0.8029
 5405SOL    HW227852   3.680   4.536   0.696  1.4761  0.5456 -0.6589
 5406SOL     OW27853   0.268   3.928   6.978 -0.2355 -0.4382  0.2247
 5406SOL    HW127854   0.207   3.881   7.036  1.5242  0.4290  2.7746
 5406SOL    HW227855   0.314   3.860   6.929  0.8710 -0.5586  1.4365
 5407SOL     OW27856   1.885   0.951   7.174 -0.1215  0.1598  0.0924
 5407SOL    HW127857   1.910   0.859   7.184 -1.3302 -0.5465 -3.2648
 5407SOL    HW227858   1.933   0.955   7.091 -0.5991 -1.3129 -0.2458
 5408SOL     OW27859   0.411   4.694   5.604  0.1644  0.1495 -0.7957
 5408SOL    HW127860   0.502   4.695   5.572  0.1236 -0.8697 -0.9578
 5408SOL    HW227861   0.423   4.736   5.689  3.4461  0.8403 -1.5809
 5409SOL     OW27862   4.432   1.034   4.168  0.1973 -0.1204 -0.2438
 5409SOL    HW127863   4.496   1.035   4.239 -0.1168 -1.6934  0.0503
 5409SOL    HW227864   4.492   1.051   4.095 -1.0574  2.6572 -0.6243
 5410SOL     OW27865   0.728   0.331   3.300 -0.2167 -0.2405  0.1888
 5410SOL    HW127866   0.815   0.359   3.271 -0.0572 -0.3978  0.5172
 5410SOL    HW227867   0.689   0.307   3.216 -2.5016  0.1336  1.1242
 5411SOL     OW27868   3.767   3.831   6.637  0.8115 -0.0101 -0.5980
 5411SOL    HW127869   3.676   3.838   6.608  0.2695  0.3717  1.2625
 5411SOL    HW227870   3.792   3.748   6.594  0.2815  0.7082 -2.2889
 5412SOL     OW27871   0.380   3.668   2.059 -0.2832 -0.3710  0.4941
 5412SOL    HW127872   0.433   3.608   2.112  0.8767 -0.1147 -0.3794
 5412SOL    HW227873   0.296   3.661   2.105 -0.1829 -0.3494  0.6835
 5413SOL     OW27874   2.677   2.835  16.536 -0.8899  0.0489 -0.2390
 5413SOL    HW127875   2.634   2.878  16.610 -1.0811  1.8095 -1.3599
 5413SOL    HW227876   2.627   2.883  16.470  0.5601  1.3580 -0.3809
 5414SOL     OW27877   2.881   3.320  16.050  0.1289 -0.1836 -0.0039
 5414SOL    HW127878   2.893   3.245  15.993 -1.5610 -1.0879  0.8371
 5414SOL    HW227879   2.969   3.331  16.087 -0.3453 -0.5954  1.2483
 5415SOL     OW27880   1.400   1.569   9.808  0.1858 -0.1075 -0.0802
 5415SOL    HW127881   1.385   1.502   9.741  0.6607 -1.1900  0.8864
 5415SOL    HW227882   1.479   1.599   9.763 -0.8751  1.0865 -1.1426
 5416SOL     OW27883   2.695   2.381   4.818  0.3261 -0.0300 -0.6645
 5416SOL    HW127884   2.771   2.388   4.877  1.7370  1.0412 -2.5985
 5416SOL    HW227885   2.701   2.466   4.774 -1.6527  0.8176  0.6989
 5417SOL     OW27886   0.473   0.524   4.026  0.5853  0.1031  0.1308
 5417SOL    HW127887   0.395   0.485   3.987 -0.4742  1.8028  0.6022
 5417SOL    HW227888   0.435   0.540   4.112  0.3197  0.7282 -0.1056
 5418SOL     OW27889   1.060   3.105  10.803  0.3226  0.1394  0.1446
 5418SOL    HW127890   1.036   3.037  10.866  0.1261 -2.7837 -3.0232
 5418SOL    HW227891   1.148   3.076  10.782  1.1436  1.5091  1.7389
 5419SOL     OW27892   3.471   3.635   9.442  0.1734 -0.3334 -0.0770
 5419SOL    HW127893   3.518   3.687   9.507  0.4398 -0.4490 -0.1786
 5419SOL    HW227894   3.429   3.699   9.385  0.7673 -0.9556 -1.2114
 5420SOL     OW27895   0.432   4.384   8.511 -0.5398  0.3021 -0.0177
 5420SOL    HW127896   0.379   4.312   8.548  0.3430 -0.1656  0.3530
 5420SOL    HW227897   0.369   4.455   8.520 -2.0652 -1.0731  0.1983
 5421SOL     OW27898   3.672   1.251  17.053  0.1821  0.7174 -0.0046
 5421SOL    HW127899   3.677   1.262  17.148  2.7500  0.3932 -0.1135
 5421SOL    HW227900   3.578   1.265  17.042  0.2619  0.9772 -0.3354
 5422SOL     OW27901   4.581   1.026   3.186 -0.0775 -0.2375 -0.5402
 5422SOL    HW127902   4.673   1.048   3.198 -0.5423  2.0395 -1.1427
 5422SOL    HW227903   4.541   1.109   3.211  3.5662  0.8092  1.6875
 5423SOL     OW27904   1.044   1.605   9.184 -0.4565 -0.1326  0.5550
 5423SOL    HW127905   1.096   1.650   9.251 -0.4280  0.8771 -0.1409
 5423SOL    HW227906   0.957   1.644   9.190 -0.4731 -0.3198  1.4126
 5424SOL     OW27907   4.245   4.507   5.370  0.1846 -0.6454  0.2964
 5424SOL    HW127908   4.242   4.474   5.280 -0.5521 -4.0096  1.5562
 5424SOL    HW227909   4.286   4.593   5.365 -0.6057 -0.1350  2.5794
 5425SOL     OW27910   3.266   3.128   0.173 -0.5796 -0.2032  1.1348
 5425SOL    HW127911   3.286   3.036   0.190  0.2016 -0.0542  1.0226
 5425SOL    HW227912   3.185   3.108   0.127  0.6448  0.9852 -1.5529
 5426SOL     OW27913   2.482   1.469  10.371 -0.2353 -0.1812  0.3018
 5426SOL    HW127914   2.503   1.389  10.322  2.1708  1.4997 -1.4667
 5426SOL    HW227915   2.414   1.433  10.428  0.1633 -1.5699 -0.1035
 5427SOL     OW27916   2.726   3.218   7.049  0.2949  0.7426  0.6189
 5427SOL    HW127917   2.727   3.314   7.043  0.4073  0.7052  0.0494
 5427SOL    HW227918   2.634   3.206   7.075  1.2121  1.9432  4.5001
 5428SOL     OW27919   2.351   0.204   2.096 -0.1957  0.1481  0.4221
 5428SOL    HW127920   2.347   0.262   2.019 -0.0535 -2.4094 -1.5231
 5428SOL    HW227921   2.442   0.185   2.117 -0.4634 -2.3377 -0.6388
 5429SOL     OW27922   0.468   4.680   2.350  0.3642  0.1722  0.3566
 5429SOL    HW127923   0.445   4.588   2.340 -2.0551  0.7713  0.2557
 5429SOL    HW227924   0.393   4.728   2.386 -2.0469 -0.8786 -3.2253
 5430SOL     OW27925   0.239   0.959  11.417  0.1468 -0.0841 -0.0306
 5430SOL    HW127926   0.202   1.048  11.413 -2.2740 -1.0919 -0.0784
 5430SOL    HW227927   0.326   0.969  11.379  0.1073 -0.6742 -0.2678
 5431SOL     OW27928   1.918   2.616   0.684 -0.0655  0.0328 -0.1888
 5431SOL    HW127929   1.869   2.548   0.639 -0.7358  1.2443 -1.2937
 5431SOL    HW227930   1.855   2.639   0.752 -0.6670 -0.0793 -0.7111
 5432SOL     OW27931   3.861   0.268  10.209 -0.4810 -0.3741 -0.3074
 5432SOL    HW127932   3.856   0.363  10.200  1.4123 -0.1654  1.0457
 5432SOL    HW227933   3.887   0.265  10.301 -0.0795  0.0055 -0.4069
 5433SOL     OW27934   0.926   2.192   2.003 -0.1694  0.2266 -0.1511
 5433SOL    HW127935   0.905   2.104   1.971  1.7835  0.2071 -1.3877
 5433SOL    HW227936   0.990   2.160   2.067 -0.9440  0.1259  0.5635
 5434SOL     OW27937   3.726   1.789   3.410 -0.1317  0.6646  0.1016
 5434SOL    HW127938   3.720   1.853   3.481  0.1010  2.2156 -1.2832
 5434SOL    HW227939   3.772   1.719   3.456 -0.3406  1.1053  0.9830
 5435SOL     OW27940   4.329   4.303   4.705 -0.2889 -0.1768 -0.2191
 5435SOL    HW127941   4.419   4.310   4.674 -0.3122  2.0234  0.2363
 5435SOL    HW227942   4.341   4.312   4.799 -1.5198  4.8484 -0.5293
 5436SOL     OW27943   4.547   1.238  11.959  0.0158 -0.0542  0.4486
 5436SOL    HW127944   4.454   1.223  11.975  0.2223 -1.9253 -0.0004
 5436SOL    HW227945   4.567   1.254  12.051  1.5395  2.5762 -0.3395
 5437SOL     OW27946   1.621   2.401   2.546 -0.5349  0.1630 -0.3973
 5437SOL    HW127947   1.581   2.345   2.613  0.3747 -0.1730 -0.1340
 5437SOL    HW227948   1.699   2.356   2.514  0.8235  1.1589  1.5378
 5438SOL     OW27949   1.156   4.084  11.394 -0.0631 -1.0198 -0.0992
 5438SOL    HW127950   1.151   4.049  11.305  0.5939 -0.5711 -0.3119
 5438SOL    HW227951   1.097   4.023  11.439 -0.4870 -0.1729  0.4852
 5439SOL     OW27952   4.690   3.672   3.815  0.2852 -0.4505 -0.2719
 5439SOL    HW127953   0.044   3.679   3.796  0.1008 -0.2209 -1.1101
 5439SOL    HW227954   4.672   3.747   3.758  1.1838 -0.8307 -1.0556
 5440SOL     OW27955   2.736   4.542   0.897 -0.4705  0.0672  0.4491
 5440SOL    HW127956   2.728   4.485   0.974  1.2242  0.3487  0.8355
 5440SOL    HW227957   2.831   4.543   0.891 -0.5537  1.3883 -0.7046
 5441SOL     OW27958   3.201   4.409   0.022  0.3739  0.4571 -0.0519
 5441SOL    HW127959   3.284   4.386   0.064  0.0314 -0.0958  0.3239
 5441SOL    HW227960   3.178   4.455   0.103  2.0367 -0.0209  0.6949
 5442SOL     OW27961   1.465   3.692   8.977  0.6711 -0.2103 -0.0011
 5442SOL    HW127962   1.519   3.739   9.041  0.6843 -0.3164  0.0660
 5442SOL    HW227963   1.409   3.645   9.039 -1.4513  0.8683 -1.0942
 5443SOL     OW27964   2.036   1.291  14.836 -0.7093 -0.3319  0.3862
 5443SOL    HW127965   1.979   1.301  14.761 -0.3861 -0.8336  0.0705
 5443SOL    HW227966   2.034   1.196  14.846  2.8472 -0.4064  0.6254
 5444SOL     OW27967   2.101   4.521  12.901  0.0927  0.2496  0.3518
 5444SOL    HW127968   2.078   4.612  12.917  0.7152  0.1576  1.7760
 5444SOL    HW227969   2.144   4.506  12.986 -2.5526 -0.6561  1.5512
 5445SOL     OW27970   3.612   1.333   6.602  0.8651 -0.1430  0.2557
 5445SOL    HW127971   3.529   1.365   6.565  0.3564 -1.5417  0.1941
 5445SOL    HW227972   3.604   1.238   6.600 -0.9408 -0.0049  1.5750
 5446SOL     OW27973   1.928   4.576  10.063  0.6019 -0.4048  0.3547
 5446SOL    HW127974   1.901   4.485  10.067  1.7538 -0.8844 -2.7348
 5446SOL    HW227975   2.022   4.566  10.051  0.3655 -0.4507 -1.3967
 5447SOL     OW27976   3.758   0.111  12.782 -0.3016  0.2380  0.0701
 5447SOL    HW127977   3.701   0.076  12.714 -0.1363 -0.8307  0.4825
 5447SOL    HW227978   3.726   0.066  12.860 -0.7656 -1.4629 -1.1186
 5448SOL     OW27979   2.014   1.188   5.787  0.1214 -0.0385 -0.4291
 5448SOL    HW127980   1.945   1.251   5.766  0.3001  0.5490  0.7331
 5448SOL    HW227981   1.973   1.121   5.841  1.8968 -1.5083 -0.9042
 5449SOL     OW27982   0.012   4.245  13.577 -0.2556 -0.2705  0.1052
 5449SOL    HW127983   0.010   4.234  13.481 -0.3016 -0.7005  0.1559
 5449SOL    HW227984   0.057   4.330  13.578  0.9530 -0.8638 -1.6463
 5450SOL     OW27985   2.772   1.172   0.624 -0.7818 -0.4851 -0.2300
 5450SOL    HW127986   2.766   1.165   0.719 -4.7067  2.7446 -0.2201
 5450SOL    HW227987   2.851   1.118   0.621 -0.1041  0.5640 -1.1880
 5451SOL     OW27988   0.968   2.342   7.203  0.1268  0.0596 -0.3373
 5451SOL    HW127989   0.923   2.308   7.125 -0.2930  0.3663 -0.2324
 5451SOL    HW227990   0.903   2.408   7.227 -0.5336 -0.1770 -1.4322
 5452SOL     OW27991   3.169   3.928   4.465  0.0151 -0.1050 -0.2051
 5452SOL    HW127992   3.213   4.007   4.434 -0.5102  0.3136  0.1367
 5452SOL    HW227993   3.112   3.892   4.396 -0.4196  0.0794  0.0632
 5453SOL     OW27994   1.413   3.840   8.772  0.0709  0.0504 -0.4539
 5453SOL    HW127995   1.411   3.790   8.854 -4.3706 -2.6248 -2.1901
 5453SOL    HW227996   1.410   3.773   8.703 -0.3577 -1.0425  0.6086
 5454SOL     OW27997   0.028   2.531   5.767 -0.0735 -0.7872  0.2740
 5454SOL    HW127998   0.008   2.552   5.676  2.5316 -1.3225 -0.4161
 5454SOL    HW227999   0.058   2.619   5.792  2.3986 -1.1989 -1.2998
 5455SOL     OW28000   1.035   4.396   3.433 -0.1413  1.0651  0.7128
 5455SOL    HW128001   1.013   4.310   3.398  2.0504  1.0641 -0.6909
 5455SOL    HW228002   1.128   4.402   3.412 -0.8676  0.4879 -2.6804
 5456SOL     OW28003   1.760   3.469   0.949 -0.1964 -0.2456 -0.7857
 5456SOL    HW128004   1.734   3.555   0.983  1.7519 -0.1211  0.3249
 5456SOL    HW228005   1.721   3.413   1.016  0.6882 -0.7975 -0.7340
 5457SOL     OW28006   1.345   2.741   4.031  0.5574 -0.3538 -0.3002
 5457SOL    HW128007   1.252   2.753   4.014  0.0591 -1.4245  1.7433
 5457SOL    HW228008   1.372   2.683   3.959  1.7976 -1.0704  0.7402
 5458SOL     OW28009   3.422   0.082   7.301 -0.1323  0.1353 -0.1517
 5458SOL    HW128010   3.494   0.080   7.239  2.0921 -1.5234  2.4718
 5458SOL    HW228011   3.382   0.166   7.278  0.9317  0.0576 -2.2776
 5459SOL     OW28012   4.534   2.636   6.302  0.0648 -0.0257 -0.6862
 5459SOL    HW128013   4.486   2.633   6.385  1.6181 -1.7460  0.1543
 5459SOL    HW228014   4.466   2.650   6.236 -0.9342 -1.9834 -0.0910
 5460SOL     OW28015   1.509   2.620   2.115  0.2524  0.2764 -0.8477
 5460SOL    HW128016   1.539   2.630   2.205  2.2218  0.6522 -1.5391
 5460SOL    HW228017   1.556   2.698   2.084 -2.5366  2.0663 -0.5249
 5461SOL     OW28018   2.952   2.174  10.503  0.2633 -0.0692 -0.2491
 5461SOL    HW128019   2.934   2.080  10.500  2.0940 -0.3518 -2.3676
 5461SOL    HW228020   2.960   2.186  10.597  4.1578  1.4591 -0.7810
 5462SOL     OW28021   1.622   2.961   8.067 -0.1045 -0.0436 -0.1123
 5462SOL    HW128022   1.698   2.962   8.125  0.0928  0.0342 -0.3729
 5462SOL    HW228023   1.670   2.979   7.986 -0.9863  0.6172 -0.4791
 5463SOL     OW28024   0.251   2.679   2.618  0.3598  0.2296  0.1164
 5463SOL    HW128025   0.210   2.635   2.693  0.9840  1.3522  1.1237
 5463SOL    HW228026   0.344   2.685   2.640  0.6182  0.7671 -1.1536
 5464SOL     OW28027   1.130   3.497   2.615  0.2036 -0.2517  0.0059
 5464SOL    HW128028   1.083   3.445   2.680  1.6796 -0.3634  0.9714
 5464SOL    HW228029   1.114   3.446   2.536  2.0618  0.8911 -1.1000
 5465SOL     OW28030   3.001   3.382   5.509  0.3150  0.3633  0.0652
 5465SOL    HW128031   2.915   3.393   5.467  1.3747  3.2609 -1.3458
 5465SOL    HW228032   2.999   3.429   5.592  2.8424  3.7506 -1.7786
 5466SOL     OW28033   3.350   1.691   9.399 -0.1418 -0.1700  0.2549
 5466SOL    HW128034   3.320   1.781   9.411  2.1043  0.1323  3.6652
 5466SOL    HW228035   3.312   1.649   9.476 -0.4889  0.7601  0.5897
 5467SOL     OW28036   4.617   1.778  10.168 -0.5213  0.1573 -0.4855
 5467SOL    HW128037   4.584   1.790  10.079 -1.2410  1.3047 -0.0678
 5467SOL    HW228038   4.538   1.771  10.221  0.5815  1.6190  1.3804
 5468SOL     OW28039   0.313   0.630   4.683  0.3140 -0.7510  0.5791
 5468SOL    HW128040   0.220   0.608   4.680  0.2338 -0.4964  1.1330
 5468SOL    HW228041   0.335   0.621   4.590 -4.0923  1.8897 -0.7406
 5469SOL     OW28042   0.985   3.754  14.476 -0.0569  0.4896 -0.2060
 5469SOL    HW128043   0.989   3.690  14.405 -1.0406  0.0716  0.1281
 5469SOL    HW228044   0.960   3.699  14.550 -1.7539  0.6549 -0.6717
 5470SOL     OW28045   1.007   2.955   5.036  0.5978  0.4344 -0.2183
 5470SOL    HW128046   0.957   3.007   5.099  0.3813  0.1604 -0.1606
 5470SOL    HW228047   0.964   2.977   4.953 -0.8705  0.9961  0.6728
 5471SOL     OW28048   3.151   0.681  17.241  0.0944 -0.0416  0.1806
 5471SOL    HW128049   3.190   0.599  17.211  0.8101 -0.2368  1.6702
 5471SOL    HW228050   3.193   0.743  17.182 -1.5678  0.2833 -0.6638
 5472SOL     OW28051   2.604   2.679   2.458 -0.8438 -0.5551  0.0480
 5472SOL    HW128052   2.563   2.724   2.532 -0.0494  2.6512 -1.4621
 5472SOL    HW228053   2.694   2.663   2.487 -0.1724  1.5189 -0.8976
 5473SOL     OW28054   4.259   4.504   6.945  0.9393  0.2014  0.3694
 5473SOL    HW128055   4.176   4.548   6.924  1.5547  0.6722 -1.1138
 5473SOL    HW228056   4.238   4.433   7.005  2.0394 -2.0313 -1.8694
 5474SOL     OW28057   3.032   1.375   7.865  0.1670  0.2410  0.0660
 5474SOL    HW128058   3.118   1.347   7.832 -1.4981 -1.9090 -2.3761
 5474SOL    HW228059   3.059   1.439   7.931 -0.9484 -0.2846  1.0274
 5475SOL     OW28060   1.209   4.259   3.185 -0.3552  0.7706 -0.0580
 5475SOL    HW128061   1.226   4.319   3.113  0.7877 -1.1102 -1.3448
 5475SOL    HW228062   1.252   4.303   3.258 -0.2832  1.8726 -0.7761
 5476SOL     OW28063   3.616   4.678   7.093 -0.4168  0.1876 -0.6809
 5476SOL    HW128064   3.601   4.615   7.164  1.1410 -0.1423 -0.6485
 5476SOL    HW228065   3.544   4.658   7.033  0.8534  1.4548 -2.6372
 5477SOL     OW28066   2.401   3.501   5.597  0.1877  0.4249 -0.2592
 5477SOL    HW128067   2.398   3.419   5.548  3.7702  0.8593 -1.2206
 5477SOL    HW228068   2.430   3.570   5.537 -0.0493 -0.0502 -0.9189
 5478SOL     OW28069   2.579   1.411  13.162 -0.0604 -0.0302 -0.1348
 5478SOL    HW128070   2.625   1.344  13.212 -0.2971  0.5498  0.8494
 5478SOL    HW228071   2.498   1.413  13.212 -0.7866  0.4976 -1.3296
 5479SOL     OW28072   2.919   1.523   3.855  0.1470 -0.1005  0.0894
 5479SOL    HW128073   3.009   1.500   3.877 -0.2698 -0.2485  1.6420
 5479SOL    HW228074   2.891   1.448   3.802  0.4693 -1.4282  1.7620
 5480SOL     OW28075   4.447   4.450   6.762 -0.0090  0.0507 -0.0899
 5480SOL    HW128076   4.382   4.397   6.717 -0.0297  0.0024 -0.0023
 5480SOL    HW228077   4.391   4.489   6.829 -0.5698  1.1921 -1.2224
 5481SOL     OW28078   0.543   3.952   1.994 -0.1105  0.6496  0.6616
 5481SOL    HW128079   0.508   3.886   2.053  0.2966 -0.6761 -0.5642
 5481SOL    HW228080   0.601   4.008   2.044  1.5560 -1.7193  1.3681
 5482SOL     OW28081   2.412   1.775   7.683  0.3923 -0.4915  0.6112
 5482SOL    HW128082   2.462   1.822   7.616  0.6622  0.2030  1.2994
 5482SOL    HW228083   2.487   1.747   7.735  2.2677  1.2744 -1.1134
 5483SOL     OW28084   0.348   4.158   0.877 -0.5545  0.5390 -0.1507
 5483SOL    HW128085   0.362   4.172   0.784 -0.1969 -1.8357 -0.4559
 5483SOL    HW228086   0.283   4.089   0.870 -0.3548  0.3881 -0.5158
 5484SOL     OW28087   2.966   2.688   2.043 -0.1611 -0.5989 -0.3789
 5484SOL    HW128088   2.987   2.606   2.087 -0.7728 -0.4538  0.1951
 5484SOL    HW228089   3.014   2.683   1.960  1.7151 -3.1819  0.8692
 5485SOL     OW28090   0.367   3.599   8.297  0.1088  0.3821  0.0626
 5485SOL    HW128091   0.426   3.654   8.245 -1.2872  2.2061  0.4351
 5485SOL    HW228092   0.417   3.524   8.331 -0.3975  1.5313  3.3130
 5486SOL     OW28093   3.613   3.908   2.360  0.3900  0.0381 -0.4684
 5486SOL    HW128094   3.708   3.913   2.347  0.1564 -0.5196 -2.3682
 5486SOL    HW228095   3.609   3.918   2.455 -0.5552 -1.1029 -0.3917
 5487SOL     OW28096   1.807   1.209   3.737 -0.0817 -0.5608 -0.5808
 5487SOL    HW128097   1.750   1.133   3.747 -1.1965  0.3793  0.1450
 5487SOL    HW228098   1.887   1.180   3.781  0.5471 -1.3477 -2.2647
 5488SOL     OW28099   3.602   3.565   2.596  0.3881  0.1115  0.1585
 5488SOL    HW128100   3.539   3.613   2.542 -0.4281 -1.2077 -0.0682
 5488SOL    HW228101   3.567   3.476   2.595 -2.5393  1.2533 -1.3099
 5489SOL     OW28102   3.920   4.666  12.496 -0.1104 -0.4291  0.2429
 5489SOL    HW128103   4.003   4.650  12.540  1.4202  0.2886 -2.3760
 5489SOL    HW228104   3.939   4.682  12.403 -0.2934 -2.1362 -0.0882
 5490SOL     OW28105   1.988   2.352   5.835 -0.2153 -0.8259 -0.6859
 5490SOL    HW128106   2.065   2.368   5.890 -1.6303  1.2327  0.7001
 5490SOL    HW228107   2.023   2.383   5.752  0.1105 -0.1813 -0.3140
 5491SOL     OW28108   2.031   0.163   0.458  0.2709  0.3588 -0.4981
 5491SOL    HW128109   1.962   0.103   0.486  0.7374 -0.3597 -0.9097
 5491SOL    HW228110   2.062   0.122   0.378  1.7518  0.6168 -0.0666
 5492SOL     OW28111   2.135   3.861   2.821 -0.3642  0.0398  0.2561
 5492SOL    HW128112   2.092   3.844   2.738 -0.2641  0.3978  0.1339
 5492SOL    HW228113   2.153   3.954   2.814  0.0865  0.0717  1.7854
 5493SOL     OW28114   2.333   0.678   4.994  0.3291 -0.1393 -0.3234
 5493SOL    HW128115   2.378   0.762   4.998 -2.3648  1.3004  0.2569
 5493SOL    HW228116   2.246   0.719   4.988 -0.3176 -1.2932  1.0221
 5494SOL     OW28117   1.102   3.597  10.161  0.2977  0.4962  0.3280
 5494SOL    HW128118   1.116   3.677  10.112 -2.4821  0.2588 -0.8678
 5494SOL    HW228119   1.185   3.555  10.138  0.9162  1.1287  1.4038
 5495SOL     OW28120   2.752   0.035   1.714 -0.0116 -0.6537 -0.3271
 5495SOL    HW128121   2.756   4.680   1.703  0.8651 -0.2437 -3.4726
 5495SOL    HW228122   2.698   0.053   1.637 -1.3402 -1.1391  0.4884
 5496SOL     OW28123   4.498   3.371  14.620  0.0435  0.5579 -0.3376
 5496SOL    HW128124   4.545   3.406  14.544  2.5607  0.7620  1.3163
 5496SOL    HW228125   4.575   3.358  14.675 -1.4933 -0.2780  1.5905
 5497SOL     OW28126   3.953   3.943   8.200 -0.2663  0.2632 -0.0944
 5497SOL    HW128127   3.958   4.034   8.171 -0.3963  0.1357 -0.5172
 5497SOL    HW228128   3.952   3.904   8.112 -2.4756  0.1016 -0.0011
 5498SOL     OW28129   4.452   1.653   9.070  0.0186 -0.8144 -0.1879
 5498SOL    HW128130   4.512   1.707   9.121 -0.2342  0.7819 -1.5678
 5498SOL    HW228131   4.513   1.590   9.031  3.0193  1.8969  0.1510
 5499SOL     OW28132   1.337   2.525  11.113  0.0134 -0.3596 -0.3578
 5499SOL    HW128133   1.398   2.525  11.186 -1.5169  0.8071  0.9120
 5499SOL    HW228134   1.339   2.435  11.081  0.8967  0.4909 -2.7047
 5500SOL     OW28135   0.411   0.514   2.585  0.5636  0.3300 -0.4835
 5500SOL    HW128136   0.384   0.490   2.674  0.5782 -0.3799 -0.6651
 5500SOL    HW228137   0.357   0.592   2.571  1.5031  0.6643 -2.2184
 5501SOL     OW28138   1.988   4.209   3.082 -0.0175 -0.1272 -0.2134
 5501SOL    HW128139   1.970   4.232   3.174  0.1711 -1.8325  0.2593
 5501SOL    HW228140   2.076   4.171   3.087  0.1101  0.3263  1.0047
 5502SOL     OW28141   0.565   0.175   4.148 -0.0156  0.7549  0.2504
 5502SOL    HW128142   0.570   0.101   4.088  0.6069  1.4520 -0.5659
 5502SOL    HW228143   0.477   0.156   4.181  0.0560  1.1413  0.6746
 5503SOL     OW28144   3.105   1.470   3.571 -0.1241 -0.0943 -0.2140
 5503SOL    HW128145   3.030   1.520   3.603 -0.0027  1.8349 -3.0383
 5503SOL    HW228146   3.154   1.465   3.653  1.6311  1.5601 -1.1766
 5504SOL     OW28147   2.734   0.847   6.623  0.6162  0.1637  0.0223
 5504SOL    HW128148   2.714   0.765   6.577 -0.4021  0.3660  0.1158
 5504SOL    HW228149   2.794   0.822   6.693  1.0836 -0.3814 -0.5748
 5505SOL     OW28150   0.220   3.424   4.736 -0.0330  0.4074  0.3861
 5505SOL    HW128151   0.138   3.391   4.701 -0.2890  2.1227 -0.6614
 5505SOL    HW228152   0.237   3.348   4.792 -2.1358 -0.3138  0.0473
 5506SOL     OW28153   1.929   1.122  11.341  0.0506 -0.4444  0.3366
 5506SOL    HW128154   1.983   1.044  11.324  0.4740  0.0574 -0.6611
 5506SOL    HW228155   1.872   1.120  11.264  0.6981 -0.3895 -0.1564
 5507SOL     OW28156   4.696   4.467  16.605  0.0109 -0.3407  0.0897
 5507SOL    HW128157   0.043   4.505  16.590  0.1517 -0.1113  1.4900
 5507SOL    HW228158   4.661   4.526  16.671  1.3292  0.2867  0.2220
 5508SOL     OW28159   4.090   1.510  15.869  0.0082 -0.3397  0.6051
 5508SOL    HW128160   4.011   1.483  15.915 -1.5423  2.5091 -0.3736
 5508SOL    HW228161   4.141   1.553  15.937 -0.8339  0.9060  0.4450
 5509SOL     OW28162   0.958   0.339   2.906  0.5160 -0.3845 -0.2430
 5509SOL    HW128163   0.961   0.427   2.868  0.4988  0.0709  0.7808
 5509SOL    HW228164   0.969   0.368   2.997 -1.1393  0.7300 -0.3932
 5510SOL     OW28165   0.189   0.866   3.444 -0.1957  0.1205 -0.3675
 5510SOL    HW128166   0.204   0.959   3.462  0.1858 -0.0496  0.1818
 5510SOL    HW228167   0.250   0.854   3.371 -0.8241 -1.5260 -0.6246
 5511SOL     OW28168   3.005   0.805   6.094  0.5977  0.5461  1.0151
 5511SOL    HW128169   2.986   0.733   6.034 -0.5159  1.4475  0.3018
 5511SOL    HW228170   3.100   0.796   6.079  0.6568  0.9822  1.1310
 5512SOL     OW28171   1.873   1.711   2.056 -0.0272  0.0420 -0.4957
 5512SOL    HW128172   1.823   1.630   2.068  1.3600 -0.3990  2.3031
 5512SOL    HW228173   1.947   1.695   2.115  0.9332  1.0425 -1.4266
 5513SOL     OW28174   2.125   2.912   2.397  0.6982 -0.0072 -0.7575
 5513SOL    HW128175   2.038   2.902   2.359  0.3298 -0.2619  0.1626
 5513SOL    HW228176   2.127   2.831   2.447  0.0593 -0.0746 -0.8435
 5514SOL     OW28177   4.542   2.089   4.471  0.4531 -0.2457 -0.5504
 5514SOL    HW128178   4.576   2.173   4.501 -2.1508  0.4984  0.3073
 5514SOL    HW228179   4.523   2.091   4.377  0.4900  0.0282 -0.5526
 5515SOL     OW28180   2.293   1.723  12.819  0.6059  0.3881 -0.1216
 5515SOL    HW128181   2.209   1.714  12.863  0.6699  1.1689  0.1657
 5515SOL    HW228182   2.355   1.695  12.887 -1.0516  2.4996  2.2519
 5516SOL     OW28183   2.410   2.191   7.697  0.1649  0.6362  0.5665
 5516SOL    HW128184   2.427   2.162   7.787  0.6687 -0.2793  0.1702
 5516SOL    HW228185   2.355   2.117   7.670  0.6110  1.1161 -1.5976
 5517SOL     OW28186   2.240   0.305  12.616 -0.3016 -0.3910  0.0115
 5517SOL    HW128187   2.297   0.317  12.692 -1.9003 -2.0615  1.4558
 5517SOL    HW228188   2.176   0.376  12.623  0.1801  0.0113  0.3462
 5518SOL     OW28189   0.641   3.911  11.387  0.1755 -0.0220 -0.3959
 5518SOL    HW128190   0.641   3.929  11.293  1.7645  0.3766 -0.3231
 5518SOL    HW228191   0.699   3.984  11.410 -0.2475  0.9684 -2.4536
 5519SOL     OW28192   3.626   4.495   9.054  0.0888 -0.2091 -0.2411
 5519SOL    HW128193   3.604   4.402   9.047  0.0025 -0.2224  0.1983
 5519SOL    HW228194   3.541   4.538   9.047  2.2233  3.8455 -1.4842
 5520SOL     OW28195   3.786   3.591   4.405 -0.4212 -0.1219  0.7700
 5520SOL    HW128196   3.710   3.533   4.403 -0.5234  0.0227  0.3880
 5520SOL    HW228197   3.753   3.676   4.433 -0.0083  0.3938 -0.3137
 5521SOL     OW28198   0.417   1.561   8.181  0.2598  0.7877 -0.0951
 5521SOL    HW128199   0.380   1.608   8.256  0.1692 -2.2190  1.7392
 5521SOL    HW228200   0.483   1.625   8.156  2.7007 -1.4781  0.5619
 5522SOL     OW28201   3.010   2.724  15.633 -0.3218 -0.1610 -0.5521
 5522SOL    HW128202   2.980   2.814  15.618 -0.3678 -0.1549 -0.4182
 5522SOL    HW228203   3.058   2.727  15.715 -4.8111 -0.6550  2.0811
 5523SOL     OW28204   1.257   2.589   3.201  0.6131 -0.5565 -0.9263
 5523SOL    HW128205   1.196   2.658   3.227  1.1921  0.1263 -1.3826
 5523SOL    HW228206   1.198   2.513   3.203 -0.4270  0.2636 -0.7313
 5524SOL     OW28207   0.491   1.578   0.992 -0.5801  0.0927 -0.4010
 5524SOL    HW128208   0.537   1.624   0.920  2.0149  0.8873  1.7712
 5524SOL    HW228209   0.556   1.584   1.062 -1.2974  0.0314  0.2551
 5525SOL     OW28210   0.912   3.223   6.955  0.2655  0.0029  0.5592
 5525SOL    HW128211   0.930   3.206   7.048  1.6488 -2.9065 -0.2383
 5525SOL    HW228212   0.830   3.174   6.949 -0.5792  1.3200  1.4749
 5526SOL     OW28213   0.069   2.469  16.142  0.9750 -0.3398 -0.4593
 5526SOL    HW128214   0.127   2.407  16.098  0.4791 -1.0089 -0.1745
 5526SOL    HW228215   4.736   2.415  16.173 -1.2893  2.7571 -0.3897
 5527SOL     OW28216   2.068   0.900  15.092 -0.3174 -0.0216  0.2109
 5527SOL    HW128217   1.976   0.881  15.078 -0.0336 -2.4318  1.5718
 5527SOL    HW228218   2.088   0.945  15.010 -0.5815  2.2025  1.3628
 5528SOL     OW28219   0.138   1.047  11.794  0.2251 -0.1582  0.0988
 5528SOL    HW128220   0.201   1.013  11.731  0.8782  0.0902  0.6168
 5528SOL    HW228221   0.060   1.046  11.740  0.5473 -0.1691 -0.3632
 5529SOL     OW28222   4.713   1.259   1.782  0.2571 -0.3974 -0.1366
 5529SOL    HW128223   4.703   1.218   1.696 -0.4277 -0.5337  0.0042
 5529SOL    HW228224   4.629   1.305   1.782  0.1649 -0.5566 -1.5815
 5530SOL     OW28225   4.396   2.936  11.668  0.1037  0.1110  0.2820
 5530SOL    HW128226   4.332   2.987  11.618  0.0297  0.4532  0.7243
 5530SOL    HW228227   4.482   2.973  11.648 -0.6145  0.7408 -1.6689
 5531SOL     OW28228   2.984   3.733   6.932 -0.7587  0.0846 -0.0408
 5531SOL    HW128229   3.042   3.713   6.859 -1.9000 -2.1043 -0.3616
 5531SOL    HW228230   3.032   3.710   7.012  0.5860  0.9509 -0.6057
 5532SOL     OW28231   0.780   3.178   2.983  0.3605 -0.0598 -0.4100
 5532SOL    HW128232   0.717   3.172   3.055 -0.8020 -1.9314 -1.5661
 5532SOL    HW228233   0.865   3.182   3.026  0.9416  2.3152 -1.7572
 5533SOL     OW28234   0.001   2.711   3.212  0.2351  0.3740  0.3441
 5533SOL    HW128235   4.658   2.690   3.169 -0.2531  1.2378  0.8487
 5533SOL    HW228236   0.026   2.788   3.163  0.6549  0.2599  0.3801
 5534SOL     OW28237   4.487   2.507   2.096  0.0005 -0.2907  0.1824
 5534SOL    HW128238   4.548   2.496   2.024  0.9220 -0.2040  0.9420
 5534SOL    HW228239   4.409   2.522   2.042 -0.6263 -1.3591  0.7883
 5535SOL     OW28240   1.954   3.267  16.867  0.2611  0.1653 -0.4037
 5535SOL    HW128241   1.913   3.296  16.786 -1.7347 -0.2644  0.4578
 5535SOL    HW228242   2.008   3.195  16.835 -0.4656 -0.7893  0.5074
 5536SOL     OW28243   0.786   0.963  15.317 -0.2707 -0.1046 -0.3420
 5536SOL    HW128244   0.860   1.022  15.329 -1.0624  1.1232 -1.3936
 5536SOL    HW228245   0.731   0.988  15.391 -1.2266  2.2100 -1.8412
 5537SOL     OW28246   4.167   1.856   2.361 -0.2470  0.1350 -0.0750
 5537SOL    HW128247   4.176   1.916   2.287 -2.5560 -0.3330 -0.7582
 5537SOL    HW228248   4.160   1.921   2.430  1.8019 -1.3073  1.4915
 5538SOL     OW28249   3.193   2.950   1.914  0.5188  0.6934 -0.5659
 5538SOL    HW128250   3.141   2.870   1.900  1.2882  0.0023  0.5340
 5538SOL    HW228251   3.275   2.919   1.875  0.4602  0.8562 -0.8215
 5539SOL     OW28252   2.635   1.531  11.617 -0.1158 -0.5348 -0.2068
 5539SOL    HW128253   2.695   1.566  11.683 -0.5444 -0.7921  0.3195
 5539SOL    HW228254   2.546   1.541  11.651  0.0581  0.8263 -0.1519
 5540SOL     OW28255   3.058   1.724  15.261 -0.1411 -0.0560  0.1733
 5540SOL    HW128256   2.987   1.766  15.309  0.1033 -0.1772  0.6349
 5540SOL    HW228257   3.022   1.636  15.261 -0.9206  0.2681 -0.1108
 5541SOL     OW28258   3.846   0.275   0.107 -0.4493  0.3641 -0.0792
 5541SOL    HW128259   3.936   0.262   0.135 -0.3505  4.2194  1.4278
 5541SOL    HW228260   3.860   0.293   0.014 -2.3461  0.9906 -0.2464
 5542SOL     OW28261   2.382   0.947   5.921  0.3322 -0.3001  0.2741
 5542SOL    HW128262   2.287   0.942   5.928  0.2886 -1.6153 -1.2417
 5542SOL    HW228263   2.409   1.033   5.955 -0.6910 -0.0875  0.5303
 5543SOL     OW28264   0.296   4.528   4.316 -0.5440  0.1459  0.2129
 5543SOL    HW128265   0.305   4.446   4.365  2.6813  0.3946  0.0228
 5543SOL    HW228266   0.295   4.487   4.229  0.2991  2.2341 -0.7642
 5544SOL     OW28267   3.304   2.635   8.653  0.4975  0.3147 -0.5986
 5544SOL    HW128268   3.253   2.629   8.734  0.7230  1.8890 -0.3322
 5544SOL    HW228269   3.378   2.677   8.697  0.5380  1.8436 -2.0946
 5545SOL     OW28270   3.128   3.467   7.568 -0.2512  0.1710  0.0761
 5545SOL    HW128271   3.179   3.506   7.639 -2.7531  1.2422  1.2957
 5545SOL    HW228272   3.199   3.453   7.505 -0.8508  0.8495 -0.7604
 5546SOL     OW28273   4.077   2.531  10.190 -0.5456 -0.1485 -0.1472
 5546SOL    HW128274   4.153   2.552  10.135 -0.2107 -1.5257 -0.2124
 5546SOL    HW228275   4.064   2.603  10.252  1.6589 -0.0564  0.2240
 5547SOL     OW28276   0.166   2.471   1.673 -0.3928 -0.6707  0.2105
 5547SOL    HW128277   0.100   2.529   1.634  0.8816  0.5096 -0.2284
 5547SOL    HW228278   0.218   2.534   1.724 -0.8389 -0.2882  0.2001
 5548SOL     OW28279   3.657   2.060  12.129 -0.0559  0.7274  0.4394
 5548SOL    HW128280   3.689   1.984  12.177  2.2309  1.7636  0.6119
 5548SOL    HW228281   3.616   2.028  12.049  1.0624 -0.1421  0.2192
 5549SOL     OW28282   2.663   3.225   2.565 -0.2596 -0.0334 -0.0043
 5549SOL    HW128283   2.661   3.241   2.471 -0.5840 -1.1597 -0.1898
 5549SOL    HW228284   2.735   3.285   2.582 -0.5945  0.5429 -0.6340
 5550SOL     OW28285   3.242   3.677   8.243  0.0479  0.1733 -0.1200
 5550SOL    HW128286   3.220   3.612   8.177 -0.0468 -1.1826  1.2306
 5550SOL    HW228287   3.219   3.634   8.325 -0.7215  0.1463 -0.3480
 5551SOL     OW28288   4.045   3.683   1.237 -0.2414  0.1855 -0.3175
 5551SOL    HW128289   4.115   3.723   1.289 -1.1553  0.3231  0.8078
 5551SOL    HW228290   3.979   3.750   1.220  0.0439  0.4892 -0.2207
 5552SOL     OW28291   0.992   3.850   6.059  0.0701  0.3233 -0.0006
 5552SOL    HW128292   1.001   3.755   6.055  0.0681  0.2932  0.7032
 5552SOL    HW228293   1.061   3.875   5.998  1.0534  0.3850  1.1211
 5553SOL     OW28294   1.757   1.217   3.147  0.1901 -0.3313  0.4730
 5553SOL    HW128295   1.838   1.266   3.130  0.6315 -1.1074  0.3022
 5553SOL    HW228296   1.728   1.198   3.058  0.1771 -0.6294  0.5403
 5554SOL     OW28297   1.192   3.963   2.611 -0.2919 -0.2356  0.3402
 5554SOL    HW128298   1.235   4.018   2.676 -2.1438  1.2660  0.2975
 5554SOL    HW228299   1.114   4.010   2.583 -0.0304  0.9133  1.5374
 5555SOL     OW28300   3.161   0.719   4.898 -0.5516 -0.6395  0.3250
 5555SOL    HW128301   3.201   0.695   4.982  1.4847 -0.1845 -0.5139
 5555SOL    HW228302   3.210   0.664   4.837 -0.4071 -1.2250  0.9702
 5556SOL     OW28303   3.308   2.675  14.210 -0.8371  0.0977  0.6166
 5556SOL    HW128304   3.219   2.662  14.244 -0.7433  1.9895  1.5960
 5556SOL    HW228305   3.279   2.744  14.150 -0.7330 -0.5363 -0.1704
 5557SOL     OW28306   2.915   0.700   1.549  0.1062 -0.0258 -0.3249
 5557SOL    HW128307   2.959   0.651   1.618  0.8899  0.0470 -0.7838
 5557SOL    HW228308   2.986   0.742   1.502  0.0723  0.7022  0.2722
 5558SOL     OW28309   0.272   4.361  15.157  0.3442  0.4150 -0.2794
 5558SOL    HW128310   0.252   4.375  15.249 -1.5360  0.6436 -0.7254
 5558SOL    HW228311   0.367   4.376  15.162  0.4835 -0.2975 -0.8761
 5559SOL     OW28312   0.671   3.083  14.953  0.1232 -1.0683 -0.1440
 5559SOL    HW128313   0.716   3.054  15.033  3.0518 -1.8462 -2.0776
 5559SOL    HW228314   0.622   3.163  14.973  0.1684 -1.3085  0.9334
 5560SOL     OW28315   4.391   0.893  13.798  0.2672  0.3065 -0.7572
 5560SOL    HW128316   4.350   0.917  13.716  0.1634 -3.4273 -1.8217
 5560SOL    HW228317   4.443   0.815  13.775  0.2900 -0.0280  0.3981
 5561SOL     OW28318   0.453   0.884   3.807 -0.3212  0.0573 -0.0569
 5561SOL    HW128319   0.403   0.873   3.888 -1.7834  2.4762 -0.6414
 5561SOL    HW228320   0.491   0.798   3.793  0.1712  0.2179  0.2980
 5562SOL     OW28321   0.835   2.889   6.255 -0.8193 -0.5483  0.3692
 5562SOL    HW128322   0.861   2.956   6.319 -2.3070 -0.1522  0.5631
 5562SOL    HW228323   0.840   2.936   6.172 -0.6038  1.9848  1.8092
 5563SOL     OW28324   4.605   1.645  15.540 -0.0673  0.0358  0.0772
 5563SOL    HW128325   4.564   1.645  15.453 -1.4757  0.0151  0.7368
 5563SOL    HW228326   4.688   1.602  15.517 -1.3650 -1.4116 -1.9317
 5564SOL     OW28327   4.374   4.686   1.745  0.4207 -0.1034 -0.2884
 5564SOL    HW128328   4.398   0.033   1.778  0.5770 -0.6052  0.9165
 5564SOL    HW228329   4.285   4.688   1.780 -0.2363 -0.2918 -1.9684
 5565SOL     OW28330   3.705   2.760   8.940  0.3728 -0.2296  0.6194
 5565SOL    HW128331   3.617   2.783   8.908  1.1365  0.4564 -0.9914
 5565SOL    HW228332   3.737   2.839   8.984 -0.5596  0.7851 -0.5027
 5566SOL     OW28333   2.856   3.304   4.071 -0.1314 -0.1223 -0.2309
 5566SOL    HW128334   2.836   3.241   4.140  0.1758 -1.3329 -1.2271
 5566SOL    HW228335   2.926   3.358   4.108 -0.2420  1.1924 -1.9454
 5567SOL     OW28336   2.830   3.462   2.974 -0.4540 -0.5230 -0.5810
 5567SOL    HW128337   2.769   3.402   3.016 -0.1729 -0.0585  0.5043
 5567SOL    HW228338   2.775   3.529   2.935  1.8489  1.2527 -0.8184
 5568SOL     OW28339   3.535   2.984   1.958  0.3775 -0.0644  0.3695
 5568SOL    HW128340   3.536   3.074   1.991 -1.5459 -0.3211  1.1255
 5568SOL    HW228341   3.628   2.960   1.967  0.1562 -1.2960 -0.6668
 5569SOL     OW28342   0.021   2.357   7.345 -0.0695 -0.9699  0.2815
 5569SOL    HW128343   4.698   2.345   7.415  1.2710 -0.2050  1.6213
 5569SOL    HW228344   0.068   2.275   7.358  2.2553  0.5830  1.7987
 5570SOL     OW28345   2.662   1.864   6.710  0.0396  0.1798  0.3470
 5570SOL    HW128346   2.581   1.814   6.720  0.4579 -0.3823  0.9024
 5570SOL    HW228347   2.645   1.933   6.646 -1.8697  0.9439  1.6795
 5571SOL     OW28348   3.633   2.122  10.665  0.0806 -0.1951 -0.1379
 5571SOL    HW128349   3.683   2.202  10.679  2.4961 -1.7084 -0.1746
 5571SOL    HW228350   3.545   2.146  10.694  0.3939 -0.3947  0.9773
 5572SOL     OW28351   3.913   1.188  14.538 -0.4949  0.1046 -0.1392
 5572SOL    HW128352   3.921   1.094  14.519  0.3888  0.5149 -1.7639
 5572SOL    HW228353   3.986   1.222  14.487  0.9932  0.7472  2.4275
 5573SOL     OW28354   3.062   1.965   4.587 -0.3586 -0.0990  0.2250
 5573SOL    HW128355   3.049   1.935   4.677 -0.4826 -1.3183 -0.1998
 5573SOL    HW228356   3.062   1.878   4.545 -0.8661 -0.1959  0.4266
 5574SOL     OW28357   3.155   1.557  17.478  0.1177  0.1500 -0.3768
 5574SOL    HW128358   3.230   1.546  17.536  0.2611  0.4621 -0.5088
 5574SOL    HW228359   3.167   1.491  17.410  1.6085  2.7723 -2.6509
 5575SOL     OW28360   2.244   3.664   5.732 -0.0447 -0.2905 -0.6147
 5575SOL    HW128361   2.227   3.716   5.654  3.1548 -0.5442 -1.4617
 5575SOL    HW228362   2.285   3.587   5.693 -0.0638 -0.4255 -0.3698
 5576SOL     OW28363   3.163   3.309  16.038 -0.1951 -0.9873 -0.0455
 5576SOL    HW128364   3.216   3.268  16.106  0.7880 -1.5718 -1.1785
 5576SOL    HW228365   3.171   3.402  16.057 -1.0125 -0.4555 -2.3715
 5577SOL     OW28366   1.376   0.356   4.511 -0.1171  0.3921 -0.2838
 5577SOL    HW128367   1.463   0.352   4.550 -0.2719 -1.1548 -0.1094
 5577SOL    HW228368   1.321   0.365   4.588 -3.5503  0.7526 -2.7570
 5578SOL     OW28369   3.138   2.772  13.285 -0.4293 -0.1459  0.1088
 5578SOL    HW128370   3.185   2.758  13.203  0.1271 -0.4628  0.4750
 5578SOL    HW228371   3.206   2.819  13.334 -1.6320  1.6141  0.0856
 5579SOL     OW28372   1.460   1.132   4.630 -0.0248  0.1805 -0.0235
 5579SOL    HW128373   1.508   1.069   4.684 -0.2031  2.3388  2.6766
 5579SOL    HW228374   1.518   1.208   4.643  0.6261 -0.2027 -0.7016
 5580SOL     OW28375   2.063   3.705   8.214 -1.0742 -0.3626  0.2752
 5580SOL    HW128376   1.991   3.710   8.151 -3.1876 -1.1759  2.6446
 5580SOL    HW228377   2.128   3.751   8.160 -1.0566  0.8799  1.3617
 5581SOL     OW28378   2.237   1.748   1.412  0.2751 -0.3564 -0.4050
 5581SOL    HW128379   2.257   1.694   1.336 -3.0871 -0.4212 -1.2573
 5581SOL    HW228380   2.261   1.830   1.368 -1.3464 -0.1110 -0.8443
 5582SOL     OW28381   1.053   2.683  14.483  0.3436 -0.4394 -0.3466
 5582SOL    HW128382   1.010   2.745  14.424 -2.6295 -1.8733  0.3102
 5582SOL    HW228383   1.036   2.725  14.567 -3.4019 -1.7289 -0.4454
 5583SOL     OW28384   1.393   3.755   9.518 -0.2274 -0.5264 -0.3318
 5583SOL    HW128385   1.477   3.710   9.529  1.2949  2.2134 -0.5711
 5583SOL    HW228386   1.425   3.836   9.478 -0.6668 -0.3618 -0.3472
 5584SOL     OW28387   0.316   4.734  10.893 -0.6166  0.0873 -0.0839
 5584SOL    HW128388   0.270   4.710  10.973 -1.9750  0.4361 -0.7439
 5584SOL    HW228389   0.397   0.014  10.939 -0.1680  0.0526 -0.8561
 5585SOL     OW28390   0.071   4.720   2.030  0.2615  0.7604 -0.2033
 5585SOL    HW128391   0.150   0.018   1.993  0.7827  1.4803  1.6603
 5585SOL    HW228392   0.032   4.660   1.966  2.7035  0.3495 -1.3148
 5586SOL     OW28393   3.734   2.816   3.550 -0.4846 -0.1565  0.5648
 5586SOL    HW128394   3.817   2.847   3.515 -0.1638  0.9349  2.3289
 5586SOL    HW228395   3.762   2.759   3.622 -3.2646 -0.6051  1.3232
 5587SOL     OW28396   2.146   4.520   5.432  0.6036  0.0102  0.2855
 5587SOL    HW128397   2.051   4.508   5.436  0.7492 -1.2815  0.0844
 5587SOL    HW228398   2.155   4.588   5.366  1.4241 -1.8754 -1.5413
 5588SOL     OW28399   3.690   2.386   4.227  0.7836 -0.0178 -0.3064
 5588SOL    HW128400   3.635   2.309   4.243  1.0844 -0.2522 -0.3960
 5588SOL    HW228401   3.679   2.392   4.132  2.5466  1.0204 -0.4600
 5589SOL     OW28402   3.297   2.527  16.290 -0.1123  0.2175  0.3104
 5589SOL    HW128403   3.216   2.537  16.340 -0.8428 -0.4791 -0.7404
 5589SOL    HW228404   3.357   2.549  16.361  1.0560  2.7544 -1.4554
 5590SOL     OW28405   3.173   2.065   2.921  0.3538  0.1036  0.0484
 5590SOL    HW128406   3.165   2.135   2.856  2.0451  0.7764  0.5641
 5590SOL    HW228407   3.096   2.008   2.919  0.7223 -0.3056 -1.8574
 5591SOL     OW28408   3.721   0.152   0.376  0.3777 -0.3898 -0.1472
 5591SOL    HW128409   3.630   0.131   0.392  0.0479  0.7088 -0.5720
 5591SOL    HW228410   3.765   0.080   0.421 -1.0070 -1.6634 -0.8599
 5592SOL     OW28411   0.794   4.052   5.495  0.0534  0.2940 -0.1516
 5592SOL    HW128412   0.794   3.984   5.428 -1.8974 -0.3953  0.5289
 5592SOL    HW228413   0.809   4.132   5.445  2.2983 -0.6375 -0.9665
 5593SOL     OW28414   1.484   2.062  10.584  0.2858 -0.1722 -0.0355
 5593SOL    HW128415   1.577   2.040  10.584  0.3137 -0.0653 -0.8982
 5593SOL    HW228416   1.486   2.145  10.632 -1.4883  0.0699 -0.4033
 5594SOL     OW28417   3.704   0.355   5.174 -0.0262 -0.7648  0.0364
 5594SOL    HW128418   3.687   0.261   5.173 -0.2807 -0.7263  0.7121
 5594SOL    HW228419   3.696   0.366   5.268 -3.0253 -0.6893 -0.2447
 5595SOL     OW28420   1.810   4.035   6.983  0.1454  0.6623  0.3135
 5595SOL    HW128421   1.725   4.017   7.022  1.2248 -1.0623  1.8398
 5595SOL    HW228422   1.802   3.984   6.902 -0.3876 -1.1920  1.5423
 5596SOL     OW28423   0.909   4.098   2.602 -0.4804 -0.1280 -0.5349
 5596SOL    HW128424   0.901   4.156   2.527 -2.1131 -0.7967 -0.8907
 5596SOL    HW228425   0.883   4.157   2.673 -0.1867 -1.0797  0.3780
 5597SOL     OW28426   0.902   1.414  15.485 -0.2066  0.0127  0.4292
 5597SOL    HW128427   0.989   1.453  15.471  0.3779 -0.7011  2.1028
 5597SOL    HW228428   0.844   1.454  15.420 -1.6246  2.1469  3.0342
 5598SOL     OW28429   2.714   2.469   8.942 -0.6172 -0.0409 -0.3348
 5598SOL    HW128430   2.717   2.402   8.873  1.5985  0.6943 -0.9731
 5598SOL    HW228431   2.756   2.425   9.016 -0.7644 -1.0557 -0.8603
 5599SOL     OW28432   0.475   2.114  14.623 -0.5097  0.1876  0.5410
 5599SOL    HW128433   0.432   2.095  14.540 -0.5612 -1.0883  0.8633
 5599SOL    HW228434   0.568   2.107  14.604 -1.0274 -2.0103 -1.2059
 5600SOL     OW28435   3.999   1.798  14.786  0.8251 -0.4074  0.1911
 5600SOL    HW128436   4.084   1.778  14.746  1.6450  1.9406  0.7768
 5600SOL    HW228437   4.010   1.892  14.801  0.1386 -0.4474  0.9409
 5601SOL     OW28438   1.477   3.809   5.089  0.5712 -0.0663 -0.1628
 5601SOL    HW128439   1.463   3.881   5.151 -0.4910 -0.8378  0.4880
 5601SOL    HW228440   1.531   3.863   5.031  0.8157  0.9171  0.9691
 5602SOL     OW28441   4.586   0.941  12.065 -0.0862  0.4402  0.1055
 5602SOL    HW128442   4.574   1.031  12.037  2.6280  0.9754  0.6464
 5602SOL    HW228443   4.646   0.960  12.137 -1.1886  0.8552  0.9126
 5603SOL     OW28444   3.838   3.458   9.111 -0.5165 -0.0530 -0.0465
 5603SOL    HW128445   3.778   3.425   9.045  0.8232  0.3867 -1.4857
 5603SOL    HW228446   3.785   3.474   9.189  2.1844 -2.0741  2.2321
 5604SOL     OW28447   0.830   4.510   8.932 -0.1688 -0.4080 -0.2008
 5604SOL    HW128448   0.748   4.463   8.915 -0.7460  0.4171  0.3187
 5604SOL    HW228449   0.848   4.495   9.025 -0.3188 -2.1402 -0.4485
 5605SOL     OW28450   1.599   1.923   5.909 -0.3308  0.4712  0.5480
 5605SOL    HW128451   1.573   1.887   5.993  1.3596 -3.4578 -0.6302
 5605SOL    HW228452   1.694   1.914   5.911 -0.4330 -0.8140 -0.1698
 5606SOL     OW28453   3.344   3.639   9.968 -0.5951  0.8833 -0.5926
 5606SOL    HW128454   3.258   3.681   9.965 -0.9280  0.0902 -2.2876
 5606SOL    HW228455   3.396   3.716   9.994  1.8488 -0.7264 -0.7446
 5607SOL     OW28456   2.678   4.497   3.375  0.2745 -0.7770  0.0706
 5607SOL    HW128457   2.656   4.427   3.314  0.5204 -1.7814  1.1316
 5607SOL    HW228458   2.741   4.548   3.325 -0.3911  1.4669  1.5068
 5608SOL     OW28459   1.798   1.653   8.101  0.3768  0.4514 -0.0652
 5608SOL    HW128460   1.796   1.710   8.025  0.8234  1.5428  0.7461
 5608SOL    HW228461   1.862   1.583   8.083 -0.7144  0.0401 -2.2381
 5609SOL     OW28462   0.767   1.718  15.819 -0.3163  0.3916 -0.2432
 5609SOL    HW128463   0.781   1.758  15.733  1.6796 -1.0535 -0.5947
 5609SOL    HW228464   0.695   1.777  15.841 -0.6139  0.0146 -0.1911
 5610SOL     OW28465   3.916   1.671   0.041 -0.1943  0.0210 -0.5453
 5610SOL    HW128466   3.961   1.589   0.061 -2.4594 -1.4504 -1.5250
 5610SOL    HW228467   3.928   1.719   0.123  2.1037 -0.0079 -0.8659
 5611SOL     OW28468   3.064   0.514  11.124 -0.1074 -0.6226 -0.0606
 5611SOL    HW128469   3.014   0.545  11.199 -0.8069  1.6613 -1.4474
 5611SOL    HW228470   3.049   0.420  11.116  3.3284 -1.1681 -0.1268
 5612SOL     OW28471   2.592   3.135   3.931  0.3275  0.1607  0.4467
 5612SOL    HW128472   2.673   3.108   3.888 -0.3561 -0.9858 -0.1152
 5612SOL    HW228473   2.606   3.142   4.026 -1.4727  1.8260  0.5768
 5613SOL     OW28474   4.459   1.348   4.570  0.1859  0.1866  0.0888
 5613SOL    HW128475   4.429   1.365   4.659  1.2808  0.0449  0.4827
 5613SOL    HW228476   4.553   1.330   4.571 -0.3321 -2.4834  1.3911
 5614SOL     OW28477   0.747   1.481  17.407  0.2468  0.2522  0.2228
 5614SOL    HW128478   0.837   1.489  17.439 -0.3672 -0.8043  2.1655
 5614SOL    HW228479   0.748   1.545  17.335  0.8948  0.6459  0.5843
 5615SOL     OW28480   1.435   1.904  11.721 -0.2088 -0.1496  0.1624
 5615SOL    HW128481   1.388   1.899  11.638  1.2201 -4.2340 -0.3710
 5615SOL    HW228482   1.388   1.837  11.772 -1.0302 -1.2192 -1.9827
 5616SOL     OW28483   0.549   2.570  12.050 -0.5566  0.9895  0.5405
 5616SOL    HW128484   0.572   2.492  12.101  0.0297 -0.0482 -1.3109
 5616SOL    HW228485   0.630   2.586  12.001  0.6734  1.5266  2.7674
 5617SOL     OW28486   0.249   0.859  16.948  0.5643 -0.1759 -0.3267
 5617SOL    HW128487   0.269   0.947  16.979 -0.2107 -0.0747 -0.0945
 5617SOL    HW228488   0.335   0.822  16.929  0.4553  0.3271 -1.7393
 5618SOL     OW28489   2.708   3.182  13.384 -0.1382  0.1663  0.2657
 5618SOL    HW128490   2.687   3.243  13.314 -0.2577  0.3119  0.4279
 5618SOL    HW228491   2.672   3.225  13.462 -2.9558  0.2466 -1.0681
 5619SOL     OW28492   1.478   3.678   0.990 -0.3217 -0.4061  0.0494
 5619SOL    HW128493   1.560   3.695   1.036 -0.9130 -2.4448  1.8761
 5619SOL    HW228494   1.463   3.583   0.997 -1.2212 -0.2711 -0.0892
 5620SOL     OW28495   0.729   1.066   6.091 -0.0195  0.6900  0.3293
 5620SOL    HW128496   0.813   1.100   6.120 -0.0795  1.2694 -0.1744
 5620SOL    HW228497   0.748   1.073   5.997  4.6304 -0.6375  1.1527
 5621SOL     OW28498   2.016   4.728   5.933 -0.1623  0.1970  0.9019
 5621SOL    HW128499   2.076   0.063   5.934 -0.6480  0.5956  0.3573
 5621SOL    HW228500   1.932   0.028   5.955  1.0491  2.6123  1.2618
 5622SOL     OW28501   2.469   1.725   5.766  0.8588 -0.2617  0.3548
 5622SOL    HW128502   2.517   1.708   5.848  0.8154 -0.8163  0.2660
 5622SOL    HW228503   2.536   1.764   5.711  0.2345 -1.7866 -1.4771
 5623SOL     OW28504   0.427   4.117   0.415 -0.1509 -0.4486  0.0700
 5623SOL    HW128505   0.418   4.141   0.507 -1.9760 -0.3650 -0.1331
 5623SOL    HW228506   0.484   4.040   0.420  2.2001  1.3523  1.1484
 5624SOL     OW28507   0.886   3.632   8.419 -0.2297 -0.4269  0.0106
 5624SOL    HW128508   0.842   3.614   8.502 -1.6449  1.7770 -0.2547
 5624SOL    HW228509   0.831   3.577   8.364 -0.9892 -0.4622  0.7969
 5625SOL     OW28510   1.746   0.694   5.803 -0.4955 -0.5709 -0.4123
 5625SOL    HW128511   1.744   0.638   5.726 -0.3822 -2.3836  0.9125
 5625SOL    HW228512   1.656   0.729   5.799  0.6395  2.4661  0.0880
 5626SOL     OW28513   4.270   0.012   7.444  0.0764 -0.3570 -0.4851
 5626SOL    HW128514   4.291   0.024   7.351 -1.0055 -0.6214 -0.7620
 5626SOL    HW228515   4.353   4.716   7.478  0.1703 -2.4807 -2.9129
 5627SOL     OW28516   0.511   2.174   5.845  0.2720  1.1480  0.1314
 5627SOL    HW128517   0.464   2.091   5.849 -0.8245  1.6960 -1.3636
 5627SOL    HW228518   0.602   2.145   5.841 -0.8176 -2.0684 -1.2155
 5628SOL     OW28519   4.159   1.943  12.326 -0.4418  0.6404  0.0677
 5628SOL    HW128520   4.215   1.950  12.248  0.8523 -0.5766  0.8681
 5628SOL    HW228521   4.101   1.867  12.318 -0.4008  0.7990 -1.6827
 5629SOL     OW28522   2.694   1.177   9.080  0.0965 -0.1606  0.0735
 5629SOL    HW128523   2.733   1.263   9.091  0.0957 -0.0705 -0.6033
 5629SOL    HW228524   2.632   1.200   9.010  1.8857 -0.6901 -1.6838
 5630SOL     OW28525   2.712   2.802   8.703 -0.4818 -0.2286 -0.5250
 5630SOL    HW128526   2.777   2.736   8.726  0.1264  0.4219 -0.3958
 5630SOL    HW228527   2.686   2.820   8.793  0.8350 -1.7057  0.1467
 5631SOL     OW28528   4.088   3.919   3.239 -0.0872 -0.3811 -0.3970
 5631SOL    HW128529   4.183   3.929   3.231 -0.0966 -0.3854 -0.5205
 5631SOL    HW228530   4.039   3.964   3.170  1.2163 -0.7798 -1.5881
 5632SOL     OW28531   2.181   1.754  13.386 -0.5857  0.0574  0.0579
 5632SOL    HW128532   2.153   1.686  13.324  0.9967 -0.2442 -0.3099
 5632SOL    HW228533   2.098   1.760  13.434 -1.7724 -0.0618 -1.9592
 5633SOL     OW28534   4.676   4.518  15.001 -0.7681 -0.2546 -0.6235
 5633SOL    HW128535   4.680   4.456  15.073 -1.2984  0.5430  0.0860
 5633SOL    HW228536   4.647   4.606  15.025 -1.7192 -0.7638  0.1064
 5634SOL     OW28537   2.950   2.190   3.579 -0.3946  0.3689 -0.0237
 5634SOL    HW128538   2.917   2.102   3.598 -1.4961  0.3714 -1.8795
 5634SOL    HW228539   2.882   2.245   3.616 -0.8025 -0.1089 -0.0549
 5635SOL     OW28540   1.383   0.257  15.634  0.3647 -0.4878  0.1885
 5635SOL    HW128541   1.457   0.210  15.671  1.2899  0.7194 -0.1214
 5635SOL    HW228542   1.349   0.296  15.714 -1.1352  1.8948 -1.5863
 5636SOL     OW28543   4.215   3.339   4.258 -0.4166 -0.2946 -0.5094
 5636SOL    HW128544   4.297   3.389   4.251 -0.9296  0.7141  0.6024
 5636SOL    HW228545   4.246   3.251   4.238  0.0777  0.5589 -3.5322
 5637SOL     OW28546   4.540   0.747  12.320 -0.2823 -0.0740  0.1272
 5637SOL    HW128547   4.630   0.779  12.325 -0.8251  1.2149  1.8357
 5637SOL    HW228548   4.492   0.826  12.347 -0.5709 -0.1486 -0.1741
 5638SOL     OW28549   4.536   4.140   8.443 -0.7907  0.1206  0.4592
 5638SOL    HW128550   4.443   4.121   8.450 -0.8239 -0.3925 -1.5411
 5638SOL    HW228551   4.562   4.068   8.386  0.2780 -2.0235  3.6500
 5639SOL     OW28552   2.180   1.229   6.552  0.1461 -0.2719  0.4173
 5639SOL    HW128553   2.257   1.285   6.546 -0.4995  0.6538  0.8421
 5639SOL    HW228554   2.174   1.235   6.647  2.5003  1.0504  0.4760
 5640SOL     OW28555   2.547   1.976   4.694  0.0688 -0.2741  0.2528
 5640SOL    HW128556   2.554   1.913   4.622  0.0421  3.0043 -2.6625
 5640SOL    HW228557   2.610   2.046   4.674  1.1570 -0.7320  2.0773
 5641SOL     OW28558   2.206   4.205   9.025  0.1310  0.3030 -0.0130
 5641SOL    HW128559   2.214   4.121   8.980 -1.1087  0.1625  0.0255
 5641SOL    HW228560   2.141   4.178   9.091 -3.8058  2.1227 -3.1678
 5642SOL     OW28561   2.271   1.970   4.367 -0.1364  0.2654  0.0725
 5642SOL    HW128562   2.208   2.025   4.414  0.0506  0.4422  0.1134
 5642SOL    HW228563   2.301   1.910   4.435  0.1524 -0.8296 -1.0147
 5643SOL     OW28564   4.187   4.079  14.671 -0.1413 -0.4232  0.4497
 5643SOL    HW128565   4.130   4.072  14.748 -1.2602 -2.8341 -0.5928
 5643SOL    HW228566   4.178   4.169  14.641 -0.4285 -1.0182 -1.2717
 5644SOL     OW28567   4.538   2.705   4.865 -0.4755  0.1995  0.2001
 5644SOL    HW128568   4.481   2.631   4.885  1.9548 -1.8072 -0.2883
 5644SOL    HW228569   4.515   2.751   4.946  1.6408  1.4324  0.1134
 5645SOL     OW28570   3.353   2.172  10.786 -0.5229 -0.6336 -0.0137
 5645SOL    HW128571   3.262   2.168  10.818  0.3607 -0.2348  2.5577
 5645SOL    HW228572   3.355   2.249  10.729  0.9014 -0.7910 -0.1579
 5646SOL     OW28573   1.778   3.941   4.917  0.5124  0.1805  0.1238
 5646SOL    HW128574   1.826   4.022   4.900 -0.0930  0.3672 -0.6828
 5646SOL    HW228575   1.692   3.980   4.936 -0.3817 -1.3712 -0.7422
 5647SOL     OW28576   2.664   0.551   8.538  0.1176  0.4355 -0.8144
 5647SOL    HW128577   2.691   0.465   8.506  1.0910  0.3863  0.1386
 5647SOL    HW228578   2.574   0.522   8.551  1.0858 -1.3618  1.9215
 5648SOL     OW28579   0.480   1.659  14.627  0.1087 -0.0287  0.5277
 5648SOL    HW128580   0.555   1.608  14.656  0.1248 -1.0703 -1.3169
 5648SOL    HW228581   0.522   1.729  14.576 -0.8578 -0.2976 -0.6370
 5649SOL     OW28582   1.979   2.618  17.024 -0.3687 -0.2378  0.0097
 5649SOL    HW128583   2.007   2.533  17.058 -2.7187  0.5510  3.8159
 5649SOL    HW228584   2.052   2.672  17.054  2.1880 -1.9136 -3.1379
 5650SOL     OW28585   3.217   2.917   8.720  0.0258 -0.3582  0.0934
 5650SOL    HW128586   3.125   2.944   8.716  0.6682  1.8251  0.5303
 5650SOL    HW228587   3.228   2.927   8.814  0.1203  2.2652 -0.2207
 5651SOL     OW28588   3.106   0.745   2.163  0.2601  0.2015 -0.1842
 5651SOL    HW128589   3.180   0.802   2.185  0.8462  0.2361 -2.2383
 5651SOL    HW228590   3.153   0.679   2.112 -2.5014 -0.9465 -1.2255
 5652SOL     OW28591   2.009   0.347   4.953  0.0004  0.4715 -0.3792
 5652SOL    HW128592   2.072   0.389   5.012  0.1947 -0.8305  0.3196
 5652SOL    HW228593   1.940   0.397   4.996  1.1485 -0.8758  3.0156
 5653SOL     OW28594   0.062   2.059   2.055  0.5959  0.1208 -0.6284
 5653SOL    HW128595   0.131   2.057   1.988  1.3944 -0.7371  0.2226
 5653SOL    HW228596   4.731   2.084   1.997 -0.0789 -3.5024 -1.3087
 5654SOL     OW28597   3.222   4.054   6.992  0.1608 -0.2044  0.6753
 5654SOL    HW128598   3.140   4.087   6.956  1.0947 -0.4295 -1.6354
 5654SOL    HW228599   3.208   4.063   7.086 -0.3153  1.6178  0.4315
 5655SOL     OW28600   2.685   2.533  17.101 -0.1694 -0.3467 -0.1381
 5655SOL    HW128601   2.647   2.517  17.014  0.2419 -2.4653  0.0714
 5655SOL    HW228602   2.611   2.576  17.145  0.7975 -0.5675  1.7128
 5656SOL     OW28603   4.094   3.498   6.110 -0.2783 -0.3031  0.2466
 5656SOL    HW128604   4.129   3.416   6.077 -1.8252 -0.9395  0.2196
 5656SOL    HW228605   4.037   3.452   6.171 -1.5916  2.0321  0.7858
 5657SOL     OW28606   3.794   2.773   8.537  0.6874  0.2668 -0.8091
 5657SOL    HW128607   3.767   2.847   8.481 -0.4878  2.0316  2.1196
 5657SOL    HW228608   3.857   2.726   8.481  1.5615 -1.2684  1.4797
 5658SOL     OW28609   1.090   4.704   4.009 -0.2894 -0.3105 -0.7676
 5658SOL    HW128610   1.183   4.723   4.023 -0.6527  0.5365  0.5728
 5658SOL    HW228611   1.052   0.046   4.040  2.2247  0.0317  1.4875
 5659SOL     OW28612   4.026   2.968   9.438 -0.3582 -0.3522 -0.4442
 5659SOL    HW128613   3.997   3.027   9.368 -0.1820  2.2154  1.6608
 5659SOL    HW228614   4.107   2.933   9.404  0.1866  0.9341 -0.4736
 5660SOL     OW28615   2.821   3.651  13.323 -0.1938 -0.4877  0.6154
 5660SOL    HW128616   2.759   3.602  13.270 -0.7667  0.8060  0.0978
 5660SOL    HW228617   2.803   3.621  13.412  0.1272 -0.7542  0.5879
 5661SOL     OW28618   2.299   0.070  12.499 -0.1780  0.4220  0.4589
 5661SOL    HW128619   2.218   0.023  12.482 -0.7684  1.5392  0.1942
 5661SOL    HW228620   2.279   0.155  12.539  1.1041  1.1851 -0.4937
 5662SOL     OW28621   2.042   0.393   6.927 -0.0422  0.8449  0.1196
 5662SOL    HW128622   1.975   0.325   6.921  0.3559  0.5647 -1.2644
 5662SOL    HW228623   2.011   0.448   6.854 -1.0868  0.6395  0.4122
 5663SOL     OW28624   1.108   1.335  12.310 -0.5868 -0.5011  0.0260
 5663SOL    HW128625   1.140   1.266  12.251  1.9566  0.2055  0.5987
 5663SOL    HW228626   1.086   1.409  12.254 -1.2755 -0.7673 -0.0549
 5664SOL     OW28627   2.737   4.502   6.843  0.1341  1.0557 -0.4895
 5664SOL    HW128628   2.704   4.444   6.912  1.2118 -0.1312 -0.9816
 5664SOL    HW228629   2.673   4.574   6.843  0.6669  1.5280 -0.0511
 5665SOL     OW28630   0.527   1.343  17.502  0.6736 -0.3549 -0.0662
 5665SOL    HW128631   0.611   1.380  17.475  0.4778  0.4106  0.3742
 5665SOL    HW228632   0.563   1.264  17.541 -0.7538 -1.5906 -1.2941
 5666SOL     OW28633   1.230   2.294   2.851  0.4025  0.2327 -0.5086
 5666SOL    HW128634   1.281   2.215   2.868  0.5250  0.6598  1.0825
 5666SOL    HW228635   1.140   2.264   2.847  1.0700 -1.6252 -1.4197
 5667SOL     OW28636   2.846   1.015   2.799 -0.1539 -0.0326 -0.1279
 5667SOL    HW128637   2.821   0.982   2.712 -0.8518 -0.6575  0.3017
 5667SOL    HW228638   2.864   0.932   2.844 -0.5370  0.1685  0.4011
 5668SOL     OW28639   0.899   2.545   2.672 -0.2343  0.1565 -0.5247
 5668SOL    HW128640   0.976   2.488   2.665  0.8172  1.5897 -0.7140
 5668SOL    HW228641   0.916   2.614   2.607 -1.0511 -2.4502 -3.5206
 5669SOL     OW28642   1.575   2.840   4.332 -0.5963 -0.3962  0.7397
 5669SOL    HW128643   1.629   2.763   4.349  2.9455  1.8388 -0.1985
 5669SOL    HW228644   1.491   2.798   4.314 -0.9922  0.1954  1.2152
 5670SOL     OW28645   3.937   0.761   7.033  0.3543  0.1108 -0.0603
 5670SOL    HW128646   3.918   0.739   6.942  0.7188  0.5906 -0.2544
 5670SOL    HW228647   3.846   0.763   7.062  0.8310  0.3662  1.4432
 5671SOL     OW28648   1.197   4.598   2.133  0.8297 -0.0634  0.4067
 5671SOL    HW128649   1.247   4.605   2.214  0.9676 -0.2927  0.3410
 5671SOL    HW228650   1.225   4.678   2.087  0.7692 -0.1118  0.2850
 5672SOL     OW28651   4.657   2.044   3.137 -0.0817  0.5053  0.2382
 5672SOL    HW128652   4.715   2.060   3.211  1.5267 -1.5009 -0.5995
 5672SOL    HW228653   4.592   1.988   3.181  1.8762 -0.1049  2.3227
 5673SOL     OW28654   2.161   1.881  13.094  0.1188  0.3828  0.2889
 5673SOL    HW128655   2.135   1.935  13.019  1.4702  0.4815 -0.1020
 5673SOL    HW228656   2.154   1.797  13.049 -2.5738  0.2438  0.9775
 5674SOL     OW28657   1.419   2.015   9.008 -0.3846  0.2522  0.0495
 5674SOL    HW128658   1.427   2.109   8.992  1.0923  0.2672  0.8460
 5674SOL    HW228659   1.485   2.020   9.077 -0.4103 -3.7998  0.3620
 5675SOL     OW28660   0.021   0.510   4.681  0.4837  0.1342  0.4744
 5675SOL    HW128661   0.069   0.443   4.633 -0.7516  0.7922 -1.6838
 5675SOL    HW228662   4.693   0.458   4.724  0.9281 -0.1162  0.8765
 5676SOL     OW28663   0.537   4.281  10.159  0.0545  0.1678  0.6899
 5676SOL    HW128664   0.571   4.318  10.240 -1.2742  2.2223  0.3064
 5676SOL    HW228665   0.451   4.322  10.152 -0.1597 -0.6500 -1.5667
 5677SOL     OW28666   2.313   3.841   1.807 -0.5852  0.0618  0.3846
 5677SOL    HW128667   2.235   3.836   1.862 -0.7339  0.4852  0.2187
 5677SOL    HW228668   2.297   3.783   1.733 -1.3660  1.2246 -0.3677
 5678SOL     OW28669   1.819   3.973   0.838 -0.3739 -0.2370 -0.3307
 5678SOL    HW128670   1.740   4.025   0.827  0.1575  0.0169 -3.0524
 5678SOL    HW228671   1.837   3.938   0.750 -1.3648  0.0494 -0.6446
 5679SOL     OW28672   4.083   2.392  10.484 -0.6053  0.2358  0.3762
 5679SOL    HW128673   4.134   2.449  10.541  1.5883 -0.6221 -0.7248
 5679SOL    HW228674   4.150   2.386  10.416  0.5928 -0.3307  1.6175
 5680SOL     OW28675   1.418   0.595   1.703  0.5219 -0.1609 -0.3899
 5680SOL    HW128676   1.387   0.518   1.657  0.3087  0.2610 -0.9521
 5680SOL    HW228677   1.370   0.596   1.785  0.8635 -0.6383 -0.1818
 5681SOL     OW28678   3.735   2.598   5.535 -0.2796  0.2871  0.1656
 5681SOL    HW128679   3.830   2.586   5.538 -0.1357  1.2264 -0.7619
 5681SOL    HW228680   3.738   2.689   5.563  1.1511  0.2871  0.0029
 5682SOL     OW28681   1.539   3.545  14.715 -0.5284  0.2633 -0.0193
 5682SOL    HW128682   1.619   3.507  14.752 -0.8033  0.1900  0.4988
 5682SOL    HW228683   1.473   3.506  14.771 -1.1913  0.7041 -0.4846
 5683SOL     OW28684   2.195   0.732  14.063  0.1094 -0.9769 -0.0278
 5683SOL    HW128685   2.154   0.800  14.117  0.3908 -1.6035  0.9719
 5683SOL    HW228686   2.242   0.681  14.129  3.0596  1.1084 -0.4837
 5684SOL     OW28687   4.595   1.378   5.177  0.3224  0.2332  0.7600
 5684SOL    HW128688   4.609   1.438   5.251  0.6696  0.7742  0.2610
 5684SOL    HW228689   4.501   1.367   5.171  0.4289 -0.8153  1.0899
 5685SOL     OW28690   2.508   1.709   6.054  0.6323  0.4337 -0.7926
 5685SOL    HW128691   2.542   1.798   6.039 -0.6251  1.3629  1.7154
 5685SOL    HW228692   2.585   1.663   6.088 -0.4241 -1.0831 -0.4717
 5686SOL     OW28693   4.312   2.420  14.331 -0.1964 -0.1479  0.2812
 5686SOL    HW128694   4.317   2.326  14.350 -0.3069  0.1765  1.8959
 5686SOL    HW228695   4.223   2.448  14.351  0.7687  3.3009 -0.2339
 5687SOL     OW28696   0.850   0.831   9.165 -0.2311 -0.5314 -0.3987
 5687SOL    HW128697   0.855   0.892   9.239 -2.3687  0.8407 -1.3850
 5687SOL    HW228698   0.757   0.825   9.147 -0.2778 -0.7447 -0.0901
 5688SOL     OW28699   1.262   1.873  10.099  0.0998 -0.0566  0.1086
 5688SOL    HW128700   1.345   1.919  10.111  0.1677  0.1349 -1.0268
 5688SOL    HW228701   1.262   1.791  10.147 -1.1309  0.0005  0.1937
 5689SOL     OW28702   4.181   3.017  14.775  0.2473  0.1034 -0.2120
 5689SOL    HW128703   4.101   3.056  14.739  0.6144  1.8575  0.8695
 5689SOL    HW228704   4.243   3.088  14.760  1.5654 -1.3752 -1.6981
 5690SOL     OW28705   0.897   4.214   4.931 -0.2132  0.0513 -0.0822
 5690SOL    HW128706   0.924   4.217   5.023 -0.5426 -1.8616  0.0670
 5690SOL    HW228707   0.963   4.157   4.892  0.4955  0.0558  1.1279
 5691SOL     OW28708   2.507   1.894   3.392 -0.1766  0.1142  0.5324
 5691SOL    HW128709   2.460   1.852   3.464  0.6952 -1.6801  0.0490
 5691SOL    HW228710   2.463   1.867   3.311  2.2289  1.0364 -1.0911
 5692SOL     OW28711   3.899   1.872  16.085 -0.0307  0.7220  0.2347
 5692SOL    HW128712   3.917   1.908  15.998  3.7337 -0.9562  0.3636
 5692SOL    HW228713   3.958   1.922  16.141  2.0247 -1.3140 -0.1468
 5693SOL     OW28714   2.878   2.942  12.037 -0.1014 -0.0270  0.5312
 5693SOL    HW128715   2.819   3.012  12.008 -0.9225 -0.8369  0.2598
 5693SOL    HW228716   2.824   2.864  12.026  0.9335 -0.4835 -1.1829
 5694SOL     OW28717   2.452   1.322   9.164  0.4221 -0.0560 -0.3539
 5694SOL    HW128718   2.362   1.317   9.196 -0.0179  2.4867 -1.1968
 5694SOL    HW228719   2.471   1.229   9.179  2.0654  0.4436  0.7197
 5695SOL     OW28720   0.953   3.096   8.449 -0.1482 -0.0588 -0.0098
 5695SOL    HW128721   0.944   3.038   8.373 -1.1223  0.3715 -0.2151
 5695SOL    HW228722   1.018   3.160   8.419 -0.4268  0.2394  0.0218
 5696SOL     OW28723   4.189   2.544   4.702  0.0600  0.5147  0.4067
 5696SOL    HW128724   4.173   2.467   4.647  0.8540  1.9789 -1.8652
 5696SOL    HW228725   4.147   2.617   4.658 -0.5103 -1.1402 -1.8087
 5697SOL     OW28726   3.797   2.653   6.130  0.4303 -0.1366 -0.3796
 5697SOL    HW128727   3.846   2.713   6.073 -0.3437 -0.0865 -0.9868
 5697SOL    HW228728   3.856   2.661   6.205 -0.5166 -1.6317  0.5003
 5698SOL     OW28729   3.619   3.436  15.507 -0.2876  0.1498 -0.1709
 5698SOL    HW128730   3.681   3.471  15.442 -0.0312 -0.8849 -0.4868
 5698SOL    HW228731   3.632   3.342  15.493 -0.8226  0.2727 -1.5667
 5699SOL     OW28732   1.348   0.293   4.258 -0.3620 -0.1298 -0.1441
 5699SOL    HW128733   1.347   0.320   4.350  0.0596  0.0654 -0.1993
 5699SOL    HW228734   1.316   0.368   4.207 -1.4687 -1.2961 -1.1650
 5700SOL     OW28735   1.620   2.770   2.899  0.2554  0.4889  0.3513
 5700SOL    HW128736   1.608   2.863   2.879  0.0149  0.7066  1.5137
 5700SOL    HW228737   1.694   2.747   2.843  0.1343 -1.8288  1.1642
 5701SOL     OW28738   3.827   3.924   3.409  0.1498  0.1292 -0.7555
 5701SOL    HW128739   3.843   3.995   3.470 -1.0914  0.4730 -0.8368
 5701SOL    HW228740   3.910   3.933   3.362 -0.6567  0.9345 -2.0333
 5702SOL     OW28741   0.556   1.125  11.585  0.1728  0.5098 -0.4253
 5702SOL    HW128742   0.591   1.169  11.663  3.8745  0.0127 -1.8062
 5702SOL    HW228743   0.555   1.204  11.531  0.3765  0.1754 -0.9170
 5703SOL     OW28744   2.225   3.050   5.438  0.2277  0.3508  0.0534
 5703SOL    HW128745   2.214   3.013   5.351 -0.5700  0.3542  0.1573
 5703SOL    HW228746   2.188   2.985   5.499 -0.6243  1.2329  0.4741
 5704SOL     OW28747   1.714   0.400  11.128  0.4375  0.1310 -0.6083
 5704SOL    HW128748   1.707   0.304  11.120 -0.1398  0.2061 -0.9876
 5704SOL    HW228749   1.716   0.425  11.035 -1.4677  1.1375 -0.3710
 5705SOL     OW28750   3.709   4.083   9.598  0.2064 -0.3931  0.5809
 5705SOL    HW128751   3.772   4.147   9.566  0.0742 -0.5046  0.1031
 5705SOL    HW228752   3.766   4.007   9.584  0.2025 -0.9973  3.9115
 5706SOL     OW28753   2.221   3.727   2.220 -0.1143 -0.6423  0.2343
 5706SOL    HW128754   2.238   3.691   2.133  0.8003  3.3922 -1.2543
 5706SOL    HW228755   2.295   3.689   2.266 -1.2411 -1.2499  1.5435
 5707SOL     OW28756   3.789   1.186  16.500  0.1224  0.2709 -0.1665
 5707SOL    HW128757   3.806   1.264  16.551 -0.0124  0.4646 -0.4158
 5707SOL    HW228758   3.857   1.130  16.537  1.0891  1.1012 -0.6830
 5708SOL     OW28759   3.722   2.201   1.649  0.1937  0.3332 -0.4899
 5708SOL    HW128760   3.776   2.122   1.645 -1.2504 -0.6323 -0.8462
 5708SOL    HW228761   3.775   2.267   1.604  1.3900 -0.9973 -1.0541
 5709SOL     OW28762   0.151   1.579  13.003  0.2619 -0.7828  0.1888
 5709SOL    HW128763   0.227   1.548  13.052  2.3514  2.3326 -1.1152
 5709SOL    HW228764   0.175   1.534  12.922  0.8065 -0.3058  0.0878
 5710SOL     OW28765   3.696   4.210   7.380  0.4957  0.3301 -0.5323
 5710SOL    HW128766   3.640   4.159   7.439 -0.1606  1.1159 -0.4795
 5710SOL    HW228767   3.755   4.256   7.440 -1.1623  0.0250  1.3195
 5711SOL     OW28768   0.276   2.999   6.955 -0.7454 -0.0186  0.6464
 5711SOL    HW128769   0.287   2.916   6.908  0.2424 -0.7757  2.2301
 5711SOL    HW228770   0.327   2.986   7.035  0.5543  0.5753 -0.0862
 5712SOL     OW28771   0.235   4.179   1.711 -0.0594 -1.1722 -0.2599
 5712SOL    HW128772   0.213   4.107   1.652  2.2308 -0.5212 -1.9436
 5712SOL    HW228773   0.192   4.255   1.672  0.3071 -0.0545  1.5086
 5713SOL     OW28774   1.430   4.518   4.680  0.8776  0.5728  0.9177
 5713SOL    HW128775   1.410   4.605   4.643 -0.1832 -0.0917 -0.0742
 5713SOL    HW228776   1.352   4.466   4.661 -0.0295  2.2167  0.0797
 5714SOL     OW28777   2.738   1.130   5.650 -0.7614  0.3549  0.1567
 5714SOL    HW128778   2.773   1.183   5.578  1.1742  2.4475  2.6519
 5714SOL    HW228779   2.810   1.071   5.672  1.1390  2.9386  0.8040
 5715SOL     OW28780   2.750   3.575   7.041  0.5201  0.0437 -0.5148
 5715SOL    HW128781   2.840   3.552   7.064  0.7142  0.4122 -0.9078
 5715SOL    HW228782   2.759   3.669   7.028  1.3661 -0.0353 -0.4816
 5716SOL     OW28783   2.001   1.636   9.505 -0.3226  0.3494 -0.7691
 5716SOL    HW128784   2.086   1.670   9.535 -0.0706  0.4584 -1.6104
 5716SOL    HW228785   1.954   1.643   9.588 -1.5740 -1.6086 -1.3169
 5717SOL     OW28786   0.013   1.741  16.533  0.0257  0.1164  0.2004
 5717SOL    HW128787   0.050   1.813  16.482 -0.7776  0.4544  0.0901
 5717SOL    HW228788   0.080   1.675  16.517 -1.5195 -1.1932 -0.9699
 5718SOL     OW28789   1.176   3.307   4.374  0.0318 -0.3121  0.4101
 5718SOL    HW128790   1.225   3.244   4.428  0.8233  0.9258  1.1223
 5718SOL    HW228791   1.127   3.345   4.447  1.3941 -0.6714  1.5027
 5719SOL     OW28792   3.556   3.845   3.930 -0.7924 -0.2979 -0.0411
 5719SOL    HW128793   3.596   3.851   4.017 -2.0088  0.2919  0.4784
 5719SOL    HW228794   3.614   3.776   3.900  1.9736  2.3822 -0.9015
 5720SOL     OW28795   1.339   3.012   5.599 -0.5776 -0.9873 -0.1893
 5720SOL    HW128796   1.304   3.065   5.528  2.7638  4.5295  2.2880
 5720SOL    HW228797   1.430   3.010   5.570 -0.3017  3.2142  0.3740
 5721SOL     OW28798   1.704   2.889   9.365 -0.3652 -0.3771 -0.6377
 5721SOL    HW128799   1.745   2.862   9.448 -0.0619  0.4511 -0.5177
 5721SOL    HW228800   1.780   2.910   9.311 -0.2676  1.4786  0.1915
 5722SOL     OW28801   0.935   2.841  11.345 -0.6467  0.1599 -0.2285
 5722SOL    HW128802   0.907   2.766  11.292  0.2084 -0.4980  0.2480
 5722SOL    HW228803   0.849   2.882  11.349 -0.6601  0.1357 -0.2705
 5723SOL     OW28804   0.435   0.175   8.144  0.3557  0.8141 -0.1861
 5723SOL    HW128805   0.354   0.212   8.108  1.2634  1.9260 -1.0537
 5723SOL    HW228806   0.422   0.161   8.238 -0.8352 -0.8212 -0.5843
 5724SOL     OW28807   2.806   3.104   8.504  0.4346  0.1989 -0.2634
 5724SOL    HW128808   2.733   3.042   8.506 -1.3085  2.3601  1.8343
 5724SOL    HW228809   2.872   3.064   8.562 -1.3896 -1.1547  0.8779
 5725SOL     OW28810   2.638   1.690  12.430 -0.1876 -0.4188 -0.0335
 5725SOL    HW128811   2.547   1.678  12.458 -0.0960  0.5377  0.6980
 5725SOL    HW228812   2.627   1.735  12.346  1.8105 -0.8945 -0.5421
 5726SOL     OW28813   3.708   3.922  11.299 -0.6021 -0.0494  0.0529
 5726SOL    HW128814   3.619   3.954  11.317 -0.1426  0.7998  0.8078
 5726SOL    HW228815   3.737   3.917  11.391 -1.0961  0.4945  0.2363
 5727SOL     OW28816   2.379   3.030  10.123  0.2075 -0.0137  0.0191
 5727SOL    HW128817   2.399   3.123  10.110 -1.6660  0.2477 -1.0121
 5727SOL    HW228818   2.446   3.006  10.187  0.9950 -1.6535 -1.4166
 5728SOL     OW28819   2.800   0.239   7.040  0.0742  0.3655 -0.2692
 5728SOL    HW128820   2.734   0.293   6.997 -0.5442  0.1342  0.3977
 5728SOL    HW228821   2.827   0.171   6.979  2.7526  1.0929  0.0720
 5729SOL     OW28822   1.325   1.724   8.626 -1.2998  0.3641 -0.3956
 5729SOL    HW128823   1.303   1.813   8.656 -0.7654  0.2927  0.2247
 5729SOL    HW228824   1.412   1.749   8.594  0.0580 -0.6201  2.4447
 5730SOL     OW28825   1.451   0.247   0.740 -0.8244  0.2740 -0.2814
 5730SOL    HW128826   1.544   0.229   0.723 -0.5498 -0.0907  1.5822
 5730SOL    HW228827   1.433   0.328   0.693  1.0640  1.9185  1.7957
 5731SOL     OW28828   4.241   1.135   5.575 -0.7778 -0.3318  0.1913
 5731SOL    HW128829   4.274   1.205   5.631 -1.1411 -0.6367  0.7841
 5731SOL    HW228830   4.273   1.052   5.610 -0.4752 -0.9561 -1.5918
 5732SOL     OW28831   2.021   1.440   9.084 -0.0474  0.1045 -0.0026
 5732SOL    HW128832   1.939   1.466   9.127  0.8282 -1.5049  2.6249
 5732SOL    HW228833   1.993   1.388   9.008 -2.3738 -0.6005  1.3481
 5733SOL     OW28834   0.397   0.610  12.267  0.8092 -0.3134 -0.1834
 5733SOL    HW128835   0.311   0.634  12.232  2.2310  2.3444 -1.8783
 5733SOL    HW228836   0.418   0.692  12.312  3.4828 -1.1015  0.0097
 5734SOL     OW28837   1.884   2.285   4.987  0.0264 -0.3165 -0.0564
 5734SOL    HW128838   1.862   2.324   5.072  2.1792 -1.0206  0.8021
 5734SOL    HW228839   1.889   2.359   4.926  2.7767 -0.5811 -0.1412
 5735SOL     OW28840   4.498   4.229   8.873 -0.1506  0.1091 -0.2552
 5735SOL    HW128841   4.433   4.299   8.876  0.9971  1.1592  0.4400
 5735SOL    HW228842   4.479   4.173   8.949  0.3527  2.6192  1.7371
 5736SOL     OW28843   2.881   1.096   4.022 -0.5963 -0.0859 -0.7412
 5736SOL    HW128844   2.955   1.047   4.057 -0.1214  0.1826 -1.3876
 5736SOL    HW228845   2.821   1.026   3.998 -0.7597 -0.4870  0.7853
 5737SOL     OW28846   1.085   4.440   8.257 -0.2054  0.1545  0.0750
 5737SOL    HW128847   1.099   4.352   8.291 -1.0714 -0.7225 -1.8655
 5737SOL    HW228848   0.996   4.427   8.222  0.2599  2.1709 -1.8363
 5738SOL     OW28849   1.148   2.631   6.350  0.3862 -0.2056 -0.2334
 5738SOL    HW128850   1.104   2.546   6.343 -0.6676  0.4189 -1.0328
 5738SOL    HW228851   1.116   2.648   6.439 -0.3951  3.8477 -1.2943
 5739SOL     OW28852   0.539   2.178   5.100 -0.2961  0.1292 -0.2109
 5739SOL    HW128853   0.453   2.157   5.136  0.4888  1.2206  2.2925
 5739SOL    HW228854   0.593   2.112   5.142 -0.1024 -0.0259 -0.6973
 5740SOL     OW28855   0.072   1.139  17.588 -0.4272  0.1452  0.0226
 5740SOL    HW128856   0.108   1.141  17.500 -0.4297  0.9466  0.0441
 5740SOL    HW228857   0.103   1.050  17.604 -1.3826 -0.4036 -1.1999
 5741SOL     OW28858   4.175   0.335   9.939  0.0485  0.2012  0.3208
 5741SOL    HW128859   4.238   0.382   9.994 -1.2577  2.1717  0.1364
 5741SOL    HW228860   4.106   0.398   9.921  1.0669  1.1118 -0.3875
 5742SOL     OW28861   4.544   0.573   7.710 -0.1898  1.2774 -0.4570
 5742SOL    HW128862   4.514   0.541   7.794 -1.5079  1.7624 -0.7310
 5742SOL    HW228863   4.498   0.657   7.714  0.3816  1.5994 -0.5560
 5743SOL     OW28864   0.575   2.315   9.155  0.4165 -0.4287 -0.4929
 5743SOL    HW128865   0.507   2.276   9.211  1.1915 -0.0370  0.7223
 5743SOL    HW228866   0.606   2.381   9.217 -2.7588 -0.6106  1.3080
 5744SOL     OW28867   0.179   1.932   8.953  0.0429  0.2624  0.0467
 5744SOL    HW128868   0.216   1.847   8.978  2.6200  1.7132  1.2238
 5744SOL    HW228869   0.087   1.922   8.979 -0.8119  2.4041 -2.1817
 5745SOL     OW28870   1.696   0.663   7.333  0.4610  0.4802 -0.6786
 5745SOL    HW128871   1.739   0.609   7.399  0.2894  0.2899 -0.7226
 5745SOL    HW228872   1.772   0.681   7.278 -0.6040 -0.8278 -2.5729
 5746SOL     OW28873   0.901   1.122   5.509  0.4573 -0.6491 -0.0421
 5746SOL    HW128874   0.910   1.118   5.414 -0.6964  2.9799 -0.2960
 5746SOL    HW228875   0.828   1.184   5.510  0.9687 -0.0165 -2.1771
 5747SOL     OW28876   2.223   2.396   4.865 -0.7416 -0.4502  0.2211
 5747SOL    HW128877   2.138   2.440   4.860 -0.8834 -0.5962  1.4708
 5747SOL    HW228878   2.226   2.387   4.960  1.6111 -0.6194  0.1314
 5748SOL     OW28879   2.405   2.525   1.692 -0.1737  0.3677  0.3306
 5748SOL    HW128880   2.489   2.514   1.737 -0.3778  0.5132  0.7448
 5748SOL    HW228881   2.343   2.476   1.746 -1.5666  2.8356  0.9346
 5749SOL     OW28882   2.420   4.360  14.245  0.7584  0.2395  0.3650
 5749SOL    HW128883   2.343   4.315  14.211  1.6560  0.4269 -1.9341
 5749SOL    HW228884   2.445   4.290  14.305 -3.1706 -1.4370  0.0436
 5750SOL     OW28885   2.347   1.664   8.374  0.3796 -0.1299 -0.6848
 5750SOL    HW128886   2.442   1.662   8.379  0.4067 -0.6828 -1.4731
 5750SOL    HW228887   2.341   1.748   8.420 -2.8409 -0.8507  0.2205
 5751SOL     OW28888   0.204   4.540   4.734  0.2015 -0.4326 -0.4610
 5751SOL    HW128889   0.162   4.490   4.664 -0.9482  2.9346 -2.2143
 5751SOL    HW228890   0.238   4.470   4.789  0.1377  1.1677  1.6257
 5752SOL     OW28891   1.138   1.465   6.421 -0.3232  0.2785 -0.1716
 5752SOL    HW128892   1.158   1.558   6.427  0.1219  0.0313  2.1481
 5752SOL    HW228893   1.163   1.438   6.510 -0.4635  0.8563  0.0397
 5753SOL     OW28894   3.923   2.282   3.165 -0.3095 -0.0547  1.2786
 5753SOL    HW128895   3.839   2.239   3.152  0.1128 -0.3285 -0.5121
 5753SOL    HW228896   3.916   2.378   3.164 -2.5961 -0.1958  2.4512
 5754SOL     OW28897   2.844   0.691   4.084  0.2691 -0.1095  0.4016
 5754SOL    HW128898   2.800   0.612   4.114 -2.2520  1.0046 -0.3674
 5754SOL    HW228899   2.853   0.741   4.165 -0.7252  1.4793 -0.4621
 5755SOL     OW28900   2.026   3.113   8.735  0.1344  0.2648  0.5047
 5755SOL    HW128901   2.052   3.105   8.643 -1.2739 -0.1184  0.1215
 5755SOL    HW228902   2.034   3.207   8.747 -1.1784  0.3106  1.0769
 5756SOL     OW28903   3.647   2.008  16.449 -0.4539  0.2334  0.5065
 5756SOL    HW128904   3.557   2.040  16.452 -0.8545 -0.8632  0.1792
 5756SOL    HW228905   3.645   1.961  16.532 -2.2075 -1.6234 -0.5839
 5757SOL     OW28906   1.860   2.882  15.919 -0.1488  0.5094  0.6534
 5757SOL    HW128907   1.936   2.932  15.889 -1.5732  2.2426 -0.0954
 5757SOL    HW228908   1.796   2.923  15.860  1.8790  0.3627 -1.6653
 5758SOL     OW28909   3.375   1.534  17.626 -0.0057  0.3855  0.4386
 5758SOL    HW128910   3.409   1.517  17.714  0.2014 -0.2654  0.2345
 5758SOL    HW228911   3.427   1.471  17.576 -3.1665 -1.3958 -0.6522
 5759SOL     OW28912   0.668   2.725   6.775 -0.4643  0.2322  0.1502
 5759SOL    HW128913   0.585   2.679   6.788 -0.1573 -0.8826 -1.9071
 5759SOL    HW228914   0.634   2.803   6.731 -1.5117 -0.3298 -0.0488
 5760SOL     OW28915   3.965   3.047   6.165 -0.0176  0.2861  0.3521
 5760SOL    HW128916   4.016   2.966   6.169 -1.5815 -0.6894  0.3461
 5760SOL    HW228917   3.971   3.069   6.072  1.8591 -0.0838  0.3735
 5761SOL     OW28918   0.764   1.782   4.211 -0.3171  0.3379 -0.1680
 5761SOL    HW128919   0.778   1.821   4.297 -1.4399 -0.0281  0.1742
 5761SOL    HW228920   0.842   1.819   4.171 -0.4835  0.5293 -0.3139
 5762SOL     OW28921   0.255   1.780   5.034  0.6962  0.5221 -0.2609
 5762SOL    HW128922   0.226   1.797   4.945 -1.9601 -1.2405  0.2532
 5762SOL    HW228923   0.303   1.699   5.017 -1.3639 -0.9847  1.0528
 5763SOL     OW28924   3.039   0.620   8.835  0.0559  0.1444 -0.7596
 5763SOL    HW128925   2.982   0.619   8.758 -1.8523  1.0286  0.6483
 5763SOL    HW228926   3.001   0.547   8.884  1.1161 -0.3123 -0.6252
 5764SOL     OW28927   2.235   2.195   4.576  0.3953  0.2288  0.8053
 5764SOL    HW128928   2.240   2.269   4.516 -1.0706 -0.0334  0.3639
 5764SOL    HW228929   2.174   2.235   4.638 -0.5244  2.6288 -1.6500
 5765SOL     OW28930   2.707   0.188   8.096  0.1541  0.5013 -0.2313
 5765SOL    HW128931   2.774   0.239   8.051 -0.7788  0.3663 -1.7780
 5765SOL    HW228932   2.633   0.188   8.035 -0.8467 -1.6112  0.9868
 5766SOL     OW28933   0.409   3.041   9.331  0.3696 -0.2013  0.0990
 5766SOL    HW128934   0.446   2.956   9.307 -1.8808 -0.7875 -1.3389
 5766SOL    HW228935   0.457   3.069   9.408  0.6817  0.5342 -0.3618
 5767SOL     OW28936   3.031   3.110   7.195 -0.4154 -0.0004 -0.4279
 5767SOL    HW128937   3.088   3.077   7.125  0.8893 -1.1453  1.1517
 5767SOL    HW228938   3.081   3.089   7.274  2.5336  2.0971 -1.7306
 5768SOL     OW28939   3.853   2.468   4.668  0.3954  0.1986 -0.2071
 5768SOL    HW128940   3.831   2.506   4.583  0.3144  0.2517 -0.1623
 5768SOL    HW228941   3.774   2.476   4.721  0.6325  0.6484  0.0789
 5769SOL     OW28942   0.588   0.931   9.445 -0.5196 -0.6988  0.2265
 5769SOL    HW128943   0.654   0.874   9.486 -0.9514 -0.0893  1.7843
 5769SOL    HW228944   0.585   0.893   9.357 -2.4322 -0.7763  0.3275
 5770SOL     OW28945   3.967   2.002   8.973  0.6541  0.0147 -0.3690
 5770SOL    HW128946   3.960   2.080   8.919  2.0370 -0.5420 -1.3802
 5770SOL    HW228947   4.054   1.976   8.943  0.7944  1.0025 -0.8168
 5771SOL     OW28948   1.700   0.681   2.732 -0.0745  0.5390 -0.1887
 5771SOL    HW128949   1.777   0.704   2.681  0.7387  1.6200  1.5017
 5771SOL    HW228950   1.727   0.732   2.808  0.2064 -0.5961  0.4758
 5772SOL     OW28951   1.318   3.484  14.865  0.4985  0.4359  0.2563
 5772SOL    HW128952   1.357   3.437  14.938 -1.0535 -0.1509  0.7190
 5772SOL    HW228953   1.223   3.473  14.874  0.4005  1.3357  0.3552
 5773SOL     OW28954   2.812   4.359  11.721 -0.3255  0.8365  1.0684
 5773SOL    HW128955   2.855   4.280  11.686 -0.1659  1.4713 -0.1673
 5773SOL    HW228956   2.772   4.396  11.643  0.6400 -1.6755 -0.6203
 5774SOL     OW28957   4.245   3.639   3.104  0.5070  0.1185  0.6208
 5774SOL    HW128958   4.265   3.554   3.063  0.9866  1.6835 -2.3703
 5774SOL    HW228959   4.327   3.657   3.151  0.1689 -0.4483  1.4202
 5775SOL     OW28960   2.507   3.788   1.993 -0.0108  0.1008  0.1523
 5775SOL    HW128961   2.555   3.777   1.911  0.0935 -1.3233  0.4072
 5775SOL    HW228962   2.442   3.847   1.956  0.6914  0.4964 -0.4653
 5776SOL     OW28963   4.475   0.500  10.593  0.2597 -0.3942 -0.6948
 5776SOL    HW128964   4.459   0.511  10.687 -0.3430 -2.1067 -0.5904
 5776SOL    HW228965   4.397   0.454  10.561 -0.2837  1.3769 -1.8925
 5777SOL     OW28966   0.280   1.003  12.048 -0.3188 -0.4795  0.0716
 5777SOL    HW128967   0.216   1.003  11.977 -2.0859  2.3322  1.6785
 5777SOL    HW228968   0.309   1.094  12.042  1.8040 -1.1177  0.6494
 5778SOL     OW28969   4.232   4.175   3.779 -0.0335 -0.3947  0.4939
 5778SOL    HW128970   4.144   4.199   3.747  0.2748  1.7486  1.2556
 5778SOL    HW228971   4.211   4.090   3.818  0.5670 -1.4996 -1.5812
 5779SOL     OW28972   2.253   2.373   9.933  0.1366 -0.4585  0.2762
 5779SOL    HW128973   2.196   2.303   9.899 -1.4747  1.7691 -1.6628
 5779SOL    HW228974   2.190   2.423   9.985  1.8384 -0.5591  2.4122
 5780SOL     OW28975   1.741   2.663  14.849  0.2738  0.1330 -0.6166
 5780SOL    HW128976   1.671   2.683  14.911 -0.7110  0.8293 -1.9724
 5780SOL    HW228977   1.707   2.590  14.797  0.9464 -0.2899 -0.4750
 5781SOL     OW28978   0.622   0.105  15.699 -0.0218  0.5154  0.0038
 5781SOL    HW128979   0.622   0.015  15.668 -0.6340  0.3186  0.5698
 5781SOL    HW228980   0.710   0.113  15.664 -0.0589  2.2029  0.2956
 5782SOL     OW28981   0.844   4.490   7.228  0.0798 -0.3797  0.1396
 5782SOL    HW128982   0.919   4.545   7.248  0.3111 -0.5279 -0.3179
 5782SOL    HW228983   0.873   4.399   7.228 -1.1226 -0.7656 -1.6138
 5783SOL     OW28984   1.737   3.297   3.848  0.3540  0.0741 -0.2127
 5783SOL    HW128985   1.686   3.311   3.768  2.2244 -0.5939 -1.5190
 5783SOL    HW228986   1.781   3.381   3.858 -2.0250  1.0463  2.0495
 5784SOL     OW28987   2.819   1.819   3.298  0.4533 -0.0196  0.4625
 5784SOL    HW128988   2.736   1.866   3.291  0.2274 -0.6394 -1.1898
 5784SOL    HW228989   2.886   1.865   3.247  2.8631 -1.9042  1.9330
 5785SOL     OW28990   2.154   2.755   7.937 -0.3887 -1.0685  0.0604
 5785SOL    HW128991   2.204   2.687   7.892  1.1344  0.4322 -0.5123
 5785SOL    HW228992   2.189   2.842   7.915  0.4082 -1.8821 -1.8248
 5786SOL     OW28993   1.574   0.004   8.412 -0.2584  0.1582 -0.0362
 5786SOL    HW128994   1.552   0.094   8.439 -1.2912 -0.2596  0.5477
 5786SOL    HW228995   1.525   4.698   8.480  0.2621  0.0041  0.2334
 5787SOL     OW28996   3.181   1.944   2.421  0.2937 -0.1500  0.5413
 5787SOL    HW128997   3.114   1.913   2.359 -0.0833 -0.8960  1.3140
 5787SOL    HW228998   3.256   1.891   2.392  0.3189 -0.9233  2.0275
 5788SOL     OW28999   0.401   4.464   9.574 -0.0109  0.3703  0.1702
 5788SOL    HW129000   0.375   4.488   9.663 -0.7925  1.0835 -0.2506
 5788SOL    HW229001   0.461   4.538   9.561 -0.6934  0.7931 -0.5926
 5789SOL     OW29002   4.439   0.802   3.927  0.1254 -0.3710 -0.0422
 5789SOL    HW129003   4.490   0.872   3.967 -0.1703 -0.3565  0.3120
 5789SOL    HW229004   4.363   0.810   3.986  1.0554  1.2828  0.9346
 5790SOL     OW29005   0.306   0.162   2.170  0.1624 -0.3271 -0.0758
 5790SOL    HW129006   0.285   0.252   2.198  0.4623 -0.7907  1.6588
 5790SOL    HW229007   0.297   0.115   2.253 -0.9134  0.9288  0.5281
 5791SOL     OW29008   3.630   0.466   6.892 -0.0351  0.3779 -0.3120
 5791SOL    HW129009   3.683   0.423   6.825 -0.2499  0.1886 -0.3603
 5791SOL    HW229010   3.567   0.518   6.841 -0.7543 -1.5184 -1.3571
 5792SOL     OW29011   0.282   1.220   8.507  0.1829 -0.1254 -0.1508
 5792SOL    HW129012   0.248   1.132   8.522  1.6159 -0.9168 -1.5602
 5792SOL    HW229013   0.296   1.220   8.412  0.9241 -0.9039 -0.0387
 5793SOL     OW29014   4.070   0.951   5.387  0.0272 -0.0413  0.5685
 5793SOL    HW129015   3.988   0.961   5.435  0.7997 -0.3336  1.9390
 5793SOL    HW229016   4.135   0.986   5.448 -0.2967  0.8052  0.4226
 5794SOL     OW29017   0.949   0.709  16.668  0.0057  0.3528  0.3836
 5794SOL    HW129018   0.969   0.619  16.644  0.2742  0.8149 -1.1089
 5794SOL    HW229019   1.029   0.755  16.643  0.6111 -0.4492  0.8533
 5795SOL     OW29020   3.428   1.867  14.859  0.2536  0.1965  0.1772
 5795SOL    HW129021   3.380   1.903  14.784  0.2103  0.2902  0.2494
 5795SOL    HW229022   3.452   1.944  14.910  0.0368 -1.2693  2.4702
 5796SOL     OW29023   4.491   0.328   0.755  0.7070 -0.1548 -0.1170
 5796SOL    HW129024   4.403   0.324   0.793 -0.0431 -1.8654 -2.0382
 5796SOL    HW229025   4.458   0.375   0.678  3.6921 -0.8749 -1.8364
 5797SOL     OW29026   0.090   3.856   0.931  0.6749  0.2549  0.6141
 5797SOL    HW129027   0.103   3.761   0.931  0.3659  0.2266  2.2328
 5797SOL    HW229028   0.140   3.880   0.853  1.5131 -1.1241  0.7249
 5798SOL     OW29029   2.113   3.580   8.459  0.0060  0.4348 -0.1698
 5798SOL    HW129030   2.031   3.609   8.500  0.6140  0.1759  1.2066
 5798SOL    HW229031   2.097   3.609   8.369 -2.7924 -0.2796  0.0803
 5799SOL     OW29032   1.222   2.124   3.811 -0.4103 -0.8431  0.2974
 5799SOL    HW129033   1.226   2.180   3.733 -0.1832 -0.0066  0.9105
 5799SOL    HW229034   1.137   2.136   3.853  0.2970  1.8605  0.9473
 5800SOL     OW29035   2.017   2.898   3.844  0.3113 -0.1133  0.2923
 5800SOL    HW129036   1.991   2.906   3.936  1.4388  1.0553  0.5081
 5800SOL    HW229037   1.941   2.851   3.810  1.8485 -0.3520 -2.7939
 5801SOL     OW29038   4.075   4.439   5.105 -0.1343  0.4942  0.0572
 5801SOL    HW129039   4.003   4.388   5.141  1.1123  0.5135  2.5360
 5801SOL    HW229040   4.032   4.524   5.116  0.8980  1.1869 -1.1747
 5802SOL     OW29041   2.185   4.202  16.897  0.3417  0.6957 -0.5735
 5802SOL    HW129042   2.144   4.196  16.984  1.5940  0.1869 -0.0195
 5802SOL    HW229043   2.250   4.133  16.894 -1.5904 -1.0867 -1.3330
 5803SOL     OW29044   1.039   0.893   2.163  0.3284  0.5372 -0.7739
 5803SOL    HW129045   0.984   0.952   2.112  0.2977  2.1260  1.0915
 5803SOL    HW229046   1.048   0.939   2.246 -1.6204 -0.4436 -0.0151
 5804SOL     OW29047   4.239   0.633   3.053  0.1539 -0.0395  0.3845
 5804SOL    HW129048   4.194   0.697   3.108 -1.6300 -0.7383 -0.2478
 5804SOL    HW229049   4.241   0.564   3.119  0.8942 -0.8145 -0.4481
 5805SOL     OW29050   2.548   4.316   5.143  0.0052 -0.0361  0.3997
 5805SOL    HW129051   2.486   4.344   5.211  2.1257  1.3703  1.7745
 5805SOL    HW229052   2.496   4.307   5.063  1.0282  0.5383 -0.3331
 5806SOL     OW29053   1.053   1.653   5.560 -0.5331 -0.4536  0.1014
 5806SOL    HW129054   1.102   1.720   5.511 -1.7400  1.1601  1.0917
 5806SOL    HW229055   1.111   1.578   5.554 -0.0612  0.0596 -1.7260
 5807SOL     OW29056   2.880   3.619  16.953 -0.1378 -0.0495  0.6460
 5807SOL    HW129057   2.971   3.603  16.926 -0.1852  1.2347 -0.2188
 5807SOL    HW229058   2.893   3.658  17.039  0.8288  0.2765  0.3472
 5808SOL     OW29059   1.490   1.000  12.579  0.0441  0.2156 -0.1057
 5808SOL    HW129060   1.539   0.928  12.540 -0.2880  0.2691 -0.6259
 5808SOL    HW229061   1.427   1.028  12.513 -0.9859 -0.3432  0.6352
 5809SOL     OW29062   4.622   2.283   6.432 -0.3782 -0.3165 -0.3542
 5809SOL    HW129063   4.596   2.276   6.523  2.4604  1.6206  0.6207
 5809SOL    HW229064   4.717   2.291   6.432 -0.3884 -0.1936 -0.4765
 5810SOL     OW29065   0.806   1.958   8.228 -0.3553  0.2559  0.1204
 5810SOL    HW129066   0.722   2.003   8.235  0.2192  1.0055  2.1961
 5810SOL    HW229067   0.802   1.892   8.297  3.1027 -1.0492 -0.9308
 5811SOL     OW29068   1.999   3.461   6.345  1.1647 -0.4658  0.2748
 5811SOL    HW129069   1.981   3.508   6.426 -1.1194  0.6668 -0.9070
 5811SOL    HW229070   2.066   3.517   6.307 -0.1778  0.9570  0.0171
 5812SOL     OW29071   1.229   3.681  10.682  0.1697  0.1771 -0.1067
 5812SOL    HW129072   1.284   3.752  10.715  0.9145 -0.1129 -0.7438
 5812SOL    HW229073   1.207   3.635  10.763  0.1517  1.8856  0.8662
 5813SOL     OW29074   2.474   0.642   0.694  0.0009 -0.3339  0.1854
 5813SOL    HW129075   2.468   0.704   0.622 -2.2350 -0.1034  0.5798
 5813SOL    HW229076   2.386   0.626   0.726 -0.4530  1.1479 -0.3287
 5814SOL     OW29077   4.108   1.631   9.204  0.7189 -0.4772  0.5569
 5814SOL    HW129078   4.182   1.583   9.240  1.0856 -1.9640 -2.2545
 5814SOL    HW229079   4.135   1.722   9.218  0.8984 -0.2883 -1.1004
 5815SOL     OW29080   0.818   2.723   2.331  0.4741 -0.2963  0.0541
 5815SOL    HW129081   0.823   2.628   2.323  2.6646 -0.2723  1.2732
 5815SOL    HW229082   0.873   2.746   2.405 -2.0571  0.9993  1.5543
 5816SOL     OW29083   0.222   2.750   7.272  0.7944 -0.8241  0.4623
 5816SOL    HW129084   0.177   2.703   7.201  1.0850 -1.4264  0.6821
 5816SOL    HW229085   0.299   2.695   7.282  0.6743 -0.4609  3.3371
 5817SOL     OW29086   0.230   1.876   7.173  0.4809 -0.4442  0.3733
 5817SOL    HW129087   0.299   1.839   7.228  1.3501 -0.0338 -0.4490
 5817SOL    HW229088   0.272   1.954   7.135 -1.1586 -1.0578 -2.6901
 5818SOL     OW29089   2.319   2.947   9.015 -0.0730  0.0459  0.0657
 5818SOL    HW129090   2.350   2.886   8.949  0.5262  0.4993 -0.0721
 5818SOL    HW229091   2.229   2.952   8.982 -0.4270  0.2828  1.0793
 5819SOL     OW29092   2.962   0.851   0.418 -0.7100  0.0948 -0.2714
 5819SOL    HW129093   2.924   0.766   0.442 -0.1958 -0.3842 -1.1295
 5819SOL    HW229094   2.900   0.882   0.353  0.3275 -1.4385 -1.9929
 5820SOL     OW29095   3.388   4.061   9.375 -0.2117 -0.3967 -0.0087
 5820SOL    HW129096   3.479   4.091   9.368  0.0709 -1.2382  0.1455
 5820SOL    HW229097   3.361   4.025   9.291 -0.7198 -2.3233  0.9856
 5821SOL     OW29098   2.074   2.057   4.896  0.0202 -0.2537 -0.3465
 5821SOL    HW129099   2.083   2.133   4.953  2.2057 -2.0341  1.7128
 5821SOL    HW229100   2.058   1.990   4.964 -1.7427  0.0031 -0.5016
 5822SOL     OW29101   1.946   3.258   5.189 -0.0162  0.1876  0.0778
 5822SOL    HW129102   1.998   3.318   5.136 -0.4048  0.3832 -0.0826
 5822SOL    HW229103   1.981   3.175   5.159  0.2715  1.1316 -2.1610
 5823SOL     OW29104   3.233   1.175   7.871 -0.0353  0.6236  0.1401
 5823SOL    HW129105   3.234   1.082   7.847  1.8870  0.3416  1.3244
 5823SOL    HW229106   3.271   1.170   7.958 -1.4607  0.8270  0.7784
 5824SOL     OW29107   0.127   3.588   8.757 -0.0916  0.3301  0.1876
 5824SOL    HW129108   0.141   3.516   8.696  2.4416 -1.3773  2.7852
 5824SOL    HW229109   0.060   3.545   8.812  0.4344  0.0470  0.6118
 5825SOL     OW29110   3.377   1.260   0.277 -0.4655  0.0838  0.7510
 5825SOL    HW129111   3.286   1.269   0.247  0.6873  0.9172 -2.5613
 5825SOL    HW229112   3.409   1.203   0.207  0.1853 -0.7985  1.7692
 5826SOL     OW29113   4.727   0.171   2.400  0.0758  0.3149  0.6323
 5826SOL    HW129114   0.041   0.249   2.408 -0.7381  0.8785  0.6309
 5826SOL    HW229115   4.698   0.175   2.491  0.5879 -1.1750  0.8699
 5827SOL     OW29116   0.926   1.965   4.815  0.8144 -0.2775  0.1490
 5827SOL    HW129117   0.920   1.870   4.824 -0.0472 -0.5095 -2.9099
 5827SOL    HW229118   0.873   2.000   4.887 -1.8083  1.2785 -2.5338
 5828SOL     OW29119   1.223   1.822   8.977 -0.4050 -0.1530  0.5670
 5828SOL    HW129120   1.154   1.888   8.968  0.1726  0.4030  0.1924
 5828SOL    HW229121   1.300   1.878   8.966 -0.7865  0.9792  3.6692
 5829SOL     OW29122   3.745   0.910   1.910 -0.3655 -0.0005  0.3311
 5829SOL    HW129123   3.775   0.906   2.001  0.6699  0.1780 -0.0081
 5829SOL    HW229124   3.810   0.855   1.867  0.7243  0.1696  1.7507
 5830SOL     OW29125   3.580   3.421   4.329  0.3518  0.0808 -0.6479
 5830SOL    HW129126   3.664   3.393   4.292  0.3644  0.4561 -0.9030
 5830SOL    HW229127   3.526   3.343   4.325 -2.2390  1.8211  0.5545
 5831SOL     OW29128   3.069   3.259   1.106  0.1871  0.2675 -0.0618
 5831SOL    HW129129   3.032   3.178   1.070 -1.6296  1.2854 -0.4861
 5831SOL    HW229130   3.009   3.324   1.070  0.6871  0.9352  0.3362
 5832SOL     OW29131   4.623   3.393   5.602 -0.1237 -0.1627 -0.4318
 5832SOL    HW129132   4.677   3.368   5.527  1.3638 -1.6629  1.1385
 5832SOL    HW229133   4.551   3.441   5.561  0.7514 -0.8753 -2.8223
 5833SOL     OW29134   0.887   3.531  10.339 -0.5762  0.4434  0.0820
 5833SOL    HW129135   0.842   3.480  10.271 -1.6650 -0.2046  1.2734
 5833SOL    HW229136   0.962   3.567  10.292 -0.6283  0.4842  0.0301
 5834SOL     OW29137   4.287   4.427   8.842  0.0010  0.5047  0.7786
 5834SOL    HW129138   4.248   4.500   8.889 -1.1877 -0.9269  1.9949
 5834SOL    HW229139   4.227   4.353   8.852 -0.3778  0.8275  0.8698
 5835SOL     OW29140   1.333   4.224   2.523 -0.3722  0.3615 -0.0343
 5835SOL    HW129141   1.291   4.251   2.441  1.1574  0.7584 -0.6859
 5835SOL    HW229142   1.404   4.164   2.502  0.1639  0.7877  0.5588
 5836SOL     OW29143   2.701   0.777   8.957  0.1224  0.0962  0.7637
 5836SOL    HW129144   2.743   0.804   9.039  1.0361  0.4392  0.1744
 5836SOL    HW229145   2.638   0.713   8.991  0.8806 -0.6601  0.7413
 5837SOL     OW29146   4.695   4.244   8.661 -0.6315  0.4595 -0.1147
 5837SOL    HW129147   4.649   4.205   8.587 -0.5884  1.6682 -0.7638
 5837SOL    HW229148   4.630   4.240   8.731  0.6768 -1.0488  1.0121
 5838SOL     OW29149   3.209   1.463  14.531  0.2515  0.0799  0.0411
 5838SOL    HW129150   3.262   1.540  14.553 -0.8641  1.0542 -0.6745
 5838SOL    HW229151   3.266   1.390  14.557  0.0665  0.4398  1.4053
 5839SOL     OW29152   1.345   1.296   0.327  0.1038  0.3945  0.3637
 5839SOL    HW129153   1.423   1.248   0.299  0.5207  1.5180 -0.3967
 5839SOL    HW229154   1.387   1.374   0.363 -2.8993  1.7863  0.9024
 5840SOL     OW29155   0.859   1.206   3.045  0.1511  0.1355 -0.4894
 5840SOL    HW129156   0.870   1.301   3.055  0.4820 -0.0414  0.8606
 5840SOL    HW229157   0.925   1.194   2.977 -1.7747  0.1055 -2.3637
 5841SOL     OW29158   3.590   2.407   2.162 -0.1094 -0.0241 -0.0320
 5841SOL    HW129159   3.639   2.488   2.171 -2.7989  1.5986 -0.2941
 5841SOL    HW229160   3.612   2.386   2.071  0.6820  0.1944  0.1045
 5842SOL     OW29161   1.108   3.919   9.171 -1.0073 -0.3105  0.0814
 5842SOL    HW129162   1.030   3.963   9.138 -0.5498  2.0264  2.1772
 5842SOL    HW229163   1.089   3.829   9.145 -1.0182 -0.0813 -0.7070
 5843SOL     OW29164   3.557   4.073   7.554 -0.3831 -0.4261 -0.0231
 5843SOL    HW129165   3.486   4.136   7.570 -0.2707 -0.0055 -1.1505
 5843SOL    HW229166   3.606   4.082   7.636  1.3680  0.0308 -1.1251
 5844SOL     OW29167   0.670   0.559  15.090 -0.1121  0.5781 -0.0848
 5844SOL    HW129168   0.713   0.607  15.020 -0.8229 -1.8259 -2.1827
 5844SOL    HW229169   0.713   0.607  15.161  0.9869  1.3117 -1.2421
 5845SOL     OW29170   2.505   1.238   0.782 -0.4320  0.3934  0.2395
 5845SOL    HW129171   2.592   1.220   0.818  0.4430  1.6920 -1.2185
 5845SOL    HW229172   2.460   1.241   0.866  0.7439  0.7361  0.8570
 5846SOL     OW29173   1.645   1.176  17.141 -0.6808 -0.1928  0.4246
 5846SOL    HW129174   1.553   1.153  17.155 -0.9247 -0.7292 -1.9598
 5846SOL    HW229175   1.636   1.261  17.096  0.9077  0.7272  1.8398
 5847SOL     OW29176   3.597   1.520   9.668 -0.2116 -0.0472  0.0645
 5847SOL    HW129177   3.515   1.489   9.631 -2.9960  2.0630  4.3491
 5847SOL    HW229178   3.643   1.530   9.585  0.8902 -0.2640  0.6498
 5848SOL     OW29179   1.573   3.804   3.157  0.1773  0.1042 -0.3633
 5848SOL    HW129180   1.532   3.819   3.071 -2.0984  2.2860  1.0691
 5848SOL    HW229181   1.665   3.812   3.135  0.3260 -0.2552  0.1392
 5849SOL     OW29182   3.015   3.555   5.197  0.1025 -0.0368 -0.0953
 5849SOL    HW129183   2.960   3.480   5.218 -0.3738  0.9010  2.0184
 5849SOL    HW229184   2.985   3.582   5.111 -2.4139  2.7811  1.6681
 5850SOL     OW29185   1.167   3.325   6.082  0.3835  0.3128  0.0656
 5850SOL    HW129186   1.152   3.234   6.109  2.1149 -0.1119 -0.4289
 5850SOL    HW229187   1.252   3.312   6.041 -0.2028 -0.0327 -1.0415
 5851SOL     OW29188   0.366   3.994   4.477 -0.0030  0.0429 -0.3655
 5851SOL    HW129189   0.367   4.014   4.571  1.0513  0.6983 -0.5159
 5851SOL    HW229190   0.430   3.923   4.478  0.6167  0.6299  1.4213
 5852SOL     OW29191   3.352   1.406   6.526  0.3816 -0.3748  0.3688
 5852SOL    HW129192   3.333   1.397   6.433  1.6585 -3.4593  0.3936
 5852SOL    HW229193   3.264   1.425   6.558 -0.4024  0.2732 -2.2088
 5853SOL     OW29194   2.143   4.162   5.040 -0.1391 -0.2376 -0.1776
 5853SOL    HW129195   2.089   4.130   4.967 -2.2055  0.3657  1.0802
 5853SOL    HW229196   2.108   4.251   5.032  2.2520  0.6535 -0.5839
 5854SOL     OW29197   0.413   1.907   5.208  0.0611 -0.1419  0.9660
 5854SOL    HW129198   0.350   1.871   5.146 -0.2829 -0.5814  1.5660
 5854SOL    HW229199   0.371   1.992   5.221  0.1975  0.3615 -1.8972
 5855SOL     OW29200   4.003   3.475   6.616 -0.0942 -1.0829 -0.5498
 5855SOL    HW129201   4.071   3.501   6.554 -0.4867  4.9790  1.5656
 5855SOL    HW229202   3.932   3.462   6.554 -1.1622  1.0426  0.2462
 5856SOL     OW29203   3.135   3.057   8.358  0.1135  0.0080  0.3636
 5856SOL    HW129204   3.218   3.028   8.397  1.3400 -0.3924 -2.5577
 5856SOL    HW229205   3.084   3.089   8.432 -1.4571 -1.2592 -0.1607
 5857SOL     OW29206   1.119   4.614   2.553 -0.1518  0.3506 -0.0226
 5857SOL    HW129207   1.098   4.707   2.559  1.3734  0.6414  0.9879
 5857SOL    HW229208   1.074   4.588   2.633 -0.0498  0.2103 -0.0114
 5858SOL     OW29209   4.073   4.288   7.326  0.2324  0.5225  0.6304
 5858SOL    HW129210   4.093   4.297   7.233 -0.4474 -1.7280  0.2837
 5858SOL    HW229211   4.021   4.208   7.332  2.3000 -0.9155 -0.7477
 5859SOL     OW29212   1.356   3.163   4.513 -0.5610  0.7241  0.0264
 5859SOL    HW129213   1.356   3.098   4.442  0.7214  1.8493 -1.0190
 5859SOL    HW229214   1.426   3.131   4.570 -1.7061  1.0622  1.6149
 5860SOL     OW29215   2.474   0.711   2.753  0.3482  0.2100 -0.4803
 5860SOL    HW129216   2.488   0.752   2.668  0.7217 -0.0416 -0.5412
 5860SOL    HW229217   2.474   0.789   2.808  0.3541 -1.2981  1.6758
 5861SOL     OW29218   1.514   3.668   0.169 -0.2597  0.2810  0.3873
 5861SOL    HW129219   1.502   3.592   0.112  2.7816  1.7753 -2.2754
 5861SOL    HW229220   1.453   3.647   0.240  1.0738  0.2329  1.5033
 5862SOL     OW29221   0.400   3.505   2.871 -0.6806 -0.4618 -0.1108
 5862SOL    HW129222   0.323   3.453   2.893 -0.2305 -0.7152  0.8557
 5862SOL    HW229223   0.468   3.438   2.870 -0.1170  0.0858  1.1085
 5863SOL     OW29224   1.035   3.270   3.049 -0.0117  0.5622  0.3822
 5863SOL    HW129225   1.050   3.194   2.993  0.3460  1.4646 -0.7472
 5863SOL    HW229226   1.120   3.314   3.049  0.2680  0.0296 -0.9967
 5864SOL     OW29227   2.176   0.205   5.902  0.1992 -0.4499  0.4696
 5864SOL    HW129228   2.231   0.246   5.836 -5.3121  2.0990 -2.5234
 5864SOL    HW229229   2.237   0.212   5.975 -0.4551 -1.4866  1.1236
 5865SOL     OW29230   4.362   0.219  14.424  0.1470  0.3435  0.2081
 5865SOL    HW129231   4.285   0.168  14.397 -0.9532  2.0047  0.1584
 5865SOL    HW229232   4.385   0.181  14.508  0.7839 -0.7642 -0.4644
 5866SOL     OW29233   0.127   2.409   0.629  0.0700 -0.2649  0.0138
 5866SOL    HW129234   0.126   2.343   0.699  1.7733 -0.8458 -0.5080
 5866SOL    HW229235   0.212   2.451   0.639 -0.7878  2.1688 -3.2084
 5867SOL     OW29236   2.529   2.895   1.628  0.7319  0.1484 -0.5348
 5867SOL    HW129237   2.493   2.876   1.714  1.0358  0.1518 -0.4067
 5867SOL    HW229238   2.586   2.967   1.653 -0.2306  0.7143  0.0249
 5868SOL     OW29239   3.868   2.756  13.461  0.4804 -0.4531  0.4353
 5868SOL    HW129240   3.914   2.677  13.432 -2.1008 -2.5921  2.1682
 5868SOL    HW229241   3.927   2.823  13.429  0.2616 -0.7228 -0.5368
 5869SOL     OW29242   4.221   0.890   6.218 -0.1240  0.1322  0.1322
 5869SOL    HW129243   4.224   0.925   6.129 -0.3190  0.8426  0.4036
 5869SOL    HW229244   4.226   0.971   6.268 -1.3381 -0.4699  1.2387
 5870SOL     OW29245   3.918   3.799   7.408 -0.1861  0.1903 -0.0829
 5870SOL    HW129246   3.824   3.786   7.422 -0.2766 -0.7695 -1.5949
 5870SOL    HW229247   3.918   3.880   7.357 -0.8397  1.6613  2.2443
 5871SOL     OW29248   1.398   2.590   2.622 -0.3236  0.3373  0.1710
 5871SOL    HW129249   1.349   2.587   2.704 -0.6906 -0.6270 -0.0890
 5871SOL    HW229250   1.484   2.569   2.659 -0.2617  0.6797  0.2285
 5872SOL     OW29251   0.543   3.135   1.749  0.7178  0.3733 -0.0725
 5872SOL    HW129252   0.474   3.189   1.709  1.3787 -0.0343 -1.7375
 5872SOL    HW229253   0.528   3.041   1.739 -2.7377  1.1225 -1.9028
 5873SOL     OW29254   2.487   4.138   5.988 -0.0871  0.5882  0.0905
 5873SOL    HW129255   2.433   4.092   6.052  0.4045 -0.2286 -0.0759
 5873SOL    HW229256   2.495   4.074   5.917 -0.8163  0.8408 -0.2152
 5874SOL     OW29257   0.901   2.577   7.631  0.2449  0.1284  0.1189
 5874SOL    HW129258   0.940   2.612   7.551 -1.5225  0.7544 -0.4782
 5874SOL    HW229259   0.932   2.626   7.707  2.3187 -0.1868 -0.5073
 5875SOL     OW29260   4.480   0.232   4.182  0.4792 -0.4032  0.1962
 5875SOL    HW129261   4.479   0.230   4.278 -2.7183  0.7557  0.1937
 5875SOL    HW229262   4.489   0.326   4.166 -0.2793  0.2232  3.4504
 5876SOL     OW29263   3.198   0.539   5.123  0.1049  0.0219  0.6801
 5876SOL    HW129264   3.164   0.475   5.061  1.4634 -1.0451  1.0395
 5876SOL    HW229265   3.132   0.533   5.193 -0.4505 -1.6505  0.0069
 5877SOL     OW29266   4.670   0.146   4.859 -0.0164  0.1905 -0.2067
 5877SOL    HW129267   0.013   0.135   4.813 -0.0796 -0.9545 -0.0447
 5877SOL    HW229268   4.700   0.122   4.947 -0.0910  0.8136 -0.0107
 5878SOL     OW29269   2.334   0.148   5.568  0.3352  0.2060  0.0125
 5878SOL    HW129270   2.250   0.102   5.557 -0.4023  1.9248 -1.6059
 5878SOL    HW229271   2.376   0.091   5.632 -3.0190 -0.1570  1.9257
 5879SOL     OW29272   3.064   3.101   3.962 -0.2270 -0.9927  0.3354
 5879SOL    HW129273   3.003   3.162   4.004  2.4457  1.3345  0.7786
 5879SOL    HW229274   3.001   3.037   3.928 -1.8218 -1.0314  3.3322
 5880SOL     OW29275   2.131   4.707   6.805  0.2155  0.2354 -0.1370
 5880SOL    HW129276   2.165   4.624   6.772 -1.8282  0.5307 -3.0078
 5880SOL    HW229277   2.188   0.022   6.751 -0.0009  2.2630  1.6884
 5881SOL     OW29278   2.936   1.597   9.505 -0.1007 -0.1470 -0.6735
 5881SOL    HW129279   2.918   1.531   9.438  1.8220 -0.3456 -0.9824
 5881SOL    HW229280   2.876   1.565   9.573  0.2089  2.1993  0.7086
 5882SOL     OW29281   2.586   0.745   5.190 -0.8162 -0.5506  0.1264
 5882SOL    HW129282   2.528   0.783   5.256 -0.1399  0.6113  0.0523
 5882SOL    HW229283   2.577   0.807   5.117  0.2341 -0.4197  0.1112
 5883SOL     OW29284   4.733   0.639   7.508 -0.6164 -0.4143 -0.6354
 5883SOL    HW129285   4.680   0.635   7.587  0.6568  1.0648  0.2895
 5883SOL    HW229286   0.081   0.630   7.543 -0.4212 -0.6424 -1.1828
 5884SOL     OW29287   2.510   3.725  12.212 -0.2490 -0.0160  0.5690
 5884SOL    HW129288   2.552   3.811  12.203  0.2474 -0.1926  1.1678
 5884SOL    HW229289   2.539   3.696  12.299  0.7966 -3.1872 -0.8464
 5885SOL     OW29290   4.066   4.046   2.759 -0.0969 -0.3229 -0.5992
 5885SOL    HW129291   4.096   3.994   2.685 -0.4561 -0.4408 -0.6636
 5885SOL    HW229292   3.990   4.092   2.723  0.2903  1.1837  0.4967
 5886SOL     OW29293   2.986   0.462   5.320  0.6556  0.1906  0.2206
 5886SOL    HW129294   2.901   0.435   5.355 -0.1154 -1.1900 -2.6966
 5886SOL    HW229295   2.983   0.555   5.343  0.4060  0.7418 -2.0788
 5887SOL     OW29296   2.035   2.497  14.010  0.2485 -0.4249 -0.5296
 5887SOL    HW129297   2.020   2.526  13.921 -0.0063  0.7144 -0.1182
 5887SOL    HW229298   2.080   2.572  14.049 -2.2533 -0.1872  1.8980
 5888SOL     OW29299   0.818   0.171   7.454 -0.0655 -0.2176  0.3753
 5888SOL    HW129300   0.793   0.079   7.448 -1.5396  0.1911  0.1569
 5888SOL    HW229301   0.739   0.206   7.495 -1.2952  0.5352 -2.6476
 5889SOL     OW29302   0.354   2.204   4.167  0.1548 -0.0111 -0.1336
 5889SOL    HW129303   0.269   2.165   4.189 -0.0249 -0.1474 -1.0694
 5889SOL    HW229304   0.380   2.235   4.253 -0.4417 -0.4381  0.2053
 5890SOL     OW29305   0.577   1.899  11.349  0.0022 -0.0867  0.2420
 5890SOL    HW129306   0.643   1.924  11.285  0.3953  2.4658  1.6427
 5890SOL    HW229307   0.625   1.913  11.431 -1.3301  2.2283  0.6415
 5891SOL     OW29308   4.478   3.430   1.465  0.2590  0.4619  0.1366
 5891SOL    HW129309   4.513   3.496   1.525  1.5884  0.6779 -0.8706
 5891SOL    HW229310   4.556   3.374   1.469  0.4091  0.5939 -0.8668
 5892SOL     OW29311   1.612   4.583   2.360 -0.4340  0.3945  0.3525
 5892SOL    HW129312   1.622   4.489   2.348  0.3868  0.6402 -0.9588
 5892SOL    HW229313   1.517   4.581   2.373 -0.1090 -3.2638  2.0163
 5893SOL     OW29314   1.455   1.165  11.897 -0.0888  0.1606 -0.4287
 5893SOL    HW129315   1.469   1.161  11.991 -0.4577 -2.1113 -0.4653
 5893SOL    HW229316   1.420   1.077  11.885  2.0175 -0.5742 -1.1465
 5894SOL     OW29317   0.833   1.040  16.559 -0.2455  0.5781 -0.0078
 5894SOL    HW129318   0.851   1.133  16.545 -0.6155  0.3870 -1.7328
 5894SOL    HW229319   0.852   1.011  16.470  1.6632 -1.1776  0.9626
 5895SOL     OW29320   2.198   0.530   4.512  0.1251  0.2275  0.0646
 5895SOL    HW129321   2.238   0.532   4.599 -1.0949 -1.7434  0.6793
 5895SOL    HW229322   2.195   0.621   4.483  1.6147  0.7092  1.4079
 5896SOL     OW29323   1.021   4.385   0.196 -0.4072 -0.3347  0.1888
 5896SOL    HW129324   0.977   4.468   0.181  1.1961  0.8591  2.1428
 5896SOL    HW229325   1.093   4.410   0.254  0.2743 -0.6528 -0.5185
 5897SOL     OW29326   1.102   3.992   5.761 -0.1979 -0.2313  0.1990
 5897SOL    HW129327   1.092   4.016   5.669  0.9497 -0.3175  0.0532
 5897SOL    HW229328   1.029   3.930   5.765 -1.5196  1.2825 -0.2993
 5898SOL     OW29329   1.184   0.841   6.729  0.3583  0.1658 -0.1939
 5898SOL    HW129330   1.101   0.853   6.775  0.3709  0.9617 -0.3704
 5898SOL    HW229331   1.222   0.929   6.736  1.2409 -0.2545  0.2953
 5899SOL     OW29332   1.778   1.452   7.071 -0.1469  0.6743 -0.7310
 5899SOL    HW129333   1.817   1.394   7.136 -2.6989  0.0711  0.2606
 5899SOL    HW229334   1.685   1.431   7.067  0.1066 -0.5264 -0.1947
 5900SOL     OW29335   1.783   3.037  16.534  0.0912  0.1804 -0.0610
 5900SOL    HW129336   1.689   3.019  16.532  0.4268 -1.4122 -1.4889
 5900SOL    HW229337   1.797   3.130  16.550  2.5412  0.2898 -2.9737
 5901SOL     OW29338   1.134   0.030   9.011 -0.4476  0.1485 -0.1503
 5901SOL    HW129339   1.171   0.101   8.959 -1.5235  1.1778  0.5002
 5901SOL    HW229340   1.202   0.032   9.078 -2.1753 -0.7898  1.6118
 5902SOL     OW29341   2.780   2.987   6.402 -0.2168  0.2693 -0.1619
 5902SOL    HW129342   2.730   2.911   6.373 -1.6754  1.3861 -0.5843
 5902SOL    HW229343   2.798   3.035   6.321  0.8117  0.6768  0.3080
 5903SOL     OW29344   0.433   4.115   8.333  0.1839 -0.3885  0.1799
 5903SOL    HW129345   0.400   4.198   8.366  1.1494 -0.2574  0.8299
 5903SOL    HW229346   0.349   4.072   8.313 -0.8225  0.9506  1.5784
 5904SOL     OW29347   2.542   0.608  16.360 -0.0539 -0.5041 -0.4705
 5904SOL    HW129348   2.465   0.658  16.385  0.1936 -1.1670  1.6358
 5904SOL    HW229349   2.618   0.666  16.351 -0.8758  0.6349 -0.0437
 5905SOL     OW29350   0.065   1.158   3.662  0.2298 -0.2719  0.2120
 5905SOL    HW129351   0.105   1.233   3.706  1.4687 -1.9222  1.9182
 5905SOL    HW229352   0.137   1.094   3.659 -0.0687 -0.4458 -2.4800
 5906SOL     OW29353   4.268   4.640   6.210  0.1608 -0.3284  0.2498
 5906SOL    HW129354   4.203   4.709   6.200  0.5089  0.1681  1.5088
 5906SOL    HW229355   4.319   4.685   6.277  0.9388 -0.2461 -0.3973
 5907SOL     OW29356   4.590   0.827   6.690  0.1224  0.1975  0.0102
 5907SOL    HW129357   4.633   0.806   6.773 -0.9318 -0.7026  0.3286
 5907SOL    HW229358   4.536   0.750   6.670 -1.9795  1.9800 -1.2573
 5908SOL     OW29359   4.025   0.265   6.939  0.1147 -0.2879  0.5396
 5908SOL    HW129360   3.972   0.280   6.861 -0.3502  0.8242  1.0782
 5908SOL    HW229361   3.998   0.339   6.993 -0.4771 -1.3235  1.6552
 5909SOL     OW29362   2.331   3.806   5.940 -0.3433  0.6390  0.2391
 5909SOL    HW129363   2.285   3.759   5.870  0.2453 -0.3565  0.5168
 5909SOL    HW229364   2.285   3.890   5.938 -0.0597  0.7481 -1.4233
 5910SOL     OW29365   0.652   1.727   0.826 -0.4088 -0.5269  0.1580
 5910SOL    HW129366   0.612   1.720   0.740  0.8664  1.4099 -0.5937
 5910SOL    HW229367   0.713   1.799   0.813  0.4803 -0.6422  3.7516
 5911SOL     OW29368   1.219   2.743  13.057  0.8497  0.0528 -0.0281
 5911SOL    HW129369   1.257   2.800  12.991 -0.1241 -1.8664 -2.2501
 5911SOL    HW229370   1.303   2.711  13.090 -0.4483 -2.3272  0.9701
 5912SOL     OW29371   0.406   1.589   8.875  0.0983 -0.2081  0.2891
 5912SOL    HW129372   0.484   1.585   8.819  1.0997 -0.0119  1.6776
 5912SOL    HW229373   0.408   1.681   8.899  2.8218 -0.2015  0.0341
 5913SOL     OW29374   2.466   3.424  16.446  0.0044 -0.6829 -0.4857
 5913SOL    HW129375   2.526   3.391  16.379 -0.1820 -0.1235 -0.9346
 5913SOL    HW229376   2.419   3.493  16.399  1.8736  0.9239 -0.0051
 5914SOL     OW29377   1.088   1.226  17.320 -0.2725 -0.2184  0.0415
 5914SOL    HW129378   1.141   1.195  17.393  0.7377 -4.0258 -2.3180
 5914SOL    HW229379   1.154   1.237  17.252  0.7781 -0.0832  1.0857
 5915SOL     OW29380   1.906   0.445   0.993  0.1718 -0.1060 -0.7172
 5915SOL    HW129381   2.000   0.425   0.987  0.1876 -0.6109  1.1528
 5915SOL    HW229382   1.892   0.469   0.902 -1.9952  0.1828 -0.3073
 5916SOL     OW29383   1.381   0.926   2.079 -0.2790 -0.0872  0.3500
 5916SOL    HW129384   1.399   0.836   2.108 -1.2401 -0.0380  1.0950
 5916SOL    HW229385   1.300   0.920   2.030 -0.2386  0.5889  0.2066
 5917SOL     OW29386   1.513   1.452   7.056  0.2246 -0.0693  0.4002
 5917SOL    HW129387   1.504   1.518   7.125 -0.3497 -0.3099  0.5562
 5917SOL    HW229388   1.445   1.391   7.086  0.1854 -0.4588 -0.4870
 5918SOL     OW29389   0.693   3.587  17.306  0.3141  0.0506  0.6970
 5918SOL    HW129390   0.611   3.560  17.264 -0.6999  0.4368  2.3895
 5918SOL    HW229391   0.742   3.510  17.279 -1.4784 -0.3889 -1.3497
 5919SOL     OW29392   3.003   1.330   5.308  0.2664  0.4963  0.6968
 5919SOL    HW129393   2.977   1.412   5.265  0.9525  0.0293 -0.6016
 5919SOL    HW229394   2.955   1.339   5.390  0.2625  0.0381  0.7479
 5920SOL     OW29395   1.563   1.838  14.287 -0.3693  0.1845 -0.4841
 5920SOL    HW129396   1.540   1.804  14.373  1.6195  0.1779  0.0445
 5920SOL    HW229397   1.646   1.884  14.298  1.4058 -3.1618  0.1377
 5921SOL     OW29398   2.044   2.821   0.520 -0.4671  0.2737  0.5101
 5921SOL    HW129399   1.990   2.749   0.488  0.7909 -0.6507  0.4549
 5921SOL    HW229400   2.127   2.776   0.535 -0.4291  0.1913  0.0575
 5922SOL     OW29401   0.027   4.156   8.089 -0.1210 -0.2461 -0.1717
 5922SOL    HW129402   0.080   4.233   8.069  1.3004 -0.3007  3.4798
 5922SOL    HW229403   0.057   4.124   8.174  1.8546 -1.3417 -1.3144
 5923SOL     OW29404   4.446   2.706   8.385  0.0101  0.3515 -0.3310
 5923SOL    HW129405   4.375   2.770   8.376 -1.2775 -0.9190  0.8465
 5923SOL    HW229406   4.509   2.755   8.440  1.7065  0.1413 -2.0846
 5924SOL     OW29407   3.739   1.045   4.337 -0.6782 -0.0844  0.2758
 5924SOL    HW129408   3.720   1.029   4.429 -0.4692  1.4174  0.5800
 5924SOL    HW229409   3.780   1.131   4.332  0.6129 -0.6338  1.2649
 5925SOL     OW29410   2.494   0.880   1.898  0.3623 -0.1825 -0.7317
 5925SOL    HW129411   2.436   0.932   1.841  1.6177  0.7601 -1.1618
 5925SOL    HW229412   2.545   0.953   1.934  2.0183 -1.5822 -0.2404
 5926SOL     OW29413   4.107   1.767   1.671  0.3744  0.3189 -0.4223
 5926SOL    HW129414   4.112   1.739   1.763  2.6350 -1.6234 -1.1098
 5926SOL    HW229415   4.156   1.845   1.697  0.8042  0.1935 -0.8385
 5927SOL     OW29416   1.239   4.496   0.329 -0.3376 -0.2694 -0.9148
 5927SOL    HW129417   1.281   4.441   0.395 -2.5440  1.3742  1.8736
 5927SOL    HW229418   1.310   4.482   0.266 -2.6794 -2.3769 -3.0826
 5928SOL     OW29419   3.972   4.296   5.432  0.1152  0.3532  0.4382
 5928SOL    HW129420   3.908   4.362   5.404  0.2081  0.0371 -0.5003
 5928SOL    HW229421   4.050   4.352   5.426  1.5901 -1.5307  1.8431
 5929SOL     OW29422   3.933   4.022   1.863  0.7237  0.9075 -0.1980
 5929SOL    HW129423   4.027   4.023   1.842  1.0187 -3.2598  0.7988
 5929SOL    HW229424   3.898   4.075   1.792  0.6409  0.0540 -0.7978
 5930SOL     OW29425   2.295   4.153  16.069  0.2830 -0.1144  0.7964
 5930SOL    HW129426   2.381   4.190  16.084 -0.2273  1.1752  0.5419
 5930SOL    HW229427   2.262   4.206  15.996  1.5406  1.9878  1.7635
 5931SOL     OW29428   1.702   1.383   0.532 -0.9579 -0.6232 -0.0604
 5931SOL    HW129429   1.629   1.441   0.552  0.3737  0.1520  2.6078
 5931SOL    HW229430   1.657   1.311   0.489 -0.3707 -0.9885 -0.0645
 5932SOL     OW29431   2.838   1.472  13.054  0.3104 -0.0462 -0.0186
 5932SOL    HW129432   2.875   1.465  13.141  0.9114  2.1518 -0.0865
 5932SOL    HW229433   2.745   1.467  13.076  0.7123 -1.1125  1.4335
 5933SOL     OW29434   0.383   1.743   4.415 -0.1678 -0.3258 -0.6660
 5933SOL    HW129435   0.388   1.648   4.424 -0.0678 -0.2348  0.2214
 5933SOL    HW229436   0.295   1.763   4.447  0.0012 -0.7192  0.0446
 5934SOL     OW29437   3.806   0.823  15.437 -0.1875  0.0711 -0.1212
 5934SOL    HW129438   3.830   0.850  15.525 -0.3181 -0.9314  0.2204
 5934SOL    HW229439   3.883   0.775  15.405 -0.7050 -0.7976 -0.0698
 5935SOL     OW29440   1.515   2.902   3.845  0.1275 -0.1476  0.8428
 5935SOL    HW129441   1.449   2.953   3.892 -0.0403  0.3539  0.0643
 5935SOL    HW229442   1.536   2.825   3.897  1.7784 -0.2159  0.0621
 5936SOL     OW29443   1.256   2.572   9.398  0.0879  0.3467 -0.3537
 5936SOL    HW129444   1.173   2.574   9.445 -0.4667 -0.3545 -1.2926
 5936SOL    HW229445   1.319   2.592   9.467  0.5195 -0.0779 -0.6206
 5937SOL     OW29446   2.119   0.964  14.210  0.7520  0.2471  0.5315
 5937SOL    HW129447   2.162   1.018  14.143  0.8072 -1.7027 -1.0011
 5937SOL    HW229448   2.192   0.958  14.271 -2.0781  1.6290  4.0763
 5938SOL     OW29449   1.855   2.982   6.298 -0.6806  0.1170  0.3877
 5938SOL    HW129450   1.819   2.928   6.369 -2.5916  1.0314  0.1001
 5938SOL    HW229451   1.930   2.928   6.272 -1.3062 -2.2588  3.4050
 5939SOL     OW29452   2.364   2.165   2.261  0.4034  0.1401 -0.7964
 5939SOL    HW129453   2.346   2.086   2.211  1.7792 -0.1448 -0.8362
 5939SOL    HW229454   2.300   2.228   2.226  0.6552  1.1224  0.4918
 5940SOL     OW29455   1.641   3.287   6.715  0.3528  0.5094  0.4500
 5940SOL    HW129456   1.567   3.278   6.656 -0.7709 -1.8612  2.1963
 5940SOL    HW229457   1.694   3.345   6.661  0.2924  1.9917  2.0053
 5941SOL     OW29458   0.082   1.172   2.584 -0.6524  0.5204  0.0840
 5941SOL    HW129459   0.142   1.154   2.512  0.3982  1.8082  0.6327
 5941SOL    HW229460   0.126   1.125   2.655 -0.4826 -2.0391 -1.7576
 5942SOL     OW29461   0.046   2.035   6.588  0.0639 -0.3921 -0.3323
 5942SOL    HW129462   4.694   2.038   6.562  0.1957 -0.8471 -0.8301
 5942SOL    HW229463   0.087   2.105   6.538  0.0197 -0.3556 -0.3176
 5943SOL     OW29464   4.279   1.132  17.361  0.2092  0.2078  0.2543
 5943SOL    HW129465   4.313   1.201  17.304  1.1288  0.1316  0.7110
 5943SOL    HW229466   4.338   1.135  17.437  1.6635  3.0551 -0.9718
 5944SOL     OW29467   3.347   3.922  15.237  0.6567 -0.1036  0.1008
 5944SOL    HW129468   3.397   3.983  15.292  0.0635  0.1031  0.4075
 5944SOL    HW229469   3.419   3.858  15.241  0.6836 -0.0507  0.4415
 5945SOL     OW29470   0.906   4.015   3.019  0.1288  0.3213 -0.2814
 5945SOL    HW129471   0.996   3.987   3.036 -1.4916 -3.4328  1.8698
 5945SOL    HW229472   0.887   3.968   2.938  1.7152 -3.5245  1.6197
 5946SOL     OW29473   0.064   1.573  17.468 -0.3037 -0.7476  0.0208
 5946SOL    HW129474   0.107   1.616  17.393 -0.1453  1.2115  1.2388
 5946SOL    HW229475   0.142   1.532  17.506 -0.4914 -0.2497  0.9211
 5947SOL     OW29476   1.179   4.471   9.099  0.3958 -0.3709 -0.8954
 5947SOL    HW129477   1.117   4.470   9.171 -0.2102 -1.0554 -1.4212
 5947SOL    HW229478   1.162   4.558   9.064  0.4742  0.0885  0.2278
 5948SOL     OW29479   0.039   2.514   8.133 -0.0282  0.0272 -0.5228
 5948SOL    HW129480   0.117   2.467   8.160  0.4235  0.8070 -0.4797
 5948SOL    HW229481   0.082   2.600   8.139 -0.2452 -0.0851  2.4310
 5949SOL     OW29482   2.029   1.612   5.511  0.3483  0.4262 -0.0776
 5949SOL    HW129483   2.051   1.540   5.570  2.0810  1.2570  0.3026
 5949SOL    HW229484   1.971   1.664   5.567  1.5636  1.8971 -0.2027
 5950SOL     OW29485   1.638   1.938   8.847 -0.1562 -0.4069 -0.1639
 5950SOL    HW129486   1.676   1.985   8.773  4.6180 -0.0280  2.4734
 5950SOL    HW229487   1.558   1.987   8.865  0.1575  0.5193 -1.2745
 5951SOL     OW29488   4.712   0.060   5.113 -0.0420  0.1885 -0.2308
 5951SOL    HW129489   4.723   4.705   5.108 -0.8570 -0.0576  2.7339
 5951SOL    HW229490   4.717   0.068   5.208  1.6633 -0.4236 -0.2724
 5952SOL     OW29491   0.147   1.669   4.550 -0.1130 -0.4270 -0.3364
 5952SOL    HW129492   0.190   1.587   4.574  1.0277  1.1575  2.9742
 5952SOL    HW229493   0.088   1.634   4.483  0.3516  0.4448 -1.1846
 5953SOL     OW29494   2.053   4.219   4.634  0.8142 -0.1554  0.1698
 5953SOL    HW129495   2.013   4.257   4.555  0.2198  0.9962  1.0227
 5953SOL    HW229496   1.982   4.217   4.698  1.1868 -0.4865  0.5704
 5954SOL     OW29497   2.125   1.763   3.755  0.5575 -0.2853 -0.3506
 5954SOL    HW129498   2.049   1.745   3.810  0.5922  0.5898 -0.0104
 5954SOL    HW229499   2.107   1.721   3.671 -0.6781  2.7795 -1.6371
 5955SOL     OW29500   0.674   3.506   6.377 -0.3947  0.3125  0.0987
 5955SOL    HW129501   0.711   3.500   6.465  1.3371  2.0083 -0.5078
 5955SOL    HW229502   0.624   3.425   6.386 -2.4322  1.3633 -1.9101
 5956SOL     OW29503   0.414   3.939  11.517 -0.0322  0.5048 -0.3286
 5956SOL    HW129504   0.505   3.929  11.491 -0.2287 -2.4615  0.1101
 5956SOL    HW229505   0.370   3.895  11.444 -0.4429  1.5734 -0.7334
 5957SOL     OW29506   0.189   0.514   8.262 -0.0891  0.1509 -0.4775
 5957SOL    HW129507   0.195   0.564   8.343  2.6328 -1.9093  0.5785
 5957SOL    HW229508   0.232   0.573   8.200 -1.6531 -0.7458 -2.4107
 5958SOL     OW29509   1.362   3.447   2.959  0.6346 -0.1354  0.0459
 5958SOL    HW129510   1.305   3.472   2.887 -0.0755 -0.4363  0.5047
 5958SOL    HW229511   1.439   3.494   2.927 -1.3919  1.5882 -2.2671
 5959SOL     OW29512   0.183   1.410   2.895 -0.1070 -0.0708 -0.0728
 5959SOL    HW129513   0.089   1.399   2.882 -0.6955  2.4475  2.0179
 5959SOL    HW229514   0.196   1.449   2.809 -0.8299  0.1126 -0.0985
 5960SOL     OW29515   4.295   4.094   4.386 -0.0100  0.3562  0.1960
 5960SOL    HW129516   4.248   4.148   4.322 -0.0691 -0.0316 -0.0886
 5960SOL    HW229517   4.384   4.085   4.352  0.0248  4.1794 -0.7788
 5961SOL     OW29518   2.225   4.099   8.146 -0.0359  0.2219  0.0350
 5961SOL    HW129519   2.235   4.061   8.234 -1.0859 -1.2624 -0.4774
 5961SOL    HW229520   2.267   4.184   8.151  0.4686  0.0433 -1.2113
 5962SOL     OW29521   3.962   2.038  16.864 -0.2741 -0.3981 -0.3080
 5962SOL    HW129522   4.034   1.976  16.875  0.7725  1.0887  1.3927
 5962SOL    HW229523   3.916   2.003  16.788  0.2188  2.0143 -1.7441
 5963SOL     OW29524   1.459   0.574   7.470  0.1838 -0.0442  0.3084
 5963SOL    HW129525   1.539   0.609   7.430  0.5753  0.2267  1.3271
 5963SOL    HW229526   1.474   0.484   7.441 -1.6794 -0.3381  0.2447
 5964SOL     OW29527   2.202   2.500   9.084 -0.4940 -0.0559 -0.1784
 5964SOL    HW129528   2.291   2.473   9.107  0.2002  1.8255 -0.6529
 5964SOL    HW229529   2.165   2.547   9.158 -0.7977 -1.3069  0.4639
 5965SOL     OW29530   1.854   2.640   2.661 -0.1057 -0.0538 -0.0512
 5965SOL    HW129531   1.864   2.545   2.663 -2.0786 -0.2355  0.9018
 5965SOL    HW229532   1.860   2.657   2.567  2.2162 -0.9774 -0.0645
 5966SOL     OW29533   2.661   2.530   6.144 -0.2190  0.0214  0.0266
 5966SOL    HW129534   2.723   2.489   6.083  1.8727  1.4555  1.1786
 5966SOL    HW229535   2.582   2.536   6.092  0.1700  0.6736 -0.4849
 5967SOL     OW29536   2.813   0.697   8.715  0.1827  0.6896  0.0992
 5967SOL    HW129537   2.739   0.640   8.696  1.0662  0.2009 -1.8673
 5967SOL    HW229538   2.792   0.728   8.803 -2.3258  3.8132 -1.6011
 5968SOL     OW29539   0.842   2.331   6.637 -0.5500 -0.0870 -0.6807
 5968SOL    HW129540   0.843   2.418   6.598 -1.5104 -0.0872 -0.7245
 5968SOL    HW229541   0.758   2.349   6.680 -0.3948  2.7615 -1.5636
 5969SOL     OW29542   0.292   2.184   7.225  0.6750  0.4087 -0.1797
 5969SOL    HW129543   0.260   2.258   7.173 -0.1969 -0.2550 -0.5915
 5969SOL    HW229544   0.357   2.162   7.158  0.5194  0.0112 -0.2022
 5970SOL     OW29545   0.382   3.828  14.810 -0.4057  0.5901 -0.1283
 5970SOL    HW129546   0.350   3.797  14.725  0.5528  1.2874 -0.7433
 5970SOL    HW229547   0.372   3.923  14.798  0.9595  0.5053 -2.0337
 5971SOL     OW29548   4.492   4.209  15.021  0.4130  0.0989  0.9898
 5971SOL    HW129549   4.451   4.269  15.082  2.4623  2.8811 -0.3607
 5971SOL    HW229550   4.419   4.151  14.998  1.2287 -0.8121  0.6729
 5972SOL     OW29551   2.032   3.996   3.557 -0.0159  0.3029 -0.2313
 5972SOL    HW129552   2.098   4.048   3.604  1.2439 -1.3477 -0.1637
 5972SOL    HW229553   2.037   3.910   3.597 -2.3472  0.2760  0.0321
 5973SOL     OW29554   0.836   1.554   5.217 -0.5562  0.0939  0.0458
 5973SOL    HW129555   0.875   1.626   5.167  0.9224 -0.0984  0.9054
 5973SOL    HW229556   0.786   1.610   5.276 -0.0050 -0.4187  0.9987
 5974SOL     OW29557   1.547   1.099   5.523 -0.1111 -0.0212  0.5437
 5974SOL    HW129558   1.614   1.124   5.460 -0.0048 -0.7740  0.3604
 5974SOL    HW229559   1.473   1.155   5.498 -0.7166 -1.0574 -0.0382
 5975SOL     OW29560   2.566   2.068   3.888 -0.4886  0.5890  0.3964
 5975SOL    HW129561   2.570   2.041   3.980  0.1963 -0.4683  0.0602
 5975SOL    HW229562   2.494   2.010   3.861 -0.7463  2.7189 -3.3873
 5976SOL     OW29563   4.529   3.326   6.349  0.3429 -0.4910 -0.0559
 5976SOL    HW129564   4.567   3.281   6.424  0.8359 -0.8493 -0.5271
 5976SOL    HW229565   4.510   3.411   6.388 -0.1595 -0.5112 -0.2537
 5977SOL     OW29566   2.532   4.232   7.906  0.2682 -0.3822 -0.3275
 5977SOL    HW129567   2.450   4.255   7.951 -0.1012  1.2532 -1.8260
 5977SOL    HW229568   2.548   4.317   7.864 -1.6115  0.8206  1.3603
 5978SOL     OW29569   2.174   2.149   6.537  0.4386 -0.2691 -0.0813
 5978SOL    HW129570   2.232   2.141   6.462 -1.2916 -0.4652 -1.3997
 5978SOL    HW229571   2.224   2.099   6.601 -1.4864  0.7924  2.2673
 5979SOL     OW29572   1.029   3.724  13.495 -0.3217 -0.4789  0.2021
 5979SOL    HW129573   1.055   3.657  13.432  1.8479  0.1698  0.4103
 5979SOL    HW229574   1.111   3.768  13.517 -1.1975  2.3410 -2.2123
 5980SOL     OW29575   0.028   4.098   5.455 -0.5412  0.3042  0.4450
 5980SOL    HW129576   0.113   4.087   5.413 -0.6010 -0.0274  0.4141
 5980SOL    HW229577   4.717   4.036   5.404  1.6466  0.5789 -2.0779
 5981SOL     OW29578   0.414   0.267  15.062  0.2411 -0.4463 -0.2898
 5981SOL    HW129579   0.364   0.330  15.113  2.1682  1.0032 -0.1566
 5981SOL    HW229580   0.472   0.232  15.130 -0.9669 -0.0705  0.9386
 5982SOL     OW29581   1.825   0.725  10.971 -0.6936  0.1095  0.4419
 5982SOL    HW129582   1.900   0.690  11.018  0.2706 -1.5938 -2.3900
 5982SOL    HW229583   1.855   0.754  10.885 -0.4763 -0.9489  0.1699
 5983SOL     OW29584   4.323   1.843   6.922 -0.2739  0.4678 -0.6871
 5983SOL    HW129585   4.341   1.826   6.830  1.2470  2.2270 -0.7069
 5983SOL    HW229586   4.370   1.925   6.936  0.9194 -0.2144 -0.7487
 5984SOL     OW29587   1.497   2.574   7.242 -0.0659  0.7262  0.7485
 5984SOL    HW129588   1.420   2.531   7.203  1.2925  1.1720 -2.4394
 5984SOL    HW229589   1.543   2.587   7.159 -2.1410  2.5230 -0.1438
 5985SOL     OW29590   0.043   2.431  12.100  0.0242  0.5081  0.1008
 5985SOL    HW129591   0.043   2.436  12.005 -0.1934  3.8480  0.2834
 5985SOL    HW229592   0.119   2.480  12.130  0.5963 -0.0784 -0.3897
 5986SOL     OW29593   0.839   1.383   8.016  0.1511  0.3930 -0.3998
 5986SOL    HW129594   0.879   1.317   7.958 -0.1000 -0.2863  0.1972
 5986SOL    HW229595   0.787   1.325   8.071  1.0154 -1.4051 -1.4545
 5987SOL     OW29596   3.243   1.902   1.140  0.0481 -0.0644  0.5862
 5987SOL    HW129597   3.219   1.930   1.052 -1.7337  0.7673  1.3269
 5987SOL    HW229598   3.287   1.981   1.172 -0.7162 -0.2163  2.0259
 5988SOL     OW29599   1.851   2.869  12.374 -0.0911 -0.1096 -0.1479
 5988SOL    HW129600   1.942   2.885  12.397 -0.4604  0.4713  0.9298
 5988SOL    HW229601   1.856   2.773  12.374  0.6714 -0.0655 -0.2216
 5989SOL     OW29602   2.011   3.209   4.135 -0.6708 -0.0074  0.0556
 5989SOL    HW129603   2.031   3.144   4.068  1.0130 -0.7423  1.2842
 5989SOL    HW229604   2.022   3.143   4.203 -1.1849  0.4428  0.5737
 5990SOL     OW29605   3.299   2.220   9.242 -0.1619 -0.2681  0.7931
 5990SOL    HW129606   3.369   2.213   9.307  0.7598 -0.9292 -0.2755
 5990SOL    HW229607   3.248   2.295   9.275  0.7544  0.2566  1.0094
 5991SOL     OW29608   2.423   2.573   3.372  0.2703  0.1038  0.6490
 5991SOL    HW129609   2.395   2.655   3.330 -0.2080  0.5905  1.9186
 5991SOL    HW229610   2.364   2.511   3.329  0.2271 -0.5395  1.6249
 5992SOL     OW29611   1.176   3.545  13.337  0.2862  0.1599  0.6708
 5992SOL    HW129612   1.222   3.509  13.413  0.5942 -3.5729 -1.3129
 5992SOL    HW229613   1.243   3.526  13.272  0.7439  0.2441  1.1204
 5993SOL     OW29614   3.701   1.260  17.338  0.2519 -0.0696  0.6480
 5993SOL    HW129615   3.791   1.281  17.360 -0.0437 -0.8771  2.5857
 5993SOL    HW229616   3.705   1.166  17.352  1.1899  0.2305  2.3160
 5994SOL     OW29617   0.116   2.859  17.618  0.2300 -0.1285  0.1027
 5994SOL    HW129618   0.125   2.859  17.523 -2.5696  1.2445 -0.1531
 5994SOL    HW229619   0.173   2.785  17.643  2.6361  1.1049 -1.7861
 5995SOL     OW29620   0.705   2.486   3.867 -0.3172  0.2012  0.1532
 5995SOL    HW129621   0.746   2.409   3.907 -1.4308 -0.9276 -0.8760
 5995SOL    HW229622   0.616   2.450   3.861  0.0009 -0.3495 -1.1699
 5996SOL     OW29623   4.628   1.830   8.077 -0.2402 -0.0699  0.5329
 5996SOL    HW129624   4.633   1.904   8.015 -0.2915 -1.1448 -0.7594
 5996SOL    HW229625   4.667   1.873   8.153 -1.1980  1.4482  0.1669
 5997SOL     OW29626   0.530   1.471   0.147  0.2401  0.0800  0.3584
 5997SOL    HW129627   0.612   1.467   0.098 -1.4182  0.1490 -2.4620
 5997SOL    HW229628   0.501   1.562   0.142 -1.1767 -0.4657 -1.3173
 5998SOL     OW29629   2.578   2.973   6.929  0.0947  0.0256  0.2564
 5998SOL    HW129630   2.484   2.983   6.916  0.4695 -0.2858 -2.7699
 5998SOL    HW229631   2.616   3.002   6.846  0.7260  0.1728  0.6045
 5999SOL     OW29632   4.403   2.096   7.008 -0.1536  0.0879  0.6341
 5999SOL    HW129633   4.498   2.105   7.004 -0.3796  0.7346 -3.6207
 5999SOL    HW229634   4.374   2.166   7.067 -0.3488 -0.4282  1.1516
 6000SOL     OW29635   0.706   2.830   9.695  0.1659 -0.5198 -0.4772
 6000SOL    HW129636   0.771   2.860   9.631 -0.5423  0.8139 -0.5605
 6000SOL    HW229637   0.685   2.743   9.662 -0.5635 -1.0440  1.3957
 6001SOL     OW29638   0.187   2.722   8.064  0.9148  0.1107  0.2213
 6001SOL    HW129639   0.278   2.693   8.073  1.2824  1.6489  1.6578
 6001SOL    HW229640   0.181   2.769   7.981  0.6944  1.3861  0.9475
 6002SOL     OW29641   0.434   0.309  10.900  0.4058  0.1420  0.1595
 6002SOL    HW129642   0.524   0.294  10.928 -0.0444 -1.1779  0.8981
 6002SOL    HW229643   0.445   0.381  10.838  1.5442 -0.4115 -0.2686
 6003SOL     OW29644   2.244   3.970   8.855 -0.2065  0.0629  0.1614
 6003SOL    HW129645   2.293   3.922   8.788  1.1412  1.8890 -0.1688
 6003SOL    HW229646   2.159   3.956   8.813 -0.9993  0.2929  1.7187
 6004SOL     OW29647   0.735   2.085   2.760  0.2047  0.1431  0.1496
 6004SOL    HW129648   0.726   2.179   2.743  1.0991  0.3750  1.0128
 6004SOL    HW229649   0.665   2.049   2.705 -0.2297  2.0004 -0.5135
 6005SOL     OW29650   0.824   0.742   4.186 -0.3117  0.2610 -0.3783
 6005SOL    HW129651   0.900   0.796   4.165 -0.5369  0.4427 -0.7363
 6005SOL    HW229652   0.764   0.812   4.211 -0.7198 -0.4416  0.6095
 6006SOL     OW29653   1.465   1.740   6.640 -0.0012  0.2002  0.5596
 6006SOL    HW129654   1.487   1.667   6.697  1.1960 -1.1854 -1.6615
 6006SOL    HW229655   1.439   1.698   6.557  0.1678 -1.4086  1.3220
 6007SOL     OW29656   2.426   2.781   6.556  0.1037 -0.1782  0.5151
 6007SOL    HW129657   2.492   2.839   6.594  1.7790 -1.0293 -1.1516
 6007SOL    HW229658   2.347   2.799   6.607  0.0531 -0.2365  0.4565
 6008SOL     OW29659   2.257   1.066   8.683  0.0007 -0.1605  0.7803
 6008SOL    HW129660   2.206   1.046   8.762  1.0248 -1.5385  1.0933
 6008SOL    HW229661   2.279   1.156   8.708  0.9626 -0.9990  2.9376
 6009SOL     OW29662   2.815   1.646  13.938  0.3273  0.9315 -0.6587
 6009SOL    HW129663   2.909   1.658  13.949  0.2296 -1.0890  2.2281
 6009SOL    HW229664   2.804   1.612  13.850 -3.8224  0.7833 -0.0989
 6010SOL     OW29665   0.265   0.345   5.277 -1.0858 -0.2591  0.0700
 6010SOL    HW129666   0.311   0.281   5.224  0.9386 -0.1188  1.6807
 6010SOL    HW229667   0.304   0.430   5.254 -2.2952  0.6215  1.2668
 6011SOL     OW29668   4.074   2.985  16.245  0.1868 -0.0091 -0.2993
 6011SOL    HW129669   4.064   2.928  16.169 -0.1279 -0.0168 -0.2510
 6011SOL    HW229670   4.023   3.060  16.215  1.7689  1.8737  1.7796
 6012SOL     OW29671   4.193   1.090   5.997 -0.5241  0.4387 -0.8644
 6012SOL    HW129672   4.116   1.112   5.945 -1.2588 -0.2113 -0.0528
 6012SOL    HW229673   4.185   1.155   6.067  1.4477  0.6671 -0.8460
 6013SOL     OW29674   4.575   4.491   1.785  0.3041  0.0294 -0.2676
 6013SOL    HW129675   4.491   4.535   1.776  1.1240  1.4964 -0.8011
 6013SOL    HW229676   4.575   4.467   1.878  2.4339  1.8176  0.1800
 6014SOL     OW29677   0.312   2.907   0.164 -0.1418 -0.2514  0.2257
 6014SOL    HW129678   0.281   2.845   0.230  2.0616 -0.9345  0.6111
 6014SOL    HW229679   0.362   2.971   0.214  1.3958 -1.3717  0.0830
 6015SOL     OW29680   2.445   2.558  14.477 -0.0474  0.7279  0.2293
 6015SOL    HW129681   2.467   2.482  14.422 -1.2716 -0.5208  1.4483
 6015SOL    HW229682   2.468   2.523  14.563 -1.7716  1.4759  0.9984
 6016SOL     OW29683   4.301   3.443   2.273 -0.3336  0.1037  0.1959
 6016SOL    HW129684   4.293   3.368   2.214  0.4505  0.0413  0.1623
 6016SOL    HW229685   4.288   3.512   2.209  1.4839  0.7812  0.5398
 6017SOL     OW29686   2.242   0.518  13.317 -0.3379 -0.1582  0.1989
 6017SOL    HW129687   2.322   0.542  13.363 -0.0589 -0.8761  0.0849
 6017SOL    HW229688   2.196   0.470  13.386 -0.6048  2.9569  2.1858
 6018SOL     OW29689   1.295   2.802   9.262 -0.1977 -0.1459  0.1928
 6018SOL    HW129690   1.252   2.792   9.177 -1.5511  1.4231  0.6919
 6018SOL    HW229691   1.282   2.715   9.298 -4.0991  1.0726  1.6337
 6019SOL     OW29692   2.286   0.349   1.459 -0.3119  0.2971  0.1656
 6019SOL    HW129693   2.297   0.369   1.367  0.8015  2.4929  0.7731
 6019SOL    HW229694   2.226   0.275   1.470  0.3989 -0.1140  1.3252
 6020SOL     OW29695   1.179   0.344   3.237  0.2239 -0.0635  0.4064
 6020SOL    HW129696   1.224   0.398   3.172  0.4366 -1.5628 -0.6918
 6020SOL    HW229697   1.170   0.419   3.295 -1.2725 -1.0787  1.4854
 6021SOL     OW29698   0.966   0.862   5.589  0.3052  0.1248 -0.2887
 6021SOL    HW129699   0.938   0.953   5.579 -2.9879 -0.7807  0.6244
 6021SOL    HW229700   1.008   0.868   5.675  0.2070  0.0346 -0.2347
 6022SOL     OW29701   2.746   2.245   2.140  0.6939  0.1114  0.1498
 6022SOL    HW129702   2.801   2.169   2.163 -2.0922 -2.0383 -0.3755
 6022SOL    HW229703   2.804   2.311   2.178  1.9044  0.8676 -3.0686
 6023SOL     OW29704   3.513   0.472   2.758 -0.3318 -0.3045  0.7317
 6023SOL    HW129705   3.551   0.384   2.762 -1.7036 -0.8794  1.2912
 6023SOL    HW229706   3.588   0.522   2.788  0.4137  0.6166 -2.5975
 6024SOL     OW29707   0.375   4.472   2.665  0.1004  0.7698 -0.5146
 6024SOL    HW129708   0.461   4.477   2.706 -1.1828  1.4184  2.0891
 6024SOL    HW229709   0.362   4.379   2.683 -2.4929  0.9945 -1.2409
 6025SOL     OW29710   2.520   0.438   7.325 -0.3557 -0.3262  0.3218
 6025SOL    HW129711   2.585   0.509   7.327 -1.7681  0.9174  1.9066
 6025SOL    HW229712   2.443   0.484   7.293  0.7701  0.5237 -1.1665
 6026SOL     OW29713   0.848   2.392   9.615  0.0487 -0.4249  0.1770
 6026SOL    HW129714   0.888   2.464   9.566  0.6716 -1.7235 -1.2232
 6026SOL    HW229715   0.927   2.348   9.646  0.3037 -0.1581 -0.0891
 6027SOL     OW29716   2.003   1.733  13.896  0.1935 -0.9884  0.3439
 6027SOL    HW129717   2.087   1.687  13.896  0.4671 -0.4802 -0.3322
 6027SOL    HW229718   1.937   1.666  13.915 -0.7179  0.0940  0.9842
 6028SOL     OW29719   4.227   2.426   2.585 -0.4800  0.0635  0.1122
 6028SOL    HW129720   4.319   2.431   2.562 -0.4735  0.6053  0.2490
 6028SOL    HW229721   4.188   2.473   2.511 -1.0469 -0.6551 -0.0454
 6029SOL     OW29722   2.869   4.536  14.246 -0.3070  0.4777  0.1303
 6029SOL    HW129723   2.804   4.536  14.317  0.9467 -0.4069  1.2855
 6029SOL    HW229724   2.885   4.444  14.224  1.1511  0.7486  0.0884
 6030SOL     OW29725   3.701   0.808  12.824 -0.2740 -0.2015  0.2672
 6030SOL    HW129726   3.727   0.727  12.779 -1.6215 -0.1613 -0.5673
 6030SOL    HW229727   3.606   0.815  12.823 -0.2126  0.0329 -2.3938
 6031SOL     OW29728   2.831   4.377  15.278  0.1012 -0.1163 -0.3660
 6031SOL    HW129729   2.827   4.469  15.304  1.9096 -0.0979 -0.1621
 6031SOL    HW229730   2.829   4.344  15.367  2.7354  3.3532  0.9736
 6032SOL     OW29731   3.529   1.873   3.245  0.0738  0.1289  0.3976
 6032SOL    HW129732   3.486   1.788   3.236 -1.2290  0.9227 -0.8553
 6032SOL    HW229733   3.600   1.843   3.302  0.5594  0.5835  0.0319
 6033SOL     OW29734   1.391   4.309  17.137 -0.4626 -0.5565  0.0082
 6033SOL    HW129735   1.459   4.372  17.160 -1.6920  0.5925  0.4371
 6033SOL    HW229736   1.339   4.371  17.087  0.2922  1.4536  1.7184
 6034SOL     OW29737   2.018   2.756   4.731  0.4148  0.2665  0.2756
 6034SOL    HW129738   2.111   2.758   4.753  1.1550  0.6194 -2.8941
 6034SOL    HW229739   2.000   2.849   4.744 -2.4331 -0.4012  1.1245
 6035SOL     OW29740   0.707   0.396   6.076 -0.4158  0.0887 -0.4948
 6035SOL    HW129741   0.739   0.425   6.161 -0.2144 -1.3815 -0.0580
 6035SOL    HW229742   0.759   0.455   6.021 -0.9095  0.5467 -0.4630
 6036SOL     OW29743   1.078   1.970   7.570 -0.2194 -0.0116  0.1234
 6036SOL    HW129744   1.138   2.022   7.624  1.8177 -1.7766 -0.4178
 6036SOL    HW229745   1.044   2.037   7.510 -1.0407 -1.7958 -1.4082
 6037SOL     OW29746   0.525   2.477   2.427  0.0368 -0.1301  0.0859
 6037SOL    HW129747   0.506   2.479   2.521 -1.1616 -1.6695 -0.1287
 6037SOL    HW229748   0.505   2.384   2.413  1.1270 -0.0391 -1.9596
 6038SOL     OW29749   3.567   0.124   0.717 -0.1116  0.2968  0.8783
 6038SOL    HW129750   3.595   0.040   0.681 -3.2440 -0.0976 -0.6011
 6038SOL    HW229751   3.652   0.168   0.721  0.7694 -1.4758  1.8870
 6039SOL     OW29752   1.789   0.413   6.021  0.3467  0.1215 -0.1053
 6039SOL    HW129753   1.708   0.447   6.058  0.4602  0.7395 -0.4248
 6039SOL    HW229754   1.791   0.468   5.943  1.0042 -1.8585 -1.4760
 6040SOL     OW29755   4.605   4.325  14.810 -0.4590  0.2990 -0.6231
 6040SOL    HW129756   4.560   4.283  14.884 -2.2559 -0.3299 -2.0502
 6040SOL    HW229757   4.638   4.403  14.854 -1.5832  1.0266 -1.0833
 6041SOL     OW29758   3.188   3.568  16.100  0.2056  0.4467  0.3826
 6041SOL    HW129759   3.259   3.604  16.047 -0.2547 -0.1356 -0.6195
 6041SOL    HW229760   3.124   3.638  16.085 -0.0092  0.7865  2.7788
 6042SOL     OW29761   2.070   3.767   3.681 -0.2869  0.0261  0.5283
 6042SOL    HW129762   2.016   3.701   3.636  0.1572  0.8412 -1.1882
 6042SOL    HW229763   2.156   3.725   3.688 -0.4762 -0.3462  0.6637
 6043SOL     OW29764   1.170   0.553   4.171  0.8812  0.4105  0.2568
 6043SOL    HW129765   1.109   0.572   4.243 -0.8702 -0.6295 -0.9525
 6043SOL    HW229766   1.103   0.522   4.109  1.1957 -0.0225  0.1350
 6044SOL     OW29767   0.250   3.348   1.043 -0.3023  0.6086 -0.2584
 6044SOL    HW129768   0.314   3.277   1.051  0.4691  1.2704 -0.4618
 6044SOL    HW229769   0.214   3.356   1.131 -2.7555 -0.4835 -1.1768
 6045SOL     OW29770   3.564   0.347   5.562 -0.0164  0.2470  0.3062
 6045SOL    HW129771   3.655   0.362   5.535  1.7010 -0.8956  5.5448
 6045SOL    HW229772   3.531   0.310   5.480 -3.0193  0.0429  1.6141
 6046SOL     OW29773   1.748   2.473   0.520 -0.0815  0.4086  0.4595
 6046SOL    HW129774   1.745   2.413   0.595 -0.3539  1.2374  1.1112
 6046SOL    HW229775   1.687   2.431   0.459  0.8167  1.8155 -1.3871
 6047SOL     OW29776   0.107   3.461   6.618 -0.6102  0.4269  0.6621
 6047SOL    HW129777   0.083   3.462   6.710 -2.3903  0.0519  0.2050
 6047SOL    HW229778   0.175   3.528   6.607 -0.1831  0.0251  0.9067
 6048SOL     OW29779   4.678   2.593  17.045  0.1139 -0.3731 -0.1105
 6048SOL    HW129780   4.713   2.682  17.037  0.2454 -0.5760 -1.7689
 6048SOL    HW229781   4.667   2.593  17.140  2.3465  0.3847  0.1536
 6049SOL     OW29782   1.594   2.110   9.196  0.1439  0.6902  0.9357
 6049SOL    HW129783   1.636   2.162   9.128 -1.4712 -3.9567 -3.6999
 6049SOL    HW229784   1.669   2.054   9.217 -0.1498 -0.1245 -0.1440
 6050SOL     OW29785   0.228   0.378   7.202  0.0982  0.2189 -0.1338
 6050SOL    HW129786   0.148   0.375   7.149 -0.5582 -1.6410  0.9518
 6050SOL    HW229787   0.281   0.314   7.154 -2.2026 -1.8072  0.0406
 6051SOL     OW29788   2.847   3.082   8.964 -0.0433 -0.7234  0.0473
 6051SOL    HW129789   2.760   3.086   8.924  0.2854 -2.5956 -0.8454
 6051SOL    HW229790   2.873   3.174   8.971 -0.6637 -0.6912  1.9814
 6052SOL     OW29791   0.499   4.239   2.085  0.4430 -0.2147 -1.0538
 6052SOL    HW129792   0.443   4.314   2.068  0.5451 -0.2004 -1.3226
 6052SOL    HW229793   0.475   4.182   2.011  1.8490 -0.8402 -1.0306
 6053SOL     OW29794   3.984   3.852  10.971  0.1753 -0.0960 -0.1392
 6053SOL    HW129795   3.888   3.851  10.980  0.0906  0.7291 -0.9841
 6053SOL    HW229796   3.990   3.850  10.876 -2.4155 -1.1263 -0.2953
 6054SOL     OW29797   1.576   2.915   2.111 -0.3860 -0.0771 -0.8835
 6054SOL    HW129798   1.501   2.966   2.141 -1.5515 -0.6014 -2.8925
 6054SOL    HW229799   1.653   2.971   2.106  0.6065 -1.4753 -1.3983
 6055SOL     OW29800   1.709   2.540   4.055  0.5779 -0.2681  0.1348
 6055SOL    HW129801   1.744   2.601   3.990 -1.4877 -0.1972 -0.9014
 6055SOL    HW229802   1.789   2.529   4.107  0.6134  1.2118  0.3960
 6056SOL     OW29803   0.265   1.586   0.255 -0.3430 -0.5181 -0.2782
 6056SOL    HW129804   0.281   1.529   0.331 -0.4036 -0.4903 -0.2451
 6056SOL    HW229805   0.229   1.515   0.202  1.8578 -0.4642 -1.8454
 6057SOL     OW29806   2.359   4.151   7.318  0.3694  0.3317 -0.0636
 6057SOL    HW129807   2.346   4.181   7.408  1.7769  2.3028 -0.5065
 6057SOL    HW229808   2.454   4.139   7.315  0.3326  0.1017 -0.3538
 6058SOL     OW29809   3.872   1.012  12.605 -0.2496  0.2375  0.1797
 6058SOL    HW129810   3.958   0.970  12.607 -0.9084 -1.1800 -1.3462
 6058SOL    HW229811   3.812   0.938  12.617 -0.4925  0.3225 -0.5199
 6059SOL     OW29812   3.711   1.794   2.307  0.6125  0.3240  0.0635
 6059SOL    HW129813   3.741   1.852   2.236  3.2335  1.0371  1.7641
 6059SOL    HW229814   3.784   1.782   2.367  0.4035 -1.1802  0.0106
 6060SOL     OW29815   1.805   1.624  14.307  0.0588  0.1921 -0.4591
 6060SOL    HW129816   1.857   1.685  14.255 -0.9668  0.4594 -1.1482
 6060SOL    HW229817   1.735   1.612  14.243  1.3848 -1.9924 -1.4922
 6061SOL     OW29818   0.748   0.637   5.208  0.3780  0.1869  0.4752
 6061SOL    HW129819   0.765   0.723   5.171  0.6223  0.0029  0.1594
 6061SOL    HW229820   0.657   0.649   5.236  0.5412 -0.2795  1.2118
 6062SOL     OW29821   4.563   2.289  10.687  0.9031  0.0197 -0.2888
 6062SOL    HW129822   4.475   2.324  10.681  0.6223 -1.0109 -1.9880
 6062SOL    HW229823   4.569   2.241  10.770 -0.2249  0.5772  0.1060
 6063SOL     OW29824   4.340   0.654  17.374 -0.3757  0.1901 -0.1853
 6063SOL    HW129825   4.320   0.690  17.460 -0.0600  0.9880 -0.4448
 6063SOL    HW229826   4.380   0.728  17.327 -0.1005  0.0493 -0.1724
 6064SOL     OW29827   2.114   0.993   8.462 -0.1840 -0.1245 -0.1523
 6064SOL    HW129828   2.183   0.977   8.398  0.5314 -0.5013  0.7144
 6064SOL    HW229829   2.161   1.016   8.542  0.3036 -1.8233  0.0384
 6065SOL     OW29830   2.812   3.851   6.187  0.1508 -0.0580 -0.2291
 6065SOL    HW129831   2.864   3.878   6.112  0.5638  2.3766  0.9326
 6065SOL    HW229832   2.820   3.755   6.191  1.5470  0.1689  2.8486
 6066SOL     OW29833   0.512   3.456   9.320 -0.3556  0.3067 -0.1836
 6066SOL    HW129834   0.526   3.531   9.378  0.6314  0.4856 -0.6543
 6066SOL    HW229835   0.465   3.403   9.384  0.5605  1.4914  1.4603
 6067SOL     OW29836   4.051   4.590  11.245 -0.1998 -0.0698 -0.0848
 6067SOL    HW129837   4.009   4.669  11.280  0.4368  0.7893 -1.2714
 6067SOL    HW229838   4.126   4.573  11.302  1.4533  1.7132 -1.7160
 6068SOL     OW29839   0.023   0.100   8.405  0.0562  0.3851 -0.2057
 6068SOL    HW129840   4.737   0.087   8.496  0.6858  1.3083  0.1002
 6068SOL    HW229841   4.672   0.100   8.375  0.9180 -0.9185 -2.7630
 6069SOL     OW29842   3.801   4.531  14.435 -0.5028 -0.1712 -0.2606
 6069SOL    HW129843   3.820   4.437  14.443 -0.3446 -0.1772 -0.6969
 6069SOL    HW229844   3.816   4.557  14.526  0.7472  0.9811 -0.8051
 6070SOL     OW29845   1.965   0.418  12.914  0.2726  0.0848 -0.0987
 6070SOL    HW129846   1.919   0.386  12.992  2.3912 -1.7924  0.3704
 6070SOL    HW229847   2.054   0.402  12.945 -0.1188 -1.4783  0.2431
 6071SOL     OW29848   3.334   1.161   8.488 -0.1488 -0.1871 -0.2543
 6071SOL    HW129849   3.337   1.076   8.444  2.6495  0.5741 -1.5233
 6071SOL    HW229850   3.427   1.181   8.498 -0.2129 -0.2058  0.3906
 6072SOL     OW29851   0.056   1.929   2.686  0.0205 -0.1094 -0.2775
 6072SOL    HW129852   0.062   1.958   2.777 -1.1192  1.0440 -0.5816
 6072SOL    HW229853   4.704   1.902   2.686 -0.7474  2.5102 -0.1567
 6073SOL     OW29854   1.121   2.144   7.046 -0.4060 -0.2065 -0.5472
 6073SOL    HW129855   1.136   2.193   7.127 -0.5843  0.0404 -0.6635
 6073SOL    HW229856   1.062   2.207   7.005 -0.3888  0.8984  1.0964
 6074SOL     OW29857   1.109   1.131   9.428 -0.0985  0.0417  0.3751
 6074SOL    HW129858   1.175   1.135   9.497  0.5986  1.3493 -0.3664
 6074SOL    HW229859   1.113   1.219   9.391 -0.8215  0.2250  0.7331
 6075SOL     OW29860   2.055   2.508   9.628  0.4394 -0.2179  0.4734
 6075SOL    HW129861   1.975   2.553   9.655  0.1520 -0.5496  0.1537
 6075SOL    HW229862   2.036   2.504   9.535 -1.8765 -0.5921  0.9644
 6076SOL     OW29863   4.118   3.005   2.329  0.5398  0.3239  0.4422
 6076SOL    HW129864   4.023   3.012   2.339  0.4258  2.4508 -2.0023
 6076SOL    HW229865   4.137   3.090   2.290  2.6755  0.8510  2.6595
 6077SOL     OW29866   1.244   1.488  17.460  0.1083  0.2010  0.6499
 6077SOL    HW129867   1.266   1.396  17.468 -2.5455 -0.4380  0.4831
 6077SOL    HW229868   1.168   1.481  17.402 -1.0244  4.2293  1.6061
 6078SOL     OW29869   2.275   3.951   8.360 -0.1607 -0.2039 -0.5205
 6078SOL    HW129870   2.258   3.985   8.448  0.6220  0.2422 -0.5351
 6078SOL    HW229871   2.278   3.856   8.370 -0.7397 -0.1758 -0.0653
 6079SOL     OW29872   2.647   1.308   9.533 -0.1850 -0.1243  0.3786
 6079SOL    HW129873   2.583   1.379   9.543 -0.2973 -0.5385  2.4872
 6079SOL    HW229874   2.703   1.354   9.470 -0.4580 -0.1640  0.1092
 6080SOL     OW29875   0.906   3.913   5.214 -0.1761 -0.2927  0.5481
 6080SOL    HW129876   0.967   3.861   5.266  0.7457  0.4119  0.1655
 6080SOL    HW229877   0.963   3.978   5.174 -0.0371 -0.5258  0.3698
 6081SOL     OW29878   4.577   3.967   2.810 -0.1494  0.4933 -0.8244
 6081SOL    HW129879   4.512   4.015   2.861  0.8350 -0.6366  1.5127
 6081SOL    HW229880   4.654   4.023   2.817  0.5016 -0.4743 -0.2111
 6082SOL     OW29881   4.434   2.684   6.945  0.2537 -0.0214  0.3073
 6082SOL    HW129882   4.404   2.651   7.030  0.3022  1.9013  1.0630
 6082SOL    HW229883   4.362   2.654   6.890  0.7003  1.2762 -0.9540
 6083SOL     OW29884   1.979   4.304   2.637 -0.5065  0.1297  0.2336
 6083SOL    HW129885   1.999   4.394   2.609 -0.9946  0.6535  1.5484
 6083SOL    HW229886   2.036   4.281   2.711 -1.6579 -1.8285  0.4913
 6084SOL     OW29887   4.468   1.520  16.973 -0.0658 -0.5360  0.4183
 6084SOL    HW129888   4.509   1.565  16.899  2.1990 -0.9595  1.4095
 6084SOL    HW229889   4.506   1.433  16.961  1.3498  0.4428 -2.1790
 6085SOL     OW29890   4.280   2.130  13.769  0.4800  0.2577 -0.0152
 6085SOL    HW129891   4.231   2.092  13.842 -0.1572 -2.4389 -1.8092
 6085SOL    HW229892   4.218   2.156  13.702  0.2047  2.1240  0.9774
 6086SOL     OW29893   0.478   1.152   2.799  0.1511 -0.3408  0.3940
 6086SOL    HW129894   0.428   1.078   2.766  2.6760 -0.9264 -2.1203
 6086SOL    HW229895   0.471   1.209   2.722 -0.1493 -1.2118 -0.2280
 6087SOL     OW29896   1.540   3.968   0.159  0.3163 -0.0259 -0.0479
 6087SOL    HW129897   1.634   3.987   0.152  0.2274 -0.6872 -3.2553
 6087SOL    HW229898   1.533   3.881   0.118 -2.4157 -0.1465  0.6821
 6088SOL     OW29899   1.444   4.625   8.623  0.9529  0.4851 -0.1849
 6088SOL    HW129900   1.494   4.662   8.696 -2.1096  2.2171  1.0133
 6088SOL    HW229901   1.355   4.633   8.656  0.6780 -0.4210 -0.7153
 6089SOL     OW29902   4.484   1.285   0.800  0.3276 -0.2899  0.2255
 6089SOL    HW129903   4.528   1.331   0.871 -1.4030  0.9202  0.5050
 6089SOL    HW229904   4.450   1.211   0.849  0.2560 -0.9836 -0.8809
 6090SOL     OW29905   3.725   0.149   6.222  0.3945 -0.4217 -0.7144
 6090SOL    HW129906   3.795   0.110   6.170  0.7308  0.2711 -0.7820
 6090SOL    HW229907   3.690   0.066   6.252  0.0963  0.2808  0.8659
 6091SOL     OW29908   2.553   4.289   6.995  0.6006  0.3749  0.3146
 6091SOL    HW129909   2.604   4.240   7.060 -0.5619 -2.0827 -0.6289
 6091SOL    HW229910   2.563   4.234   6.917 -0.2982  0.1848  0.3240
 6092SOL     OW29911   2.715   3.162   9.298  0.0438 -0.2149  0.4683
 6092SOL    HW129912   2.737   3.070   9.284 -2.9689 -1.1944  2.1787
 6092SOL    HW229913   2.785   3.207   9.251 -1.6572  1.7636 -0.1329
 6093SOL     OW29914   0.589   2.338  12.198 -0.0693  0.0479 -0.7396
 6093SOL    HW129915   0.588   2.316  12.291  2.3938 -0.4557 -0.8339
 6093SOL    HW229916   0.558   2.256  12.160 -0.8514  1.5508 -3.3642
 6094SOL     OW29917   0.475   1.484   4.419  0.0265  0.4465  0.3933
 6094SOL    HW129918   0.446   1.427   4.348 -1.7682  0.6016  1.0186
 6094SOL    HW229919   0.549   1.520   4.370 -0.4590  0.5701 -0.2531
 6095SOL     OW29920   2.863   0.802   9.237  0.6408  0.2499 -0.4038
 6095SOL    HW129921   2.875   0.820   9.330 -3.7314 -0.6646  0.3396
 6095SOL    HW229922   2.952   0.799   9.202  0.3213 -1.6350 -1.0914
 6096SOL     OW29923   2.210   3.101  16.792 -0.4027  0.5279 -0.0477
 6096SOL    HW129924   2.143   3.035  16.809 -0.3241  0.3935 -0.2577
 6096SOL    HW229925   2.171   3.159  16.727  0.6623 -1.0377 -2.0603
 6097SOL     OW29926   1.180   1.626   2.626 -0.3927 -0.2190  0.4857
 6097SOL    HW129927   1.151   1.603   2.538  1.2290  0.4951 -0.2230
 6097SOL    HW229928   1.274   1.639   2.619 -0.5986  1.3605  0.6055
 6098SOL     OW29929   0.967   3.932  13.738  0.1002  0.3302 -0.4495
 6098SOL    HW129930   0.917   3.903  13.815  0.3702 -0.2543 -0.4956
 6098SOL    HW229931   1.050   3.965  13.771 -0.3244  0.1792  0.8153
 6099SOL     OW29932   3.302   1.637   1.075  0.3446 -0.0809  0.0124
 6099SOL    HW129933   3.210   1.617   1.087  0.2916  0.1628  0.0080
 6099SOL    HW229934   3.288   1.726   1.045 -1.2031 -0.7596 -1.2529
 6100SOL     OW29935   0.172   3.974   3.649 -0.1210  0.0647  0.1531
 6100SOL    HW129936   0.200   4.065   3.658 -0.8982  0.1361  1.8246
 6100SOL    HW229937   0.239   3.929   3.700 -1.1857  2.5401  3.7342
 6101SOL     OW29938   4.606   2.332   0.275  0.4082  0.4016 -0.2185
 6101SOL    HW129939   4.652   2.380   0.343  0.3636  0.2614 -0.0912
 6101SOL    HW229940   4.519   2.373   0.274 -0.5536 -1.6709 -2.4137
 6102SOL     OW29941   0.825   0.159   4.533 -0.1311  0.0461  0.4363
 6102SOL    HW129942   0.915   0.150   4.502  0.0739  1.8270  0.5276
 6102SOL    HW229943   0.835   0.168   4.628 -1.3396  1.9574  0.3815
 6103SOL     OW29944   4.383   4.140   4.055 -0.3496 -0.7239  0.4474
 6103SOL    HW129945   4.327   4.062   4.052 -1.4418  0.1592 -2.4665
 6103SOL    HW229946   4.469   4.099   4.046  0.9151  1.9902  0.2151
 6104SOL     OW29947   0.139   0.447   1.470 -0.0111 -0.5325 -0.0177
 6104SOL    HW129948   0.052   0.484   1.450 -1.6870 -5.2689 -1.4247
 6104SOL    HW229949   0.161   0.405   1.387 -0.6872  0.2812 -0.6128
 6105SOL     OW29950   4.602   0.213   8.093 -0.3062  0.2058  0.0427
 6105SOL    HW129951   4.551   0.203   8.173 -0.9484 -1.8852 -0.6141
 6105SOL    HW229952   4.585   0.129   8.050 -0.2835  0.9185 -1.3701
 6106SOL     OW29953   1.311   4.379   8.867 -1.0458  0.2877  0.3711
 6106SOL    HW129954   1.305   4.466   8.828 -0.2527 -0.1286 -0.6797
 6106SOL    HW229955   1.262   4.384   8.948  0.5661  0.3933  1.3335
 6107SOL     OW29956   1.339   0.886   2.521 -0.4125 -0.7996  0.0200
 6107SOL    HW129957   1.347   0.829   2.598 -0.0987  0.3508  0.8318
 6107SOL    HW229958   1.379   0.830   2.455 -1.0431 -0.2655 -0.8048
 6108SOL     OW29959   4.577   0.534  16.032  0.1730  0.2530 -0.9955
 6108SOL    HW129960   4.579   0.591  16.108  1.2653  1.1936 -1.7215
 6108SOL    HW229961   4.513   0.569  15.971 -2.8293 -0.6483  1.6223
 6109SOL     OW29962   1.666   1.269   8.297 -0.2178  0.0810 -0.6231
 6109SOL    HW129963   1.662   1.225   8.211 -0.6689  0.0917 -0.6061
 6109SOL    HW229964   1.732   1.213   8.339  1.1133  1.5843 -0.7041
 6110SOL     OW29965   3.957   0.355   5.910 -0.7037  0.7175 -0.0216
 6110SOL    HW129966   3.861   0.361   5.908 -0.7358  0.5053  0.7991
 6110SOL    HW229967   3.972   0.283   5.848  0.2669 -1.0380  2.2608
 6111SOL     OW29968   1.714   2.188   8.315  0.5494 -0.5248 -0.2703
 6111SOL    HW129969   1.694   2.100   8.284 -0.9810  0.6086 -2.4997
 6111SOL    HW229970   1.632   2.212   8.357  0.7255  0.3611 -0.4236
 6112SOL     OW29971   3.837   2.876   6.605 -0.2888  0.0542  0.0610
 6112SOL    HW129972   3.818   2.897   6.697 -1.3032 -0.7599  0.0413
 6112SOL    HW229973   3.868   2.959   6.571 -1.7117  0.0251 -1.3188
 6113SOL     OW29974   4.637   0.629   6.897  0.2229 -0.5615  0.2548
 6113SOL    HW129975   4.621   0.694   6.965 -1.1326  0.5575 -1.1325
 6113SOL    HW229976   4.623   0.560   6.961 -1.5589  0.4898  1.0035
 6114SOL     OW29977   0.140   1.948  11.243  0.4375 -0.1406 -0.7349
 6114SOL    HW129978   0.132   1.900  11.160 -0.8472 -0.8735 -0.1893
 6114SOL    HW229979   0.056   1.925  11.284 -0.3275 -0.7638 -2.6340
 6115SOL     OW29980   4.664   1.583  13.198  0.2301 -0.0843  0.1447
 6115SOL    HW129981   4.577   1.583  13.157  1.9840  0.3328 -3.5089
 6115SOL    HW229982   4.717   1.616  13.126  0.4959  2.0250  1.2876
 6116SOL     OW29983   0.819   2.531   6.042  0.1727 -0.5644  0.5765
 6116SOL    HW129984   0.840   2.615   6.084  0.8337  0.0592 -0.9983
 6116SOL    HW229985   0.730   2.515   6.073 -0.3557 -1.4754 -1.4097
 6117SOL     OW29986   3.465   1.599   3.334 -0.4452  0.1771  0.1010
 6117SOL    HW129987   3.531   1.579   3.267  0.1546  0.6733  0.5523
 6117SOL    HW229988   3.509   1.565   3.412  0.5225 -0.1585 -0.5905
 6118SOL     OW29989   0.019   0.096   8.814 -0.0967  0.3724 -0.0489
 6118SOL    HW129990   4.681   0.073   8.763  0.7053 -0.4776 -0.8839
 6118SOL    HW229991   0.082   0.026   8.798 -1.3530  0.0193 -3.6115
 6119SOL     OW29992   0.573   2.960   5.950  0.2079 -0.1511  0.1712
 6119SOL    HW129993   0.620   3.031   5.994  1.4280  1.3684 -3.6221
 6119SOL    HW229994   0.550   2.912   6.030  1.9974 -1.0641  0.1379
 6120SOL     OW29995   0.076   3.228   3.747  0.2582 -0.3075 -0.6159
 6120SOL    HW129996   0.058   3.281   3.825  0.8579 -0.7379 -0.1796
 6120SOL    HW229997   0.022   3.150   3.763  0.9484 -0.5858  0.3951
 6121SOL     OW29998   4.698   1.394  16.894 -0.5169  0.2414  0.3108
 6121SOL    HW129999   4.686   1.311  16.847 -1.0900  0.3926  0.1967
 6121SOL    HW230000   4.679   1.454  16.823  2.1456 -0.0237 -0.6467
 6122SOL     OW30001   1.805   4.354   3.288  0.2530  0.1954  0.5823
 6122SOL    HW130002   1.826   4.409   3.363  1.7355 -1.9753  1.7547
 6122SOL    HW230003   1.806   4.269   3.331  0.9311  0.0562  0.2846
 6123SOL     OW30004   0.844   3.444  16.520  0.0743 -0.0786  0.2644
 6123SOL    HW130005   0.858   3.364  16.571  0.9627  0.1757  0.4245
 6123SOL    HW230006   0.913   3.439  16.454 -2.1518  0.7239 -2.1605
 6124SOL     OW30007   3.182   4.341   6.562  0.0794 -0.3108  0.3974
 6124SOL    HW130008   3.169   4.364   6.654  0.3604 -1.8724  0.8162
 6124SOL    HW230009   3.255   4.280   6.571  0.8791  0.6147  0.2373
 6125SOL     OW30010   2.189   1.712   3.479  0.4972  0.3501  0.1175
 6125SOL    HW130011   2.151   1.691   3.394  1.6728 -1.2822 -0.0000
 6125SOL    HW230012   2.212   1.625   3.511  1.8035  0.7371  0.2294
 6126SOL     OW30013   1.732   4.475   2.841  0.1726  0.1050 -0.2560
 6126SOL    HW130014   1.762   4.552   2.794  2.2022 -0.7585 -0.3720
 6126SOL    HW230015   1.770   4.495   2.926  0.8498 -3.6371  0.3577
 6127SOL     OW30016   4.228   2.608   6.487 -0.7646  0.4370  0.1027
 6127SOL    HW130017   4.221   2.702   6.470 -1.6747  0.0691 -1.5667
 6127SOL    HW230018   4.315   2.592   6.522  0.7129  0.0612 -3.7977
 6128SOL     OW30019   3.974   4.062   9.206  0.1630 -0.2124 -0.2685
 6128SOL    HW130020   3.887   4.052   9.169  1.2536 -2.9378 -2.0781
 6128SOL    HW230021   4.019   3.978   9.195  1.5512  0.5422 -0.3802
 6129SOL     OW30022   2.376   1.208  16.516  0.5150  0.0650 -0.6078
 6129SOL    HW130023   2.413   1.137  16.463  2.2194 -0.4936  1.3330
 6129SOL    HW230024   2.287   1.175  16.524  0.3134  0.6762 -0.3951
 6130SOL     OW30025   0.182   1.538   1.897 -0.1917 -0.5075 -0.5739
 6130SOL    HW130026   0.127   1.609   1.930 -0.1427  0.2585 -2.1232
 6130SOL    HW230027   0.131   1.521   1.818  0.3489 -0.4719 -0.9323
 6131SOL     OW30028   3.508   1.497   3.611 -0.1647 -0.0177  0.3949
 6131SOL    HW130029   3.546   1.485   3.698  0.2457 -0.0026  0.2185
 6131SOL    HW230030   3.440   1.432   3.630  0.6122 -1.0117 -0.1773
 6132SOL     OW30031   3.578   1.293   8.109 -0.0083 -0.0543  0.1565
 6132SOL    HW130032   3.573   1.388   8.120 -2.1126 -0.1512 -0.0535
 6132SOL    HW230033   3.666   1.277   8.144 -0.0359 -0.8730 -0.1483
 6133SOL     OW30034   1.987   0.105   6.369 -0.7123  0.0450  0.4537
 6133SOL    HW130035   1.904   0.138   6.333 -1.4004 -2.4017 -0.1628
 6133SOL    HW230036   2.004   0.175   6.432  0.4395  0.2647 -0.1025
 6134SOL     OW30037   2.985   0.103   4.909  0.6091 -0.2636  0.9243
 6134SOL    HW130038   3.032   0.026   4.939  0.4675 -0.8916 -0.4746
 6134SOL    HW230039   3.033   0.125   4.829  0.6925 -0.2636  0.9747
 6135SOL     OW30040   2.958   4.677   4.046  0.0817 -0.9133  0.3177
 6135SOL    HW130041   2.979   4.726   4.126 -1.9875  1.1868 -0.4494
 6135SOL    HW230042   2.866   4.699   4.037  0.6733  0.5245 -2.0933
 6136SOL     OW30043   1.752   1.762  10.653 -0.3514  0.8013 -0.1993
 6136SOL    HW130044   1.763   1.852  10.623 -1.8417  0.4897 -1.6468
 6136SOL    HW230045   1.678   1.771  10.713 -0.0542  2.2946 -0.0486
 6137SOL     OW30046   2.474   1.004   9.503 -0.6152 -0.0616  0.3394
 6137SOL    HW130047   2.539   0.950   9.549 -0.0224  0.9577  0.6870
 6137SOL    HW230048   2.498   0.994   9.411 -2.5777  0.8557 -0.2574
 6138SOL     OW30049   0.520   1.640   5.075 -0.1923  0.1594  0.5067
 6138SOL    HW130050   0.539   1.690   5.154  1.7518 -0.7984  0.6500
 6138SOL    HW230051   0.563   1.689   5.004 -0.3363 -0.6235 -0.1331
 6139SOL     OW30052   0.992   4.131   3.285 -0.1523  0.0139  0.3186
 6139SOL    HW130053   0.943   4.079   3.222 -2.6346  3.2802 -0.4393
 6139SOL    HW230054   1.063   4.167   3.233 -0.4782 -0.5544 -0.5135
 6140SOL     OW30055   3.568   1.686   5.185 -0.0046 -0.1280  0.5179
 6140SOL    HW130056   3.639   1.740   5.218  0.5399 -0.8777  0.5754
 6140SOL    HW230057   3.562   1.613   5.246  0.0344  1.2698  2.1812
 6141SOL     OW30058   0.318   2.297   7.990 -0.6956 -0.2969 -0.2226
 6141SOL    HW130059   0.307   2.280   8.084  0.5361 -0.1312 -0.0587
 6141SOL    HW230060   0.321   2.213   7.944  0.9191 -0.3572  0.0183
 6142SOL     OW30061   4.452   3.779   7.701  0.0704 -0.1897  0.2283
 6142SOL    HW130062   4.462   3.819   7.787  0.1354 -4.6042  2.2677
 6142SOL    HW230063   4.360   3.754   7.687 -1.0665  2.2541  3.3684
 6143SOL     OW30064   3.533   1.916   4.131 -0.1020  0.1478  0.3219
 6143SOL    HW130065   3.585   1.985   4.172 -0.0437  0.2323  0.1025
 6143SOL    HW230066   3.554   1.843   4.190  0.6932  1.0570  1.1574
 6144SOL     OW30067   2.733   4.681   8.710 -0.6455  0.2818  0.1761
 6144SOL    HW130068   2.740   4.651   8.619 -1.0815 -2.8389  1.1762
 6144SOL    HW230069   2.640   4.687   8.729 -0.6119  2.1250 -0.2923
 6145SOL     OW30070   0.086   3.221   2.030  0.1045  0.1028  0.2067
 6145SOL    HW130071   0.108   3.173   2.110  0.8934 -1.0193 -0.6822
 6145SOL    HW230072   0.173   3.224   1.989 -0.2428 -0.3608 -0.5762
 6146SOL     OW30073   1.090   3.825   9.464  0.2226  0.0170 -0.1952
 6146SOL    HW130074   1.116   3.916   9.473 -0.2171  0.0954  0.2556
 6146SOL    HW230075   1.047   3.818   9.379 -0.2405  1.1151 -0.0524
 6147SOL     OW30076   3.198   3.064   6.470  0.0259 -0.2301  0.1908
 6147SOL    HW130077   3.190   3.011   6.391  1.3159 -1.5568  0.9562
 6147SOL    HW230078   3.283   3.101   6.449 -0.7897  0.9271 -1.0500
 6148SOL     OW30079   4.317   1.778  15.654 -0.3190  0.4773  0.2362
 6148SOL    HW130080   4.248   1.730  15.610 -0.8249  0.6018  0.8961
 6148SOL    HW230081   4.337   1.841  15.584 -4.9291 -1.0927 -2.4773
 6149SOL     OW30082   1.307   2.909   3.518 -0.9248  0.2964  0.0785
 6149SOL    HW130083   1.326   2.817   3.537  0.1405  0.6619  0.7745
 6149SOL    HW230084   1.219   2.896   3.483 -1.1583 -1.8621  1.4632
 6150SOL     OW30085   0.157   1.952  16.403  0.2945 -0.4231 -0.3647
 6150SOL    HW130086   0.116   2.038  16.389 -1.7935 -1.4271 -0.4562
 6150SOL    HW230087   0.216   1.974  16.475  1.2734 -1.9068 -0.7233
 6151SOL     OW30088   3.059   0.002   7.857 -0.3484 -0.4687 -0.0519
 6151SOL    HW130089   3.074   0.094   7.880 -1.0728 -0.4375  0.3094
 6151SOL    HW230090   3.001   0.005   7.781  1.0833  3.4207 -0.9789
 6152SOL     OW30091   1.141   1.072   6.517 -0.1013 -0.7609  0.3585
 6152SOL    HW130092   1.192   1.070   6.436  0.2860  0.5166  0.5741
 6152SOL    HW230093   1.211   1.095   6.578 -1.6879  0.8368  1.5634
 6153SOL     OW30094   2.712   3.690   5.157 -0.0654 -0.1284  0.3781
 6153SOL    HW130095   2.660   3.712   5.080  0.2499 -0.3902  0.0917
 6153SOL    HW230096   2.764   3.618   5.121 -0.2284  0.2602 -0.6138
 6154SOL     OW30097   0.851   3.872   1.955  0.6144  0.1112 -0.0568
 6154SOL    HW130098   0.881   3.963   1.944  2.5879 -0.6809 -1.1843
 6154SOL    HW230099   0.922   3.839   2.009 -2.1378 -1.3398  2.6542
 6155SOL     OW30100   4.477   0.135   8.340 -0.6662  0.1312 -0.1207
 6155SOL    HW130101   4.447   0.054   8.298 -0.4149 -1.1212  2.1222
 6155SOL    HW230102   4.397   0.184   8.357 -0.1693  0.5495  1.0073
 6156SOL     OW30103   3.051   4.067   8.414  0.4422 -0.4068 -0.1754
 6156SOL    HW130104   3.104   4.020   8.349  1.8939  0.1185  0.6265
 6156SOL    HW230105   2.965   4.052   8.376  0.1542 -1.1335  0.7444
 6157SOL     OW30106   0.309   4.554   0.029  0.2307  0.4703  1.3616
 6157SOL    HW130107   0.353   4.632   0.061 -0.4197  1.2193  0.4384
 6157SOL    HW230108   0.227   4.590  17.753 -0.3986 -2.7300 -0.5837
 6158SOL     OW30109   3.533   4.323   3.069  0.1456  0.2374  0.1400
 6158SOL    HW130110   3.584   4.247   3.098 -2.3212 -1.5392 -0.2317
 6158SOL    HW230111   3.528   4.378   3.147 -1.1187  1.9797 -1.1478
 6159SOL     OW30112   1.730   3.065  14.317  0.1141  0.5295 -0.1951
 6159SOL    HW130113   1.793   3.081  14.387 -0.7578 -1.2213  0.9939
 6159SOL    HW230114   1.769   3.115  14.244  2.9989  1.4078  1.9477
 6160SOL     OW30115   3.224   0.198   4.438 -0.0519  0.7839 -0.2133
 6160SOL    HW130116   3.309   0.238   4.423  0.1361  0.1559 -0.8423
 6160SOL    HW230117   3.175   0.243   4.369  0.0036  0.7591 -0.2690
 6161SOL     OW30118   4.496   1.963   6.479 -0.7623  0.5082 -0.0920
 6161SOL    HW130119   4.556   1.916   6.421 -1.5138  2.2786 -2.3044
 6161SOL    HW230120   4.424   1.982   6.419 -0.2736  2.0867 -0.1889
 6162SOL     OW30121   0.419   4.518  13.190 -0.1995  0.6880 -0.1000
 6162SOL    HW130122   0.359   4.496  13.261 -0.2295 -0.2474 -0.4171
 6162SOL    HW230123   0.500   4.533  13.238  0.1561 -2.3421  0.2358
 6163SOL     OW30124   2.540   4.387   3.894 -0.0649 -0.2093 -0.6717
 6163SOL    HW130125   2.532   4.291   3.888 -2.4914  0.0907 -2.2971
 6163SOL    HW230126   2.567   4.415   3.807  0.8330  0.5756 -0.1421
 6164SOL     OW30127   0.284   1.794   4.127 -1.1445  0.0935  0.3769
 6164SOL    HW130128   0.299   1.764   4.216  0.6680 -0.3486 -0.0943
 6164SOL    HW230129   0.370   1.824   4.099 -1.5910  0.9887 -0.0639
 6165SOL     OW30130   3.064   4.037  14.546  0.3865  0.2582 -0.8204
 6165SOL    HW130131   3.113   4.088  14.609 -2.1235  0.0620  1.2931
 6165SOL    HW230132   3.001   3.990  14.601 -0.0662  1.6035 -0.1885
 6166SOL     OW30133   2.368   2.027   6.677  0.5399  0.0652 -0.1949
 6166SOL    HW130134   2.353   1.933   6.680  2.1392 -0.2756 -2.7002
 6166SOL    HW230135   2.431   2.033   6.606  0.6048  3.0484  0.1184
 6167SOL     OW30136   2.151   3.910   2.388  0.0462  0.0770  0.4053
 6167SOL    HW130137   2.196   3.869   2.314  0.7949 -1.1745  1.5695
 6167SOL    HW230138   2.081   3.847   2.403  1.1893 -1.3529 -0.2792
 6168SOL     OW30139   1.927   4.416  11.908 -0.2355  0.6989 -0.0563
 6168SOL    HW130140   2.016   4.452  11.916 -0.2431  0.5125  0.8916
 6168SOL    HW230141   1.877   4.477  11.961 -1.4183 -1.0589  0.8368
 6169SOL     OW30142   2.437   3.055   4.947  0.3267 -0.3674  0.2794
 6169SOL    HW130143   2.499   3.007   4.892  0.0942  0.4154 -0.6701
 6169SOL    HW230144   2.402   3.104   4.873  2.0747 -1.8174 -1.5062
 6170SOL     OW30145   3.174   4.415   6.832 -0.8907  0.0212  0.2477
 6170SOL    HW130146   3.106   4.349   6.844 -2.2982  1.3879 -0.2558
 6170SOL    HW230147   3.183   4.436   6.924 -2.4162  0.5115  0.2879
 6171SOL     OW30148   2.004   2.430   2.538 -0.1094 -0.2002 -0.0980
 6171SOL    HW130149   1.949   2.393   2.468 -1.7978 -1.2965  1.8050
 6171SOL    HW230150   2.048   2.352   2.572  1.3890 -0.5333 -2.7565
 6172SOL     OW30151   4.334   1.308   5.220  0.1644  0.0147 -0.0571
 6172SOL    HW130152   4.260   1.287   5.277 -0.8674  0.8585 -1.0586
 6172SOL    HW230153   4.304   1.269   5.138  2.5669  2.3771 -2.0601
 6173SOL     OW30154   2.110   2.681   7.603  0.3946  0.0401 -0.1265
 6173SOL    HW130155   2.153   2.625   7.539  0.4146 -0.3315  0.2078
 6173SOL    HW230156   2.127   2.770   7.572  2.8845 -0.1868  0.5221
 6174SOL     OW30157   0.813   1.721  17.642  0.1451  0.1150  0.0758
 6174SOL    HW130158   0.834   1.647  17.698 -3.2657  0.0623  1.2918
 6174SOL    HW230159   0.731   1.692  17.601 -0.1288 -0.8900  1.3640
 6175SOL     OW30160   2.610   1.012   8.291 -0.3247  0.4945  0.5692
 6175SOL    HW130161   2.663   1.051   8.361  2.7965 -1.3392 -0.7533
 6175SOL    HW230162   2.630   0.920   8.310  1.0326  0.7769  0.5557
 6176SOL     OW30163   2.405   3.679  17.020  0.5993  0.1521 -0.2818
 6176SOL    HW130164   2.320   3.635  17.014 -0.1037  1.3607  0.8022
 6176SOL    HW230165   2.396   3.717  17.107 -0.1909  1.9560 -1.1497
 6177SOL     OW30166   1.770   4.253   6.800 -0.0303  0.2900 -0.2663
 6177SOL    HW130167   1.761   4.338   6.843 -1.4995  0.3580 -0.7002
 6177SOL    HW230168   1.783   4.191   6.871 -3.2907  2.0441  1.8510
 6178SOL     OW30169   0.388   1.914   1.664 -0.0301 -0.2867  0.4497
 6178SOL    HW130170   0.367   1.821   1.679 -0.8342 -0.6382 -2.8403
 6178SOL    HW230171   0.429   1.899   1.579  0.7680  1.1534  0.5769
 6179SOL     OW30172   1.311   0.794   5.361 -0.1741 -0.1795  0.3488
 6179SOL    HW130173   1.236   0.745   5.393 -0.5920  2.1721  3.0069
 6179SOL    HW230174   1.271   0.880   5.345  2.2768  1.3610  2.4135
 6180SOL     OW30175   0.173   2.806   7.548 -0.3928  0.2171  0.4760
 6180SOL    HW130176   0.117   2.731   7.568 -0.3796  0.3215  0.8941
 6180SOL    HW230177   0.194   2.784   7.457 -0.1485  0.1782  0.5409
 6181SOL     OW30178   2.529   0.770   7.519  0.4060  0.4012 -0.9049
 6181SOL    HW130179   2.447   0.720   7.516  2.0758 -2.4989  1.3415
 6181SOL    HW230180   2.561   0.722   7.595  0.6102  0.9968 -0.6210
 6182SOL     OW30181   4.002   2.335   3.911  0.5896  0.3005 -0.3030
 6182SOL    HW130182   4.008   2.404   3.977 -1.0537  0.4855 -0.3614
 6182SOL    HW230183   3.933   2.359   3.849  0.0331  1.6581  0.8576
 6183SOL     OW30184   1.400   2.801   6.553 -0.1779  0.4417 -0.4268
 6183SOL    HW130185   1.371   2.836   6.469  2.1332  2.2831 -0.4528
 6183SOL    HW230186   1.427   2.880   6.600 -0.4464 -0.0058  0.4871
 6184SOL     OW30187   3.161   2.299  17.727 -0.2672  0.1021  0.2123
 6184SOL    HW130188   3.137   2.207  17.711  2.0554 -0.4559 -0.0028
 6184SOL    HW230189   3.153   2.345  17.644  1.9237 -1.2967 -0.7690
 6185SOL     OW30190   3.023   0.530   6.936  0.2473 -0.4412  0.2931
 6185SOL    HW130191   3.108   0.491   6.958  1.6861  1.4033 -1.8987
 6185SOL    HW230192   2.961   0.458   6.926  0.2266 -0.2222 -1.2432
 6186SOL     OW30193   3.086   2.714   4.974 -1.0034 -0.1822  0.6116
 6186SOL    HW130194   3.139   2.656   4.919  1.1065  1.0555  1.3519
 6186SOL    HW230195   3.069   2.650   5.043 -0.5783  0.4261  1.2885
 6187SOL     OW30196   0.172   1.344   3.898  0.5847 -0.5909 -0.1677
 6187SOL    HW130197   0.237   1.366   3.831 -1.5006 -0.5035 -2.1549
 6187SOL    HW230198   0.105   1.412   3.883  1.1116 -0.1782 -0.6319
 6188SOL     OW30199   2.824   4.497  17.757 -0.8838  0.0620  0.0344
 6188SOL    HW130200   2.825   4.504   0.095 -1.5622  0.4925  0.0054
 6188SOL    HW230201   2.873   4.574  17.730  0.6969 -1.4818 -1.5028
 6189SOL     OW30202   3.321   0.443  17.194 -0.1078  0.2158  0.1256
 6189SOL    HW130203   3.386   0.474  17.131  0.5843 -2.1542 -0.3306
 6189SOL    HW230204   3.281   0.377  17.137  0.0161  0.0652  0.2151
 6190SOL     OW30205   3.895   4.579  12.193 -0.5986 -0.4166  0.0757
 6190SOL    HW130206   3.810   4.619  12.209 -0.3339  0.4815 -0.7443
 6190SOL    HW230207   3.879   4.485  12.198 -0.9535 -0.4158 -0.9473
 6191SOL     OW30208   2.329   1.561   6.468 -0.3492 -0.5082  0.1407
 6191SOL    HW130209   2.416   1.575   6.430  0.0661 -0.4466  1.1257
 6191SOL    HW230210   2.356   1.491   6.526  1.1602 -1.1951 -1.3937
 6192SOL     OW30211   3.962   1.695   2.448 -0.1823  0.0005 -0.6237
 6192SOL    HW130212   4.040   1.746   2.423 -0.1538 -0.4658 -1.4985
 6192SOL    HW230213   4.006   1.636   2.509 -1.7569 -0.1904  0.2992
 6193SOL     OW30214   4.574   3.127   4.966  0.0991  0.3095 -0.3356
 6193SOL    HW130215   4.585   3.127   4.871 -0.5004  3.0375 -0.4180
 6193SOL    HW230216   4.484   3.094   4.964  0.1998  0.0270 -0.2257
 6194SOL     OW30217   2.589   1.294  12.857  0.0377 -0.8405  0.3390
 6194SOL    HW130218   2.597   1.382  12.819 -1.6401 -0.7882  0.0865
 6194SOL    HW230219   2.501   1.305  12.895  0.1054  1.8379 -0.2679
 6195SOL     OW30220   1.881   1.613   2.756 -0.1062 -0.1886  0.2660
 6195SOL    HW130221   1.803   1.653   2.793 -0.3961 -0.6175  0.1133
 6195SOL    HW230222   1.952   1.673   2.780  0.5618 -0.5409 -0.7896
 6196SOL     OW30223   1.994   2.641   4.183 -0.4736 -0.6181  0.0777
 6196SOL    HW130224   1.985   2.723   4.135  1.0328  0.7203  2.0553
 6196SOL    HW230225   2.064   2.597   4.136  1.0890  1.0248  0.8209
 6197SOL     OW30226   2.006   0.916   2.393  0.4318 -0.2678 -0.0903
 6197SOL    HW130227   1.960   0.912   2.309  0.1880  0.5965  0.0037
 6197SOL    HW230228   2.087   0.873   2.365  0.0532 -1.0545  0.0230
 6198SOL     OW30229   3.610   4.637   5.997  0.1419  0.1406  0.2419
 6198SOL    HW130230   3.700   4.620   6.025  0.5471  0.0062 -1.1560
 6198SOL    HW230231   3.573   4.549   5.996  2.4290 -0.8185  0.4266
 6199SOL     OW30232   0.863   3.916  10.082 -0.3314 -0.2450 -0.4042
 6199SOL    HW130233   0.913   3.917  10.164  0.4784 -1.4649 -0.8872
 6199SOL    HW230234   0.776   3.938  10.116 -0.5573  0.2631 -1.3245
 6200SOL     OW30235   4.653   3.200  14.473 -0.0961 -0.5291 -0.2774
 6200SOL    HW130236   4.738   3.205  14.517  1.4423 -1.9868 -3.1249
 6200SOL    HW230237   4.647   3.110  14.444 -0.5779 -0.7424  0.4782
 6201SOL     OW30238   2.831   1.997   3.855  0.4321  0.2599 -0.2902
 6201SOL    HW130239   2.741   2.030   3.861  0.9959  1.4368  1.7040
 6201SOL    HW230240   2.824   1.916   3.805 -0.8411  0.0513  0.2187
 6202SOL     OW30241   2.552   3.746   4.938  0.1998  0.1108  0.0520
 6202SOL    HW130242   2.487   3.676   4.935  0.9125 -0.5955  1.2158
 6202SOL    HW230243   2.577   3.755   4.846 -3.1923  2.0361 -0.6848
 6203SOL     OW30244   0.057   4.416   2.497 -0.6211  0.0318 -0.2543
 6203SOL    HW130245   0.016   4.453   2.419  0.0992  1.3436 -0.0039
 6203SOL    HW230246   0.118   4.353   2.459  0.7916  0.1716  1.7675
 6204SOL     OW30247   4.476   0.414   5.812 -0.2098 -0.4444  0.2067
 6204SOL    HW130248   4.409   0.477   5.840  1.6156  0.8885  1.5799
 6204SOL    HW230249   4.550   0.473   5.803  0.6085 -1.1766  2.2165
 6205SOL     OW30250   2.037   0.616   5.402 -0.3050  0.0272  0.0099
 6205SOL    HW130251   2.071   0.703   5.423 -0.8437  0.3055 -0.2608
 6205SOL    HW230252   1.943   0.633   5.392 -0.2027  1.4368  1.3685
 6206SOL     OW30253   3.199   4.245   3.318 -0.5747  0.1541 -0.1306
 6206SOL    HW130254   3.229   4.335   3.327  0.1642 -0.2191  1.2064
 6206SOL    HW230255   3.205   4.214   3.409 -0.1637 -2.2452 -0.9769
 6207SOL     OW30256   4.501   2.358   7.137 -0.3712 -0.4648 -0.0070
 6207SOL    HW130257   4.512   2.439   7.187 -2.8580 -0.6843  0.9052
 6207SOL    HW230258   4.549   2.375   7.057  0.1869 -3.2044 -0.2600
 6208SOL     OW30259   3.294   2.119   6.340 -0.7715  0.1967  0.2456
 6208SOL    HW130260   3.216   2.161   6.303 -0.8266  0.4828  0.6841
 6208SOL    HW230261   3.330   2.189   6.394 -0.6400  1.6187 -1.6847
 6209SOL     OW30262   4.248   1.940   9.169 -0.1451  0.5393 -0.5363
 6209SOL    HW130263   4.271   1.913   9.080 -3.0105  3.4290 -2.1398
 6209SOL    HW230264   4.187   2.011   9.150 -0.1046  1.5483  3.1015
 6210SOL     OW30265   1.433   2.859   9.490  0.2195  0.0077  0.1633
 6210SOL    HW130266   1.391   2.864   9.404  0.6226  0.8315  0.0122
 6210SOL    HW230267   1.521   2.889   9.466 -0.1949 -0.6950 -2.2123
 6211SOL     OW30268   3.518   0.312   3.672 -0.6442  0.2011  0.7595
 6211SOL    HW130269   3.520   0.253   3.747  0.6556 -2.3453 -1.2965
 6211SOL    HW230270   3.568   0.386   3.706 -0.7473  1.3321 -1.5107
 6212SOL     OW30271   1.986   3.176   3.748  0.4121  0.0798 -0.2656
 6212SOL    HW130272   1.895   3.194   3.770  0.9718  1.3574  0.9937
 6212SOL    HW230273   1.990   3.081   3.759  1.2226 -0.0280 -1.4100
 6213SOL     OW30274   2.092   0.092   7.327 -0.3746 -0.5311  0.3730
 6213SOL    HW130275   2.109   0.030   7.256  2.5793  0.7869 -0.0956
 6213SOL    HW230276   2.016   0.140   7.293 -0.7886  0.7691  3.1349
 6214SOL     OW30277   2.503   1.732   8.134 -0.1939  0.1577 -0.1651
 6214SOL    HW130278   2.543   1.736   8.047 -0.7903 -0.0687 -0.4497
 6214SOL    HW230279   2.511   1.638   8.152  1.0240  0.3697  0.3807
 6215SOL     OW30280   1.768   4.182   7.335 -0.2657  0.3871  0.0200
 6215SOL    HW130281   1.805   4.208   7.419  1.1696 -6.2975  1.5037
 6215SOL    HW230282   1.849   4.148   7.296 -0.4602  2.0435 -1.8364
 6216SOL     OW30283   2.338   0.580   2.419  0.1420  0.3564 -0.8275
 6216SOL    HW130284   2.396   0.535   2.357 -0.4512 -1.6285  0.0615
 6216SOL    HW230285   2.394   0.656   2.440  3.0401 -0.9992 -3.6092
 6217SOL     OW30286   1.962   1.127   6.769  0.2565 -0.1213 -0.7795
 6217SOL    HW130287   2.034   1.167   6.818 -3.1395  0.2551  3.9301
 6217SOL    HW230288   1.911   1.197   6.729 -2.3300 -0.4245  2.0312
 6218SOL     OW30289   1.815   1.912   5.125 -0.0102  0.1160  0.0761
 6218SOL    HW130290   1.780   1.835   5.170 -0.9150  1.1409  1.1209
 6218SOL    HW230291   1.909   1.897   5.133  0.0407  0.1936 -0.4133
 6219SOL     OW30292   4.639   2.747   7.315  0.3184  0.3322 -0.5521
 6219SOL    HW130293   4.727   2.780   7.294  0.2398  1.0769  0.3324
 6219SOL    HW230294   4.664   2.681   7.380  0.2903  1.5571  0.6982
 6220SOL     OW30295   1.088   4.025   0.885 -0.2913  0.6734 -0.0696
 6220SOL    HW130296   0.999   4.019   0.918 -1.2954  2.2414 -2.4760
 6220SOL    HW230297   1.071   4.083   0.811 -2.2243  1.8376  1.2955
 6221SOL     OW30298   4.310   4.303  16.794 -0.0109 -0.5953  0.6871
 6221SOL    HW130299   4.298   4.303  16.699  0.1348 -1.1932  0.6703
 6221SOL    HW230300   4.404   4.295  16.810  0.7236  1.7066 -2.5159
 6222SOL     OW30301   4.370   3.712  12.167 -0.1279 -0.8220  0.5638
 6222SOL    HW130302   4.412   3.797  12.154 -2.8420  0.5416  0.7229
 6222SOL    HW230303   4.447   3.663  12.193 -0.0704 -0.0492  1.8150
 6223SOL     OW30304   3.168   1.489   9.249  0.2059 -0.0915 -0.2978
 6223SOL    HW130305   3.244   1.513   9.301  0.6332 -1.1478 -0.4502
 6223SOL    HW230306   3.198   1.415   9.196  1.6859  0.4127 -0.1520
 6224SOL     OW30307   1.988   2.655   7.233 -0.3739 -0.3235  0.5696
 6224SOL    HW130308   1.950   2.719   7.293  0.8010 -0.0481  1.0209
 6224SOL    HW230309   1.972   2.578   7.289  1.5924  0.2815  1.9904
 6225SOL     OW30310   0.366   2.333  15.070  0.5103  0.4261 -0.6993
 6225SOL    HW130311   0.384   2.318  14.977 -0.9052  2.6938 -1.3182
 6225SOL    HW230312   0.280   2.375  15.061  0.3231  0.3741  0.7264
 6226SOL     OW30313   0.469   3.540  15.209 -0.1302 -0.3229 -0.8323
 6226SOL    HW130314   0.503   3.628  15.196  0.3293 -0.2987  0.4970
 6226SOL    HW230315   0.427   3.528  15.124 -1.8093 -0.0106 -0.0652
 6227SOL     OW30316   2.920   4.125  11.611  0.4165  0.0138  0.6295
 6227SOL    HW130317   2.920   4.078  11.694  0.0495 -0.6270  0.2659
 6227SOL    HW230318   2.985   4.083  11.555 -0.0421 -0.5989  0.5547
 6228SOL     OW30319   4.089   3.185   7.900 -0.4811  0.0434 -0.4283
 6228SOL    HW130320   4.158   3.230   7.852  0.2247 -2.0201 -1.3368
 6228SOL    HW230321   4.081   3.111   7.840  2.1888 -0.6807  0.1036
 6229SOL     OW30322   3.135   4.691   1.351 -0.3302 -0.0734 -0.0589
 6229SOL    HW130323   3.095   4.611   1.386  0.4389 -0.4748 -0.0826
 6229SOL    HW230324   3.087   4.690   1.268 -0.0460  1.6045 -0.2362
 6230SOL     OW30325   3.956   4.583   6.488  0.3783  0.6400  0.1126
 6230SOL    HW130326   3.869   4.590   6.449 -0.7388 -0.9866  2.2977
 6230SOL    HW230327   3.963   4.674   6.514  1.5298  0.7681 -0.6482
 6231SOL     OW30328   2.056   3.463   7.891  0.1832  0.3521 -0.0404
 6231SOL    HW130329   2.060   3.455   7.795 -0.2553  0.6491 -0.0841
 6231SOL    HW230330   2.015   3.548   7.906 -2.5848 -0.9651 -0.1136
 6232SOL     OW30331   1.860   1.227   7.259  0.2263 -0.2728 -0.1881
 6232SOL    HW130332   1.874   1.134   7.243  0.7546  0.0423 -1.5819
 6232SOL    HW230333   1.937   1.243   7.313 -0.7113 -0.2645  1.1295
 6233SOL     OW30334   0.300   0.251   1.317  0.2530 -0.5677  0.0148
 6233SOL    HW130335   0.220   0.204   1.341 -0.1410  0.5578  0.8869
 6233SOL    HW230336   0.374   0.203   1.354  2.4692 -0.4422 -4.2697
 6234SOL     OW30337   3.768   1.749   2.789  0.0545  0.4986 -0.0846
 6234SOL    HW130338   3.735   1.813   2.851  0.0642  1.9954 -1.6126
 6234SOL    HW230339   3.742   1.662   2.819  0.5066  0.7435  1.0000
 6235SOL     OW30340   3.235   2.699  12.180 -0.2118  0.6408  0.4248
 6235SOL    HW130341   3.298   2.736  12.241 -0.6740  0.6847  0.8783
 6235SOL    HW230342   3.294   2.626  12.166 -1.3947 -0.3707  0.6663
 6236SOL     OW30343   3.373   1.221   5.449  0.0183 -0.1061 -0.1169
 6236SOL    HW130344   3.354   1.259   5.363 -0.8584 -0.2206  0.0253
 6236SOL    HW230345   3.397   1.299   5.499  0.3799  0.3907 -1.0649
 6237SOL     OW30346   1.104   3.280   3.866 -0.2444 -0.3600 -0.2868
 6237SOL    HW130347   1.120   3.363   3.911  0.0072  0.6069 -2.1800
 6237SOL    HW230348   1.088   3.310   3.777 -1.8188 -0.3850 -0.0087
 6238SOL     OW30349   1.260   0.090   3.327 -0.2845  0.6213  0.1404
 6238SOL    HW130350   1.226   0.179   3.317 -1.3687  0.3155  1.0736
 6238SOL    HW230351   1.178   0.044   3.308  0.4761  0.6872 -3.3138
 6239SOL     OW30352   1.129   1.683   3.175 -0.6897  0.1093 -0.2171
 6239SOL    HW130353   1.043   1.719   3.153 -0.8096  0.9312  1.5585
 6239SOL    HW230354   1.130   1.671   3.270  0.2057  0.7658 -0.1518
 6240SOL     OW30355   3.468   1.795  10.707  0.7421 -0.1442 -0.4705
 6240SOL    HW130356   3.478   1.874  10.760 -0.7670 -1.9174  2.4684
 6240SOL    HW230357   3.544   1.811  10.652 -0.1470  2.8332 -0.7822
 6241SOL     OW30358   4.508   2.499   2.596 -0.3334  0.1229  0.0453
 6241SOL    HW130359   4.568   2.508   2.670  1.5434 -1.4754 -1.2778
 6241SOL    HW230360   4.520   2.585   2.558 -1.0085  0.2286  0.0605
 6242SOL     OW30361   1.593   2.181   2.695 -0.0599  0.1205  0.2747
 6242SOL    HW130362   1.573   2.157   2.785 -1.6096 -2.1272 -0.6661
 6242SOL    HW230363   1.605   2.097   2.651  0.1472 -1.2917  3.0525
 6243SOL     OW30364   0.299   2.926  12.801 -0.0691  0.0705  0.4604
 6243SOL    HW130365   0.302   3.015  12.766 -1.6007 -0.0140  0.0998
 6243SOL    HW230366   0.369   2.927  12.867 -1.3063  0.5708  1.7637
 6244SOL     OW30367   2.452   3.036   5.210  0.5549 -0.1307  0.3334
 6244SOL    HW130368   2.450   3.024   5.115 -3.6742  1.1191  0.2570
 6244SOL    HW230369   2.359   3.060   5.217  0.9195  0.8622  1.6204
 6245SOL     OW30370   1.297   3.470   7.010 -0.6736  0.1727  0.4900
 6245SOL    HW130371   1.220   3.486   6.955 -2.3682  1.0187  3.0782
 6245SOL    HW230372   1.258   3.502   7.092 -2.0241 -1.0126  0.3015
 6246SOL     OW30373   0.447   3.080   7.459 -0.4127  0.2077  0.2155
 6246SOL    HW130374   0.387   3.154   7.457  0.8281  1.2031 -0.1069
 6246SOL    HW230375   0.447   3.066   7.554 -1.5268  0.0375  0.1943
 6247SOL     OW30376   0.192   2.742   0.898 -0.3675 -0.7186 -0.1109
 6247SOL    HW130377   0.233   2.710   0.818 -1.5296 -1.9012 -0.2272
 6247SOL    HW230378   0.224   2.833   0.903  0.1144 -0.9783  1.8218
 6248SOL     OW30379   3.818   4.220   6.417  0.1513 -0.9525 -0.8092
 6248SOL    HW130380   3.752   4.218   6.348 -0.3355 -0.6738 -0.3507
 6248SOL    HW230381   3.883   4.193   6.352  0.9074  0.9405 -0.8308
 6249SOL     OW30382   4.223   0.858   4.149 -0.0044  0.1383  0.7409
 6249SOL    HW130383   4.149   0.889   4.201  0.9339  2.9362  0.3905
 6249SOL    HW230384   4.301   0.893   4.192  0.4431 -0.2718  0.2753
 6250SOL     OW30385   3.836   3.299   4.273 -0.4956  0.2403 -0.3051
 6250SOL    HW130386   3.910   3.311   4.213 -1.1957 -1.3271 -1.4754
 6250SOL    HW230387   3.801   3.216   4.240  0.5649  0.3986 -1.8435
 6251SOL     OW30388   4.082   3.624   1.641 -1.2765  0.0310 -0.0209
 6251SOL    HW130389   4.173   3.644   1.664 -1.3072 -1.2075  1.2467
 6251SOL    HW230390   4.067   3.695   1.579  2.3773 -0.2149 -1.1718
 6252SOL     OW30391   4.459   1.068   4.662  0.3901  0.0033  0.4368
 6252SOL    HW130392   4.383   1.033   4.615  0.6910  1.2725 -0.9797
 6252SOL    HW230393   4.468   1.162   4.647 -2.7211 -0.1735 -2.6847
 6253SOL     OW30394   2.659   1.666   7.063  0.6747  0.4514 -0.0009
 6253SOL    HW130395   2.628   1.681   7.152 -2.5889 -0.6008 -0.9341
 6253SOL    HW230396   2.752   1.653   7.081  0.4833 -0.3780  0.3686
 6254SOL     OW30397   3.996   0.187   8.514 -0.1798 -0.6895  0.4440
 6254SOL    HW130398   3.924   0.243   8.544 -0.5531  0.5431 -2.8061
 6254SOL    HW230399   3.955   0.105   8.541 -1.6193 -0.0528  0.1912
 6255SOL     OW30400   3.303   1.365   7.695 -0.4645  0.0701 -0.4560
 6255SOL    HW130401   3.316   1.294   7.757 -1.5651  0.0825 -0.2053
 6255SOL    HW230402   3.353   1.327   7.623  2.6911 -0.2760  1.9556
 6256SOL     OW30403   1.209   3.075   9.299  0.2338 -0.1804  0.5365
 6256SOL    HW130404   1.253   2.990   9.291  1.4855  0.4902  0.2918
 6256SOL    HW230405   1.283   3.136   9.288  1.8496 -1.6692  3.0122
 6257SOL     OW30406   0.078   2.285   6.010 -0.3236 -0.0884 -0.6021
 6257SOL    HW130407   0.147   2.227   5.975 -1.0570 -0.5902 -1.2193
 6257SOL    HW230408   0.082   2.255   6.101  0.7290 -0.1197 -0.6548
 6258SOL     OW30409   0.082   0.987  12.652  0.5688  0.0379  0.2740
 6258SOL    HW130410   0.117   0.983  12.741 -0.4039  0.4430  0.6762
 6258SOL    HW230411   0.108   0.901  12.620  1.4998  0.6720 -0.6896
 6259SOL     OW30412   3.649   0.390  10.626  0.6197 -0.6703  0.0935
 6259SOL    HW130413   3.645   0.481  10.594  0.9606 -0.4551  0.6633
 6259SOL    HW230414   3.591   0.353  10.560  0.4232 -2.6290  1.3852
 6260SOL     OW30415   2.691   3.647  10.594  0.4068 -0.0609  0.3785
 6260SOL    HW130416   2.694   3.656  10.690  0.5735 -0.6721  0.4304
 6260SOL    HW230417   2.615   3.592  10.575 -1.0430  1.4429  1.7742
 6261SOL     OW30418   2.932   4.260   6.893 -0.2225  0.2739 -0.8956
 6261SOL    HW130419   2.901   4.254   6.984  2.2881 -1.2591 -0.1494
 6261SOL    HW230420   2.913   4.353   6.883  0.1045  0.3843 -0.4612
 6262SOL     OW30421   1.906   1.613   4.266 -0.4656  0.4605 -0.6533
 6262SOL    HW130422   1.872   1.665   4.193 -0.8475  0.6422 -0.3408
 6262SOL    HW230423   1.989   1.660   4.277  0.7357 -2.1491  1.3811
 6263SOL     OW30424   4.367   1.442  16.600  0.4418 -0.2992 -0.4321
 6263SOL    HW130425   4.390   1.351  16.616  1.9779  0.0734 -0.5605
 6263SOL    HW230426   4.275   1.439  16.627  0.3974 -0.4785 -0.6006
 6264SOL     OW30427   4.676   4.564   5.530  0.0186 -0.5078 -0.9182
 6264SOL    HW130428   4.606   4.550   5.593 -1.1012 -0.0100 -2.0501
 6264SOL    HW230429   0.017   4.541   5.575 -0.8975  1.7185  1.8663
 6265SOL     OW30430   2.776   0.277   4.511  0.1112  0.4737  0.2741
 6265SOL    HW130431   2.693   0.260   4.466  0.4868 -0.2078 -0.1610
 6265SOL    HW230432   2.753   0.247   4.599 -0.4911 -2.3576 -0.8371
 6266SOL     OW30433   1.101   3.206  10.085  0.9204  0.2544  0.1808
 6266SOL    HW130434   1.165   3.264  10.125 -0.3094  0.7252  1.4718
 6266SOL    HW230435   1.160   3.175  10.017  1.6463 -1.3604  1.5489
 6267SOL     OW30436   3.368   0.892   0.500  0.3838  0.6076  0.0164
 6267SOL    HW130437   3.436   0.826   0.489  0.2256  0.7180 -1.5280
 6267SOL    HW230438   3.300   0.857   0.442  1.8899 -0.5183 -1.0392
 6268SOL     OW30439   2.138   3.359  14.728  0.1111  0.6278 -0.9362
 6268SOL    HW130440   2.067   3.296  14.718  0.8673 -0.0707 -1.9590
 6268SOL    HW230441   2.169   3.356  14.638 -0.7662  1.1345 -1.2542
 6269SOL     OW30442   2.308   0.599   2.963  0.1346  0.7224  0.0528
 6269SOL    HW130443   2.379   0.612   3.026  0.2733  2.1676 -0.4084
 6269SOL    HW230444   2.345   0.652   2.893 -0.7880  2.3634  0.8172
 6270SOL     OW30445   1.290   4.487  15.115  0.2627  0.2540  0.2702
 6270SOL    HW130446   1.210   4.496  15.063  0.9544 -0.5204 -0.9305
 6270SOL    HW230447   1.272   4.563  15.170  0.3821  0.3694  0.1475
 6271SOL     OW30448   0.076   0.676  17.036 -0.5445 -0.0984  0.1402
 6271SOL    HW130449   0.091   0.591  16.994 -1.6294  0.2486 -0.9648
 6271SOL    HW230450   0.139   0.739  17.001  1.4469 -2.3237 -0.2975
 6272SOL     OW30451   4.083   2.676  12.092 -0.3070 -0.2623 -0.4600
 6272SOL    HW130452   4.126   2.711  12.170 -0.6575 -0.7083 -0.0712
 6272SOL    HW230453   4.143   2.611  12.057  0.8576  0.7228 -0.2935
 6273SOL     OW30454   0.578   1.114  12.975  0.0019 -0.3751  0.4137
 6273SOL    HW130455   0.539   1.067  12.901  1.1365  1.8534 -1.6115
 6273SOL    HW230456   0.629   1.046  13.018 -0.7252 -0.0623  1.7431
 6274SOL     OW30457   0.504   3.185   3.606  0.1683 -0.6999  0.1047
 6274SOL    HW130458   0.444   3.259   3.614 -0.0228 -0.6657 -1.7575
 6274SOL    HW230459   0.443   3.113   3.626 -2.4722  1.3039 -0.6499
 6275SOL     OW30460   3.698   1.883   9.250  0.0586  0.4289  0.4502
 6275SOL    HW130461   3.714   1.918   9.163 -0.0322  0.3495  0.4020
 6275SOL    HW230462   3.756   1.807   9.258 -0.6095 -0.3445 -2.2562
 6276SOL     OW30463   0.457   3.065   7.731  0.0205 -0.1807 -0.5244
 6276SOL    HW130464   0.402   3.124   7.782  1.8284  0.7544  0.3380
 6276SOL    HW230465   0.492   3.008   7.800 -1.3175  1.2224  1.3139
 6277SOL     OW30466   0.087   1.737   8.695 -0.4023  0.1033  0.7063
 6277SOL    HW130467   0.177   1.761   8.676 -0.3492 -2.1286 -1.7869
 6277SOL    HW230468   0.086   1.646   8.725 -0.5947  0.1790  0.9363
 6278SOL     OW30469   3.658   3.918  15.717  0.4652 -0.0073 -0.5958
 6278SOL    HW130470   3.676   4.011  15.735  2.1313 -0.7066  1.2819
 6278SOL    HW230471   3.732   3.894  15.662  2.1209 -0.1184  1.6889
 6279SOL     OW30472   1.735   2.604  16.618  0.8086  0.3044  0.1163
 6279SOL    HW130473   1.683   2.609  16.698 -0.8773  0.3914 -0.9685
 6279SOL    HW230474   1.797   2.677  16.625  4.3363 -2.6155 -0.7730
 6280SOL     OW30475   3.060   1.831   7.034 -0.1637  0.4303 -0.0525
 6280SOL    HW130476   3.029   1.823   6.944 -0.1674  0.6025 -0.0682
 6280SOL    HW230477   3.151   1.803   7.026  0.4332  3.1232 -2.5846
 6281SOL     OW30478   2.016   3.832   8.670 -0.1355  0.2576  0.7382
 6281SOL    HW130479   1.968   3.811   8.589 -1.8928  1.0875  1.5542
 6281SOL    HW230480   1.950   3.829   8.740  1.2368 -0.9964  1.9702
 6282SOL     OW30481   4.248   1.845  15.912 -0.0424  0.5314 -0.0256
 6282SOL    HW130482   4.275   1.794  15.836 -2.4978 -0.4230 -0.2784
 6282SOL    HW230483   4.321   1.906  15.904  0.5600 -0.3102 -0.8719
 6283SOL     OW30484   4.072   2.557  13.394 -0.0608  0.0288  0.2190
 6283SOL    HW130485   4.152   2.604  13.369  0.1150 -0.7832 -0.7417
 6283SOL    HW230486   4.100   2.476  13.352  0.5407  1.3028 -1.8611
 6284SOL     OW30487   4.140   0.107   3.868  0.0085  0.4203 -0.2280
 6284SOL    HW130488   4.144   0.164   3.791 -1.7545  2.0520  0.8885
 6284SOL    HW230489   4.178   0.165   3.933 -0.0948  0.0897  0.1242
 6285SOL     OW30490   1.432   0.281   4.840  0.2301  0.2959 -0.0613
 6285SOL    HW130491   1.434   0.212   4.907  2.0506 -1.3282 -1.7886
 6285SOL    HW230492   1.525   0.286   4.816  0.3453 -0.2453  0.2513
 6286SOL     OW30493   3.653   1.415  16.829 -0.1524 -0.2106  0.1777
 6286SOL    HW130494   3.678   1.354  16.898  1.0755  0.4458  0.3168
 6286SOL    HW230495   3.581   1.369  16.785 -1.6570  1.3134  1.0865
 6287SOL     OW30496   2.510   3.464   9.153  0.1704 -0.3161  0.0402
 6287SOL    HW130497   2.491   3.395   9.216  0.4866 -2.0842 -1.7903
 6287SOL    HW230498   2.427   3.482   9.109  0.2761 -2.0224 -0.8535
 6288SOL     OW30499   2.150   4.474  13.168  0.1163 -0.6311  0.0321
 6288SOL    HW130500   2.197   4.428  13.237 -0.7643 -0.7638  0.5460
 6288SOL    HW230501   2.166   4.560  13.206 -1.8365 -1.4406  2.6517
 6289SOL     OW30502   0.915   4.279   5.364  0.6733 -0.3291  0.4744
 6289SOL    HW130503   0.979   4.328   5.416 -3.9015  3.8491  2.1335
 6289SOL    HW230504   0.970   4.247   5.292  1.0481 -1.3641  1.2228
 6290SOL     OW30505   0.022   3.817   9.790 -0.1787 -0.2884 -0.1237
 6290SOL    HW130506   0.103   3.766   9.799 -1.2783 -2.0982 -0.4033
 6290SOL    HW230507   4.736   3.770   9.711 -0.8865 -0.4659  0.2124
 6291SOL     OW30508   2.219   0.975   0.886  0.2354  0.3239  0.1436
 6291SOL    HW130509   2.207   0.952   0.793  2.1986  0.0291 -0.0412
 6291SOL    HW230510   2.147   0.923   0.920  1.1218 -1.1435 -0.2455
 6292SOL     OW30511   4.158   0.787  12.989 -0.5327 -0.4048  0.1684
 6292SOL    HW130512   4.081   0.830  12.952  0.3766 -0.0511 -1.3118
 6292SOL    HW230513   4.126   0.754  13.072  2.3120 -0.1073  1.3916
 6293SOL     OW30514   1.999   4.035   9.116 -0.6248 -0.3199 -0.2422
 6293SOL    HW130515   1.994   3.961   9.177 -1.4746 -0.4348 -0.4537
 6293SOL    HW230516   1.912   4.074   9.128 -0.6077  0.2265 -1.9345
 6294SOL     OW30517   1.268   4.720   3.582 -0.0700 -0.5053  0.1849
 6294SOL    HW130518   1.188   0.016   3.621  1.1234  0.0231  2.1675
 6294SOL    HW230519   1.257   0.004   3.490  1.7687 -0.0636  0.0719
 6295SOL     OW30520   1.818   2.335   2.785 -0.4450  0.1093 -0.0269
 6295SOL    HW130521   1.763   2.339   2.863  0.9697  2.3935  0.8413
 6295SOL    HW230522   1.756   2.317   2.713  0.0107  0.0981 -0.4143
 6296SOL     OW30523   2.359   2.908   5.896 -0.4895 -0.0795  0.5399
 6296SOL    HW130524   2.398   2.939   5.814 -1.1202 -0.8223 -0.0517
 6296SOL    HW230525   2.396   2.976   5.952  1.4722  0.8107 -1.8333
 6297SOL     OW30526   1.965   0.731   6.330  0.4630  0.3439 -0.0312
 6297SOL    HW130527   1.930   0.795   6.268  0.8520  0.2411 -0.3610
 6297SOL    HW230528   2.043   0.726   6.274 -0.5414  2.1615 -1.6132
 6298SOL     OW30529   1.736   1.615   5.179 -0.2404  0.3406  0.1589
 6298SOL    HW130530   1.673   1.570   5.122  0.9333 -0.0216 -0.8468
 6298SOL    HW230531   1.801   1.547   5.195 -1.3345 -0.5285  0.9008
 6299SOL     OW30532   4.653   4.559  15.740  0.0444 -0.4749  0.4024
 6299SOL    HW130533   4.731   4.527  15.787 -0.5682 -0.6661  1.3077
 6299SOL    HW230534   4.664   4.654  15.741  2.2413 -0.7226 -0.4517
 6300SOL     OW30535   3.106   0.665   7.434 -0.0848  0.0527 -0.1369
 6300SOL    HW130536   3.064   0.698   7.354  1.0096 -0.5915 -0.9904
 6300SOL    HW230537   3.088   0.572   7.420  0.7763 -0.1698  0.2119
 6301SOL     OW30538   1.217   2.408   1.276  0.6399  0.0324  0.5024
 6301SOL    HW130539   1.141   2.448   1.320 -2.3335 -3.0979 -1.7811
 6301SOL    HW230540   1.184   2.318   1.278 -0.0554  0.2878  0.6949
 6302SOL     OW30541   4.189   3.007  10.096  0.2212 -0.6637  0.6034
 6302SOL    HW130542   4.244   3.045  10.028  0.8821  1.4593  2.2809
 6302SOL    HW230543   4.127   2.958  10.042 -1.3830  0.9311  0.9918
 6303SOL     OW30544   4.342   2.489   0.981  0.0571  0.3983  0.1626
 6303SOL    HW130545   4.338   2.584   0.990 -3.1583  0.1156  1.7696
 6303SOL    HW230546   4.307   2.461   1.066  2.0601  0.5545  1.0487
 6304SOL     OW30547   1.786   3.863   6.742 -0.4219  0.3280  0.0835
 6304SOL    HW130548   1.773   3.863   6.647  0.2861  1.1575 -0.0159
 6304SOL    HW230549   1.736   3.786   6.766 -0.6497  0.3314 -0.3788
 6305SOL     OW30550   1.805   1.216   9.086  0.3905  0.2949 -0.3908
 6305SOL    HW130551   1.767   1.133   9.056  0.5097  0.3884 -0.8004
 6305SOL    HW230552   1.748   1.284   9.050 -1.1675 -1.6637 -1.6396
 6306SOL     OW30553   1.947   0.096  16.450  0.3618  0.0556  0.0182
 6306SOL    HW130554   1.926   0.145  16.530  2.2366 -0.5480  0.8757
 6306SOL    HW230555   2.016   0.151  16.414  0.7079  1.6406  3.0766
 6307SOL     OW30556   3.929   1.978   5.370  0.7632 -0.2559  0.0554
 6307SOL    HW130557   3.887   1.923   5.305  2.1695 -0.5452 -0.6136
 6307SOL    HW230558   4.021   1.956   5.355  1.0305 -0.0806  1.3935
 6308SOL     OW30559   3.083   0.380   8.147  0.6622  0.1683  0.3069
 6308SOL    HW130560   3.110   0.342   8.230  1.3895 -1.1824 -0.5553
 6308SOL    HW230561   3.153   0.442   8.126 -0.8649  1.9913  0.5249
 6309SOL     OW30562   2.184   1.320   2.579  0.0491  0.3422 -0.3626
 6309SOL    HW130563   2.100   1.364   2.561 -0.4244  0.0237  1.0339
 6309SOL    HW230564   2.186   1.245   2.519 -1.7337 -0.7161  0.9157
 6310SOL     OW30565   3.484   4.017  12.378  0.2218 -0.1051 -0.9934
 6310SOL    HW130566   3.455   3.939  12.331  1.0379 -0.7389 -0.4555
 6310SOL    HW230567   3.401   4.063  12.382  0.3111 -0.0173 -0.2003
 6311SOL     OW30568   3.105   4.020  14.009 -0.2704 -0.2224  0.7181
 6311SOL    HW130569   3.019   4.023  13.969 -0.3155 -0.7925  0.7702
 6311SOL    HW230570   3.128   3.930  13.984 -1.8255 -0.1490 -0.9101
 6312SOL     OW30571   3.003   2.578   2.970 -0.3852 -0.0338  0.0200
 6312SOL    HW130572   2.967   2.646   2.913 -0.8540  0.5690  1.0459
 6312SOL    HW230573   2.933   2.520   3.000 -0.3566  0.6781  1.4238
 6313SOL     OW30574   2.545   1.113   6.287 -0.3565  0.3988  0.1253
 6313SOL    HW130575   2.628   1.111   6.240 -0.3390 -0.7348  0.2141
 6313SOL    HW230576   2.492   1.166   6.227  2.3863  1.5380 -1.2703
 6314SOL     OW30577   1.248   0.667   7.892  0.3105  0.0280 -0.1912
 6314SOL    HW130578   1.273   0.692   7.803 -1.8719  1.1251 -0.4997
 6314SOL    HW230579   1.157   0.698   7.888  1.0021  2.1018 -0.1498
 6315SOL     OW30580   1.582   0.414   2.129 -0.0482 -0.3594  0.5981
 6315SOL    HW130581   1.668   0.376   2.115 -0.3179 -1.0576  0.8061
 6315SOL    HW230582   1.598   0.479   2.197 -0.2809 -0.1547  0.4566
 6316SOL     OW30583   0.308   0.540   0.140 -0.2942 -0.1831 -0.8340
 6316SOL    HW130584   0.317   0.462   0.195  1.6577  0.4630 -0.2459
 6316SOL    HW230585   0.218   0.532   0.108 -0.3525  0.4658 -0.8427
 6317SOL     OW30586   2.519   3.311  16.723 -0.0790  0.3413 -0.5735
 6317SOL    HW130587   2.591   3.354  16.677  1.4993 -0.5252  1.1220
 6317SOL    HW230588   2.446   3.354  16.678  0.4655  1.9422  0.0888
 6318SOL     OW30589   3.109   4.362   2.138  0.3156 -0.1962 -0.3516
 6318SOL    HW130590   3.032   4.306   2.125 -0.6122  1.4344 -1.9024
 6318SOL    HW230591   3.142   4.322   2.218  0.5086 -0.8228 -0.7484
 6319SOL     OW30592   1.609   2.840  12.238  0.1536 -0.4461 -0.6787
 6319SOL    HW130593   1.687   2.842  12.292  0.5098 -2.8426 -1.0876
 6319SOL    HW230594   1.562   2.921  12.258 -0.9850 -1.2068 -0.2150
 6320SOL     OW30595   3.352   4.120   2.335  0.3658  0.3611  0.0284
 6320SOL    HW130596   3.357   4.158   2.423 -0.3571  0.4819  0.0167
 6320SOL    HW230597   3.298   4.043   2.354 -0.9522  1.1572 -0.5543
 6321SOL     OW30598   0.603   1.335   9.940 -0.2549  0.0627 -0.0766
 6321SOL    HW130599   0.534   1.339   9.874  1.3401 -2.5791 -1.9008
 6321SOL    HW230600   0.662   1.405   9.912  0.2552  0.6020  2.3427
 6322SOL     OW30601   3.251   0.708   2.942  0.1330  0.2211  0.4463
 6322SOL    HW130602   3.273   0.777   3.005 -0.5092 -1.3236  2.3696
 6322SOL    HW230603   3.263   0.624   2.987 -1.2493  0.3755  1.1240
 6323SOL     OW30604   0.405   2.640   2.898  0.1417 -0.4216 -0.3837
 6323SOL    HW130605   0.328   2.696   2.892  0.8031  0.5803  0.5755
 6323SOL    HW230606   0.366   2.571   2.951 -0.4636  0.6019  0.4850
 6324SOL     OW30607   0.191   0.817  14.543 -0.2399 -0.1715 -0.6388
 6324SOL    HW130608   0.184   0.731  14.501 -0.3368  0.6971 -2.3904
 6324SOL    HW230609   0.136   0.859  14.477 -0.1414 -1.4287 -1.5079
 6325SOL     OW30610   2.412   1.630   1.571  0.0490 -0.3710 -0.1020
 6325SOL    HW130611   2.358   1.687   1.516  0.2015  1.1678  1.3718
 6325SOL    HW230612   2.446   1.564   1.510  1.6994 -0.1658  0.6292
 6326SOL     OW30613   4.465   1.711   7.546  0.4812 -0.7786 -0.0424
 6326SOL    HW130614   4.430   1.627   7.518 -1.5032 -0.4146  1.3221
 6326SOL    HW230615   4.381   1.757   7.557 -0.7588 -2.8922 -0.7211
 6327SOL     OW30616   4.304   1.592   5.606 -0.4316  0.5440 -0.0288
 6327SOL    HW130617   4.299   1.589   5.511  1.3440  0.1851 -0.1144
 6327SOL    HW230618   4.210   1.604   5.621 -1.1274 -1.4912 -2.6684
 6328SOL     OW30619   4.379   0.235   7.803 -0.3408 -0.0204  0.5358
 6328SOL    HW130620   4.446   0.253   7.738 -2.3274 -1.0720 -1.7834
 6328SOL    HW230621   4.417   0.260   7.887 -1.1750  0.4026  0.7906
 6329SOL     OW30622   3.819   4.006   5.996  0.0057 -0.5141 -0.0384
 6329SOL    HW130623   3.835   4.078   6.056  1.3665  0.3042 -1.3836
 6329SOL    HW230624   3.755   3.951   6.042 -1.7885  2.5782  1.1827
 6330SOL     OW30625   3.675   1.118   6.375  0.3898  0.0694  0.6187
 6330SOL    HW130626   3.716   1.123   6.288  0.7244  1.6139  0.8698
 6330SOL    HW230627   3.616   1.193   6.364  0.8209  0.4321  0.7863
 6331SOL     OW30628   2.383   1.117  10.787  0.0620  0.4358 -0.6520
 6331SOL    HW130629   2.435   1.080  10.858 -1.0061  0.8250  0.3392
 6331SOL    HW230630   2.405   1.061  10.712 -0.1417 -0.3215 -0.1562
 6332SOL     OW30631   0.413   0.150   6.123 -0.1752 -0.8465 -0.5725
 6332SOL    HW130632   0.376   0.219   6.068 -3.7884 -1.5783  0.9191
 6332SOL    HW230633   0.468   0.196   6.186  0.6281 -0.4157 -1.5804
 6333SOL     OW30634   2.384   2.243   3.241 -0.8017 -0.3224 -0.1331
 6333SOL    HW130635   2.335   2.323   3.223 -1.7205 -0.4402  1.8513
 6333SOL    HW230636   2.420   2.214   3.157 -0.0050  2.1179 -0.6266
 6334SOL     OW30637   3.954   0.829   6.589  0.2292 -0.0275  0.0250
 6334SOL    HW130638   3.942   0.918   6.557 -0.1668 -0.4210 -0.9269
 6334SOL    HW230639   4.037   0.800   6.552  1.3054  2.1313  0.7339
 6335SOL     OW30640   0.499   2.699   5.288  0.0277  0.6193 -0.0390
 6335SOL    HW130641   0.515   2.772   5.348  1.1570 -1.3175  1.9764
 6335SOL    HW230642   0.424   2.659   5.330 -0.5351  1.7493  0.0366
 6336SOL     OW30643   0.498   0.553  15.544  0.4513 -0.2997 -0.4927
 6336SOL    HW130644   0.523   0.480  15.487 -0.6922  1.3066 -3.0447
 6336SOL    HW230645   0.411   0.581  15.515 -0.3241 -1.3928  0.7306
 6337SOL     OW30646   4.515   4.368   9.534 -0.6499 -0.1608  0.8557
 6337SOL    HW130647   4.561   4.351   9.452  0.5154  1.2098  1.2216
 6337SOL    HW230648   4.423   4.355   9.511 -0.3028  0.3972 -0.8227
 6338SOL     OW30649   4.522   0.076   3.126  0.0167  0.9294 -0.2480
 6338SOL    HW130650   4.599   0.104   3.175 -0.0866 -1.7761  1.4236
 6338SOL    HW230651   4.534   4.722   3.131 -1.0705  0.7806 -0.4786
 6339SOL     OW30652   3.879   2.418   7.528 -0.2414 -0.0148 -0.4298
 6339SOL    HW130653   3.846   2.378   7.448  1.0021 -1.6650 -0.1146
 6339SOL    HW230654   3.832   2.367   7.593  1.7068 -0.0135  0.9806
 6340SOL     OW30655   3.710   4.640   3.437 -0.1455  0.1317 -0.1611
 6340SOL    HW130656   3.678   4.660   3.524  2.5143  1.1774  0.5802
 6340SOL    HW230657   3.747   4.725   3.411 -0.5136  0.7491  1.3695
 6341SOL     OW30658   2.565   2.354  11.916  0.1656 -0.5996  0.1750
 6341SOL    HW130659   2.558   2.418  11.845 -1.0987 -0.5890  0.2945
 6341SOL    HW230660   2.635   2.394  11.968  0.6296 -3.3689  1.6442
 6342SOL     OW30661   2.815   3.632   7.426  0.5429  0.3362 -0.0978
 6342SOL    HW130662   2.727   3.597   7.440  0.1748  0.3042 -2.3856
 6342SOL    HW230663   2.865   3.550   7.424  0.8196  0.4452  2.3644
 6343SOL     OW30664   2.539   0.336   4.821  0.1916 -0.5135  0.0464
 6343SOL    HW130665   2.628   0.301   4.815  1.3943  2.7102 -0.9735
 6343SOL    HW230666   2.524   0.356   4.914  2.3532  0.9462  0.0931
 6344SOL     OW30667   3.253   4.569   5.341  0.0280 -0.3680 -0.5156
 6344SOL    HW130668   3.203   4.589   5.420 -1.6359 -2.6871 -0.9645
 6344SOL    HW230669   3.199   4.502   5.299 -1.1035 -0.9896  1.9259
 6345SOL     OW30670   0.984   1.722   4.006  0.0572  0.1223 -0.1143
 6345SOL    HW130671   0.904   1.670   4.001  0.5359 -0.7388  1.2074
 6345SOL    HW230672   1.044   1.649   3.992  1.2421  1.1369 -0.3497
 6346SOL     OW30673   4.548   3.964   2.521  0.0098  0.2564  0.2199
 6346SOL    HW130674   4.502   4.047   2.510  3.2219  2.0357  0.4254
 6346SOL    HW230675   4.544   3.957   2.617 -2.7825 -4.8315 -0.2505
 6347SOL     OW30676   3.916   3.484   3.319  0.1373  0.2968  0.1197
 6347SOL    HW130677   3.920   3.466   3.225 -1.8398  2.1269 -0.2936
 6347SOL    HW230678   4.010   3.503   3.321  0.2903 -0.5004  0.4459
 6348SOL     OW30679   3.134   2.578   5.270 -0.0199 -0.3412  0.4798
 6348SOL    HW130680   3.109   2.665   5.302  0.4109 -0.1196  0.2257
 6348SOL    HW230681   3.056   2.529   5.245 -1.2949  2.2128 -0.5942
 6349SOL     OW30682   0.914   2.041   6.672 -0.0763  0.1457  0.2859
 6349SOL    HW130683   0.896   2.126   6.633 -2.4493  0.0951  1.2379
 6349SOL    HW230684   0.855   2.041   6.748 -0.1754  2.6408  0.2058
 6350SOL     OW30685   4.053   1.059  17.078 -0.0945  0.0466  0.3786
 6350SOL    HW130686   4.052   1.066  17.174  1.6505  0.8690  0.3522
 6350SOL    HW230687   3.961   1.048  17.057 -0.0801  1.0517 -0.1702
 6351SOL     OW30688   1.563   1.023  15.358 -0.1172 -0.0599  0.6095
 6351SOL    HW130689   1.644   1.070  15.342  0.3889 -0.7832  1.0506
 6351SOL    HW230690   1.563   0.959  15.287  1.2831  1.8194 -1.0603
 6352SOL     OW30691   0.870   3.053   4.388 -0.0948  0.1845  0.4536
 6352SOL    HW130692   0.808   2.997   4.435  0.2225  0.0784  0.7442
 6352SOL    HW230693   0.856   3.141   4.424 -1.3440  0.3766 -0.4644
 6353SOL     OW30694   1.129   4.546  16.169 -0.2192 -1.0372  0.8621
 6353SOL    HW130695   1.091   4.634  16.164  0.6781 -0.7177 -0.1831
 6353SOL    HW230696   1.212   4.567  16.128  0.0473 -3.1203  0.3601
 6354SOL     OW30697   3.772   2.613  11.171 -0.2339 -0.0925 -0.3887
 6354SOL    HW130698   3.691   2.628  11.220 -0.2798 -1.6067 -0.0156
 6354SOL    HW230699   3.811   2.701  11.169  0.9325 -0.5989  0.1947
 6355SOL     OW30700   4.255   3.679   6.916 -0.5516  0.0913  0.7394
 6355SOL    HW130701   4.175   3.629   6.931 -0.2800  0.2743  2.7743
 6355SOL    HW230702   4.294   3.692   7.002 -1.4121  0.2942  1.0994
 6356SOL     OW30703   1.530   3.922   1.311 -0.1444 -0.1143  0.0245
 6356SOL    HW130704   1.608   3.915   1.366 -1.8991  2.7384  2.8409
 6356SOL    HW230705   1.470   3.963   1.373  0.9538  0.5266  0.6683
 6357SOL     OW30706   0.450   0.162   4.573  0.0214 -0.0700 -0.2525
 6357SOL    HW130707   0.474   0.081   4.617 -1.3333 -0.0693  0.4860
 6357SOL    HW230708   0.532   0.192   4.534 -0.0097 -1.8221 -1.6538
 6358SOL     OW30709   0.056   0.701   2.820 -0.0347 -0.6871 -0.1165
 6358SOL    HW130710   4.716   0.752   2.812  0.3499  0.0294  0.5945
 6358SOL    HW230711   0.067   0.703   2.915  0.1857 -0.1950 -0.1516
 6359SOL     OW30712   2.507   3.555   7.191 -0.3425 -0.1647  0.2724
 6359SOL    HW130713   2.586   3.555   7.137 -0.4999  3.2645  0.0237
 6359SOL    HW230714   2.473   3.467   7.172 -0.4826 -0.2647  0.9556
 6360SOL     OW30715   0.749   0.523   7.622 -0.4025 -0.3896  0.5155
 6360SOL    HW130716   0.677   0.522   7.557 -1.3326  2.4602  1.4893
 6360SOL    HW230717   0.758   0.616   7.642 -1.8405 -0.1274  0.0076
 6361SOL     OW30718   1.273   2.407   6.599  0.2152 -0.1643  0.6418
 6361SOL    HW130719   1.362   2.429   6.569  0.2440  1.0486  1.6016
 6361SOL    HW230720   1.267   2.488   6.649  0.0635 -0.2445  0.7508
 6362SOL     OW30721   1.277   2.803  12.430  0.6527  0.4346 -0.1124
 6362SOL    HW130722   1.343   2.811  12.498  0.1073  1.9963  0.2182
 6362SOL    HW230723   1.289   2.878  12.371  0.3323  0.4675 -0.1358
 6363SOL     OW30724   4.670   2.147   5.536  0.5178 -1.4317 -0.7993
 6363SOL    HW130725   4.686   2.071   5.480  2.3283  0.7148 -3.1751
 6363SOL    HW230726   4.664   2.213   5.467  0.3850 -0.2144  0.3814
 6364SOL     OW30727   1.446   4.690  16.271  0.0072 -0.3588  0.0632
 6364SOL    HW130728   1.406   4.635  16.339  1.3554  1.1978  2.1054
 6364SOL    HW230729   1.536   4.660  16.282 -0.7642 -1.8967  2.2776
 6365SOL     OW30730   1.335   3.929   7.826 -0.3950 -0.3834 -0.2910
 6365SOL    HW130731   1.382   3.952   7.746  1.1893  1.6336  1.2349
 6365SOL    HW230732   1.348   4.001   7.888 -0.1523 -0.7531  0.0859
 6366SOL     OW30733   1.544   1.037   5.095  0.4924 -0.1949 -0.2668
 6366SOL    HW130734   1.599   1.055   5.171  1.2504 -0.8749 -0.6559
 6366SOL    HW230735   1.593   1.095   5.037 -0.8423  0.7222 -0.4894
 6367SOL     OW30736   1.036   1.427  13.327  0.1384 -0.1233  0.4555
 6367SOL    HW130737   1.054   1.404  13.236  1.6725  1.8448  0.2748
 6367SOL    HW230738   1.028   1.522  13.325  0.1383 -0.1619 -1.5694
 6368SOL     OW30739   2.061   1.439   7.402  0.0929  0.2306  0.2699
 6368SOL    HW130740   1.996   1.509   7.395 -0.1799 -0.1347 -0.7923
 6368SOL    HW230741   2.117   1.472   7.472 -0.2674  1.1235  0.1342
 6369SOL     OW30742   1.395   3.642   1.564  0.2764  0.7351 -0.1481
 6369SOL    HW130743   1.338   3.668   1.493 -2.4689  0.8332  2.0796
 6369SOL    HW230744   1.329   3.627   1.632  0.7745  1.3211  0.4833
 6370SOL     OW30745   4.466   1.111   5.365 -0.4131 -0.0374 -0.4715
 6370SOL    HW130746   4.495   1.133   5.453 -0.6790 -1.3953 -0.0532
 6370SOL    HW230747   4.435   1.194   5.329 -1.9516  0.5441  2.2102
 6371SOL     OW30748   4.078   1.196   8.810  0.0671 -0.1261 -0.3766
 6371SOL    HW130749   4.131   1.240   8.877 -0.5209 -0.1771  0.1230
 6371SOL    HW230750   4.005   1.158   8.859 -0.5073  3.2528  1.3986
 6372SOL     OW30751   0.809   0.013  11.022 -0.1531  0.1509 -0.4520
 6372SOL    HW130752   0.719   0.022  11.052 -0.6074 -2.4146 -1.0715
 6372SOL    HW230753   0.807   0.094  10.971 -1.8753  2.6957  3.6480
 6373SOL     OW30754   2.550   4.125  17.581 -0.6527  0.5970  0.7860
 6373SOL    HW130755   2.604   4.088  17.650  1.0900 -0.4648 -1.1670
 6373SOL    HW230756   2.550   4.218  17.601 -1.9445  0.6194  0.7278
 6374SOL     OW30757   3.766   1.291   2.745 -0.5416  0.0582 -0.0942
 6374SOL    HW130758   3.720   1.228   2.689 -0.7746  0.6613 -0.5870
 6374SOL    HW230759   3.857   1.275   2.721  0.4940  1.1938  3.0892
 6375SOL     OW30760   0.830   3.454   1.672  0.4366 -0.4792  0.2986
 6375SOL    HW130761   0.909   3.503   1.648  1.8832 -2.9632 -0.0972
 6375SOL    HW230762   0.851   3.383   1.611 -0.7997  0.8833 -1.6919
 6376SOL     OW30763   2.477   3.419   4.078  0.0894  0.2658 -0.3666
 6376SOL    HW130764   2.399   3.365   4.074 -0.8556  1.5369  0.8939
 6376SOL    HW230765   2.534   3.343   4.088 -2.3615 -1.2441  1.8458
 6377SOL     OW30766   2.767   3.681   5.859  0.3353 -0.4833  0.4483
 6377SOL    HW130767   2.745   3.703   5.769 -2.6375 -0.6919  1.1396
 6377SOL    HW230768   2.682   3.660   5.897 -0.2094 -0.5222 -0.7854
 6378SOL     OW30769   0.767   2.147   4.672  0.0708  0.6300  0.1118
 6378SOL    HW130770   0.766   2.189   4.758  0.3106 -0.4411  0.6397
 6378SOL    HW230771   0.807   2.062   4.691 -0.8673  0.2734  0.4625
 6379SOL     OW30772   2.202   4.588  15.696  0.0316  0.0983  0.2789
 6379SOL    HW130773   2.279   4.555  15.649 -1.4705 -0.0853 -2.0877
 6379SOL    HW230774   2.150   4.623  15.624 -0.2716 -0.7690  0.0762
 6380SOL     OW30775   3.232   1.699   6.683  0.1931  0.2649 -0.1360
 6380SOL    HW130776   3.162   1.745   6.731 -0.1907 -2.0174  1.4586
 6380SOL    HW230777   3.268   1.763   6.621 -1.3988  0.1021 -1.2221
 6381SOL     OW30778   3.386   2.695   2.636 -0.3838  0.4956  0.7073
 6381SOL    HW130779   3.472   2.658   2.656  1.6655  3.9633 -1.6216
 6381SOL    HW230780   3.343   2.615   2.667  0.0410 -0.1262 -0.2828
 6382SOL     OW30781   3.671   0.702   3.583  0.3473 -0.3738  0.1737
 6382SOL    HW130782   3.696   0.794   3.592  0.9249 -0.2162 -2.8911
 6382SOL    HW230783   3.576   0.705   3.591  0.2137 -2.7716 -0.4823
 6383SOL     OW30784   2.671   3.535   8.323 -0.0690 -0.0275 -0.4428
 6383SOL    HW130785   2.695   3.628   8.325  0.4794 -0.2461  2.1389
 6383SOL    HW230786   2.638   3.521   8.234 -0.2920  0.3878 -0.4275
 6384SOL     OW30787   4.126   4.418   1.504 -0.1708 -0.2551  0.1737
 6384SOL    HW130788   4.086   4.333   1.486  4.1602 -2.0068 -1.3014
 6384SOL    HW230789   4.219   4.398   1.514 -0.1511  0.0862  0.6904
 6385SOL     OW30790   3.122   4.494  11.812 -0.0840  0.2406  0.2237
 6385SOL    HW130791   3.061   4.546  11.759  1.6422  4.0029  1.9757
 6385SOL    HW230792   3.158   4.558  11.873  1.1673  0.3541 -0.6427
 6386SOL     OW30793   0.737   3.646   2.910 -0.3956 -0.2070  0.0706
 6386SOL    HW130794   0.676   3.713   2.942  0.3187  0.6822 -0.4376
 6386SOL    HW230795   0.755   3.673   2.820 -0.8179  0.6951  0.2514
 6387SOL     OW30796   2.397   3.947   4.313  0.2308 -0.4754  0.2670
 6387SOL    HW130797   2.450   3.929   4.391  0.9564 -1.4852 -0.4601
 6387SOL    HW230798   2.307   3.930   4.341  0.6907 -0.5037  1.7727
 6388SOL     OW30799   2.409   1.191   2.809 -0.0423 -0.0395 -0.0588
 6388SOL    HW130800   2.318   1.219   2.802 -0.1717 -0.7330 -1.0093
 6388SOL    HW230801   2.460   1.265   2.842 -0.2917  0.2262 -0.2752
 6389SOL     OW30802   3.861   2.880   5.376  0.1078  0.1153 -0.3229
 6389SOL    HW130803   3.924   2.942   5.413 -2.2482  2.5278 -0.3888
 6389SOL    HW230804   3.813   2.869   5.457  1.7460 -1.3416  0.4467
 6390SOL     OW30805   0.485   3.765   6.839 -0.1416 -0.4129  0.7268
 6390SOL    HW130806   0.559   3.823   6.822 -1.2581  0.3755 -1.4930
 6390SOL    HW230807   0.523   3.725   6.916 -0.1823 -0.7946  0.5489
 6391SOL     OW30808   0.193   0.806   7.745 -0.7008 -0.0152 -0.5359
 6391SOL    HW130809   0.138   0.857   7.805  3.2080  2.3131  1.0584
 6391SOL    HW230810   0.274   0.855   7.753 -0.6070 -0.3370  0.4353
 6392SOL     OW30811   2.309   3.850   2.607  0.2695 -0.3421  0.3951
 6392SOL    HW130812   2.309   3.914   2.678 -0.8715 -0.0040  0.0975
 6392SOL    HW230813   2.249   3.901   2.553 -1.4920 -2.6108  0.2319
 6393SOL     OW30814   2.345   2.396  17.075 -0.5263  0.3812  0.2146
 6393SOL    HW130815   2.259   2.357  17.058 -1.3372  4.6189 -5.1437
 6393SOL    HW230816   2.365   2.361  17.162  0.1085 -0.9792 -0.4817
 6394SOL     OW30817   3.804   4.174   0.296 -0.1462  0.0155 -0.0664
 6394SOL    HW130818   3.760   4.127   0.368 -1.3886 -0.7214 -1.3091
 6394SOL    HW230819   3.740   4.243   0.276 -0.1486  0.4569  1.4353
 6395SOL     OW30820   2.350   3.471   6.554 -0.7006 -0.0325  0.0446
 6395SOL    HW130821   2.445   3.456   6.558 -0.9152 -1.6880 -1.3636
 6395SOL    HW230822   2.344   3.480   6.459  0.1651  2.0459  0.1947
 6396SOL     OW30823   3.264   2.557   2.844  0.6288  0.0187  0.5089
 6396SOL    HW130824   3.173   2.562   2.872  0.3582 -0.9640 -0.1552
 6396SOL    HW230825   3.315   2.600   2.912  1.3583  0.5922 -0.3896
 6397SOL     OW30826   0.439   0.909   5.391  0.1891  0.3807 -0.1038
 6397SOL    HW130827   0.406   0.990   5.350 -1.7701 -1.0438 -1.3570
 6397SOL    HW230828   0.529   0.911   5.358 -0.4984 -0.2125 -2.0308
 6398SOL     OW30829   2.857   0.885   6.982 -0.0839 -0.0863 -0.5399
 6398SOL    HW130830   2.763   0.900   6.973 -0.1209  2.3588  3.4346
 6398SOL    HW230831   2.888   0.829   6.911  2.8638  0.7891  0.0487
 6399SOL     OW30832   2.903   0.613   0.759  0.3680 -0.3092  0.1893
 6399SOL    HW130833   2.955   0.691   0.739 -0.1733  0.3079  1.1923
 6399SOL    HW230834   2.899   0.623   0.854  2.1873 -5.5284  0.7704
 6400SOL     OW30835   0.050   3.600   2.674  0.0545 -0.1627  0.2743
 6400SOL    HW130836   0.019   3.511   2.692 -2.2462  0.4071 -0.9010
 6400SOL    HW230837   0.028   3.657   2.746  0.4059  0.6273 -0.2426
 6401SOL     OW30838   1.334   2.044   3.055  0.6886  0.3997 -0.3096
 6401SOL    HW130839   1.313   1.970   2.997 -1.0044 -0.2273  1.0824
 6401SOL    HW230840   1.426   2.063   3.038  1.2645 -1.4548  0.8309
 6402SOL     OW30841   2.098   2.962  13.749  0.0444 -0.1903 -0.1910
 6402SOL    HW130842   2.022   2.967  13.692 -1.4885 -1.0204  1.7594
 6402SOL    HW230843   2.069   2.922  13.832  0.0350 -2.5692 -1.3376
 6403SOL     OW30844   4.565   0.688  15.131 -0.0961  1.1056  0.3977
 6403SOL    HW130845   4.560   0.674  15.037 -0.3848 -0.0800  0.5839
 6403SOL    HW230846   4.486   0.740  15.147  0.5063  1.6198  1.7176
 6404SOL     OW30847   4.549   0.592   5.502  0.1775  0.1246 -1.0869
 6404SOL    HW130848   4.636   0.633   5.512  0.1561 -0.1723  0.2532
 6404SOL    HW230849   4.501   0.672   5.478  0.0281  0.1793 -0.5945
 6405SOL     OW30850   1.913   1.957   3.254 -0.1372  0.0446  0.1570
 6405SOL    HW130851   1.851   1.896   3.296 -0.6626 -0.7253 -1.7087
 6405SOL    HW230852   1.865   2.037   3.275 -0.1324  0.8631 -2.8438
 6406SOL     OW30853   1.790   0.081  12.513  0.1318  0.0802 -0.0604
 6406SOL    HW130854   1.738   0.120  12.442 -0.7758 -0.5007  0.2901
 6406SOL    HW230855   1.725   0.046  12.574 -0.4708  1.7560  0.2569
 6407SOL     OW30856   4.241   3.626   9.832 -0.1915 -0.2868  0.3610
 6407SOL    HW130857   4.289   3.544   9.849 -1.2985 -0.8101  0.9973
 6407SOL    HW230858   4.309   3.687   9.859  0.2170  0.1297 -1.6180
 6408SOL     OW30859   2.021   2.259   3.645  0.0290  0.1323  0.3053
 6408SOL    HW130860   2.111   2.271   3.676 -0.3919 -2.1407  2.4454
 6408SOL    HW230861   2.017   2.171   3.606 -0.1605 -0.7493  2.3025
 6409SOL     OW30862   4.200   0.953  16.901 -0.0072 -0.5906 -0.0995
 6409SOL    HW130863   4.244   0.880  16.945 -0.3402  0.1711  1.4887
 6409SOL    HW230864   4.159   1.003  16.971  0.1411 -0.7822  0.1227
 6410SOL     OW30865   0.145   3.192   5.810 -0.6358 -0.5673  0.1290
 6410SOL    HW130866   0.240   3.183   5.821 -0.6365 -2.7212 -1.5941
 6410SOL    HW230867   0.148   3.283   5.782 -0.9993 -0.4620  0.4347
 6411SOL     OW30868   1.382   2.237   7.374  0.0213  0.2253  0.4766
 6411SOL    HW130869   1.399   2.300   7.304  0.1761 -0.3601 -0.0069
 6411SOL    HW230870   1.402   2.158   7.324 -0.0753 -0.2647  1.2167
 6412SOL     OW30871   1.756   1.779   4.823 -0.3213  0.2376  0.0789
 6412SOL    HW130872   1.744   1.817   4.910  0.4694  0.9654 -0.1308
 6412SOL    HW230873   1.806   1.840   4.768 -1.4507  1.2353  0.1591
 6413SOL     OW30874   0.289   0.815   6.694 -0.1093  0.4449 -0.3867
 6413SOL    HW130875   0.301   0.745   6.757 -1.3619  1.2984  0.8060
 6413SOL    HW230876   0.379   0.840   6.674  1.2021 -1.5232  3.2382
 6414SOL     OW30877   4.418   0.800   2.581 -0.2421  0.4332  0.4295
 6414SOL    HW130878   4.481   0.864   2.547  1.2994 -0.6556  1.2695
 6414SOL    HW230879   4.341   0.844   2.544  0.5515 -0.3998 -2.1758
 6415SOL     OW30880   2.168   3.826  12.920  0.0984  0.3421 -0.1941
 6415SOL    HW130881   2.252   3.823  12.965 -0.4173  0.4286  0.7582
 6415SOL    HW230882   2.154   3.921  12.920 -1.5925  0.0849  1.9031
 6416SOL     OW30883   2.090   0.173   0.790  0.2937  0.1186 -0.3820
 6416SOL    HW130884   2.108   0.193   0.698 -0.8331  0.1476 -0.5954
 6416SOL    HW230885   2.092   0.263   0.823 -3.2897  0.7654 -1.8661
 6417SOL     OW30886   2.922   0.065   2.991  0.0475  0.2000  0.6205
 6417SOL    HW130887   2.920   0.009   3.069  0.2897 -0.1911  0.3444
 6417SOL    HW230888   2.862   0.136   3.011 -1.5227 -0.0258 -3.3241
 6418SOL     OW30889   2.322   3.719  16.567 -0.5024 -0.0365 -0.9475
 6418SOL    HW130890   2.281   3.666  16.499 -0.6315 -0.0491 -0.8608
 6418SOL    HW230891   2.251   3.775  16.598  0.8802  0.3130  1.5958
 6419SOL     OW30892   1.845   2.367   2.051 -0.9227 -0.7561 -0.2882
 6419SOL    HW130893   1.853   2.278   2.016 -0.1106  0.1707 -2.4862
 6419SOL    HW230894   1.764   2.393   2.006 -0.8357 -1.7985 -1.0347
 6420SOL     OW30895   2.550   0.776   7.002  0.1508 -0.0854 -0.2956
 6420SOL    HW130896   2.505   0.730   7.073 -2.0590 -1.1965 -2.4401
 6420SOL    HW230897   2.570   0.864   7.036 -1.9862 -0.3327  1.6684
 6421SOL     OW30898   4.236   3.728  14.114 -0.2276 -0.0608  0.5483
 6421SOL    HW130899   4.178   3.652  14.125 -1.6152  1.1289  1.3259
 6421SOL    HW230900   4.179   3.799  14.085 -1.6819 -1.4940 -0.1435
 6422SOL     OW30901   1.842   0.019   5.019  0.8722 -0.3807  0.4027
 6422SOL    HW130902   1.813   4.683   5.068  2.4413 -1.6944 -0.6904
 6422SOL    HW230903   1.827   0.079   5.092 -1.5015 -0.7332  0.1979
 6423SOL     OW30904   2.151   2.009  14.004 -0.0663 -0.2992  0.4113
 6423SOL    HW130905   2.067   2.051  13.986 -0.3989 -0.0156  2.6303
 6423SOL    HW230906   2.176   1.995  13.913  0.0600 -0.0069  0.3998
 6424SOL     OW30907   4.174   3.374   3.311  0.2719  0.1874  0.2112
 6424SOL    HW130908   4.156   3.287   3.275 -0.0605  0.2289  0.2736
 6424SOL    HW230909   4.260   3.394   3.273 -0.1244  1.6220  0.0672
 6425SOL     OW30910   4.572   0.400   4.881  0.4643  0.2036  0.1802
 6425SOL    HW130911   4.606   0.311   4.874  0.1476  0.2703 -2.0849
 6425SOL    HW230912   4.516   0.403   4.959  0.5477  0.4056  0.2336
 6426SOL     OW30913   1.366   2.963   0.942 -0.0347  0.6515 -0.2736
 6426SOL    HW130914   1.309   2.888   0.952 -1.0728  1.7774  2.3136
 6426SOL    HW230915   1.412   2.957   1.026 -0.5954  0.5610  0.0264
 6427SOL     OW30916   1.594   2.950   2.403 -0.3441  0.5442  0.3900
 6427SOL    HW130917   1.682   2.912   2.399 -1.7938 -2.7652 -0.7495
 6427SOL    HW230918   1.567   2.908   2.321 -1.9493 -0.1636  1.2782
 6428SOL     OW30919   0.717   3.041   2.766 -0.0863 -0.0064 -0.0713
 6428SOL    HW130920   0.696   2.965   2.820 -0.0418 -0.9471 -1.3819
 6428SOL    HW230921   0.727   3.108   2.833 -3.1399  2.0822 -1.6892
 6429SOL     OW30922   0.127   1.890  10.230 -0.4187  0.2774  0.4535
 6429SOL    HW130923   0.135   1.830  10.304  2.1865 -0.8144 -0.7264
 6429SOL    HW230924   0.051   1.848  10.190 -0.0705 -1.1203  1.2592
 6430SOL     OW30925   2.782   4.119   5.859  0.1838 -0.0691  0.4817
 6430SOL    HW130926   2.782   4.120   5.955 -1.8298 -2.7228  0.5178
 6430SOL    HW230927   2.691   4.100   5.836  0.8857 -0.2719 -2.0793
 6431SOL     OW30928   3.867   1.353   4.296  0.5577 -0.5245  0.0962
 6431SOL    HW130929   3.902   1.441   4.307  1.0818 -0.6056 -0.9888
 6431SOL    HW230930   3.864   1.350   4.201 -1.2764 -0.6763  0.1611
 6432SOL     OW30931   0.199   0.777  11.607  0.1981  0.1380  0.0621
 6432SOL    HW130932   0.235   0.692  11.582 -1.6606  0.1290 -2.6103
 6432SOL    HW230933   0.190   0.821  11.523 -0.7296 -0.7291 -0.2939
 6433SOL     OW30934   2.371   0.643   7.184  0.0615 -0.1017 -0.5145
 6433SOL    HW130935   2.290   0.659   7.135 -0.2686 -1.9574 -0.5637
 6433SOL    HW230936   2.369   0.709   7.254  0.4024  0.1792 -0.7675
 6434SOL     OW30937   1.090   2.762   3.744  0.5711  0.3558 -0.3218
 6434SOL    HW130938   1.182   2.742   3.728 -0.1134 -2.8019 -0.3421
 6434SOL    HW230939   1.085   2.834   3.681 -1.2617 -0.3889 -1.0243
 6435SOL     OW30940   0.520   0.589   3.764  0.0777  0.3514 -0.7691
 6435SOL    HW130941   0.615   0.606   3.763  0.4838 -1.9050 -0.8069
 6435SOL    HW230942   0.515   0.540   3.846  1.1146 -1.4765 -1.8155
 6436SOL     OW30943   4.156   0.153  17.224 -0.0658 -0.5453  0.2680
 6436SOL    HW130944   4.239   0.200  17.236 -0.4398 -0.0108  0.7806
 6436SOL    HW230945   4.122   0.155  17.314 -1.4638 -2.1651 -0.2423
 6437SOL     OW30946   1.535   2.853  13.059 -0.1266  0.4024 -0.2121
 6437SOL    HW130947   1.598   2.787  13.088 -2.4318 -1.3444  0.8663
 6437SOL    HW230948   1.512   2.807  12.978 -0.1204 -0.2760  0.1728
 6438SOL     OW30949   2.133   2.185   9.110  0.5511  0.0343 -0.3088
 6438SOL    HW130950   2.132   2.280   9.117  0.1782 -0.1029  1.3663
 6438SOL    HW230951   2.223   2.154   9.098  0.7428  0.2599  0.5370
 6439SOL     OW30952   1.868   3.952   0.328  0.3569 -0.2388 -0.0157
 6439SOL    HW130953   1.957   3.917   0.315  0.2049 -0.3266 -0.8236
 6439SOL    HW230954   1.853   4.001   0.247  2.1629 -0.8655 -0.7397
 6440SOL     OW30955   3.356   1.484   6.792  0.6912  0.3229 -0.4083
 6440SOL    HW130956   3.323   1.564   6.752  0.6493 -0.0222 -1.0628
 6440SOL    HW230957   3.429   1.470   6.731  1.8222  0.0697  0.9991
 6441SOL     OW30958   2.692   0.623   7.292 -0.1365  0.1002  0.3789
 6441SOL    HW130959   2.782   0.618   7.261 -1.2174 -1.6786 -2.4144
 6441SOL    HW230960   2.694   0.697   7.354 -0.2941  1.3768 -1.1410
 6442SOL     OW30961   1.128   0.481   7.560 -0.6311  0.4980 -0.1114
 6442SOL    HW130962   1.184   0.548   7.600 -0.8787  0.6952 -0.1020
 6442SOL    HW230963   1.194   0.421   7.524 -1.1722 -0.0158 -0.2359
 6443SOL     OW30964   0.162   3.251   9.421 -0.1239 -0.3636 -0.2190
 6443SOL    HW130965   0.183   3.329   9.473  0.4568 -1.3094  0.9729
 6443SOL    HW230966   0.242   3.199   9.424 -0.8574 -1.6809 -2.9518
 6444SOL     OW30967   3.160   1.549   2.730  0.1571 -0.6161  0.5586
 6444SOL    HW130968   3.139   1.555   2.823 -0.1535  0.8732  0.3963
 6444SOL    HW230969   3.216   1.625   2.714 -1.0413  0.3449  0.9027
 6445SOL     OW30970   2.769   1.831   6.214  0.2648 -0.5364 -0.7334
 6445SOL    HW130971   2.715   1.884   6.155 -0.2996 -0.5055 -0.1845
 6445SOL    HW230972   2.852   1.875   6.195  0.7388 -1.0422  0.2070
 6446SOL     OW30973   3.404   2.939   2.504  0.5932 -0.2188 -0.4730
 6446SOL    HW130974   3.397   3.014   2.563 -0.7718 -0.9862  0.3351
 6446SOL    HW230975   3.365   2.875   2.564  0.2824  0.4367  0.0171
 6447SOL     OW30976   0.746   0.178   8.245  0.1594  0.2681  0.6619
 6447SOL    HW130977   0.673   0.185   8.307 -0.6707 -1.7016 -0.0752
 6447SOL    HW230978   0.759   0.270   8.222 -0.7782 -0.4738 -2.9319
 6448SOL     OW30979   2.305   2.696   1.193  0.1732  0.6386 -0.4641
 6448SOL    HW130980   2.321   2.653   1.276  0.9540 -0.0922 -0.9961
 6448SOL    HW230981   2.218   2.732   1.213  0.0646 -0.1284  0.4404
 6449SOL     OW30982   2.556   0.093   6.564 -0.2240 -0.0962  0.4622
 6449SOL    HW130983   2.531   0.001   6.576  3.7287 -1.0041  1.6781
 6449SOL    HW230984   2.609   0.093   6.484  0.2038 -2.0244  0.7449
 6450SOL     OW30985   1.298   2.638   5.352  0.1336 -0.1726 -0.5448
 6450SOL    HW130986   1.238   2.681   5.290  0.8911  1.3141 -0.2499
 6450SOL    HW230987   1.260   2.652   5.438  3.0574 -0.4775  0.8064
 6451SOL     OW30988   3.518   2.073   7.710 -0.5489  0.3336 -0.1926
 6451SOL    HW130989   3.558   2.139   7.767 -0.0113  0.5886 -0.8606
 6451SOL    HW230990   3.572   2.003   7.746 -1.9574 -0.0348  1.1955
 6452SOL     OW30991   1.035   2.677   2.906  0.1557 -0.2628 -0.3440
 6452SOL    HW130992   0.983   2.661   2.985  0.3359  0.4656 -0.0801
 6452SOL    HW230993   0.966   2.682   2.840  0.5877 -1.4856 -0.8916
 6453SOL     OW30994   3.517   3.365  15.857 -0.0798  0.3747  0.4387
 6453SOL    HW130995   3.504   3.444  15.806 -0.5701  0.0503  0.0640
 6453SOL    HW230996   3.502   3.399  15.945 -2.4546  1.7533 -0.5240
 6454SOL     OW30997   2.389   2.785  11.875  0.5651 -0.8058  0.1006
 6454SOL    HW130998   2.381   2.864  11.822  0.3805  0.1800  1.6153
 6454SOL    HW230999   2.469   2.810  11.922  0.5470 -1.3046  0.3959
 6455SOL     OW31000   0.346   2.792   6.776 -0.6580 -0.0259  0.1835
 6455SOL    HW131001   0.413   2.831   6.721 -0.4835 -1.4260 -0.5966
 6455SOL    HW231002   0.272   2.821   6.723 -0.6499 -1.1657 -0.4607
 6456SOL     OW31003   1.086   1.859   7.115  1.0069 -0.2669  0.0099
 6456SOL    HW131004   0.998   1.851   7.078  0.8523 -0.3505  0.3997
 6456SOL    HW231005   1.097   1.954   7.104  1.3174 -0.3824 -0.6923
 6457SOL     OW31006   1.932   3.885   1.078  0.2092  0.0737  0.0377
 6457SOL    HW131007   1.901   3.905   0.990 -0.5954 -2.2452 -0.2134
 6457SOL    HW231008   2.004   3.827   1.053  0.7919  1.8072 -2.2423
 6458SOL     OW31009   0.003   3.208   3.487  0.3895 -0.4443  0.7670
 6458SOL    HW131010   0.068   3.250   3.544 -0.1477  1.3643  0.0111
 6458SOL    HW231011   4.665   3.245   3.527 -0.2846 -0.2171 -0.7914
 6459SOL     OW31012   1.448   2.506   9.620 -0.1858  0.3766 -0.4657
 6459SOL    HW131013   1.479   2.424   9.659  0.2596 -0.0096 -1.6363
 6459SOL    HW231014   1.501   2.568   9.671  0.5099  1.2966 -2.2982
 6460SOL     OW31015   2.056   4.143  12.463 -0.6174  0.3760  0.2237
 6460SOL    HW131016   2.098   4.061  12.489  1.9420  1.3088 -1.0077
 6460SOL    HW231017   2.122   4.202  12.498  0.2659 -0.3996 -0.1300
 6461SOL     OW31018   0.179   2.914  12.569  0.6225  0.8052 -0.2589
 6461SOL    HW131019   0.232   2.847  12.526  0.0145  0.5872 -0.6648
 6461SOL    HW231020   0.224   2.914  12.654 -2.3508  0.4823  1.3208
 6462SOL     OW31021   0.309   1.219   3.024 -0.2396  0.2727 -0.4943
 6462SOL    HW131022   0.268   1.297   2.986  1.2577  0.9319 -0.7581
 6462SOL    HW231023   0.367   1.189   2.953  1.6035 -1.0949  1.5991
 6463SOL     OW31024   4.316   2.326   1.576 -0.1288 -0.3256  0.0268
 6463SOL    HW131025   4.322   2.416   1.544 -2.4572  1.1221  3.6887
 6463SOL    HW231026   4.352   2.291   1.494  0.6138  0.3119  0.0795
 6464SOL     OW31027   3.953   0.094  16.702 -0.4929 -0.2793  0.7073
 6464SOL    HW131028   3.914   0.128  16.783 -0.6326 -5.2418  2.7483
 6464SOL    HW231029   3.962   0.005  16.736  2.0129  0.5420  2.2063
 6465SOL     OW31030   1.635   3.341   1.133  0.0595 -0.3200  0.1077
 6465SOL    HW131031   1.634   3.304   1.221 -0.4219 -1.9550 -0.5846
 6465SOL    HW231032   1.546   3.333   1.098  1.6340 -1.9327 -3.5414
 6466SOL     OW31033   0.802   3.316   1.927  0.3205  0.2453  0.3337
 6466SOL    HW131034   0.816   3.375   1.852  1.8546  0.1526  0.5485
 6466SOL    HW231035   0.817   3.236   1.878  1.9992  1.1392 -0.6162
 6467SOL     OW31036   0.109   2.185   5.026  0.3326 -0.1684  0.4094
 6467SOL    HW131037   0.111   2.279   5.041 -2.8556 -0.1469  0.5303
 6467SOL    HW231038   0.035   2.169   4.969 -3.2291 -0.9166  5.2127
 6468SOL     OW31039   2.446   3.881   9.226  0.6998  0.3295 -0.0219
 6468SOL    HW131040   2.466   3.834   9.306 -0.9958  0.8212  0.6936
 6468SOL    HW231041   2.509   3.953   9.231 -1.0274  1.8828 -0.4610
 6469SOL     OW31042   3.026   4.542   0.563 -0.0668  0.1923 -0.3699
 6469SOL    HW131043   3.003   4.559   0.654  0.6404  1.2034 -0.3903
 6469SOL    HW231044   2.936   4.532   0.530  0.0546 -2.0058 -0.0584
 6470SOL     OW31045   1.397   1.339  13.348 -0.0385  0.2214  0.6099
 6470SOL    HW131046   1.373   1.300  13.264  1.3221 -0.3043  0.4726
 6470SOL    HW231047   1.347   1.281  13.406 -0.1895 -0.2278  0.0269
 6471SOL     OW31048   3.589   1.247   4.724 -0.1008 -0.0728 -0.2172
 6471SOL    HW131049   3.514   1.306   4.722 -0.8162 -1.0323 -1.7060
 6471SOL    HW231050   3.632   1.295   4.794  0.5812 -0.9719 -0.0111
 6472SOL     OW31051   1.177   0.544  14.954  0.4812 -0.4836  0.1543
 6472SOL    HW131052   1.153   0.455  14.927 -1.9443 -0.4721  2.1909
 6472SOL    HW231053   1.213   0.576  14.872  1.2559 -0.3376  0.5518
 6473SOL     OW31054   0.325   4.533   2.006  0.2404  0.2104  0.0532
 6473SOL    HW131055   0.366   4.491   1.931 -0.4486  0.5949 -0.5378
 6473SOL    HW231056   0.348   4.625   1.991 -0.6345  0.4599  0.2306
 6474SOL     OW31057   0.703   3.885  11.794  0.3224  0.4666  0.1927
 6474SOL    HW131058   0.666   3.819  11.735  1.3510 -0.2301  0.3203
 6474SOL    HW231059   0.656   3.858  11.873  1.7084  0.4268  0.9994
 6475SOL     OW31060   0.649   0.370   2.813 -0.6117 -0.2732 -0.3065
 6475SOL    HW131061   0.727   0.316   2.823  0.4489  1.0148 -1.7326
 6475SOL    HW231062   0.587   0.315   2.766 -3.0134  1.7779  0.4491
 6476SOL     OW31063   2.050   1.706   6.770 -0.3696  0.1706  0.0213
 6476SOL    HW131064   2.092   1.777   6.818  1.3101 -1.9754  1.7485
 6476SOL    HW231065   1.957   1.705   6.794  0.1459 -1.3719  1.9400
 6477SOL     OW31066   3.589   2.397   4.726 -0.2853 -0.0874 -0.2897
 6477SOL    HW131067   3.533   2.440   4.791  2.2086  0.1102  1.7696
 6477SOL    HW231068   3.564   2.306   4.717 -0.3718 -0.1128  0.1741
 6478SOL     OW31069   3.576   4.221   9.159 -0.3494  0.2070  0.0107
 6478SOL    HW131070   3.576   4.182   9.072  0.0031  1.8121 -0.7148
 6478SOL    HW231071   3.646   4.165   9.192  0.6021  1.3147 -0.0964
 6479SOL     OW31072   3.921   3.480   2.874 -0.0891 -0.7845  0.4224
 6479SOL    HW131073   3.846   3.465   2.932 -0.7697  2.3843  0.3235
 6479SOL    HW231074   3.953   3.554   2.925 -0.5289  0.3132 -0.9173
 6480SOL     OW31075   1.203   3.113   8.930  0.3534  0.1890 -0.3794
 6480SOL    HW131076   1.182   3.061   8.852  0.9547  1.1823 -1.2098
 6480SOL    HW231077   1.297   3.130   8.935  0.8169 -2.1027 -1.1348
 6481SOL     OW31078   2.358   0.834  13.272 -0.1345 -0.3433  0.2382
 6481SOL    HW131079   2.365   0.765  13.337 -1.0287 -3.1722 -2.6996
 6481SOL    HW231080   2.435   0.892  13.278  0.3016 -0.8620 -0.2831
 6482SOL     OW31081   4.235   4.094  15.002  0.5293  0.7100 -0.2336
 6482SOL    HW131082   4.198   4.042  15.073  0.7138 -0.2901 -0.8707
 6482SOL    HW231083   4.150   4.109  14.960 -0.2051 -1.3109  0.5674
 6483SOL     OW31084   0.702   3.619  11.913  0.8836  0.0413 -0.1192
 6483SOL    HW131085   0.767   3.567  11.867  0.9704 -0.4286  0.5293
 6483SOL    HW231086   0.747   3.648  11.992  0.2865 -1.8385  0.8982
 6484SOL     OW31087   0.072   0.504  11.281  0.2102 -0.6176  0.4031
 6484SOL    HW131088   4.736   0.546  11.322  0.7136  0.1217  0.5744
 6484SOL    HW231089   0.036   0.416  11.275  0.5121 -0.5566 -2.0821
 6485SOL     OW31090   3.467   1.463   5.560  0.4294  0.7647  0.0437
 6485SOL    HW131091   3.533   1.432   5.622  0.0238 -0.8259 -0.3205
 6485SOL    HW231092   3.535   1.486   5.496 -0.2808 -2.1467 -1.8035
 6486SOL     OW31093   4.569   3.446   9.444  0.0343 -0.1871  0.0689
 6486SOL    HW131094   4.604   3.381   9.505  1.0959  0.5968  0.3021
 6486SOL    HW231095   4.551   3.382   9.375  1.5085 -1.2506  0.6454
 6487SOL     OW31096   4.673   3.946   4.232  0.1238 -0.0137  0.1760
 6487SOL    HW131097   4.662   3.906   4.319  1.6239  1.0896  0.8820
 6487SOL    HW231098   0.028   3.943   4.219 -0.1072  1.4506 -1.8462
 6488SOL     OW31099   3.162   4.026   4.728  0.0436  0.1029 -0.1048
 6488SOL    HW131100   3.157   3.967   4.653  1.8815 -1.7395  1.2242
 6488SOL    HW231101   3.177   4.112   4.689 -0.3717  0.1756 -0.1079
 6489SOL     OW31102   3.352   1.758   6.177 -0.4194 -0.5301 -0.4056
 6489SOL    HW131103   3.440   1.786   6.202 -0.7772 -0.9409  1.3301
 6489SOL    HW231104   3.319   1.742   6.266 -1.7500  2.0444 -0.4388
 6490SOL     OW31105   0.774   4.343   3.900 -0.0505 -0.3171 -0.2662
 6490SOL    HW131106   0.831   4.361   3.975 -1.2886 -3.0708  1.3678
 6490SOL    HW231107   0.840   4.333   3.832  1.6722  0.3891  1.2842
 6491SOL     OW31108   1.457   2.409   3.266  0.7487  0.2647  0.3689
 6491SOL    HW131109   1.531   2.455   3.226 -1.1646  1.8865 -1.3484
 6491SOL    HW231110   1.383   2.468   3.248  1.1972  0.9274  0.6746
 6492SOL     OW31111   2.019   1.103   4.628  0.5057  0.5010 -0.6121
 6492SOL    HW131112   2.051   1.086   4.716 -0.2568 -0.6661 -0.5583
 6492SOL    HW231113   1.955   1.032   4.619  1.8326 -0.7351 -0.2246
 6493SOL     OW31114   4.512   3.234  15.170 -0.5359  0.2215  0.0674
 6493SOL    HW131115   4.554   3.304  15.220 -0.0475  0.6287 -0.9272
 6493SOL    HW231116   4.588   3.199  15.123 -0.9925 -0.5624 -0.0776
 6494SOL     OW31117   1.489   2.706   7.798  0.5945  0.4318 -0.1554
 6494SOL    HW131118   1.532   2.672   7.719 -0.8522 -1.1880 -0.2398
 6494SOL    HW231119   1.429   2.634   7.817  0.6436  0.3692 -0.2378
 6495SOL     OW31120   4.250   3.427  12.449  0.2666 -0.2348  1.0376
 6495SOL    HW131121   4.339   3.443  12.480 -0.6953  2.0412  2.6453
 6495SOL    HW231122   4.235   3.361  12.517  0.7513 -1.0065  0.3999
 6496SOL     OW31123   3.901   4.724   8.668 -0.0408  0.3642  0.1069
 6496SOL    HW131124   3.931   4.686   8.750 -0.6585  1.4597  0.8491
 6496SOL    HW231125   3.813   4.688   8.660  0.8113 -1.8600  1.0107
 6497SOL     OW31126   1.925   3.634   5.408  0.6288 -0.4207  0.0948
 6497SOL    HW131127   1.990   3.665   5.344  1.4834 -1.7564  0.3306
 6497SOL    HW231128   1.895   3.557   5.359 -0.8054 -0.5024  1.0885
 6498SOL     OW31129   3.111   0.894   8.653 -0.1065 -0.2156  0.2484
 6498SOL    HW131130   3.187   0.837   8.668 -2.0488 -2.9491 -0.2605
 6498SOL    HW231131   3.094   0.864   8.563  2.0379 -0.8267  0.0458
 6499SOL     OW31132   2.699   0.898   3.975  0.2639  0.9794 -0.0120
 6499SOL    HW131133   2.612   0.875   4.009 -0.7402  0.8916 -2.6161
 6499SOL    HW231134   2.740   0.812   3.977  1.3283  1.5103  1.0025
 6500SOL     OW31135   2.878   3.444   2.163  0.3549 -0.8699 -0.2853
 6500SOL    HW131136   2.899   3.395   2.242 -2.5278  0.6379  1.4044
 6500SOL    HW231137   2.801   3.495   2.186  1.9304  2.4184 -2.2874
 6501SOL     OW31138   3.656   2.603   2.627 -0.1436 -0.4808 -0.5263
 6501SOL    HW131139   3.663   2.693   2.594  3.7772 -0.8501 -0.7768
 6501SOL    HW231140   3.665   2.546   2.550 -0.8578 -1.6113  0.2343
 6502SOL     OW31141   1.829   0.801  15.504  0.5129  0.1445  0.2360
 6502SOL    HW131142   1.894   0.749  15.458  0.6954  0.8354 -0.2759
 6502SOL    HW231143   1.839   0.887  15.463 -1.2269 -0.7002 -1.9349
 6503SOL     OW31144   4.529   4.587   9.099  0.4195 -0.0772 -0.3726
 6503SOL    HW131145   4.490   4.506   9.134 -0.3062  0.5048  0.1730
 6503SOL    HW231146   4.474   4.653   9.142  1.0846  0.6971 -0.7335
 6504SOL     OW31147   3.835   3.663   5.681 -0.3053 -0.3376  0.4179
 6504SOL    HW131148   3.827   3.756   5.698 -1.4017 -0.5185  0.8570
 6504SOL    HW231149   3.871   3.635   5.765  1.8919 -0.5022 -0.5657
 6505SOL     OW31150   1.708   0.001   3.787  0.5270 -0.3352 -0.5005
 6505SOL    HW131151   1.694   4.729   3.693 -1.1840 -1.3906 -0.1060
 6505SOL    HW231152   1.629   0.040   3.824  0.2045 -1.1625 -0.3205
 6506SOL     OW31153   4.494   3.747   9.925 -0.1909  0.1317 -0.2641
 6506SOL    HW131154   4.530   3.827   9.887 -0.0488 -0.2244 -0.8810
 6506SOL    HW231155   4.565   3.724   9.985  0.7331  3.4493 -0.0862
 6507SOL     OW31156   0.205   2.869   7.834  0.0500 -0.5682  0.0497
 6507SOL    HW131157   0.238   2.936   7.774 -1.0313  0.3066  0.4274
 6507SOL    HW231158   0.141   2.823   7.780  1.1709  0.0962 -1.8277
 6508SOL     OW31159   0.840   4.204  12.098 -0.1636  0.3792  0.3142
 6508SOL    HW131160   0.818   4.179  12.188  1.1702 -1.6999  0.0487
 6508SOL    HW231161   0.935   4.208  12.096 -0.1555 -0.3158 -0.3933
 6509SOL     OW31162   0.680   4.719  12.399  0.5503  0.0827  0.8958
 6509SOL    HW131163   0.635   0.062  12.413  1.3532  0.2383  2.5404
 6509SOL    HW231164   0.699   4.738  12.307 -1.7677  1.3893  0.6925
 6510SOL     OW31165   3.065   3.555   9.407  0.1758  0.1173 -0.1225
 6510SOL    HW131166   3.091   3.615   9.337  0.3356  0.9871  0.6737
 6510SOL    HW231167   3.128   3.483   9.399 -0.7331 -0.5877 -0.9628
 6511SOL     OW31168   0.568   0.271   7.570  0.1528 -0.2751  0.4317
 6511SOL    HW131169   0.583   0.212   7.644  0.9985  1.4615  1.6255
 6511SOL    HW231170   0.530   0.214   7.503  1.0240  2.1193 -2.0929
 6512SOL     OW31171   0.191   1.195  14.710 -0.1079  0.3550  0.4644
 6512SOL    HW131172   0.242   1.188  14.630 -2.0380  1.8681 -0.9014
 6512SOL    HW231173   0.179   1.290  14.705 -0.6462  0.1145 -3.0472
 6513SOL     OW31174   2.394   1.057   6.922  0.0955  0.1745 -0.2424
 6513SOL    HW131175   2.381   0.962   6.918  1.6376 -0.0630  0.4787
 6513SOL    HW231176   2.480   1.052   6.964  1.1914 -4.2710 -2.9957
 6514SOL     OW31177   1.321   1.451   0.860 -0.5262  0.0643  0.6182
 6514SOL    HW131178   1.237   1.416   0.831  0.3826 -1.3704 -0.3160
 6514SOL    HW231179   1.372   1.370   0.863  2.2090  1.7768  0.4979
 6515SOL     OW31180   1.840   1.619   5.743  0.4447  0.0905 -0.0552
 6515SOL    HW131181   1.842   1.706   5.782  0.7307 -0.0134  0.1659
 6515SOL    HW231182   1.907   1.568   5.789  0.8801  1.5101  0.8799
 6516SOL     OW31183   4.533   0.044   2.054  0.1146  0.0128  0.5987
 6516SOL    HW131184   4.609   4.727   2.062  0.8687  0.7344 -1.6114
 6516SOL    HW231185   4.457   4.729   2.073 -1.8759  2.2105 -1.0155
 6517SOL     OW31186   4.372   3.443   5.024  0.0076 -0.2240  0.3337
 6517SOL    HW131187   4.464   3.419   5.013 -0.0957 -0.4221 -0.0968
 6517SOL    HW231188   4.334   3.357   5.006  0.6753  0.0164 -2.2584
 6518SOL     OW31189   0.435   1.768   1.389  0.5396 -0.0734  0.3166
 6518SOL    HW131190   0.449   1.697   1.451 -1.9490  0.4825  1.5033
 6518SOL    HW231191   0.380   1.731   1.320  0.5879  1.0711 -0.3475
 6519SOL     OW31192   1.905   2.376   9.371 -0.4519  0.1731 -0.3819
 6519SOL    HW131193   1.816   2.400   9.395  0.6010  1.5663  2.1154
 6519SOL    HW231194   1.915   2.423   9.288  2.3162 -0.0830 -0.1976
 6520SOL     OW31195   0.832   1.992   5.885 -1.0515 -0.0985  0.7626
 6520SOL    HW131196   0.869   2.007   5.798  0.8204  2.3917  2.0058
 6520SOL    HW231197   0.868   2.072   5.922 -1.0230  0.5446 -0.6670
 6521SOL     OW31198   3.796   1.177   1.081  0.0890 -0.1854  0.2943
 6521SOL    HW131199   3.839   1.151   1.000  0.7840  1.8987  0.0056
 6521SOL    HW231200   3.712   1.197   1.041  0.2812  2.5377  1.3036
 6522SOL     OW31201   4.421   2.200   5.675  0.0796  0.0371  0.1252
 6522SOL    HW131202   4.502   2.187   5.627 -0.2262  0.7050 -0.5678
 6522SOL    HW231203   4.455   2.243   5.753  2.3466  1.8637 -1.8740
 6523SOL     OW31204   1.951   1.410   4.746 -0.4028 -0.4542  0.0990
 6523SOL    HW131205   1.933   1.502   4.728 -2.6578 -1.2080 -1.5936
 6523SOL    HW231206   2.039   1.402   4.710 -1.0400 -0.0419 -1.5858
 6524SOL     OW31207   1.007   4.460   0.570 -0.6317 -0.3726 -0.8471
 6524SOL    HW131208   1.102   4.449   0.576 -0.6113 -0.3712 -1.2015
 6524SOL    HW231209   0.989   4.372   0.538  1.7319 -0.5572 -1.6584
 6525SOL     OW31210   3.310   3.358   3.548  0.6995 -0.0288  0.3897
 6525SOL    HW131211   3.372   3.323   3.484 -1.4670 -2.1755 -0.5442
 6525SOL    HW231212   3.293   3.445   3.511 -0.2798 -0.0153  0.8867
 6526SOL     OW31213   4.219   2.176   5.499 -0.2186  0.1286  0.0633
 6526SOL    HW131214   4.280   2.194   5.570  1.9417 -0.9348 -1.5091
 6526SOL    HW231215   4.263   2.094   5.477 -1.5294 -0.1514 -1.4698
 6527SOL     OW31216   2.812   3.912   4.029  0.4318  0.1962 -0.0795
 6527SOL    HW131217   2.883   3.976   4.023  0.8389 -0.2397  0.1064
 6527SOL    HW231218   2.735   3.956   4.064  1.2438  0.4985  1.3371
 6528SOL     OW31219   2.193   0.919   2.871  0.0121 -0.8311 -0.4103
 6528SOL    HW131220   2.281   0.922   2.910 -0.9807 -1.1143  1.8732
 6528SOL    HW231221   2.158   0.845   2.921  1.5908 -1.4167 -0.1791
 6529SOL     OW31222   4.696   2.956  14.333 -0.2772 -0.7161  0.1743
 6529SOL    HW131223   0.018   2.893  14.296 -0.5255 -1.1361  0.4711
 6529SOL    HW231224   4.663   3.000  14.255 -0.8730 -0.6337  0.4677
 6530SOL     OW31225   0.557   0.279   3.061  0.1707 -0.2913 -0.3683
 6530SOL    HW131226   0.579   0.312   2.974  1.0541 -0.2786 -0.1347
 6530SOL    HW231227   0.501   0.203   3.049 -0.4761  0.3398 -1.3474
 6531SOL     OW31228   4.121   3.657   2.428 -0.4873 -0.1731 -0.4649
 6531SOL    HW131229   4.152   3.595   2.363  0.8228 -0.4574  0.4330
 6531SOL    HW231230   4.028   3.634   2.429 -0.5540  0.0690 -1.0347
 6532SOL     OW31231   2.076   4.540   4.670  0.0015  0.1375 -0.2902
 6532SOL    HW131232   2.077   4.448   4.697  0.6151  0.3139  0.2765
 6532SOL    HW231233   1.990   4.568   4.701  2.1849  4.5884  1.7183
 6533SOL     OW31234   0.175   0.640   3.618 -0.4343  0.0146  0.1793
 6533SOL    HW131235   0.215   0.715   3.574 -0.7071 -1.3500 -2.3801
 6533SOL    HW231236   0.231   0.565   3.600 -1.1245 -0.2307 -0.9360
 6534SOL     OW31237   1.500   1.265  10.645 -0.2115 -0.5957  0.0846
 6534SOL    HW131238   1.445   1.191  10.619 -0.8458 -0.1476  0.1311
 6534SOL    HW231239   1.559   1.266  10.570  0.3426 -0.4749  0.5198
 6535SOL     OW31240   2.969   3.486   5.784  0.0461 -0.0920  0.0902
 6535SOL    HW131241   3.047   3.541   5.789 -0.6515  0.8192  0.8814
 6535SOL    HW231242   2.897   3.548   5.792  1.6775  1.9845 -1.3275
 6536SOL     OW31243   0.314   0.271   8.787  0.4421 -0.2650  0.1279
 6536SOL    HW131244   0.237   0.280   8.843 -0.7455  0.9547 -1.7260
 6536SOL    HW231245   0.307   0.347   8.730  0.5299 -1.0395 -0.9221
 6537SOL     OW31246   1.065   1.284   3.765 -0.0703  0.2396  0.0696
 6537SOL    HW131247   1.049   1.362   3.712 -2.1012  0.5358  1.1343
 6537SOL    HW231248   1.158   1.297   3.786  0.5049 -0.2726 -2.1443
 6538SOL     OW31249   0.334   4.080   5.781  0.1281 -0.4633 -0.0348
 6538SOL    HW131250   0.374   3.999   5.814  1.1504 -0.1007 -0.3956
 6538SOL    HW231251   0.356   4.143   5.849  0.0393 -0.3695 -0.0924
 6539SOL     OW31252   0.680   1.127   4.577  0.2806 -0.2315 -0.4133
 6539SOL    HW131253   0.687   1.037   4.545 -0.6225 -1.1972  2.1239
 6539SOL    HW231254   0.684   1.118   4.672  0.6060  1.3791 -0.2729
 6540SOL     OW31255   0.055   3.580  14.549 -0.5434 -0.7723 -0.1559
 6540SOL    HW131256   4.740   3.535  14.485 -0.7052  0.1214 -0.6423
 6540SOL    HW231257   4.738   3.610  14.620  1.3258  0.5570  0.7855
 6541SOL     OW31258   0.363   2.993   2.897 -0.1535  0.2028 -0.5336
 6541SOL    HW131259   0.454   2.991   2.867 -0.2387  4.0388 -1.0728
 6541SOL    HW231260   0.331   3.044   2.822 -0.7320 -0.7381 -0.9321
 6542SOL     OW31261   2.853   1.292   2.146 -0.3184  0.5719  0.2783
 6542SOL    HW131262   2.948   1.301   2.148 -0.4591  2.5171 -1.6415
 6542SOL    HW231263   2.851   1.211   2.095  0.1297  1.2563 -0.8144
 6543SOL     OW31264   3.542   0.992   4.069 -0.3989  0.3336  0.3697
 6543SOL    HW131265   3.472   0.933   4.095 -2.0766  1.2611 -2.1432
 6543SOL    HW231266   3.593   1.002   4.150 -0.6877  1.3159  0.4354
 6544SOL     OW31267   1.508   3.228   3.022  0.6671 -0.0491 -0.1603
 6544SOL    HW131268   1.468   3.314   3.006 -0.6174 -0.1163  2.6542
 6544SOL    HW231269   1.428   3.177   3.008 -0.6950  1.8802  0.4331
 6545SOL     OW31270   4.422   1.445   0.052 -0.3248 -0.6992 -0.2530
 6545SOL    HW131271   4.437   1.403   0.137  1.9720  0.0443 -0.3017
 6545SOL    HW231272   4.409   1.534   0.086 -1.2804 -0.5091 -1.1241
 6546SOL     OW31273   0.279   2.582   5.372 -0.2275 -0.0455  0.5077
 6546SOL    HW131274   0.305   2.490   5.379 -1.0138 -0.2101  1.3473
 6546SOL    HW231275   0.191   2.578   5.410 -0.6852  1.9885 -0.3695
 6547SOL     OW31276   0.489   3.468   2.236  0.2973 -0.1152  0.0365
 6547SOL    HW131277   0.561   3.519   2.271  1.3864 -2.4135  1.1579
 6547SOL    HW231278   0.522   3.392   2.187  0.6886  1.2565 -1.8077
 6548SOL     OW31279   1.924   2.000   9.227 -0.8295  0.4240 -0.2499
 6548SOL    HW131280   1.987   2.054   9.180 -1.6822  0.3900 -1.4418
 6548SOL    HW231281   1.949   1.912   9.199 -2.0331  0.9385 -2.8757
 6549SOL     OW31282   4.274   2.834  16.386 -0.6093 -0.7802  0.2586
 6549SOL    HW131283   4.217   2.791  16.451 -1.4006 -0.1330 -0.0027
 6549SOL    HW231284   4.209   2.886  16.338  1.0495  1.6863  0.6957
 6550SOL     OW31285   3.572   1.652  10.269  0.1694  0.3574  0.8977
 6550SOL    HW131286   3.650   1.673  10.320  2.4613 -1.1468 -2.0127
 6550SOL    HW231287   3.504   1.632  10.334 -0.6312 -1.0643 -0.3803
 6551SOL     OW31288   4.295   2.456   1.290  0.8632  0.0925 -1.5430
 6551SOL    HW131289   4.315   2.544   1.321 -2.1203 -0.5440  2.2428
 6551SOL    HW231290   4.378   2.408   1.289  0.4502 -0.6943  0.7499
 6552SOL     OW31291   2.344   1.120   0.553 -0.1169 -0.3358  0.0682
 6552SOL    HW131292   2.388   1.199   0.523  0.5485 -0.7933 -0.1688
 6552SOL    HW231293   2.255   1.144   0.578  0.9202  2.0936  1.4274
 6553SOL     OW31294   3.883   3.520   5.445 -0.2119 -0.2241  0.6900
 6553SOL    HW131295   3.852   3.573   5.372 -1.0206 -2.6409 -0.7313
 6553SOL    HW231296   3.905   3.583   5.513  0.3803  0.3206 -0.0078
 6554SOL     OW31297   4.034   2.199   8.489  0.1414  0.2064  0.4375
 6554SOL    HW131298   3.980   2.195   8.410 -0.4218 -2.0559  0.9558
 6554SOL    HW231299   4.122   2.209   8.453 -0.2076 -0.0784 -0.4863
 6555SOL     OW31300   0.970   4.644   1.715 -0.2986 -0.2568 -0.3050
 6555SOL    HW131301   1.066   4.642   1.719 -0.3924  0.2708  2.1629
 6555SOL    HW231302   0.956   4.664   1.808 -3.1808  0.4051 -0.8847
 6556SOL     OW31303   4.281   2.650   6.168  0.2494 -0.0063  0.4033
 6556SOL    HW131304   4.262   2.730   6.118  2.1587  0.4687  0.4101
 6556SOL    HW231305   4.194   2.636   6.203  1.8723 -4.2968  2.5956
 6557SOL     OW31306   3.730   1.296   0.154  0.0037 -0.1204 -0.1144
 6557SOL    HW131307   3.816   1.336   0.143  0.3373 -0.6817  0.4503
 6557SOL    HW231308   3.757   1.205   0.168 -0.8345 -0.6039 -1.7166
 6558SOL     OW31309   2.402   4.373  16.863  0.2285  0.9281 -0.2967
 6558SOL    HW131310   2.331   4.309  16.853 -0.0406  0.9167  1.7484
 6558SOL    HW231311   2.430   4.357  16.953 -1.4642 -2.3226 -0.3271
 6559SOL     OW31312   2.650   3.267   9.959  0.2034  0.5175 -0.2434
 6559SOL    HW131313   2.634   3.334   9.892  1.2464  1.0958  0.0807
 6559SOL    HW231314   2.584   3.206   9.927 -0.6490  2.8603 -3.0417
 6560SOL     OW31315   1.064   0.003  14.898  0.2534  0.9275 -0.2011
 6560SOL    HW131316   0.985   4.728  14.846  0.3804  0.8730 -0.3803
 6560SOL    HW231317   1.044   4.719  14.988 -1.7304  1.1151 -0.6086
 6561SOL     OW31318   0.028   3.242   2.454 -0.6104 -0.2459  0.5603
 6561SOL    HW131319   0.032   3.178   2.384 -0.8320  0.0687  0.2598
 6561SOL    HW231320   4.672   3.245   2.460 -0.9167 -2.1989 -3.7005
 6562SOL     OW31321   4.183   0.053   7.696  0.1349  0.4538 -0.4267
 6562SOL    HW131322   4.251   0.118   7.717 -1.3694  1.3795  1.5898
 6562SOL    HW231323   4.200   0.055   7.602 -0.5470 -0.6480 -0.5653
 6563SOL     OW31324   2.721   0.319   8.408  0.0713  0.0113  0.2217
 6563SOL    HW131325   2.667   0.241   8.418  0.4940 -0.6068 -2.2102
 6563SOL    HW231326   2.748   0.309   8.316  0.4492 -1.5855  0.5184
 6564SOL     OW31327   1.680   4.659   7.939 -0.0725 -0.0480 -0.1589
 6564SOL    HW131328   1.601   4.687   7.985 -0.6518 -0.4788 -0.8860
 6564SOL    HW231329   1.726   0.003   7.945 -1.3550  0.5076  1.7791
 6565SOL     OW31330   1.542   3.468  10.763  0.5617  0.2421  0.6151
 6565SOL    HW131331   1.569   3.532  10.697  2.6890  0.7711  1.9772
 6565SOL    HW231332   1.484   3.523  10.814 -0.4513 -3.3423  3.3391
 6566SOL     OW31333   2.786   1.739  10.290  0.7471 -0.1636  0.0338
 6566SOL    HW131334   2.832   1.688  10.223  1.3164  1.6834 -0.9908
 6566SOL    HW231335   2.695   1.729  10.263  0.5503  0.5674  0.4467
 6567SOL     OW31336   1.253   2.516   1.011 -0.3052 -0.4885  0.3111
 6567SOL    HW131337   1.235   2.472   1.095  0.0816 -0.5769  0.3470
 6567SOL    HW231338   1.236   2.605   1.044 -0.6073 -0.6232  0.5261
 6568SOL     OW31339   1.340   1.238  10.416 -0.2134  0.2205 -0.5638
 6568SOL    HW131340   1.282   1.298  10.462 -0.3251  0.8286 -1.5000
 6568SOL    HW231341   1.370   1.298  10.347 -2.0888  1.4724 -0.2749
 6569SOL     OW31342   2.817   3.550   7.768 -0.4121  0.6977  0.3698
 6569SOL    HW131343   2.750   3.562   7.701  1.5849 -2.7165 -2.2412
 6569SOL    HW231344   2.762   3.583   7.839 -1.3421 -0.0337 -0.0150
 6570SOL     OW31345   1.740   0.622  16.319 -0.9934 -0.0112 -0.1519
 6570SOL    HW131346   1.822   0.591  16.281 -1.5620 -2.1363  0.3042
 6570SOL    HW231347   1.679   0.577  16.260  1.6327  0.0108 -2.8743
 6571SOL     OW31348   2.725   3.461  14.271  0.2558  0.1644 -0.0379
 6571SOL    HW131349   2.808   3.506  14.277 -0.1086  1.2020 -3.2837
 6571SOL    HW231350   2.714   3.424  14.359  0.9723 -0.1922 -0.1024
 6572SOL     OW31351   1.396   0.541  12.293 -0.2383 -0.2158 -0.2903
 6572SOL    HW131352   1.439   0.499  12.219  0.0067 -0.6255  0.0770
 6572SOL    HW231353   1.468   0.522  12.354  0.5484 -1.9171 -1.7308
 6573SOL     OW31354   3.106   3.914  15.344  0.3771  0.2875 -0.1119
 6573SOL    HW131355   3.050   3.931  15.269 -0.0963  0.2654  0.2342
 6573SOL    HW231356   3.193   3.930  15.307  1.0936 -1.1550  0.9340
 6574SOL     OW31357   3.657   0.474  17.151 -0.2390 -0.1667  0.1801
 6574SOL    HW131358   3.678   0.387  17.185  0.2925  0.0568  0.4241
 6574SOL    HW231359   3.721   0.525  17.200 -1.3196  0.1918  1.2072
 6575SOL     OW31360   3.105   1.575   5.450  0.3879  0.0462 -0.2329
 6575SOL    HW131361   3.177   1.529   5.405  1.1553  1.2742 -0.2618
 6575SOL    HW231362   3.097   1.646   5.387  0.0619 -0.7923 -1.1370
 6576SOL     OW31363   3.418   4.399   0.201 -0.4823 -0.0809  0.4682
 6576SOL    HW131364   3.506   4.420   0.170 -1.0245 -0.2904 -1.2634
 6576SOL    HW231365   3.431   4.310   0.235  0.2797  0.3273  1.2446
 6577SOL     OW31366   2.306   3.587   4.218  0.1405 -0.6975  0.7088
 6577SOL    HW131367   2.345   3.534   4.149  0.5573  1.6657 -0.8548
 6577SOL    HW231368   2.211   3.578   4.204  0.1858  0.3167 -0.2359
 6578SOL     OW31369   0.040   3.427   6.860 -0.3886  0.2590  0.0042
 6578SOL    HW131370   4.699   3.380   6.879 -0.6453  0.1034 -1.5375
 6578SOL    HW231371   0.086   3.392   6.936 -0.8920 -1.2388 -0.3956
 6579SOL     OW31372   1.252   0.077   6.010 -0.3223  0.1218  0.5945
 6579SOL    HW131373   1.336   0.040   6.037 -0.1463 -0.8439 -1.2490
 6579SOL    HW231374   1.213   0.088   6.097 -0.9067 -0.4660  0.4159
 6580SOL     OW31375   4.616   1.379   0.528 -0.3645  0.3773  0.2513
 6580SOL    HW131376   4.701   1.393   0.570 -0.3254  0.8046  0.0267
 6580SOL    HW231377   4.561   1.344   0.598 -2.6599  2.9407 -0.2870
 6581SOL     OW31378   3.258   4.105   8.836  0.3642 -0.0929 -0.1820
 6581SOL    HW131379   3.183   4.161   8.819 -0.2495 -0.0665  2.5205
 6581SOL    HW231380   3.257   4.040   8.766  0.0668 -1.6338  1.2491
 6582SOL     OW31381   3.485   2.705   4.552  0.7737 -0.3506 -0.4962
 6582SOL    HW131382   3.562   2.661   4.516  0.1045 -0.4247 -1.8275
 6582SOL    HW231383   3.463   2.766   4.482  0.3605 -1.9694 -1.7988
 6583SOL     OW31384   3.469   1.696   4.794 -0.0061  0.5070 -0.2641
 6583SOL    HW131385   3.404   1.762   4.768 -0.7273  0.7346  2.1165
 6583SOL    HW231386   3.424   1.645   4.862 -0.4560  2.1107  0.6573
 6584SOL     OW31387   2.327   3.905   3.551  0.6255  0.1503 -0.2749
 6584SOL    HW131388   2.319   3.818   3.593 -2.4436 -0.3194 -1.8197
 6584SOL    HW231389   2.399   3.944   3.600  0.0628  0.3060  0.4485
 6585SOL     OW31390   3.876   3.861   2.359  0.3523 -0.0603 -0.6460
 6585SOL    HW131391   3.882   3.914   2.280 -0.1623 -0.2051 -0.7826
 6585SOL    HW231392   3.965   3.866   2.393  0.3172 -1.2189 -0.3574
 6586SOL     OW31393   2.451   0.940   2.927  0.2963  0.8137  0.5166
 6586SOL    HW131394   2.514   0.968   2.993  0.2373 -1.5598  1.5931
 6586SOL    HW231395   2.439   1.015   2.870  3.1170  1.6161  0.9922
 6587SOL     OW31396   3.168   0.746   7.914 -0.2530 -0.5140 -0.4868
 6587SOL    HW131397   3.206   0.779   7.995 -1.2287 -0.8130  0.0916
 6587SOL    HW231398   3.198   0.814   7.854  0.4852 -0.8774 -0.5208
 6588SOL     OW31399   4.012   2.956  13.342  0.3871  0.2730 -0.0716
 6588SOL    HW131400   4.056   2.930  13.260 -0.8616  3.6539 -1.7966
 6588SOL    HW231401   4.088   2.998  13.381 -0.2032  0.5117  0.8219
 6589SOL     OW31402   1.685   0.714  15.790  0.6517 -0.2556 -0.0295
 6589SOL    HW131403   1.602   0.692  15.746  0.4967  0.7218 -0.2255
 6589SOL    HW231404   1.712   0.785  15.732  3.8382 -1.9354 -0.6143
 6590SOL     OW31405   3.258   0.280   7.264 -0.8331  0.7442  0.2520
 6590SOL    HW131406   3.281   0.337   7.191 -2.9826  1.3438  0.0643
 6590SOL    HW231407   3.176   0.323   7.288 -1.1766  0.3325 -0.1779
 6591SOL     OW31408   4.182   0.182   5.193  0.6236  0.0182  0.1375
 6591SOL    HW131409   4.125   0.179   5.116  0.2749  0.8247  0.3597
 6591SOL    HW231410   4.232   0.263   5.184  1.2720 -0.4209 -0.1865
 6592SOL     OW31411   0.466   1.927  15.493 -0.4102 -0.5605 -0.6313
 6592SOL    HW131412   0.498   1.984  15.564  0.2622 -2.8486  0.8866
 6592SOL    HW231413   0.428   1.998  15.441 -0.0084  0.7342  0.8371
 6593SOL     OW31414   2.732   0.231   3.971  0.4414 -0.1506  0.2986
 6593SOL    HW131415   2.729   0.137   3.954  0.4435 -0.5920  2.7626
 6593SOL    HW231416   2.639   0.247   3.989  0.0842 -0.7454 -1.0259
 6594SOL     OW31417   0.417   4.133   3.502  0.7238 -0.8714  0.2125
 6594SOL    HW131418   0.450   4.213   3.542  3.2679 -1.5786 -0.4919
 6594SOL    HW231419   0.388   4.162   3.416 -1.5882 -0.3309  1.1443
 6595SOL     OW31420   3.628   0.811   5.270  0.1017  0.0328 -0.1806
 6595SOL    HW131421   3.644   0.754   5.195 -1.2277 -3.3641  2.1375
 6595SOL    HW231422   3.534   0.801   5.283 -0.0664  2.4824  0.4749
 6596SOL     OW31423   3.979   1.613   4.371  0.4886 -0.2029  0.5990
 6596SOL    HW131424   4.055   1.649   4.417  1.4333 -1.3800 -0.0165
 6596SOL    HW231425   4.005   1.653   4.288 -0.2227  1.3817  1.1385
 6597SOL     OW31426   2.592   3.406   9.527  0.2530  0.0645  0.3518
 6597SOL    HW131427   2.512   3.389   9.478 -0.4833  0.9887  1.2352
 6597SOL    HW231428   2.643   3.435   9.451  0.0876  1.6277  0.8302
 6598SOL     OW31429   3.184   2.461   3.560 -0.3872  0.5899  0.2378
 6598SOL    HW131430   3.146   2.478   3.646  1.4505 -0.8803  1.3598
 6598SOL    HW231431   3.132   2.381   3.548 -0.6437  0.6134  1.2018
 6599SOL     OW31432   4.416   3.605   4.612 -0.7136 -0.1854  0.4216
 6599SOL    HW131433   4.429   3.634   4.702  1.2797  2.8450 -0.8324
 6599SOL    HW231434   4.389   3.689   4.574 -1.7993 -0.8822 -0.3736
 6600SOL     OW31435   2.191   0.557   9.097  0.0102 -0.0496 -0.0325
 6600SOL    HW131436   2.217   0.649   9.093  2.0683 -0.7079 -1.5921
 6600SOL    HW231437   2.143   0.547   9.180  1.2856 -0.8685  0.6121
 6601SOL     OW31438   4.226   0.291   4.869 -0.1799 -0.3903 -0.6057
 6601SOL    HW131439   4.254   0.214   4.918 -1.6871 -0.2229  0.5168
 6601SOL    HW231440   4.306   0.329   4.832  1.1241 -1.6203  0.9850
 6602SOL     OW31441   1.970   0.076   3.846 -0.2720  0.4902 -0.0309
 6602SOL    HW131442   1.892   0.022   3.834 -1.4717  2.2787 -0.2652
 6602SOL    HW231443   1.934   0.157   3.882 -1.0951  1.0001 -2.0051
 6603SOL     OW31444   4.308   0.864   5.629 -0.5445  0.4576  0.2545
 6603SOL    HW131445   4.238   0.807   5.597 -2.5031  1.4936  2.6558
 6603SOL    HW231446   4.364   0.840   5.556  0.6662  1.7012  0.7932
 6604SOL     OW31447   3.742   3.809   6.166  0.1083  0.3918  0.3415
 6604SOL    HW131448   3.837   3.803   6.175  0.2148 -1.2787 -2.0577
 6604SOL    HW231449   3.727   3.751   6.092 -0.0318 -1.4646  1.8087
 6605SOL     OW31450   2.408   4.149   5.505  0.1864 -0.7158  0.0340
 6605SOL    HW131451   2.338   4.198   5.549 -1.2639 -1.2109 -1.7185
 6605SOL    HW231452   2.385   4.157   5.413  0.0189  0.1124  0.1478
 6606SOL     OW31453   4.146   0.492   0.587  0.0754  0.1878  0.3854
 6606SOL    HW131454   4.129   0.586   0.594  2.7399  0.7409 -0.6960
 6606SOL    HW231455   4.241   0.485   0.588  0.2132  1.7725 -0.9681
 6607SOL     OW31456   4.465   0.803   4.796 -1.2241  0.7204  0.6451
 6607SOL    HW131457   4.476   0.854   4.716  2.4468 -0.9674  0.0659
 6607SOL    HW231458   4.510   0.868   4.850  0.0940 -0.3813  0.8642
 6608SOL     OW31459   2.587   1.610   4.701 -0.5968 -0.5697  0.2027
 6608SOL    HW131460   2.537   1.554   4.641  2.7752 -0.3726 -2.7631
 6608SOL    HW231461   2.634   1.669   4.642  1.2445 -2.1385  0.1010
 6609SOL     OW31462   1.674   3.402   9.356  0.0579 -0.3028 -0.2388
 6609SOL    HW131463   1.686   3.495   9.337  0.3560  0.0656  1.8371
 6609SOL    HW231464   1.759   3.360   9.358  1.2843  2.1298 -1.4969
 6610SOL     OW31465   4.533   4.300  17.586  0.1650  0.0475 -0.0329
 6610SOL    HW131466   4.541   4.395  17.574 -1.7392  0.2210  0.0716
 6610SOL    HW231467   4.589   4.271  17.514 -1.1254 -0.0429 -0.9958
 6611SOL     OW31468   0.299   0.864   5.619  0.4425 -0.3054  0.0342
 6611SOL    HW131469   0.343   0.936   5.664  1.1053 -1.0341  0.5517
 6611SOL    HW231470   0.341   0.876   5.534 -0.6412  0.7387 -0.3597
 6612SOL     OW31471   2.331   2.017   7.284 -0.2057 -0.0346  0.4415
 6612SOL    HW131472   2.329   2.110   7.262  1.3835  0.0078  0.4606
 6612SOL    HW231473   2.364   2.017   7.374 -1.6551 -0.3526  0.9765
 6613SOL     OW31474   0.231   0.847  15.208  0.2687  0.0734  0.1577
 6613SOL    HW131475   0.305   0.789  15.228  2.0119  2.0060 -0.7211
 6613SOL    HW231476   0.279   0.906  15.150  1.6807 -1.5898 -0.3592
 6614SOL     OW31477   2.281   4.079   6.394 -0.0368  0.0224  0.2717
 6614SOL    HW131478   2.263   3.998   6.442  0.3565 -0.9212 -1.1556
 6614SOL    HW231479   2.349   4.054   6.332  1.1901  0.7806  1.3244
 6615SOL     OW31480   0.373   0.054   1.946 -0.3427  0.0551  0.0364
 6615SOL    HW131481   0.457   0.098   1.936  0.7913 -2.5478 -1.9179
 6615SOL    HW231482   0.356   0.097   2.029  0.1715  2.0988 -0.9094
 6616SOL     OW31483   0.407   2.796   1.995 -0.4416 -0.4942  0.3947
 6616SOL    HW131484   0.452   2.714   2.017  1.3584 -0.7067 -4.1336
 6616SOL    HW231485   0.336   2.802   2.059 -1.0944  1.0547 -0.4806
 6617SOL     OW31486   3.061   3.647   8.865  0.2636  0.0854  0.0316
 6617SOL    HW131487   2.998   3.720   8.860 -2.0029 -1.9214 -0.7362
 6617SOL    HW231488   3.127   3.666   8.798 -0.5410 -0.0075 -0.7930
 6618SOL     OW31489   0.374   4.656  14.963  0.1509 -0.5301 -0.5376
 6618SOL    HW131490   0.449   4.674  14.906  0.2307  1.7905  0.2969
 6618SOL    HW231491   0.320   4.728  14.929  2.2773  1.5045  0.3209
 6619SOL     OW31492   2.470   4.733   8.766 -0.4959 -0.2472 -0.4571
 6619SOL    HW131493   2.376   0.007   8.761 -0.3061  1.3367  0.3135
 6619SOL    HW231494   2.473   4.638   8.758 -0.8624 -0.3564  0.7610
 6620SOL     OW31495   4.707   1.553   7.987  0.2334 -0.2008  0.1939
 6620SOL    HW131496   4.624   1.582   8.025 -0.2179  0.3093 -1.1717
 6620SOL    HW231497   0.010   1.638   7.978 -1.9256  1.0559  1.7634
 6621SOL     OW31498   4.163   1.858   5.729  0.4098  0.1545 -0.3127
 6621SOL    HW131499   4.253   1.841   5.756  0.5597 -0.8458 -1.4798
 6621SOL    HW231500   4.157   1.950   5.756  0.8280 -0.2278  1.0957
 6622SOL     OW31501   1.375   3.294  13.230 -0.1860  0.3925  0.0825
 6622SOL    HW131502   1.469   3.283  13.216 -0.3031  1.4806 -1.4717
 6622SOL    HW231503   1.352   3.366  13.171  0.8912  0.4931 -0.2031
 6623SOL     OW31504   1.973   0.185   9.574  0.4020  0.4003 -0.1569
 6623SOL    HW131505   1.925   0.268   9.571 -0.0296  0.1507 -0.1713
 6623SOL    HW231506   2.046   0.217   9.521  1.6588  2.9992  3.1796
 6624SOL     OW31507   3.672   1.376   7.649 -0.3149 -0.2433  0.3552
 6624SOL    HW131508   3.607   1.356   7.581  1.8905 -3.1569 -0.8961
 6624SOL    HW231509   3.751   1.387   7.596 -2.0251 -0.3466 -2.2566
 6625SOL     OW31510   1.294   0.717   7.632 -0.1050 -0.1397  0.0938
 6625SOL    HW131511   1.367   0.677   7.585  1.6765  0.9764  1.9491
 6625SOL    HW231512   1.267   0.771   7.558 -0.3990  1.1159  1.1225
 6626SOL     OW31513   2.414   2.008  17.469  0.3365  0.1951  0.2830
 6626SOL    HW131514   2.470   2.012  17.546  0.6265  2.2230 -0.0357
 6626SOL    HW231515   2.355   2.083  17.480 -2.5712 -2.0610  0.2469
 6627SOL     OW31516   3.690   2.589   4.420  0.2700  0.4550 -0.4543
 6627SOL    HW131517   3.726   2.668   4.380 -1.0070  0.6313 -1.2454
 6627SOL    HW231518   3.694   2.525   4.349 -0.3610  0.5665 -0.5943
 6628SOL     OW31519   0.936   1.092   3.287  0.0379  0.0173  0.1858
 6628SOL    HW131520   0.888   1.010   3.273 -1.1346  0.1875  3.1790
 6628SOL    HW231521   0.895   1.153   3.225  0.8866  3.4718  2.9903
 6629SOL     OW31522   1.688   1.778   2.847 -0.4001  0.0393 -0.3933
 6629SOL    HW131523   1.756   1.844   2.834 -1.1748  0.4923 -2.0736
 6629SOL    HW231524   1.615   1.835   2.869 -0.3683  0.2913 -0.9612
 6630SOL     OW31525   2.216   1.492  13.739 -0.2179  0.2045  0.2320
 6630SOL    HW131526   2.241   1.545  13.815  1.6672 -1.0702  0.5073
 6630SOL    HW231527   2.252   1.551  13.673 -0.3189 -0.0838 -0.0786
 6631SOL     OW31528   3.078   1.682   5.719 -0.3453 -0.2422  0.3917
 6631SOL    HW131529   3.083   1.636   5.635  0.8924  0.0674  0.2957
 6631SOL    HW231530   3.160   1.660   5.763  0.1059 -0.3428 -0.4955
 6632SOL     OW31531   2.424   1.802   1.847  0.1713 -0.1059 -0.1796
 6632SOL    HW131532   2.472   1.723   1.822  0.7709  0.1529  0.1643
 6632SOL    HW231533   2.420   1.785   1.941  2.0433  0.7095  0.0431
 6633SOL     OW31534   4.148   4.095   9.581 -0.2643  0.0440 -0.3118
 6633SOL    HW131535   4.108   4.053   9.657 -0.0054  1.2762  0.5083
 6633SOL    HW231536   4.171   4.012   9.540  1.1066 -0.8843  2.3553
 6634SOL     OW31537   3.929   2.780   5.873  0.0837  0.1625  0.1259
 6634SOL    HW131538   3.880   2.860   5.853  0.0241  0.6940  2.3335
 6634SOL    HW231539   3.982   2.766   5.795  1.7092  0.1313  1.2298
 6635SOL     OW31540   2.861   3.632   4.858  0.1161  0.4903 -0.1019
 6635SOL    HW131541   2.860   3.727   4.850 -1.4272  0.6653  2.1494
 6635SOL    HW231542   2.937   3.616   4.802  0.1803 -2.1718  0.7416
 6636SOL     OW31543   0.857   3.040  14.757 -0.2519 -0.6906 -0.4804
 6636SOL    HW131544   0.931   3.049  14.817 -1.2958  1.2741  0.4991
 6636SOL    HW231545   0.782   3.065  14.811  0.7851 -2.5562  1.7854
 6637SOL     OW31546   2.852   1.494  12.783  0.3669  0.6214 -0.4027
 6637SOL    HW131547   2.766   1.534  12.772 -0.6499 -0.8326  2.2758
 6637SOL    HW231548   2.860   1.502  12.878 -2.6425 -0.5497 -0.0838
 6638SOL     OW31549   0.064   3.595   7.885  0.4724  0.0734  0.1367
 6638SOL    HW131550   0.017   3.586   7.968 -0.1894  0.4205 -0.2056
 6638SOL    HW231551   0.147   3.549   7.899 -0.2421 -1.4312 -0.5948
 6639SOL     OW31552   0.888   2.757   1.612 -0.2601 -0.2921  0.0347
 6639SOL    HW131553   0.925   2.794   1.692  1.4635 -4.8626  1.3331
 6639SOL    HW231554   0.898   2.662   1.617  1.6282 -0.0968 -0.3449
 6640SOL     OW31555   1.455   2.207   5.991 -0.1389 -0.5047  0.1192
 6640SOL    HW131556   1.526   2.250   6.039  0.8230 -1.4171 -0.4729
 6640SOL    HW231557   1.475   2.115   6.010 -0.0244 -1.1194 -3.0455
 6641SOL     OW31558   4.246   4.013   8.741  0.2268 -0.9689  0.0530
 6641SOL    HW131559   4.242   4.047   8.651  0.5280 -0.0972  0.3669
 6641SOL    HW231560   4.303   3.937   8.730  0.9918 -0.4234  0.1888
 6642SOL     OW31561   3.416   2.111   5.529  0.1967 -0.0790 -0.3033
 6642SOL    HW131562   3.465   2.193   5.528  1.3053 -0.7530 -1.1819
 6642SOL    HW231563   3.355   2.121   5.601 -0.5945  1.4364 -1.1782
 6643SOL     OW31564   4.140   4.229   5.764  0.0506  0.5744  0.0393
 6643SOL    HW131565   4.065   4.282   5.734  0.3834  1.3447  0.5854
 6643SOL    HW231566   4.201   4.260   5.698  0.7844  0.7989  0.8355
 6644SOL     OW31567   3.654   0.981   3.615 -0.3644 -0.6510 -0.3517
 6644SOL    HW131568   3.662   1.053   3.553  0.6949 -0.3132  0.1847
 6644SOL    HW231569   3.561   0.995   3.636  0.0694  0.8090  0.6113
 6645SOL     OW31570   4.225   1.184  13.652  0.4713 -0.5063  0.3855
 6645SOL    HW131571   4.253   1.101  13.614 -1.0954 -1.0780  0.4722
 6645SOL    HW231572   4.151   1.157  13.706 -0.1728  0.8606  0.2030
 6646SOL     OW31573   1.619   2.379   5.145  0.4723 -0.6813  0.1811
 6646SOL    HW131574   1.570   2.366   5.063 -2.0229 -2.6675  1.9884
 6646SOL    HW231575   1.611   2.291   5.182  0.9270 -1.4940 -1.6195
 6647SOL     OW31576   3.978   2.997   2.882  0.5231  0.4865  0.2559
 6647SOL    HW131577   3.936   3.064   2.828 -0.7666 -1.2495 -0.8911
 6647SOL    HW231578   3.902   2.946   2.912 -0.1804  0.9262 -0.7830
 6648SOL     OW31579   2.927   3.324   9.194  0.4902 -0.5895 -0.3821
 6648SOL    HW131580   2.924   3.357   9.105 -2.2200  3.0075  1.0530
 6648SOL    HW231581   3.018   3.294   9.199  0.1765 -1.3901  0.4930
 6649SOL     OW31582   3.073   4.452   7.325 -0.0605  0.5556  0.2467
 6649SOL    HW131583   3.158   4.497   7.320 -0.8013  1.8921 -0.3746
 6649SOL    HW231584   3.112   4.368   7.349  1.0704  0.9653 -0.1310
 6650SOL     OW31585   4.037   1.690   4.790  0.1980  0.4697  0.1645
 6650SOL    HW131586   4.043   1.598   4.766 -0.5643 -0.2216  2.6387
 6650SOL    HW231587   4.063   1.734   4.708 -0.0938  0.5703  0.1248
 6651SOL     OW31588   0.718   4.648   7.427 -0.3402  0.0152  0.1566
 6651SOL    HW131589   0.773   4.590   7.375 -0.0055  0.8374 -0.4058
 6651SOL    HW231590   0.678   4.588   7.489 -0.0379 -0.4000 -0.0559
 6652SOL     OW31591   3.059   4.674  13.425 -1.1471 -0.2274  0.2413
 6652SOL    HW131592   3.117   4.684  13.500  0.2041 -3.9492 -0.3032
 6652SOL    HW231593   3.082   4.585  13.396 -0.7146  0.0246 -0.2079
 6653SOL     OW31594   2.116   2.757   4.437  0.3222  0.4204 -0.1718
 6653SOL    HW131595   2.123   2.705   4.517 -2.8160 -1.0545 -0.8431
 6653SOL    HW231596   2.083   2.693   4.374 -1.1918  0.2101  0.8521
 6654SOL     OW31597   0.023   2.219  15.452 -0.3308  0.5078  0.1999
 6654SOL    HW131598   4.698   2.289  15.445 -0.3473  0.6001  1.1865
 6654SOL    HW231599   0.070   2.225  15.369  3.6037  0.1847  2.4272
 6655SOL     OW31600   0.021   1.683   0.373  0.0638  0.4093 -0.3789
 6655SOL    HW131601   0.110   1.673   0.341 -0.6819  0.4960 -2.5004
 6655SOL    HW231602   4.714   1.634   0.305 -0.7860 -2.0646  1.9821
 6656SOL     OW31603   4.581   4.314  11.479  0.8689  0.4066 -0.5680
 6656SOL    HW131604   4.626   4.237  11.514 -1.5157 -1.2504 -1.2132
 6656SOL    HW231605   4.643   4.382  11.508 -1.2676  1.5142  1.3480
 6657SOL     OW31606   0.671   3.807   3.936 -0.4542  0.2105  0.0662
 6657SOL    HW131607   0.666   3.901   3.956 -0.9712  0.0840  0.5402
 6657SOL    HW231608   0.766   3.799   3.928 -0.3175  1.0814  0.7086
 6658SOL     OW31609   3.994   1.409   0.517  0.2129 -0.3639  0.1629
 6658SOL    HW131610   4.025   1.404   0.607  0.8438  1.0115  0.0216
 6658SOL    HW231611   3.913   1.362   0.535 -1.0495  1.8522  0.2967
 6659SOL     OW31612   1.992   4.632   3.050  0.1036  0.2699 -0.2898
 6659SOL    HW131613   2.041   4.659   3.128 -2.2647  0.6394  1.0705
 6659SOL    HW231614   1.984   4.713   2.999  1.7277  1.4370  1.2697
 6660SOL     OW31615   0.532   1.635   6.427 -0.7905 -0.7312  0.0002
 6660SOL    HW131616   0.487   1.601   6.504  2.2877 -0.6839  1.8358
 6660SOL    HW231617   0.549   1.557   6.374  3.2733  0.4314 -0.4189
 6661SOL     OW31618   4.061   4.082   5.173  0.0198 -0.3299  0.0904
 6661SOL    HW131619   4.033   4.050   5.260 -1.2073 -1.5053 -0.7290
 6661SOL    HW231620   3.998   4.151   5.154  1.4103  0.6730 -0.8252
 6662SOL     OW31621   3.053   1.475   6.050  0.3320  0.2569  0.2248
 6662SOL    HW131622   2.961   1.457   6.032  0.3973 -1.1637  1.3364
 6662SOL    HW231623   3.094   1.400   6.007  1.1513  0.2160  1.0906
 6663SOL     OW31624   2.586   0.429   1.305  0.4062 -0.2735  0.2737
 6663SOL    HW131625   2.659   0.466   1.256  1.6854 -1.1135  1.5360
 6663SOL    HW231626   2.606   0.463   1.392 -1.6722  1.0120  0.2403
 6664SOL     OW31627   1.841   2.699  16.103  0.3801 -0.5975  0.7815
 6664SOL    HW131628   1.774   2.739  16.158  0.1456  3.1932 -2.2818
 6664SOL    HW231629   1.841   2.755  16.026 -0.3396  0.4310  1.5301
 6665SOL     OW31630   2.559   3.783   9.480 -0.2643 -0.4187  0.1422
 6665SOL    HW131631   2.634   3.814   9.430  0.4480 -0.7234  1.0421
 6665SOL    HW231632   2.595   3.761   9.565  0.3152 -1.1578 -0.2954
 6666SOL     OW31633   2.298   2.449   9.441 -0.1737  0.5107  0.1512
 6666SOL    HW131634   2.225   2.509   9.432 -1.3759 -0.7489  1.4675
 6666SOL    HW231635   2.321   2.474   9.531 -3.2746 -1.5846  1.5292
 6667SOL     OW31636   1.080   2.429  15.521 -0.5277 -0.6172 -0.1011
 6667SOL    HW131637   1.138   2.505  15.514 -0.0628 -0.9113  0.5791
 6667SOL    HW231638   1.091   2.382  15.439 -2.1557 -0.5637 -0.3476
 6668SOL     OW31639   2.947   0.733   6.759 -0.1706  0.0161  0.2032
 6668SOL    HW131640   2.976   0.671   6.825 -1.7310 -2.3345 -1.3503
 6668SOL    HW231641   3.035   0.756   6.726 -0.0141 -1.2308 -0.2275
 6669SOL     OW31642   4.477   3.456   2.817  0.1241  0.5236 -0.1436
 6669SOL    HW131643   4.466   3.467   2.723 -0.1257 -0.5030 -0.2256
 6669SOL    HW231644   4.386   3.458   2.846  0.2932 -2.0957  0.5548
 6670SOL     OW31645   2.643   1.595   5.257  0.0320 -0.0866  0.2006
 6670SOL    HW131646   2.661   1.584   5.163  1.0470 -0.0684  0.3839
 6670SOL    HW231647   2.734   1.591   5.287  0.8539 -0.1820 -2.3285
 6671SOL     OW31648   2.895   2.017   4.884 -0.2937 -0.3772 -0.0008
 6671SOL    HW131649   2.975   1.965   4.887 -0.6387 -0.7835  1.9288
 6671SOL    HW231650   2.903   2.082   4.954  1.4225 -0.1895 -0.3572
 6672SOL     OW31651   4.078   2.778   2.608  0.3191  0.1852  0.0314
 6672SOL    HW131652   4.157   2.806   2.562 -1.9890  1.4748 -3.1858
 6672SOL    HW231653   4.111   2.777   2.698 -3.3696  0.4230  1.3920
 6673SOL     OW31654   0.961   0.964   4.442 -0.3175 -0.4315  0.2535
 6673SOL    HW131655   0.972   1.056   4.465 -0.2698  0.0749 -1.8770
 6673SOL    HW231656   1.047   0.933   4.471  0.3580  1.5374  0.3392
 6674SOL     OW31657   1.169   3.152   9.557 -0.2101 -0.1568 -0.4908
 6674SOL    HW131658   1.194   3.166   9.466 -4.6499 -1.5076 -1.8705
 6674SOL    HW231659   1.177   3.056   9.564  2.0201  0.0246 -0.3087
 6675SOL     OW31660   1.391   2.431   5.626  0.6214  0.1272  0.8346
 6675SOL    HW131661   1.346   2.368   5.682  1.5843 -1.1106  0.2102
 6675SOL    HW231662   1.382   2.403   5.535 -0.7019  1.7565  0.4539
 6676SOL     OW31663   4.224   4.657   8.452  0.0319 -0.3594  0.2080
 6676SOL    HW131664   4.210   4.653   8.358 -1.9705 -1.1565  0.5472
 6676SOL    HW231665   4.241   0.011   8.463 -2.3507 -0.1105  1.8055
 6677SOL     OW31666   2.188   2.755   2.769 -0.1461  0.4104  0.4370
 6677SOL    HW131667   2.219   2.670   2.740 -1.0943 -0.0678  0.8101
 6677SOL    HW231668   2.199   2.813   2.694 -2.6173  1.8416  1.1485
 6678SOL     OW31669   0.178   0.152  16.970  0.7508 -0.3359  0.0817
 6678SOL    HW131670   0.194   0.086  17.037  2.0398 -1.0054 -0.8847
 6678SOL    HW231671   0.238   0.122  16.901  0.2730 -0.4191 -0.3019
 6679SOL     OW31672   2.179   3.927  12.563 -0.1899 -0.1633  0.2886
 6679SOL    HW131673   2.253   3.957  12.616  0.2490  0.0243 -0.4285
 6679SOL    HW231674   2.184   3.832  12.569  0.7427 -0.2883 -2.8743
 6680SOL     OW31675   0.425   3.772   3.170  0.1781  0.1714  0.0691
 6680SOL    HW131676   0.381   3.809   3.246 -0.5739  1.6917 -1.0969
 6680SOL    HW231677   0.512   3.808   3.188  0.3475 -0.0499 -0.3054
 6681SOL     OW31678   4.636   2.769   7.871  0.5914 -0.5435  0.3556
 6681SOL    HW131679   4.557   2.736   7.916  0.1726  0.5785  0.4344
 6681SOL    HW231680   4.676   2.684   7.853 -0.2800 -1.3458  2.1436
 6682SOL     OW31681   0.254   4.593   1.524  0.8834  0.5888 -0.4423
 6682SOL    HW131682   0.334   4.543   1.508  0.8593  0.1066  0.8795
 6682SOL    HW231683   0.219   4.538   1.595  1.9098 -0.9783 -1.1428
 6683SOL     OW31684   2.995   1.030   3.698 -0.0994  0.6495 -0.0839
 6683SOL    HW131685   2.971   0.968   3.767  0.9778  1.5391  1.1026
 6683SOL    HW231686   2.947   1.004   3.620 -2.1813 -0.7864  1.6998
 6684SOL     OW31687   2.445   4.188   4.891 -0.0668 -0.0413  0.7321
 6684SOL    HW131688   2.390   4.126   4.844 -0.6138  0.9068  0.1338
 6684SOL    HW231689   2.482   4.131   4.958  0.5235 -1.8043 -1.1028
 6685SOL     OW31690   4.290   3.119  16.924 -0.0959 -0.2381  0.5697
 6685SOL    HW131691   4.227   3.086  16.989 -0.7427 -0.7003 -0.2917
 6685SOL    HW231692   4.239   3.121  16.843  2.3057  0.1921 -0.9331
 6686SOL     OW31693   2.677   4.416   5.459 -0.5923 -0.2695  0.4725
 6686SOL    HW131694   2.749   4.362   5.427  0.3821 -0.1558  2.4944
 6686SOL    HW231695   2.648   4.434   5.369  2.0322  1.0426 -0.1218
 6687SOL     OW31696   0.218   4.572  12.760 -0.3761  0.0754 -0.2063
 6687SOL    HW131697   0.145   4.521  12.796  1.4765  0.7033  4.4817
 6687SOL    HW231698   0.188   4.659  12.785 -1.1210 -0.7279  1.7142
 6688SOL     OW31699   3.851   2.165  15.967 -0.0726  0.2158  0.7021
 6688SOL    HW131700   3.879   2.240  15.914 -0.1718  0.1133  0.5075
 6688SOL    HW231701   3.914   2.100  15.935 -0.8231  0.4477 -1.2075
 6689SOL     OW31702   1.340   2.220   2.484  0.4323  0.4328  0.2444
 6689SOL    HW131703   1.377   2.184   2.403  0.0489 -0.2824  0.3812
 6689SOL    HW231704   1.411   2.201   2.545 -1.0436 -0.8514  1.5697
 6690SOL     OW31705   3.839   3.561   7.970 -0.3116  0.3769  0.0408
 6690SOL    HW131706   3.933   3.581   7.965  0.1607 -1.6770  0.6646
 6690SOL    HW231707   3.800   3.640   8.007 -1.3307  0.7047 -1.7854
 6691SOL     OW31708   2.478   2.965   0.794  1.0971  0.2876 -0.1013
 6691SOL    HW131709   2.541   2.908   0.751  1.4436 -0.1231  0.9716
 6691SOL    HW231710   2.434   2.907   0.856  0.3278  0.9153 -0.0511
 6692SOL     OW31711   0.634   0.474   5.476  0.2940 -0.4284 -0.0797
 6692SOL    HW131712   0.685   0.539   5.524  0.2767  1.8575 -3.1414
 6692SOL    HW231713   0.578   0.530   5.422 -0.2976  2.5006  3.5489
 6693SOL     OW31714   0.225   1.203   1.382  0.0665 -0.3908  0.4839
 6693SOL    HW131715   0.309   1.157   1.387  0.3347 -0.0165 -0.6518
 6693SOL    HW231716   0.245   1.296   1.388 -2.1227  0.1341 -0.2195
 6694SOL     OW31717   2.404   1.284   8.453  0.0252  0.0209 -0.6221
 6694SOL    HW131718   2.437   1.311   8.367  2.9118  1.5500  0.9823
 6694SOL    HW231719   2.328   1.341   8.463  0.2671  0.4755 -1.3833
 6695SOL     OW31720   3.512   2.203   4.418  0.8880 -0.4122 -0.3872
 6695SOL    HW131721   3.482   2.294   4.423 -0.3683 -0.8929  1.0217
 6695SOL    HW231722   3.449   2.168   4.356  0.7261  1.8023 -1.4630
 6696SOL     OW31723   4.290   3.793   6.262  0.0672 -0.2845 -0.4218
 6696SOL    HW131724   4.203   3.830   6.247  0.4081  1.1954  1.1160
 6696SOL    HW231725   4.310   3.811   6.354  1.0925 -0.7039 -0.5661
 6697SOL     OW31726   3.311   3.503   5.192  0.3287 -1.0433  0.4813
 6697SOL    HW131727   3.222   3.539   5.185  1.1020  0.7235 -0.2676
 6697SOL    HW231728   3.365   3.578   5.169  1.9935 -2.3838 -0.0122
 6698SOL     OW31729   1.683   0.940  10.022  0.7791 -0.2063 -0.4184
 6698SOL    HW131730   1.749   0.872  10.029  0.3079 -0.4904  1.2703
 6698SOL    HW231731   1.707   0.991   9.944 -1.4638  2.8591  0.8774
 6699SOL     OW31732   4.384   3.848   5.863 -0.1555  0.4812  0.0029
 6699SOL    HW131733   4.288   3.853   5.872 -0.2334 -0.6639 -0.2405
 6699SOL    HW231734   4.390   3.865   5.769  2.4443  1.1906  0.3053
 6700SOL     OW31735   4.097   3.802   9.169 -0.5027  0.4373  0.3132
 6700SOL    HW131736   4.013   3.795   9.123 -0.6795  2.1874  0.3560
 6700SOL    HW231737   4.168   3.798   9.105 -0.8236  2.0690 -0.1637
 6701SOL     OW31738   4.349   4.454   1.139 -0.4034  0.1017 -0.4207
 6701SOL    HW131739   4.439   4.488   1.145 -1.2429  1.9849  1.6041
 6701SOL    HW231740   4.304   4.500   1.210  1.4885 -0.5289  1.1934
 6702SOL     OW31741   1.194   0.191   2.760  0.3570 -0.0238  0.8331
 6702SOL    HW131742   1.107   0.225   2.778  0.2518 -0.5916  1.3861
 6702SOL    HW231743   1.212   0.149   2.844 -3.1082  1.1445  2.1008
 6703SOL     OW31744   1.864   2.137   6.901 -0.1231 -0.1646 -0.1898
 6703SOL    HW131745   1.872   2.217   6.849 -2.0136 -0.9146 -1.6256
 6703SOL    HW231746   1.941   2.144   6.958  0.0061  0.2417 -0.4154
 6704SOL     OW31747   0.384   4.425   2.393 -1.2239  0.4922 -0.4553
 6704SOL    HW131748   0.387   4.435   2.488 -0.8879  1.4721 -0.5714
 6704SOL    HW231749   0.346   4.337   2.397  0.1488 -0.1741 -1.6810
 6705SOL     OW31750   0.447   3.310   2.512  0.0127 -0.1026  0.0241
 6705SOL    HW131751   0.401   3.390   2.535  0.6144  0.0946  0.5482
 6705SOL    HW231752   0.475   3.337   2.425 -0.4123  1.5826  0.4211
 6706SOL     OW31753   4.382   1.356   8.384  0.3230 -0.3208 -0.5454
 6706SOL    HW131754   4.475   1.333   8.373  0.7791  2.7403 -3.0747
 6706SOL    HW231755   4.383   1.432   8.442  2.9305 -0.9259  0.2150
 6707SOL     OW31756   0.040   0.162   2.941  0.1929  0.4095 -0.1908
 6707SOL    HW131757   4.737   0.084   2.975  1.4317 -1.0451 -1.9563
 6707SOL    HW231758   4.702   0.206   2.909  0.6688  0.9434 -0.6132
 6708SOL     OW31759   4.657   1.214  15.027 -0.1119  0.0459  0.1009
 6708SOL    HW131760   4.699   1.138  14.987 -1.9283 -2.1400  2.2946
 6708SOL    HW231761   4.569   1.209  14.990 -0.1318 -1.0922  0.3003
 6709SOL     OW31762   1.920   0.806   3.634 -0.4168  0.3969 -0.1703
 6709SOL    HW131763   1.933   0.804   3.729  2.6594 -1.7100 -0.6356
 6709SOL    HW231764   1.923   0.712   3.621  2.0621  0.9656 -3.8032
 6710SOL     OW31765   3.674   2.027   6.663 -0.1502 -0.3346  0.6716
 6710SOL    HW131766   3.709   2.114   6.682 -1.5353  0.2813  0.4055
 6710SOL    HW231767   3.606   2.043   6.598  0.4446  0.0913  0.1598
 6711SOL     OW31768   4.451   1.583   3.404  0.1145  0.4753  0.2374
 6711SOL    HW131769   4.537   1.584   3.447  0.3672  0.9320 -0.2874
 6711SOL    HW231770   4.395   1.540   3.470 -2.4890  3.3031 -0.1530
 6712SOL     OW31771   3.847   3.166   7.739 -0.6601 -0.2683 -0.0062
 6712SOL    HW131772   3.910   3.200   7.802 -0.0179 -0.7398 -0.3909
 6712SOL    HW231773   3.882   3.190   7.653 -1.6587  2.1870  0.2682
 6713SOL     OW31774   4.678   1.250   7.926  0.4824 -0.3855  0.4930
 6713SOL    HW131775   4.651   1.341   7.918  0.8105 -0.2190  1.2778
 6713SOL    HW231776   4.730   1.236   7.847 -1.4755 -3.3669 -0.2931
 6714SOL     OW31777   2.192   3.313   4.512 -0.4151 -0.2272  0.0734
 6714SOL    HW131778   2.269   3.353   4.552 -0.2869 -0.4287  0.0244
 6714SOL    HW231779   2.130   3.387   4.515 -1.5405 -1.1069 -1.9302
 6715SOL     OW31780   3.232   2.966   5.692 -0.0446  0.1082 -0.0661
 6715SOL    HW131781   3.283   2.973   5.773  1.5286 -0.9923 -0.9476
 6715SOL    HW231782   3.271   3.034   5.637  1.1551 -0.8543 -0.4175
 6716SOL     OW31783   3.680   3.508   6.916 -0.1423  0.5903 -0.0372
 6716SOL    HW131784   3.656   3.452   6.842  0.1963  1.6584 -0.9662
 6716SOL    HW231785   3.593   3.511   6.956  0.7682  0.0961  1.9722
 6717SOL     OW31786   4.656   3.367   4.701 -0.2168 -0.4968  0.1909
 6717SOL    HW131787   4.632   3.365   4.794  1.3853 -2.1945  0.5597
 6717SOL    HW231788   4.656   3.272   4.695  0.8632 -0.6230  2.2302
 6718SOL     OW31789   0.591   2.370   6.053 -0.4447  0.2680  0.0985
 6718SOL    HW131790   0.546   2.328   5.980  0.2861  2.9683 -1.8944
 6718SOL    HW231791   0.598   2.296   6.114  1.3089  0.4676  0.1297
 6719SOL     OW31792   1.012   0.149  14.017  0.3952 -0.0197 -0.3079
 6719SOL    HW131793   1.016   0.244  14.008  0.5925  0.2578  2.6503
 6719SOL    HW231794   1.095   0.124  13.977  0.3427  0.7782 -0.8909
 6720SOL     OW31795   3.101   0.239  13.486 -0.5292 -0.4710 -0.1769
 6720SOL    HW131796   3.118   0.270  13.397 -0.9740 -2.9154 -1.1187
 6720SOL    HW231797   3.171   0.176  13.503 -0.4525 -0.4998 -0.5995
 6721SOL     OW31798   1.009   0.438  13.950 -0.4918  0.2699  0.1786
 6721SOL    HW131799   1.033   0.495  14.023 -1.8962  1.7780 -0.5610
 6721SOL    HW231800   1.098   0.420  13.919 -0.4469  2.0094 -0.6876
 6722SOL     OW31801   1.744   4.333   1.646 -0.2961  0.0649  0.2782
 6722SOL    HW131802   1.696   4.412   1.620 -1.4554 -0.6265  0.3001
 6722SOL    HW231803   1.824   4.351   1.598  0.7821  1.0519  2.4446
 6723SOL     OW31804   4.688   4.194   9.096  0.7161  0.0093  0.7512
 6723SOL    HW131805   4.672   4.148   9.013 -1.4177  2.9155 -0.4481
 6723SOL    HW231806   4.727   4.123   9.145  0.7537 -0.5445 -0.0756
 6724SOL     OW31807   0.764   3.013   4.784  0.1563 -0.2124 -0.4163
 6724SOL    HW131808   0.738   3.101   4.811 -0.3547  0.2956 -2.5673
 6724SOL    HW231809   0.846   3.033   4.738  0.6990 -1.0566  0.1944
 6725SOL     OW31810   1.840   3.721   8.032  0.3849 -0.2610  0.0660
 6725SOL    HW131811   1.758   3.715   7.983 -0.2032 -2.4305  1.3391
 6725SOL    HW231812   1.898   3.730   7.956  2.8308 -0.2875  1.9327
 6726SOL     OW31813   2.003   4.466   7.398  0.0687 -0.2838  0.0628
 6726SOL    HW131814   2.018   4.513   7.480  1.3093 -0.8960  0.1920
 6726SOL    HW231815   1.959   4.385   7.423 -0.1242 -0.1146  0.2733
 6727SOL     OW31816   1.413   2.656  12.825  0.1577  0.3297 -0.3052
 6727SOL    HW131817   1.382   2.575  12.784 -1.8640  0.6261  0.6531
 6727SOL    HW231818   1.391   2.711  12.750 -0.5526  0.1769 -0.2075
 6728SOL     OW31819   3.732   3.974  16.312  0.1661  0.3293 -0.2210
 6728SOL    HW131820   3.798   3.906  16.325 -0.7175 -0.6586 -0.9163
 6728SOL    HW231821   3.774   4.024  16.242  1.6128  0.6923  0.9021
 6729SOL     OW31822   1.592   4.279  13.421  0.0366 -0.7641  0.5391
 6729SOL    HW131823   1.627   4.224  13.491 -0.6330 -0.8344  0.8200
 6729SOL    HW231824   1.571   4.362  13.465 -2.5078  0.0164 -2.0961
 6730SOL     OW31825   0.378   3.684   7.653 -0.6137  0.0337  0.4602
 6730SOL    HW131826   0.328   3.759   7.619 -0.4535  0.2496  0.6992
 6730SOL    HW231827   0.450   3.735   7.691 -0.2421 -0.5839  0.5868
 6731SOL     OW31828   4.622   1.821  13.027  0.3587  0.4904  0.0659
 6731SOL    HW131829   4.703   1.871  13.040  0.5098  0.6857 -1.5927
 6731SOL    HW231830   4.617   1.840  12.933 -1.2681 -1.2247 -0.1886
 6732SOL     OW31831   4.022   3.866   6.280 -0.1584 -0.0086  0.1374
 6732SOL    HW131832   4.026   3.954   6.240  1.0228 -0.3336 -0.4785
 6732SOL    HW231833   4.036   3.897   6.369 -0.2554 -0.2759  0.2428
 6733SOL     OW31834   1.147   3.824   7.404 -0.3709  1.1723 -0.7780
 6733SOL    HW131835   1.234   3.848   7.437 -0.6696 -0.7003  1.3733
 6733SOL    HW231836   1.080   3.858   7.463 -0.9841  0.0997 -0.8652
 6734SOL     OW31837   1.315   3.218   2.429 -0.4309  0.0939  0.2402
 6734SOL    HW131838   1.328   3.156   2.501  0.9295 -0.6872 -0.6993
 6734SOL    HW231839   1.224   3.249   2.431  0.1351  1.9129 -1.9291
 6735SOL     OW31840   2.588   3.085   3.424 -0.0126  0.1197  0.4781
 6735SOL    HW131841   2.517   3.079   3.361  0.7082 -0.5672 -0.2689
 6735SOL    HW231842   2.539   3.034   3.489  0.3766 -0.7315  0.1028
 6736SOL     OW31843   3.834   3.027   1.925  1.0947  0.0038  0.0323
 6736SOL    HW131844   3.826   3.119   1.900 -2.8940 -1.0377 -2.5706
 6736SOL    HW231845   3.912   3.003   1.876 -0.6536 -1.8212 -1.8885
 6737SOL     OW31846   0.688   3.320  11.807 -0.8064  0.2349 -0.1681
 6737SOL    HW131847   0.692   3.338  11.901 -0.2648  1.8665 -0.5035
 6737SOL    HW231848   0.593   3.316  11.812 -0.8094  0.0114 -0.3852
 6738SOL     OW31849   1.315   1.298   7.507 -0.1086 -0.5703  0.1897
 6738SOL    HW131850   1.318   1.231   7.575  0.2693 -1.4565 -0.7106
 6738SOL    HW231851   1.400   1.290   7.464 -0.5017  1.0399 -0.8996
 6739SOL     OW31852   2.393   2.826   3.245  0.1939 -0.2598  0.3675
 6739SOL    HW131853   2.397   2.918   3.270 -0.0476  0.0509 -0.7380
 6739SOL    HW231854   2.396   2.824   3.149  0.0881  0.5066  0.3457
 6740SOL     OW31855   4.596   4.191   5.976  0.2131  0.2771  0.2326
 6740SOL    HW131856   4.662   4.196   5.908  0.7305  0.9236  0.7805
 6740SOL    HW231857   4.532   4.258   5.954 -1.8039 -1.9148 -0.6315
 6741SOL     OW31858   2.956   2.635   6.670 -0.1494 -0.1215  0.3793
 6741SOL    HW131859   2.972   2.694   6.743 -1.5100  2.6060 -1.5000
 6741SOL    HW231860   2.974   2.694   6.596 -2.8990  0.3700  0.0908
 6742SOL     OW31861   2.557   2.588  11.762 -0.0223  0.2787  0.1440
 6742SOL    HW131862   2.483   2.638  11.796 -0.5558 -1.3308  1.3364
 6742SOL    HW231863   2.528   2.577  11.672  2.8980 -2.2969 -0.4912
 6743SOL     OW31864   2.445   1.854   7.059 -0.4064 -0.0151  0.2846
 6743SOL    HW131865   2.519   1.907   7.091 -0.6332  0.4398  0.0614
 6743SOL    HW231866   2.487   1.772   7.033 -0.5998  0.8692 -2.8374
 6744SOL     OW31867   4.471   4.442  10.757 -0.5468  0.1624 -0.6153
 6744SOL    HW131868   4.389   4.399  10.781 -2.2253  2.5804 -1.9755
 6744SOL    HW231869   4.491   4.397  10.675  1.5476  2.0462 -1.1603
 6745SOL     OW31870   4.672   0.818   0.925 -0.2740  0.0306  0.6844
 6745SOL    HW131871   4.642   0.894   0.875 -0.1388 -0.4114 -0.0737
 6745SOL    HW231872   4.638   0.745   0.873 -0.0156  0.7678 -0.5134
 6746SOL     OW31873   0.948   0.779  12.522  0.2108  0.0618 -0.1399
 6746SOL    HW131874   0.974   0.853  12.466 -1.7665  1.8109  1.2107
 6746SOL    HW231875   0.856   0.800  12.541  1.1163  3.1459  0.9251
 6747SOL     OW31876   3.446   3.083   6.336  0.7455 -0.1283 -0.0148
 6747SOL    HW131877   3.502   3.075   6.258 -1.2313  0.6310 -1.4957
 6747SOL    HW231878   3.495   3.133   6.402 -0.5212  1.5545 -0.3487
 6748SOL     OW31879   1.675   2.321   3.026 -0.2501  0.1217 -0.4128
 6748SOL    HW131880   1.622   2.401   3.021 -1.5267 -0.7382 -0.7287
 6748SOL    HW231881   1.740   2.346   3.091  0.3223 -1.4005 -0.3902
 6749SOL     OW31882   2.290   1.950   6.327  0.5125 -0.3218 -0.7839
 6749SOL    HW131883   2.255   1.888   6.390  0.6611 -1.9424 -2.2978
 6749SOL    HW231884   2.204   1.973   6.291 -0.9581 -1.8433  1.7729
 6750SOL     OW31885   4.609   0.155   2.668  0.0646 -0.2097  0.0108
 6750SOL    HW131886   4.597   0.208   2.746  0.0270 -0.1153 -0.0590
 6750SOL    HW231887   4.540   0.190   2.611 -0.8195 -0.2780  1.0509
 6751SOL     OW31888   0.742   0.559   2.507 -0.1202  0.4504  0.0158
 6751SOL    HW131889   0.680   0.560   2.581  0.2797  0.9849  0.3475
 6751SOL    HW231890   0.710   0.629   2.452  0.4191  1.4069  0.9094
 6752SOL     OW31891   4.392   2.793   7.448  0.2346  0.1250 -0.2453
 6752SOL    HW131892   4.448   2.786   7.371 -1.5105  2.3978 -1.7674
 6752SOL    HW231893   4.445   2.859   7.492  0.5988  1.2476 -2.3259
 6753SOL     OW31894   3.609   1.072   2.669  0.4030  0.1066 -0.3863
 6753SOL    HW131895   3.515   1.091   2.669  0.4181  0.2547  3.1285
 6753SOL    HW231896   3.619   1.003   2.735  0.5352 -0.6035 -1.1452
 6754SOL     OW31897   1.496   0.461   8.392  0.3944  0.4197 -0.0954
 6754SOL    HW131898   1.501   0.381   8.445 -0.5951  0.0779 -0.5331
 6754SOL    HW231899   1.459   0.427   8.311  0.5415  0.3825 -0.1482
 6755SOL     OW31900   3.792   0.187   4.775 -0.3132 -0.2995  0.6754
 6755SOL    HW131901   3.798   0.093   4.756 -1.1396 -0.3577  0.6951
 6755SOL    HW231902   3.809   0.186   4.870 -2.6103  1.8960  1.1199
 6756SOL     OW31903   0.403   0.904   2.940  0.2780  0.2832  0.2591
 6756SOL    HW131904   0.436   0.814   2.944 -2.4518 -0.7353 -0.0899
 6756SOL    HW231905   0.482   0.952   2.916  0.0645  0.5151  0.0179
 6757SOL     OW31906   4.003   3.530   1.887  0.4958 -0.6563  0.1700
 6757SOL    HW131907   3.962   3.614   1.868  0.3425 -0.8647 -0.4091
 6757SOL    HW231908   4.015   3.495   1.799  0.3412 -0.9065  0.2456
 6758SOL     OW31909   1.538   4.276   2.813  0.1549 -0.0885  0.6702
 6758SOL    HW131910   1.616   4.332   2.812 -0.2392  0.4182 -0.5374
 6758SOL    HW231911   1.581   4.201   2.772 -0.0504  1.6090 -2.6295
 6759SOL     OW31912   0.594   1.002   2.163  0.5046  0.1401 -0.8959
 6759SOL    HW131913   0.643   0.991   2.081  1.0169  0.7658 -0.6685
 6759SOL    HW231914   0.517   1.044   2.125  0.5147  2.1914  1.3772
 6760SOL     OW31915   0.996   3.293  15.866  0.3184 -0.3581 -0.4373
 6760SOL    HW131916   1.051   3.294  15.788 -0.0871  0.5975 -0.7213
 6760SOL    HW231917   0.910   3.289  15.823  0.3978  1.7665 -0.8284
 6761SOL     OW31918   2.487   0.515   2.205  0.4511 -0.5552 -0.0944
 6761SOL    HW131919   2.417   0.522   2.139  1.5465  3.5065 -0.8155
 6761SOL    HW231920   2.554   0.457   2.168  2.5579  1.6029  0.3884
 6762SOL     OW31921   3.115   0.561   3.224  0.0290  0.0511  0.3943
 6762SOL    HW131922   3.086   0.505   3.152  0.7746 -1.5928  1.3472
 6762SOL    HW231923   3.186   0.504   3.254  0.2918  0.3786  0.4018
 6763SOL     OW31924   4.029   0.882   7.411  0.0553 -0.2333 -0.5556
 6763SOL    HW131925   3.972   0.954   7.383 -2.0568 -0.4925  3.0045
 6763SOL    HW231926   3.974   0.810   7.441  1.4088 -0.8852  0.3645
 6764SOL     OW31927   1.864   1.484  16.176  0.2717 -0.2625  0.3764
 6764SOL    HW131928   1.769   1.498  16.170  0.0994 -0.7739  2.0798
 6764SOL    HW231929   1.886   1.504  16.085  0.1606 -0.3314  0.3342
 6765SOL     OW31930   1.394   4.095   4.764  0.6636  0.5856  0.0554
 6765SOL    HW131931   1.388   4.067   4.673  0.8015 -0.2459  0.3073
 6765SOL    HW231932   1.414   4.187   4.746  2.0247  0.2074 -0.3891
 6766SOL     OW31933   3.082   1.946   5.706  0.3476  0.3669  0.0181
 6766SOL    HW131934   3.061   1.854   5.721 -2.3124  0.8875 -0.5573
 6766SOL    HW231935   3.161   1.958   5.759  0.0209  1.4779  0.2606
 6767SOL     OW31936   1.959   1.345   4.199 -0.3698  0.3485  0.3153
 6767SOL    HW131937   2.003   1.366   4.281  0.7561  0.5618 -0.3357
 6767SOL    HW231938   1.901   1.419   4.181  1.7869  1.9575 -0.1655
 6768SOL     OW31939   2.534   1.427   5.485  0.0633  0.6418  0.7048
 6768SOL    HW131940   2.592   1.494   5.449 -1.0256  0.4067 -1.5100
 6768SOL    HW231941   2.471   1.423   5.413 -0.4576  1.7793  1.0985
 6769SOL     OW31942   3.208   2.328   5.341 -0.6812 -0.0681  0.5698
 6769SOL    HW131943   3.171   2.414   5.319  0.5580 -0.2019 -2.0870
 6769SOL    HW231944   3.241   2.333   5.431 -1.1910 -3.9203  0.9527
 6770SOL     OW31945   2.770   3.569  16.703 -0.2789 -0.2225  0.4481
 6770SOL    HW131946   2.684   3.609  16.703 -0.1635  0.0200  1.4083
 6770SOL    HW231947   2.804   3.585  16.791  1.1396 -0.8965  0.0338
 6771SOL     OW31948   0.873   1.787   2.125 -0.2435  0.4071 -0.2761
 6771SOL    HW131949   0.902   1.842   2.052  0.5553 -2.5884 -2.2532
 6771SOL    HW231950   0.858   1.702   2.083  0.0116  0.3405 -0.2324
 6772SOL     OW31951   2.635   0.418   5.674 -0.0618 -0.8198  0.3255
 6772SOL    HW131952   2.584   0.393   5.597  0.5417  1.6010 -0.8685
 6772SOL    HW231953   2.567   0.440   5.737  0.3455 -2.1606  1.2265
 6773SOL     OW31954   3.736   3.303   8.134 -0.4152 -0.1346 -0.2257
 6773SOL    HW131955   3.742   3.375   8.072  1.7763 -0.0573  0.1014
 6773SOL    HW231956   3.691   3.348   8.206  0.4364 -0.0366  0.2358
 6774SOL     OW31957   4.145   4.526   4.710  0.6390 -0.3565  0.3009
 6774SOL    HW131958   4.167   4.561   4.624  3.0934 -2.3729  0.1163
 6774SOL    HW231959   4.227   4.478   4.720  0.6259 -0.2512  0.8901
 6775SOL     OW31960   4.232   4.337   7.818 -0.0917 -0.1198 -0.5924
 6775SOL    HW131961   4.327   4.345   7.831 -0.2271  0.4065  0.0361
 6775SOL    HW231962   4.240   4.342   7.723 -0.0002  2.9482 -0.4421
 6776SOL     OW31963   3.844   3.627   5.208  0.0116  0.2544 -0.3315
 6776SOL    HW131964   3.785   3.555   5.187  0.8729 -0.3317 -0.7617
 6776SOL    HW231965   3.922   3.609   5.155  0.7209 -0.9563  1.1133
 6777SOL     OW31966   0.693   0.142   5.972 -0.0911  0.0414 -0.0505
 6777SOL    HW131967   0.684   0.231   6.005  3.3863  0.6581 -0.8133
 6777SOL    HW231968   0.615   0.139   5.915 -2.9179  2.4076  3.7000
 6778SOL     OW31969   0.355   2.871   3.258  0.4734  0.4005 -0.0702
 6778SOL    HW131970   0.305   2.792   3.238  2.1404  0.0449 -2.7488
 6778SOL    HW231971   0.443   2.843   3.232 -0.3582 -0.8852 -1.4878
 6779SOL     OW31972   0.509   2.609   8.432 -0.3385 -0.4335  0.3632
 6779SOL    HW131973   0.428   2.574   8.469  1.1699 -2.1523  2.0669
 6779SOL    HW231974   0.506   2.598   8.337  0.0451  1.4167  0.1465
 6780SOL     OW31975   4.020   4.494   3.270 -0.6862 -0.1238  0.2902
 6780SOL    HW131976   4.012   4.536   3.184  3.5062  2.4581  1.1177
 6780SOL    HW231977   3.988   4.563   3.328  0.4580 -0.4473  1.2875
 6781SOL     OW31978   3.509   2.948   3.661  0.2184 -0.2948 -0.2191
 6781SOL    HW131979   3.439   2.902   3.616 -0.8600 -0.6026  1.7762
 6781SOL    HW231980   3.581   2.931   3.600  0.6730  1.3998 -0.1363
 6782SOL     OW31981   3.137   2.273   4.642 -0.0123  0.1404  0.5843
 6782SOL    HW131982   3.137   2.178   4.649  1.6160  0.1573  0.8427
 6782SOL    HW231983   3.134   2.285   4.547  4.9861 -1.5675  0.1828
 6783SOL     OW31984   0.063   4.663   8.130 -0.1096 -0.2186  0.4449
 6783SOL    HW131985   0.076   0.003   8.080 -4.5114  0.2888  0.1539
 6783SOL    HW231986   0.083   4.686   8.220 -3.0282 -1.2148  1.3391
 6784SOL     OW31987   1.780   4.140  17.324 -0.1722 -0.1838 -0.0126
 6784SOL    HW131988   1.697   4.174  17.358 -0.7388  0.4155 -2.0458
 6784SOL    HW231989   1.788   4.056  17.370  0.0102  0.5179  1.2288
 6785SOL     OW31990   3.332   1.740   2.712 -0.1358 -0.0549 -0.0764
 6785SOL    HW131991   3.353   1.787   2.793  0.0129 -0.0052 -0.1441
 6785SOL    HW231992   3.383   1.797   2.655 -2.3529  1.8069 -0.1505
 6786SOL     OW31993   0.346   3.296   1.955  0.0930  0.0731  0.3267
 6786SOL    HW131994   0.413   3.354   1.994  0.7012  0.3248 -1.0852
 6786SOL    HW231995   0.411   3.227   1.939 -0.1767 -0.2325  0.5717
 6787SOL     OW31996   0.352   0.223  16.011  0.2307  0.3199  0.2794
 6787SOL    HW131997   0.309   0.302  16.045  0.8045 -0.2266  2.2861
 6787SOL    HW231998   0.385   0.261  15.930 -0.2203 -1.1443 -0.5777
 6788SOL     OW31999   0.179   0.512   5.710 -0.2227  0.1530  0.1633
 6788SOL    HW132000   0.103   0.499   5.653  0.1499  1.0933 -0.5499
 6788SOL    HW232001   0.245   0.447   5.686  1.3900  2.1390 -0.8104
 6789SOL     OW32002   1.269   3.325   2.055  0.1261  0.0543  0.0615
 6789SOL    HW132003   1.184   3.353   2.088 -0.1643 -1.6285  0.7730
 6789SOL    HW232004   1.316   3.403   2.026  1.0085 -0.8383 -0.9086
 6790SOL     OW32005   0.856   2.076   5.074  0.7396  0.1910 -1.2770
 6790SOL    HW132006   0.812   2.034   5.148  0.0872 -0.2943 -1.9424
 6790SOL    HW232007   0.923   2.131   5.115  1.0933 -1.9847  1.0528
 6791SOL     OW32008   0.646   1.070  13.417 -0.1420  0.0045 -0.3949
 6791SOL    HW132009   0.625   1.118  13.498  1.2144  0.5341 -0.3533
 6791SOL    HW232010   0.587   0.996  13.402 -1.0664  0.5929  0.2982
 6792SOL     OW32011   2.650   4.463   3.661 -0.1549 -0.1043  0.0270
 6792SOL    HW132012   2.719   4.402   3.636 -0.6504 -1.7157  2.5346
 6792SOL    HW232013   2.617   4.469   3.572 -1.2019  0.9154  0.4855
 6793SOL     OW32014   0.421   0.896   2.519  0.6019 -0.2337 -0.0118
 6793SOL    HW132015   0.484   0.894   2.592  2.0185 -1.6267 -1.2627
 6793SOL    HW232016   0.346   0.861   2.566  1.5671 -0.0982  1.6530
 6794SOL     OW32017   0.206   3.208   4.884  0.4923  0.1611 -0.5620
 6794SOL    HW132018   0.166   3.228   4.969 -1.0763 -0.7904 -1.0723
 6794SOL    HW232019   0.160   3.127   4.863  0.1017  0.1417  0.3822
 6795SOL     OW32020   1.120   2.164   2.181 -0.2383  0.8417  0.0917
 6795SOL    HW132021   1.202   2.204   2.209  1.0228 -0.2247 -2.0787
 6795SOL    HW232022   1.062   2.173   2.256 -2.3823  0.2278 -1.4810
 6796SOL     OW32023   0.856   0.430   8.614 -0.1237  0.3039  0.0108
 6796SOL    HW132024   0.907   0.496   8.567 -1.2073  0.5228 -0.8423
 6796SOL    HW232025   0.888   0.418   8.704  2.6977 -0.5547 -1.1082
 6797SOL     OW32026   0.097   3.616   9.197 -0.2454  0.3237  0.3220
 6797SOL    HW132027   0.092   3.521   9.194 -3.3515  0.5830 -2.6342
 6797SOL    HW232028   0.180   3.618   9.149 -1.3142  0.4592 -1.5059
 6798SOL     OW32029   3.653   4.680  12.994 -0.1278 -0.0730 -0.0972
 6798SOL    HW132030   3.726   4.696  13.054  1.6465  0.2716 -2.3490
 6798SOL    HW232031   3.586   4.662  13.060  1.3237 -4.2483  0.2857
 6799SOL     OW32032   3.014   3.174   0.067 -0.0602 -0.5021  0.2232
 6799SOL    HW132033   3.081   3.234   0.036 -1.6571  0.5368 -1.1916
 6799SOL    HW232034   2.939   3.230   0.050  0.5388 -0.7110 -3.1428
 6800SOL     OW32035   2.705   3.713   1.782 -0.3377  0.0572 -0.4473
 6800SOL    HW132036   2.761   3.738   1.709 -2.1280  1.2971 -1.4069
 6800SOL    HW232037   2.767   3.690   1.851 -1.0439 -0.9290 -0.1360
 6801SOL     OW32038   1.326   2.333   5.352 -0.3495  0.2259 -0.2316
 6801SOL    HW132039   1.323   2.425   5.328  0.5627  1.0705  2.9387
 6801SOL    HW232040   1.312   2.289   5.268  0.3578 -1.8194  0.7135
 6802SOL     OW32041   3.640   3.728   9.643 -0.4698 -0.2374  0.3622
 6802SOL    HW132042   3.602   3.787   9.708 -2.0260 -0.6118 -0.2132
 6802SOL    HW232043   3.623   3.642   9.680 -0.8782 -0.0918  0.5025
 6803SOL     OW32044   0.321   2.274   6.660  0.7893 -0.3844 -0.2437
 6803SOL    HW132045   0.261   2.258   6.587  0.2729  0.9695 -0.1179
 6803SOL    HW232046   0.279   2.358   6.679  0.3294 -0.4291 -1.0602
 6804SOL     OW32047   1.128   0.154   6.799  0.0256 -0.3149  0.0685
 6804SOL    HW132048   1.170   0.146   6.885  2.8090 -1.6059 -1.3986
 6804SOL    HW232049   1.177   0.230   6.766  0.6763  0.2925  2.4177
 6805SOL     OW32050   1.188   0.095  16.208  0.0368  0.2556  0.0686
 6805SOL    HW132051   1.255   0.050  16.260 -0.1376  0.3338  0.3556
 6805SOL    HW232052   1.169   0.168  16.267 -0.0531  0.8592 -0.7095
 6806SOL     OW32053   0.684   3.413   7.986  0.1009  0.4557 -0.2769
 6806SOL    HW132054   0.696   3.502   7.952 -0.7064  0.4940 -0.4618
 6806SOL    HW232055   0.645   3.365   7.913  0.5963 -0.3248 -0.0316
 6807SOL     OW32056   4.103   1.374   0.841  0.1712 -0.2985 -0.0440
 6807SOL    HW132057   4.127   1.436   0.910  1.4754 -0.3088 -0.4883
 6807SOL    HW232058   4.051   1.314   0.894  0.9355 -0.5506  0.4226
 6808SOL     OW32059   0.399   3.637  12.022  0.2380  0.2618 -0.5121
 6808SOL    HW132060   0.436   3.618  11.935  0.3512 -1.8990  0.0138
 6808SOL    HW232061   0.312   3.598  12.019  1.4403 -2.4809  0.1700
 6809SOL     OW32062   3.188   0.229   7.908  0.2627 -0.2833 -0.5261
 6809SOL    HW132063   3.197   0.286   7.984 -0.6762  1.3070 -1.6287
 6809SOL    HW232064   3.270   0.179   7.902  2.8947  3.9621 -0.1054
 6810SOL     OW32065   0.902   4.617   9.321 -0.5326 -0.1242 -0.7121
 6810SOL    HW132066   0.838   4.655   9.261 -1.3815  0.0220  0.2835
 6810SOL    HW232067   0.896   4.524   9.296 -0.9196 -0.7703  1.7581
 6811SOL     OW32068   3.488   1.105  13.093 -0.5300 -0.0124  0.1899
 6811SOL    HW132069   3.407   1.114  13.143  0.2510  3.8176  0.7870
 6811SOL    HW232070   3.545   1.169  13.134  0.1747  0.0255 -0.8631
 6812SOL     OW32071   0.989   2.598   9.540 -0.4274  0.1881  0.2499
 6812SOL    HW132072   0.988   2.643   9.455 -1.5092 -2.7223 -1.2575
 6812SOL    HW232073   0.954   2.660   9.604 -0.5756 -0.7243  1.0417
 6813SOL     OW32074   2.449   0.687   5.579 -0.0086 -0.0949  0.0886
 6813SOL    HW132075   2.497   0.770   5.578 -2.0310  1.0502 -0.5573
 6813SOL    HW232076   2.437   0.685   5.674 -1.3379  1.8433 -0.0353
 6814SOL     OW32077   0.665   4.720   3.996  0.6032  0.0818 -1.1370
 6814SOL    HW132078   0.739   4.723   4.058 -0.1143 -0.2570 -0.2580
 6814SOL    HW232079   0.696   0.029   3.920 -0.3311  1.6896 -0.4874
 6815SOL     OW32080   0.780   4.027   4.592 -0.7632  0.2039  0.0601
 6815SOL    HW132081   0.752   4.044   4.502 -1.5635 -0.0031  0.2770
 6815SOL    HW232082   0.785   4.114   4.630  0.9474  0.6960 -1.2686
 6816SOL     OW32083   0.408   1.077  17.030  0.7114 -0.0038  0.3060
 6816SOL    HW132084   0.361   1.142  17.082  0.9756  0.1843  0.3149
 6816SOL    HW232085   0.459   1.131  16.969 -0.0779  1.9112  1.3304
 6817SOL     OW32086   3.701   2.496   9.312 -0.2080  0.1174  0.1340
 6817SOL    HW132087   3.738   2.578   9.343 -1.3191  1.1086 -1.1667
 6817SOL    HW232088   3.703   2.508   9.218 -0.9299  1.3496  0.2859
 6818SOL     OW32089   1.677   2.594   4.433 -0.2937  0.2259  0.1841
 6818SOL    HW132090   1.613   2.522   4.428 -0.8856  0.8444 -1.1376
 6818SOL    HW232091   1.754   2.550   4.397 -0.2259  0.4413  0.0693
 6819SOL     OW32092   3.817   3.150   7.373 -0.5247 -0.4322  0.2128
 6819SOL    HW132093   3.801   3.057   7.356 -1.0069  0.0923 -2.1133
 6819SOL    HW232094   3.774   3.196   7.301  0.4455 -2.7562 -1.8505
 6820SOL     OW32095   1.891   2.537   8.775  0.5123 -0.3415  0.0489
 6820SOL    HW132096   1.861   2.628   8.769  1.3916 -0.0485  0.1122
 6820SOL    HW232097   1.963   2.542   8.712  0.8627 -0.7665  0.4260
 6821SOL     OW32098   2.093   1.775   2.854  0.0220 -0.2230 -0.0908
 6821SOL    HW132099   2.104   1.803   2.945  0.9640  1.6657 -0.7779
 6821SOL    HW232100   2.145   1.694   2.856 -0.7691 -0.6375  3.5757
 6822SOL     OW32101   0.341   4.400  17.005 -0.4582  0.0184  0.6593
 6822SOL    HW132102   0.411   4.366  16.949 -2.1695 -0.0006 -1.4761
 6822SOL    HW232103   0.365   4.374  17.094 -0.0991  0.2522  0.6311
 6823SOL     OW32104   4.420   2.782   5.111 -0.1390 -0.4996  0.1704
 6823SOL    HW132105   4.424   2.793   5.206 -1.2462  1.5187 -0.0142
 6823SOL    HW232106   4.327   2.789   5.093  0.1747  0.9354 -0.8477
 6824SOL     OW32107   2.238   0.150   8.768 -0.0755 -0.0383  0.4770
 6824SOL    HW132108   2.212   0.062   8.795 -0.3083  0.4260  1.7181
 6824SOL    HW232109   2.174   0.207   8.810 -0.7325 -0.0921 -0.4329
 6825SOL     OW32110   3.650   3.737   7.409  0.2875 -0.1600  0.3431
 6825SOL    HW132111   3.616   3.777   7.330  0.0518 -0.4064  0.3209
 6825SOL    HW232112   3.578   3.759   7.468 -1.1852 -1.0639 -1.1600
 6826SOL     OW32113   2.560   1.114   2.050  0.1565  0.1772  0.1333
 6826SOL    HW132114   2.541   1.194   2.001  0.8626  0.8178  0.8925
 6826SOL    HW232115   2.655   1.116   2.042 -0.0525 -0.8164 -2.4845
 6827SOL     OW32116   2.669   2.161   7.527  0.0062  0.8738 -0.1952
 6827SOL    HW132117   2.610   2.184   7.599 -0.3360 -0.3110 -0.1065
 6827SOL    HW232118   2.729   2.235   7.540 -1.3058  2.0321 -0.6610
 6828SOL     OW32119   1.259   2.927  15.289 -0.1272  0.4886  0.0215
 6828SOL    HW132120   1.322   2.889  15.227 -2.0159 -1.3073 -0.7822
 6828SOL    HW232121   1.243   3.008  15.240 -0.1712 -0.2868 -1.2490
 6829SOL     OW32122   0.633   2.838   7.181  0.2836  0.5398  0.0037
 6829SOL    HW132123   0.542   2.861   7.162  0.4545 -0.3560 -1.9546
 6829SOL    HW232124   0.662   2.891   7.255  1.9821  0.0880 -0.3341
 6830SOL     OW32125   0.471   0.736   6.352  0.1745 -0.4537  0.0356
 6830SOL    HW132126   0.410   0.807   6.332 -0.7276 -1.2140  0.0637
 6830SOL    HW232127   0.551   0.789   6.348 -1.0183  1.3811  0.1985
 6831SOL     OW32128   4.660   4.525   5.078 -0.0003  0.1751  0.3674
 6831SOL    HW132129   4.661   4.458   5.010 -0.9816  0.5688 -0.0422
 6831SOL    HW232130   4.651   4.472   5.157  0.8915  2.0336  1.7217
 6832SOL     OW32131   3.844   1.372  14.187 -0.3424  0.0938  0.2303
 6832SOL    HW132132   3.757   1.402  14.162 -0.3668  1.0911  1.5310
 6832SOL    HW232133   3.823   1.287  14.225 -1.3481  0.9587  1.6146
 6833SOL     OW32134   3.638   1.520   8.644 -0.3881  0.1594  0.2830
 6833SOL    HW132135   3.732   1.536   8.637 -0.1368 -0.7368  1.6039
 6833SOL    HW232136   3.601   1.561   8.723 -2.7899 -2.0556  0.2901
 6834SOL     OW32137   0.466   2.336   3.777 -0.5109  0.1339 -0.4033
 6834SOL    HW132138   0.476   2.259   3.832  2.6948 -0.2504 -1.5498
 6834SOL    HW232139   0.373   2.338   3.755 -0.9232  0.2961  1.3461
 6835SOL     OW32140   4.695   1.574   5.755 -0.0042 -0.0582  0.1098
 6835SOL    HW132141   4.707   1.618   5.839 -3.8834  1.3573 -0.0858
 6835SOL    HW232142   4.709   1.483   5.782  1.8080  0.5902  1.3535
 6836SOL     OW32143   0.338   1.304   1.717  0.0361  0.4570  0.0248
 6836SOL    HW132144   0.324   1.378   1.658  0.1355  0.2681 -0.2384
 6836SOL    HW232145   0.257   1.316   1.768 -0.5637 -2.2552 -0.2872
 6837SOL     OW32146   2.953   4.694   6.024 -0.4136 -0.1568 -0.2050
 6837SOL    HW132147   3.015   0.018   6.059 -0.6007 -0.3241  0.4268
 6837SOL    HW232148   2.967   4.614   6.075 -0.8997  0.8292  1.4761
 6838SOL     OW32149   4.007   1.088  13.034 -0.1478  0.2932 -0.4105
 6838SOL    HW132150   3.961   1.011  13.002  1.0989  0.3157 -2.2402
 6838SOL    HW232151   3.966   1.085  13.121 -2.3490 -1.4718 -1.5437
 6839SOL     OW32152   2.841   1.845   9.084 -0.0325  1.0502 -0.2240
 6839SOL    HW132153   2.779   1.774   9.071  1.2208 -0.2476  0.8897
 6839SOL    HW232154   2.926   1.810   9.056 -0.9846 -1.8105  0.4347
 6840SOL     OW32155   3.919   0.675   4.279 -0.4955 -0.4456 -0.6884
 6840SOL    HW132156   3.934   0.740   4.210  0.6160  1.5185  1.3917
 6840SOL    HW232157   3.955   0.727   4.350  1.9353 -2.0310 -0.7538
 6841SOL     OW32158   3.043   0.415   0.132 -0.8942  0.3157 -0.8576
 6841SOL    HW132159   2.986   0.441   0.205 -0.2323  0.5458 -0.4221
 6841SOL    HW232160   3.011   0.468   0.059 -0.3365  1.4751 -0.2602
 6842SOL     OW32161   3.187   1.767  15.039  0.2216  0.0556  0.1577
 6842SOL    HW132162   3.134   1.742  15.115  0.1050 -0.2545 -0.0287
 6842SOL    HW232163   3.273   1.756  15.081  0.4433  0.1596 -0.2737
 6843SOL     OW32164   1.548   4.436   5.228  0.0358  0.8291  0.1771
 6843SOL    HW132165   1.492   4.513   5.221 -0.5333  0.3305 -0.7789
 6843SOL    HW232166   1.523   4.399   5.312  3.2462  2.9814  2.0549
 6844SOL     OW32167   2.597   2.622   8.175  0.4406  0.1920  0.0437
 6844SOL    HW132168   2.542   2.591   8.247  2.5075  1.8001  2.3645
 6844SOL    HW232169   2.681   2.613   8.221 -0.4902  0.4855  1.8074
 6845SOL     OW32170   0.020   0.366   3.886 -0.6096  0.2809 -0.7468
 6845SOL    HW132171   0.053   0.311   3.815 -1.1748 -1.0476  0.0060
 6845SOL    HW232172   0.073   0.445   3.884  0.0480 -0.1567 -0.5855
 6846SOL     OW32173   1.752   0.367   2.971 -0.1442  0.1487  0.3083
 6846SOL    HW132174   1.829   0.311   2.966 -0.8884 -0.9349  0.9933
 6846SOL    HW232175   1.804   0.448   2.978  0.8722 -0.4339 -0.5188
 6847SOL     OW32176   2.080   2.780   3.260 -0.1642 -0.3134  0.8069
 6847SOL    HW132177   2.094   2.749   3.170 -0.6397  0.4576  0.4705
 6847SOL    HW232178   2.164   2.803   3.301 -0.5527  1.6702  0.4783
 6848SOL     OW32179   4.523   1.959  15.586  0.2796  0.0999  0.4478
 6848SOL    HW132180   4.550   1.950  15.495  1.4754 -1.7935  0.9913
 6848SOL    HW232181   4.540   1.873  15.625  1.1889  0.2580  0.3831
 6849SOL     OW32182   3.206   2.766  16.691 -0.5416 -0.0452 -0.0161
 6849SOL    HW132183   3.132   2.707  16.673  0.0174 -0.9681  0.7008
 6849SOL    HW232184   3.188   2.785  16.783  1.2351  0.8440  0.1385
 6850SOL     OW32185   3.570   2.718   0.753  0.1046  0.0167  0.3758
 6850SOL    HW132186   3.536   2.778   0.687 -0.4166 -1.3652 -0.6301
 6850SOL    HW232187   3.523   2.753   0.829  2.2955 -0.6532  2.0533
 6851SOL     OW32188   2.667   3.643   2.896  0.0208  0.3708 -0.1718
 6851SOL    HW132189   2.622   3.722   2.928 -0.3615 -0.1314  0.5237
 6851SOL    HW232190   2.682   3.677   2.808 -0.7513 -0.9159 -0.7986
 6852SOL     OW32191   2.632   4.436   4.359  0.0915 -0.2209  0.3479
 6852SOL    HW132192   2.542   4.428   4.328  0.2780 -1.9993  0.2569
 6852SOL    HW232193   2.669   4.479   4.281 -1.1070 -1.3130 -0.8184
 6853SOL     OW32194   3.449   0.681   3.988 -0.1075 -0.2912 -0.0844
 6853SOL    HW132195   3.514   0.663   4.056  0.2577 -1.0600 -0.6311
 6853SOL    HW232196   3.387   0.744   4.024  0.5318  0.0628  0.3817
 6854SOL     OW32197   0.080   2.321   3.096 -0.6312 -0.2562 -0.3676
 6854SOL    HW132198   0.013   2.323   3.165 -1.5509  0.3596 -1.2786
 6854SOL    HW232199   0.036   2.264   3.033 -1.5682  0.7906 -0.6582
 6855SOL     OW32200   2.793   2.696   4.337 -0.0085 -0.0456 -0.4529
 6855SOL    HW132201   2.736   2.628   4.373 -1.7215  0.2752 -2.5071
 6855SOL    HW232202   2.873   2.651   4.362 -0.5513 -0.9169 -0.3044
 6856SOL     OW32203   1.508   0.446  14.867 -0.0147  0.3621  0.3553
 6856SOL    HW132204   1.455   0.503  14.811  0.4698  0.5577  0.0984
 6856SOL    HW232205   1.551   0.513  14.921 -3.9791  0.0471  3.8756
 6857SOL     OW32206   3.573   1.406   5.002  0.1235  0.1550 -0.4541
 6857SOL    HW132207   3.573   1.501   4.994 -2.1934  0.2718  0.9462
 6857SOL    HW232208   3.488   1.382   4.966 -0.1974 -0.8855  0.9808
 6858SOL     OW32209   4.089   3.738  11.273 -0.1291  0.0143  0.1553
 6858SOL    HW132210   4.037   3.751  11.193  0.6343  2.2709  0.0216
 6858SOL    HW232211   4.171   3.771  11.237  0.7617 -2.2247  0.1541
 6859SOL     OW32212   4.281   1.970   6.264 -0.4848  0.1673  0.1726
 6859SOL    HW132213   4.214   2.034   6.242 -0.4299  0.8650  2.0657
 6859SOL    HW232214   4.359   2.004   6.220  0.2569 -0.5689  0.9085
 6860SOL     OW32215   4.059   3.913   3.821 -0.1847 -0.2520 -0.9209
 6860SOL    HW132216   4.000   3.838   3.813 -0.0834 -0.6589  1.9874
 6860SOL    HW232217   4.129   3.892   3.760 -0.6626  0.7928 -1.8206
 6861SOL     OW32218   1.820   0.835   1.795  1.0485  0.1159 -0.7844
 6861SOL    HW132219   1.782   0.784   1.724 -0.3970  0.1869 -0.0502
 6861SOL    HW232220   1.894   0.867   1.742  1.1668 -0.5517 -1.0181
 6862SOL     OW32221   2.266   4.408   1.923  0.3559  0.5132 -0.0145
 6862SOL    HW132222   2.223   4.358   1.854 -0.7865  1.2860  0.1422
 6862SOL    HW232223   2.258   4.502   1.909  0.5535  0.6711  0.8793
 6863SOL     OW32224   0.930   1.268   4.905 -0.0634  0.3693  0.4286
 6863SOL    HW132225   0.959   1.198   4.847 -1.4537  0.9681 -1.0013
 6863SOL    HW232226   1.015   1.307   4.923  0.6759 -0.9981 -0.1478
 6864SOL     OW32227   0.935   2.639  15.458  0.1055  0.3097  0.1921
 6864SOL    HW132228   0.992   2.662  15.385  0.9144  0.2808  0.8279
 6864SOL    HW232229   0.973   2.553  15.479  0.1038  0.1466 -0.4787
 6865SOL     OW32230   2.186   1.252   8.167 -0.4537  0.2578  0.2796
 6865SOL    HW132231   2.128   1.179   8.189 -3.2684  2.8367  1.3619
 6865SOL    HW232232   2.130   1.327   8.186  0.3591  0.6453  1.0844
 6866SOL     OW32233   2.775   1.491   7.510 -0.0411 -0.3909  0.2585
 6866SOL    HW132234   2.846   1.431   7.534  1.2914  1.2215  0.3199
 6866SOL    HW232235   2.811   1.580   7.515 -1.8695  0.2428  2.1817
 6867SOL     OW32236   2.832   3.377   4.425  0.1721  0.2191 -0.1200
 6867SOL    HW132237   2.857   3.454   4.375  0.3289 -0.2806 -0.8218
 6867SOL    HW232238   2.910   3.361   4.477 -0.0065  0.8336  0.3333
 6868SOL     OW32239   0.174   4.638  11.105  0.6302 -0.4155  0.0839
 6868SOL    HW132240   0.105   4.627  11.039  1.1903 -2.2878 -0.1792
 6868SOL    HW232241   0.151   4.573  11.172  1.8416 -1.7746 -0.8236
 6869SOL     OW32242   0.713   0.328   6.730  0.0286 -0.2587  0.1387
 6869SOL    HW132243   0.794   0.284   6.702 -0.6026 -0.9362 -0.6269
 6869SOL    HW232244   0.713   0.313   6.825 -1.9743 -0.3011  0.1297
 6870SOL     OW32245   2.087   1.297   5.517  0.2951  0.0814  0.4336
 6870SOL    HW132246   2.074   1.235   5.589 -0.3516 -0.5973 -0.2585
 6870SOL    HW232247   2.157   1.358   5.541 -0.1798  0.8014  0.0019
 6871SOL     OW32248   2.193   3.350   3.797  0.1676  0.5183 -0.5681
 6871SOL    HW132249   2.125   3.283   3.787  1.9327 -1.1543 -1.5864
 6871SOL    HW232250   2.274   3.301   3.782 -0.5554  0.1661 -3.3218
 6872SOL     OW32251   2.055   4.326   8.071  0.7528 -0.6468 -0.4567
 6872SOL    HW132252   2.076   4.235   8.093  1.1006 -0.7222 -1.0889
 6872SOL    HW232253   2.015   4.348   8.155  1.6574 -0.9265  0.0418
 6873SOL     OW32254   4.364   4.117   6.187  0.2221  0.2035 -0.3763
 6873SOL    HW132255   4.303   4.045   6.207 -0.0095  0.6444  0.5160
 6873SOL    HW232256   4.311   4.170   6.128 -1.0452 -2.6357 -1.8102
 6874SOL     OW32257   3.907   4.699   0.867 -0.0390  0.0558 -0.3910
 6874SOL    HW132258   3.868   0.037   0.828  0.1152  0.4379  0.2336
 6874SOL    HW232259   3.848   4.669   0.936 -1.0143  1.7549 -0.4907
 6875SOL     OW32260   3.981   2.429   4.252 -0.5340  0.4967  0.3547
 6875SOL    HW132261   3.988   2.523   4.236 -1.2721  0.3676 -0.7790
 6875SOL    HW232262   3.887   2.412   4.246 -0.3974 -0.6764  1.5574
 6876SOL     OW32263   4.724   2.232   3.704  0.0244  0.1961  0.4877
 6876SOL    HW132264   0.052   2.209   3.768  0.7283 -1.1865 -0.7795
 6876SOL    HW232265   0.037   2.303   3.667 -0.3511  0.5173  0.5602
 6877SOL     OW32266   3.969   3.049   5.182 -0.3805  0.0435  0.0945
 6877SOL    HW132267   3.884   3.007   5.187  0.3691 -1.4132  0.6138
 6877SOL    HW232268   3.965   3.123   5.242  0.7171 -0.1233  0.3667
 6878SOL     OW32269   4.182   2.663   4.144  0.4453  0.2483  0.0031
 6878SOL    HW132270   4.186   2.754   4.173  1.5714  0.0328  0.5011
 6878SOL    HW232271   4.096   2.663   4.100  0.0301 -0.7785  0.8435
 6879SOL     OW32272   3.045   0.081   8.157 -0.2839  0.3612  0.3708
 6879SOL    HW132273   3.008   0.029   8.086 -3.2839  1.2568  1.3004
 6879SOL    HW232274   2.997   0.163   8.160 -0.9990  0.0112 -1.7844
 6880SOL     OW32275   4.248   3.161   6.992  0.1331 -0.3586 -1.0153
 6880SOL    HW132276   4.201   3.129   6.915 -2.3788 -0.9235  0.7488
 6880SOL    HW232277   4.200   3.240   7.018  0.1067 -0.5308 -0.5241
 6881SOL     OW32278   0.642   1.062   5.266 -0.5854 -0.4187  0.3164
 6881SOL    HW132279   0.601   1.085   5.183  2.6829 -1.5375 -1.5926
 6881SOL    HW232280   0.634   1.143   5.317  0.0744 -1.4631  2.0956
 6882SOL     OW32281   3.632   0.696   2.559  0.5170 -0.1377 -0.0711
 6882SOL    HW132282   3.688   0.678   2.634 -0.2925  2.8049  1.2363
 6882SOL    HW232283   3.552   0.724   2.604  0.4857  0.0473 -0.2405
 6883SOL     OW32284   0.075   3.745   7.100 -0.0383 -0.6456 -0.4256
 6883SOL    HW132285   0.010   3.787   7.044  0.3463  1.2109  0.4934
 6883SOL    HW232286   0.045   3.766   7.189 -0.1764 -1.5986 -0.2475
 6884SOL     OW32287   1.068   0.694   5.413  0.2411  0.1085  0.1986
 6884SOL    HW132288   1.010   0.677   5.339  0.0405 -0.0184  0.3849
 6884SOL    HW232289   1.040   0.770   5.464 -0.0694  0.4343 -0.4577
 6885SOL     OW32290   4.733   3.540   6.102 -0.5135  0.0187  0.0445
 6885SOL    HW132291   0.005   3.578   6.188 -1.1166  4.0213 -1.6693
 6885SOL    HW232292   4.665   3.598   6.068 -0.7288 -0.4996 -0.4111
 6886SOL     OW32293   2.126   2.573   3.600 -0.2781 -0.0386 -0.1898
 6886SOL    HW132294   2.126   2.547   3.508  1.4246  3.2217 -1.1152
 6886SOL    HW232295   2.067   2.506   3.635  1.0073  0.5521  3.1070
 6887SOL     OW32296   3.787   0.331   4.552  0.0951 -0.1106 -0.0451
 6887SOL    HW132297   3.817   0.280   4.627  1.6012 -0.4774 -0.8875
 6887SOL    HW232298   3.869   0.367   4.517 -0.3352 -0.8461 -1.8348
 6888SOL     OW32299   1.327   4.649   2.360 -0.3808  0.3376  0.1975
 6888SOL    HW132300   1.333   0.001   2.387  1.6011 -0.3124  1.9254
 6888SOL    HW232301   1.301   4.604   2.441  2.1951 -0.3394  0.6367
 6889SOL     OW32302   4.625   2.790   2.947 -0.4843  0.4216  0.5083
 6889SOL    HW132303   4.585   2.876   2.947 -2.3909 -0.4585 -0.5829
 6889SOL    HW232304   4.549   2.733   2.959  0.5319 -0.7254  1.6296
 6890SOL     OW32305   4.688   2.624   1.614  0.3981  1.0211 -0.1773
 6890SOL    HW132306   4.724   2.711   1.633 -0.1911  1.0431  0.8547
 6890SOL    HW232307   4.691   2.626   1.519 -0.4406 -1.6825 -0.2481
 6891SOL     OW32308   1.329   0.083   4.069  0.2971  0.2251  0.3854
 6891SOL    HW132309   1.314   0.160   4.123 -1.6754  1.0362 -1.3178
 6891SOL    HW232310   1.343   0.119   3.981 -1.3646 -0.2124 -0.0678
 6892SOL     OW32311   0.786   4.516   5.353  0.4404 -0.1171 -0.1108
 6892SOL    HW132312   0.820   4.427   5.351  1.2949  0.2007  0.6229
 6892SOL    HW232313   0.792   4.536   5.260 -0.3627  3.8942  0.6989
 6893SOL     OW32314   1.303   0.430   8.693  0.1567  0.3800  0.3284
 6893SOL    HW132315   1.217   0.468   8.711  1.4988  2.5033  2.3019
 6893SOL    HW232316   1.322   0.484   8.617  0.3151  1.1058  0.8859
 6894SOL     OW32317   1.235   2.341   3.606 -0.6220  0.4207 -0.0773
 6894SOL    HW132318   1.318   2.353   3.560 -0.0861  0.6184  0.9351
 6894SOL    HW232319   1.176   2.328   3.532 -2.1460 -2.0091  1.5564
 6895SOL     OW32320   1.030   4.446   4.043  0.3317 -0.4301 -0.5447
 6895SOL    HW132321   1.056   4.538   4.045 -2.8590  0.4148  0.9717
 6895SOL    HW232322   1.057   4.422   3.954  1.9317  0.2034 -0.2260
 6896SOL     OW32323   1.845   1.095   8.438 -0.2383 -0.2759  0.6295
 6896SOL    HW132324   1.809   1.069   8.523  1.4213  0.6780  1.6402
 6896SOL    HW232325   1.931   1.052   8.440 -0.0161  0.1744  0.7336
 6897SOL     OW32326   1.225   2.741  16.784 -0.2007 -0.2450  0.3015
 6897SOL    HW132327   1.192   2.788  16.708  0.2694  1.6397  1.2634
 6897SOL    HW232328   1.307   2.788  16.800  0.5661 -1.9680  1.3825
 6898SOL     OW32329   3.293   3.095   2.311  0.0777  0.1092 -0.2530
 6898SOL    HW132330   3.250   3.022   2.266 -0.0823 -0.2396  0.4664
 6898SOL    HW232331   3.326   3.058   2.393 -2.6218  0.7922  1.1362
 6899SOL     OW32332   2.896   1.840  12.473  0.0690 -0.3057  0.1347
 6899SOL    HW132333   2.865   1.929  12.458 -1.4069 -0.9295 -0.5024
 6899SOL    HW232334   2.819   1.791  12.501  0.4093 -1.5392 -1.0734
 6900SOL     OW32335   2.221   3.053   4.056  0.4394 -0.0171 -0.1596
 6900SOL    HW132336   2.217   2.961   4.084  2.4011 -0.4129 -1.2081
 6900SOL    HW232337   2.240   3.095   4.139  1.0722  1.5680 -1.1170
 6901SOL     OW32338   0.075   1.609  11.745  0.2729  0.9368 -0.2183
 6901SOL    HW132339   0.120   1.638  11.666 -0.2788 -0.4576 -1.0404
 6901SOL    HW232340   0.021   1.686  11.757  3.1193  2.8135  0.5248
 6902SOL     OW32341   0.099   0.001  12.006 -0.3035 -0.4226  0.1578
 6902SOL    HW132342   0.125   4.712  12.093  0.3963 -0.4141 -0.0528
 6902SOL    HW232343   0.181   0.045  11.983 -1.3830  2.1796  1.1908
 6903SOL     OW32344   2.071   2.491   6.836 -0.6287 -0.2783 -0.2513
 6903SOL    HW132345   2.003   2.428   6.812 -0.2172 -0.7419 -0.1994
 6903SOL    HW232346   2.136   2.478   6.767  2.8327  0.9065  2.8231
 6904SOL     OW32347   0.692   3.183   8.462 -0.4498 -0.0737  0.3952
 6904SOL    HW132348   0.787   3.172   8.459 -0.6564 -1.6415 -0.3466
 6904SOL    HW232349   0.663   3.122   8.529 -1.3909 -1.6211 -1.4296
 6905SOL     OW32350   2.189   2.584  12.540 -0.2627 -0.0738 -0.5061
 6905SOL    HW132351   2.180   2.506  12.596 -2.2731  0.3342 -0.2352
 6905SOL    HW232352   2.142   2.558  12.461  0.9824  0.8063 -1.5249
 6906SOL     OW32353   1.629   4.437   3.961 -0.2700  0.0435  0.3122
 6906SOL    HW132354   1.649   4.529   3.979 -0.5211 -0.0209  0.9117
 6906SOL    HW232355   1.548   4.429   4.012 -0.2235 -0.2608  0.3365
 6907SOL     OW32356   2.674   2.879   9.664  0.2885 -0.0831  0.1532
 6907SOL    HW132357   2.609   2.923   9.609  0.2547 -0.1709  0.1225
 6907SOL    HW232358   2.738   2.943   9.694  0.0711 -0.1072  0.6777
 6908SOL     OW32359   1.291   0.856   3.643 -0.1118 -0.2901 -0.3872
 6908SOL    HW132360   1.293   0.826   3.552  2.3943 -3.0326  0.5739
 6908SOL    HW232361   1.215   0.913   3.632  0.9483  1.5487  1.9562
 6909SOL     OW32362   1.456   2.952   9.811 -0.8071  1.2839  0.5050
 6909SOL    HW132363   1.536   2.945   9.760 -0.5873 -0.6535  1.1436
 6909SOL    HW232364   1.436   2.860   9.828  2.3629  0.1291 -2.0563
 6910SOL     OW32365   0.326   0.916   4.725  0.4434  0.9894 -0.0499
 6910SOL    HW132366   0.350   0.967   4.649  0.1029  2.4489  0.8241
 6910SOL    HW232367   0.349   0.831   4.687  0.8792 -0.4158  3.2906
 6911SOL     OW32368   1.483   0.410   7.262 -0.4620 -0.2248 -0.7242
 6911SOL    HW132369   1.533   0.345   7.212  1.9497  1.8327 -0.9953
 6911SOL    HW232370   1.406   0.418   7.206 -0.3624  2.4809 -0.4725
 6912SOL     OW32371   1.427   2.091   7.161  0.2238  0.0948  0.0438
 6912SOL    HW132372   1.506   2.040   7.178 -1.5201 -2.0864  1.6813
 6912SOL    HW232373   1.464   2.153   7.098  0.4501 -2.0351 -1.9246
 6913SOL     OW32374   0.863   4.150  11.846  0.4545 -0.3910  0.2605
 6913SOL    HW132375   0.825   4.064  11.831 -0.0308 -0.1627  0.1746
 6913SOL    HW232376   0.842   4.153  11.939  0.2840 -1.2973  0.2462
 6914SOL     OW32377   2.587   4.591  15.553  0.2991 -0.0692  0.2374
 6914SOL    HW132378   2.672   4.617  15.518  1.2449 -1.0808  1.8399
 6914SOL    HW232379   2.601   4.621  15.642 -1.0098  1.4277 -0.0617
 6915SOL     OW32380   1.709   2.165   3.328  0.1113 -0.6865  0.3397
 6915SOL    HW132381   1.707   2.161   3.424  0.0828 -0.3431  0.3517
 6915SOL    HW232382   1.616   2.151   3.310  0.5755 -2.6067 -0.6396
 6916SOL     OW32383   2.075   3.487  11.712 -0.2032  0.4105 -0.4820
 6916SOL    HW132384   2.164   3.520  11.727  0.8397 -1.6755 -2.0688
 6916SOL    HW232385   2.035   3.570  11.687 -0.5526  0.4620  0.2582
 6917SOL     OW32386   3.020   0.425  11.636 -0.5036  0.7586  0.2058
 6917SOL    HW132387   3.017   0.401  11.729 -2.7723 -1.5179 -0.4668
 6917SOL    HW232388   3.106   0.466  11.630  0.2563 -0.9180 -0.2967
 6918SOL     OW32389   2.928   0.658   8.197 -0.3924  0.0649  0.3780
 6918SOL    HW132390   2.970   0.629   8.278  0.6416  0.9760  0.1686
 6918SOL    HW232391   2.951   0.582   8.142  0.0777  0.1675  0.4318
 6919SOL     OW32392   4.053   2.600   7.076 -0.0107  0.3294 -0.2455
 6919SOL    HW132393   3.975   2.567   7.122  0.0147  0.0415 -0.4086
 6919SOL    HW232394   4.040   2.694   7.070  2.4131  0.7819  1.4582
 6920SOL     OW32395   2.165   2.651   2.468  0.3314 -0.1735  0.7696
 6920SOL    HW132396   2.119   2.569   2.483 -0.3991  0.1707  0.4177
 6920SOL    HW232397   2.190   2.644   2.375 -1.2708 -0.2070  0.3414
 6921SOL     OW32398   1.764   2.044  10.557 -0.0292  0.2968  0.1204
 6921SOL    HW132399   1.837   2.076  10.609 -1.2926  1.6700  1.0572
 6921SOL    HW232400   1.779   2.086  10.472  1.1478  0.5292  0.4419
 6922SOL     OW32401   1.930   2.945   9.190  0.4911 -0.0924  0.0939
 6922SOL    HW132402   1.963   2.937   9.100  1.1119 -3.0074  0.5681
 6922SOL    HW232403   2.013   2.965   9.234  1.4385 -0.5504 -1.4971
 6923SOL     OW32404   1.313   1.177   8.008 -0.3967 -0.0068 -0.4193
 6923SOL    HW132405   1.324   1.119   7.932  2.1616  2.7977 -2.2485
 6923SOL    HW232406   1.399   1.220   8.010 -0.2448 -0.5720  3.6413
 6924SOL     OW32407   1.422   3.632  10.914 -0.0127  0.1081  0.2040
 6924SOL    HW132408   1.407   3.727  10.908  2.3176  0.3162 -1.9727
 6924SOL    HW232409   1.331   3.618  10.943  0.2283 -0.8232  0.5143
 6925SOL     OW32410   4.415   3.984  14.791 -0.3302  0.3723  0.1467
 6925SOL    HW132411   4.347   4.027  14.740 -0.5299  0.5926  0.5997
 6925SOL    HW232412   4.371   3.986  14.876 -0.9528 -1.1582 -0.1220
 6926SOL     OW32413   1.747   3.603   4.375  0.1702  0.5171 -0.3986
 6926SOL    HW132414   1.688   3.535   4.345  1.5079  0.1223 -2.1197
 6926SOL    HW232415   1.774   3.640   4.291 -2.2088  3.4796  0.1307
 6927SOL     OW32416   2.024   3.844   5.919 -0.3213 -0.1006  0.4736
 6927SOL    HW132417   1.963   3.906   5.881 -2.8299 -1.6426  2.0140
 6927SOL    HW232418   2.015   3.777   5.851 -2.8538  0.2624  0.4616
 6928SOL     OW32419   1.675   2.257   7.600  0.0452  0.3006 -1.1024
 6928SOL    HW132420   1.695   2.205   7.522 -1.4856 -1.4459 -0.3305
 6928SOL    HW232421   1.740   2.327   7.597  0.7318 -0.2851  0.3996
 6929SOL     OW32422   3.627   2.064   2.420  0.2384  0.2668 -0.7514
 6929SOL    HW132423   3.561   2.121   2.381 -0.5865  0.3868  0.8269
 6929SOL    HW232424   3.581   2.023   2.493  1.4920  0.7644  0.3148
 6930SOL     OW32425   3.272   4.428  13.553 -0.7215 -0.4398  0.1596
 6930SOL    HW132426   3.182   4.395  13.558 -1.1278  0.9155  1.8590
 6930SOL    HW232427   3.254   4.520  13.571 -0.6145 -0.5566  0.8741
 6931SOL     OW32428   0.684   4.427  10.343 -0.1883  0.0609  0.0729
 6931SOL    HW132429   0.698   4.519  10.362  2.3905 -0.1182 -0.9834
 6931SOL    HW232430   0.612   4.414  10.405  0.1996  0.1040  0.5288
 6932SOL     OW32431   3.380   4.233   7.161 -0.5540  0.4738 -0.2119
 6932SOL    HW132432   3.469   4.232   7.128 -0.9493 -2.9541 -1.1397
 6932SOL    HW232433   3.352   4.284   7.085 -2.9526  0.0015  0.3373
 6933SOL     OW32434   2.405   3.542   7.761  0.0724 -0.1581  0.5537
 6933SOL    HW132435   2.368   3.579   7.841  2.5158  0.8011  1.2382
 6933SOL    HW232436   2.438   3.453   7.776  3.5670  0.9693 -0.4662
 6934SOL     OW32437   4.674   3.084   5.949 -0.1901 -0.1047  0.2999
 6934SOL    HW132438   4.636   3.167   5.980  2.5432  0.8349  1.1276
 6934SOL    HW232439   0.008   3.114   5.897  1.1320 -0.1158  2.1609
 6935SOL     OW32440   0.575   3.501   5.071  0.4073 -0.9959 -0.1927
 6935SOL    HW132441   0.618   3.571   5.022  0.5818 -1.7242 -1.0862
 6935SOL    HW232442   0.498   3.554   5.091  1.2850 -0.5064  1.9656
 6936SOL     OW32443   3.120   1.400   8.940  0.7315  0.2655 -0.7140
 6936SOL    HW132444   3.154   1.346   8.869  0.0384  0.7743 -1.4300
 6936SOL    HW232445   3.209   1.410   8.974  0.6076 -3.9854  0.8472
 6937SOL     OW32446   0.525   3.294   6.319 -0.7998 -0.3933 -0.2543
 6937SOL    HW132447   0.551   3.204   6.339  0.2434 -0.0439 -0.0640
 6937SOL    HW232448   0.429   3.288   6.310 -1.0716  2.2703  0.9288
 6938SOL     OW32449   1.451   1.154   6.925 -0.5966  0.3497  0.3913
 6938SOL    HW132450   1.536   1.131   6.963 -0.6300 -0.4949 -0.0473
 6938SOL    HW232451   1.490   1.220   6.868 -0.5769 -1.1826 -1.3637
 6939SOL     OW32452   4.578   3.331   6.065  0.4795  0.3149  0.7167
 6939SOL    HW132453   4.552   3.310   6.155 -1.4315  2.4137  0.6539
 6939SOL    HW232454   4.647   3.397   6.077 -2.0143  3.1605 -0.6812
 6940SOL     OW32455   1.153   3.358  13.863  0.2628  0.1827 -0.7471
 6940SOL    HW132456   1.060   3.363  13.884  0.0770 -1.0811 -1.2507
 6940SOL    HW232457   1.194   3.420  13.923  3.3980 -0.0951 -2.6017
 6941SOL     OW32458   3.501   2.187   7.249 -0.8138 -0.8641  0.4524
 6941SOL    HW132459   3.542   2.102   7.261  0.4167 -0.2803  0.4514
 6941SOL    HW232460   3.576   2.244   7.234 -2.1341  0.5247 -0.9394
 6942SOL     OW32461   0.893   1.975   4.033 -0.1736 -0.4205  0.2845
 6942SOL    HW132462   0.910   2.015   3.947  0.0028 -0.5693  0.2488
 6942SOL    HW232463   0.923   1.885   4.021  0.2980 -0.3177  0.6934
 6943SOL     OW32464   3.970   4.051   4.143 -0.9012 -0.6736 -0.3152
 6943SOL    HW132465   3.937   3.990   4.210  3.4720 -0.1495  2.3071
 6943SOL    HW232466   4.052   4.009   4.116 -0.4469  0.5930 -0.8890
 6944SOL     OW32467   2.534   2.927  16.738  0.1769  0.1102 -0.3537
 6944SOL    HW132468   2.514   2.897  16.826  4.3661  0.7403  0.8332
 6944SOL    HW232469   2.458   2.984  16.729 -0.9612 -1.2219  0.9002
 6945SOL     OW32470   0.808   1.694  11.654 -0.4342  0.7085  0.1561
 6945SOL    HW132471   0.818   1.683  11.749  1.3715  0.2356 -0.0945
 6945SOL    HW232472   0.744   1.765  11.646 -0.0181  1.1787  0.9049
 6946SOL     OW32473   1.376   2.666  13.295 -0.7456 -0.7761  0.0278
 6946SOL    HW132474   1.356   2.572  13.287 -0.2375 -0.9913  1.2025
 6946SOL    HW232475   1.472   2.670  13.289 -0.5952 -3.3218  0.6186
 6947SOL     OW32476   1.881   3.274   2.944  0.2545 -0.2765  0.1727
 6947SOL    HW132477   1.946   3.207   2.922  0.1802 -0.4826  0.5810
 6947SOL    HW232478   1.830   3.225   3.008 -0.8674  2.1262  1.1197
 6948SOL     OW32479   3.823   0.397   5.434 -0.6924  0.3284  0.0391
 6948SOL    HW132480   3.894   0.454   5.405 -2.8611  1.6713 -2.5832
 6948SOL    HW232481   3.874   0.327   5.476 -0.9296 -0.0585 -0.3143
 6949SOL     OW32482   3.421   3.293   8.384 -0.2933  0.1635 -0.3157
 6949SOL    HW132483   3.404   3.373   8.434 -0.3398  0.9237 -1.5486
 6949SOL    HW232484   3.459   3.234   8.449  0.3877  0.4282 -0.4739
 6950SOL     OW32485   4.205   4.014   2.185 -0.2796  0.7278  0.1123
 6950SOL    HW132486   4.283   3.972   2.223 -0.6063  0.9094  0.9928
 6950SOL    HW232487   4.242   4.085   2.133 -1.8269 -0.4612 -2.5988
 6951SOL     OW32488   3.936   4.180   9.441  0.4876  0.1158 -0.3658
 6951SOL    HW132489   3.946   4.145   9.352 -0.4651 -1.1819  0.0338
 6951SOL    HW232490   4.022   4.162   9.480 -0.7389 -0.7717  1.9077
 6952SOL     OW32491   3.195   0.782   9.281 -0.2735 -0.3412 -0.3231
 6952SOL    HW132492   3.202   0.872   9.313  1.6984 -0.5510 -0.1324
 6952SOL    HW232493   3.171   0.793   9.189  0.5558  0.1511 -0.4816
 6953SOL     OW32494   3.857   4.078   6.668 -0.4739 -0.0847 -0.6261
 6953SOL    HW132495   3.794   4.133   6.621 -1.7218 -1.4690 -0.5819
 6953SOL    HW232496   3.816   3.993   6.653  1.7724 -1.8513  3.3208
 6954SOL     OW32497   0.059   0.778  12.330 -0.1100  0.0791 -0.6094
 6954SOL    HW132498   0.080   0.712  12.397  0.1770  0.1758 -0.6053
 6954SOL    HW232499   0.101   0.732  12.257 -1.3185  1.5587 -2.2285
 6955SOL     OW32500   0.742   2.234   7.063 -0.6183 -0.7313 -0.4163
 6955SOL    HW132501   0.794   2.272   6.992 -0.2146  1.1200  0.8660
 6955SOL    HW232502   0.743   2.143   7.036  0.8722 -0.5358 -0.9911
 6956SOL     OW32503   1.616   1.947  13.126 -0.3099 -0.1424 -0.1959
 6956SOL    HW132504   1.549   1.964  13.060  0.5952  0.3860 -0.9813
 6956SOL    HW232505   1.673   2.015  13.090  0.2851 -1.0815 -1.0172
 6957SOL     OW32506   3.179   4.017   6.457 -0.4298  0.0438  0.0915
 6957SOL    HW132507   3.118   4.050   6.522 -0.4717  0.6140 -0.2353
 6957SOL    HW232508   3.115   3.972   6.401 -1.3141 -0.2140  1.3221
 6958SOL     OW32509   0.993   4.528   6.536 -0.3140  0.3605 -0.3024
 6958SOL    HW132510   1.055   4.530   6.609  0.1457  3.9975 -0.7528
 6958SOL    HW232511   0.978   4.623   6.536  0.1991  0.4464  0.6626
 6959SOL     OW32512   4.593   0.889   5.669  0.0719  0.0580  0.1080
 6959SOL    HW132513   4.561   0.979   5.667 -0.1527  0.0078  2.4260
 6959SOL    HW232514   4.652   0.886   5.593 -0.4532 -2.1340 -0.2030
 6960SOL     OW32515   3.715   3.690   0.812 -0.2553  0.2573  0.1028
 6960SOL    HW132516   3.804   3.725   0.802 -1.0993  2.2433 -0.3389
 6960SOL    HW232517   3.698   3.745   0.888  0.7661  2.9914 -1.6391
 6961SOL     OW32518   2.563   3.308   5.044  0.0564  0.1109  0.4337
 6961SOL    HW132519   2.529   3.218   5.048 -2.1266  0.9428  0.6503
 6961SOL    HW232520   2.481   3.357   5.043  1.0612  1.7874 -0.7206
 6962SOL     OW32521   4.595   3.242   2.883  0.4105 -0.0163  0.6586
 6962SOL    HW132522   4.551   3.323   2.856  1.1733  0.0109 -0.5207
 6962SOL    HW232523   4.658   3.240   2.811 -1.5445 -0.6946 -1.0260
 6963SOL     OW32524   0.518   3.976   9.181  0.0840 -0.4498 -0.2072
 6963SOL    HW132525   0.447   3.962   9.118 -1.0570 -1.0494  1.2160
 6963SOL    HW232526   0.479   3.955   9.265 -1.0007 -0.4680 -0.7074
 6964SOL     OW32527   1.399   3.443  16.481  0.4327 -0.0623  0.3632
 6964SOL    HW132528   1.378   3.360  16.438  1.6411 -0.5102  0.6559
 6964SOL    HW232529   1.322   3.453  16.537  0.9189  0.0730  1.0123
 6965SOL     OW32530   3.416   3.413  10.105  0.1746 -0.0446  0.1031
 6965SOL    HW132531   3.396   3.500  10.071  0.4441  0.8338  2.2187
 6965SOL    HW232532   3.341   3.406  10.164 -0.2255  2.2977 -0.1420
 6966SOL     OW32533   1.284   3.147   3.222  0.2584 -0.1303  0.8766
 6966SOL    HW132534   1.282   3.051   3.216 -0.6829 -0.0477 -0.2852
 6966SOL    HW232535   1.202   3.161   3.269  0.2009  1.7578  0.1966
 6967SOL     OW32536   2.088   1.026   6.184  0.0768 -0.2474  0.4163
 6967SOL    HW132537   2.031   0.967   6.135 -1.7465  1.1151  0.8959
 6967SOL    HW232538   2.072   1.108   6.138  2.1235  0.0312  0.1653
 6968SOL     OW32539   4.337   3.003  10.529 -0.0862  0.2927 -0.5185
 6968SOL    HW132540   4.286   3.062  10.584  2.0445  0.7130  1.0332
 6968SOL    HW232541   4.341   3.036  10.439 -3.8460 -0.3516 -0.8863
 6969SOL     OW32542   2.286   0.575  14.265  0.2590 -0.2367  0.4724
 6969SOL    HW132543   2.334   0.571  14.347 -0.9102 -0.1531  1.1675
 6969SOL    HW232544   2.316   0.493  14.227 -2.1457 -0.1220 -1.6675
 6970SOL     OW32545   3.907   2.077   1.863  0.5798 -0.1043 -0.2490
 6970SOL    HW132546   3.898   2.031   1.780  1.8486 -0.3173 -0.2738
 6970SOL    HW232547   3.982   2.134   1.844 -0.0072  1.1821  1.2367
 6971SOL     OW32548   0.108   3.986   9.201 -0.4739  0.0641  0.3818
 6971SOL    HW132549   0.195   4.024   9.218 -0.8307  1.6065 -1.1866
 6971SOL    HW232550   0.098   3.929   9.277  2.0266  1.1863  1.5774
 6972SOL     OW32551   4.653   3.107  16.925 -0.3646  0.6444 -0.3969
 6972SOL    HW132552   4.612   3.056  16.856  1.8255 -1.7383  0.0508
 6972SOL    HW232553   4.592   3.181  16.929 -0.3356  0.6679 -0.3907
 6973SOL     OW32554   1.239   2.939   1.604 -0.5272 -0.1891  0.1607
 6973SOL    HW132555   1.150   2.967   1.625 -0.2776  1.7621 -1.3070
 6973SOL    HW232556   1.263   3.006   1.539 -2.5044  1.3594  1.0192
 6974SOL     OW32557   1.820   2.347  16.623  0.2374 -0.3505 -0.0474
 6974SOL    HW132558   1.786   2.436  16.628 -0.0356 -0.5147  0.8959
 6974SOL    HW232559   1.837   2.340  16.529 -2.1279 -1.2973 -0.4179
 6975SOL     OW32560   4.409   2.220  11.190 -0.2852  0.3761  0.1776
 6975SOL    HW132561   4.339   2.156  11.203  1.4617 -1.2816  1.4106
 6975SOL    HW232562   4.455   2.227  11.273 -0.8208 -0.5061  0.5489
 6976SOL     OW32563   0.498   4.248   9.811 -0.2467  0.0772  0.1337
 6976SOL    HW132564   0.583   4.230   9.770  0.0483  1.1996  0.2782
 6976SOL    HW232565   0.480   4.331   9.766  1.1629  0.1835 -0.2123
 6977SOL     OW32566   0.602   2.212   3.523  0.8693  0.0940  0.0970
 6977SOL    HW132567   0.586   2.293   3.573 -2.3738 -0.3365 -0.2336
 6977SOL    HW232568   0.514   2.179   3.506  1.2455 -1.1733  0.6664
 6978SOL     OW32569   3.671   2.784   5.226  0.2585  0.7613 -0.0638
 6978SOL    HW132570   3.646   2.875   5.209 -0.0790  0.6820  0.0181
 6978SOL    HW232571   3.750   2.806   5.276 -0.4196 -1.3552  1.9303
 6979SOL     OW32572   1.478   0.242   6.257 -0.1898  0.1977 -0.3445
 6979SOL    HW132573   1.463   0.159   6.303  0.1664  0.2139 -0.1977
 6979SOL    HW232574   1.415   0.298   6.302  1.0289  1.3058 -0.0140
 6980SOL     OW32575   0.189   4.544   5.618  0.1347 -0.1080  0.2062
 6980SOL    HW132576   0.249   4.471   5.636  0.9872  0.2793 -1.0920
 6980SOL    HW232577   0.252   4.605   5.580 -0.4498 -0.6744 -1.6896
 6981SOL     OW32578   4.026   0.552   9.154  0.4812  0.5064  0.1592
 6981SOL    HW132579   3.954   0.505   9.198  0.1017  1.1581  0.2390
 6981SOL    HW232580   4.093   0.535   9.220 -1.1341  0.2189  1.7609
 6982SOL     OW32581   0.837   1.242  12.941  0.4370  0.1099 -0.4942
 6982SOL    HW132582   0.744   1.218  12.951  0.5354  0.7165  1.9565
 6982SOL    HW232583   0.880   1.156  12.939  2.4634  1.1592 -2.0276
 6983SOL     OW32584   3.856   4.018   0.772 -0.3896 -0.0436 -0.1018
 6983SOL    HW132585   3.883   4.080   0.840  2.0774 -1.2848  0.0756
 6983SOL    HW232586   3.917   3.943   0.774  0.0194  0.2156 -3.3362
 6984SOL     OW32587   2.559   2.334  16.903 -0.5521 -0.5954  0.1560
 6984SOL    HW132588   2.550   2.428  16.889 -1.9997 -0.6192  0.8866
 6984SOL    HW232589   2.485   2.326  16.963 -1.5872  1.4706 -0.8319
 6985SOL     OW32590   4.341   1.676   3.164 -0.0512 -0.1347  0.1227
 6985SOL    HW132591   4.380   1.645   3.246 -0.8573 -0.6298  0.3215
 6985SOL    HW232592   4.336   1.770   3.180 -0.1734  0.1137 -1.3379
 6986SOL     OW32593   3.370   2.937  15.506 -0.5391 -0.0057  0.2500
 6986SOL    HW132594   3.361   2.869  15.572  2.2380 -0.6501 -0.0278
 6986SOL    HW232595   3.313   3.009  15.531  1.0074  2.5056 -3.4219
 6987SOL     OW32596   3.106   0.330   6.129  0.1524 -0.4252 -0.1372
 6987SOL    HW132597   3.133   0.361   6.215  1.5917 -1.6393 -0.1441
 6987SOL    HW232598   3.011   0.323   6.137 -0.0670  1.6306 -0.8080
 6988SOL     OW32599   0.550   3.780   8.211  0.7550 -0.3807 -0.8953
 6988SOL    HW132600   0.570   3.841   8.140  0.8642  2.6078  1.6660
 6988SOL    HW232601   0.599   3.821   8.283 -0.2031  1.1098 -1.0908
 6989SOL     OW32602   0.840   0.291   0.844 -0.3258 -0.2857  0.2865
 6989SOL    HW132603   0.917   0.337   0.811  0.4534 -2.8017 -1.3312
 6989SOL    HW232604   0.770   0.342   0.803  0.4176  0.2712 -0.2942
 6990SOL     OW32605   4.068   3.213   9.008  0.3352  0.2864  0.5830
 6990SOL    HW132606   4.060   3.177   8.920  0.2978  1.9250 -0.0781
 6990SOL    HW232607   4.011   3.147   9.048  1.2388 -0.6678  0.2698
 6991SOL     OW32608   2.793   3.436   5.033  0.1153  0.2214 -0.1954
 6991SOL    HW132609   2.705   3.398   5.036  1.0950 -1.8751  1.7753
 6991SOL    HW232610   2.792   3.485   4.951  0.8437  0.1449 -0.2437
 6992SOL     OW32611   3.194   4.701   9.163 -0.2891 -0.6850 -0.3595
 6992SOL    HW132612   3.269   0.018   9.146 -1.1503  0.3888 -0.5527
 6992SOL    HW232613   3.140   0.022   9.212 -0.2651 -2.0627  1.3641
 6993SOL     OW32614   2.058   0.530   2.429 -0.2395 -0.0182  0.4659
 6993SOL    HW132615   2.146   0.548   2.462  0.6598 -3.1943 -0.2527
 6993SOL    HW232616   2.060   0.435   2.424  2.2473 -0.1198  3.4053
 6994SOL     OW32617   2.419   2.944   7.557  0.6988  0.1154 -0.1671
 6994SOL    HW132618   2.468   2.865   7.536  0.3603 -0.4166  1.0509
 6994SOL    HW232619   2.475   2.969   7.630  1.6646 -0.1388 -0.8081
 6995SOL     OW32620   3.710   4.491   5.650  0.0809 -0.3001  0.4447
 6995SOL    HW132621   3.699   4.487   5.555 -1.9197  0.2221  0.6532
 6995SOL    HW232622   3.677   4.401   5.660 -2.3107  0.5544  0.1414
 6996SOL     OW32623   2.063   1.605   7.114  0.3101  0.5070 -0.2583
 6996SOL    HW132624   2.107   1.689   7.126 -0.5962  0.7213  1.6014
 6996SOL    HW232625   1.978   1.627   7.076  0.8693 -1.2502 -2.5293
 6997SOL     OW32626   0.006   4.089   5.144  0.5574  0.1272  0.1398
 6997SOL    HW132627   4.676   4.154   5.140 -0.8469 -1.4595 -0.7139
 6997SOL    HW232628   4.704   4.017   5.189 -0.3407  0.4731 -0.1442
 6998SOL     OW32629   3.902   2.139  10.408  0.8275  0.0602 -0.0910
 6998SOL    HW132630   3.867   2.190  10.482  1.6502  0.0920  0.2851
 6998SOL    HW232631   3.946   2.064  10.448  0.6688 -0.6887 -1.3350
 6999SOL     OW32632   4.220   1.475   3.708 -0.6145 -0.4409 -0.5582
 6999SOL    HW132633   4.304   1.446   3.744 -0.7479 -0.5125 -0.3067
 6999SOL    HW232634   4.226   1.427   3.625 -2.7243  1.4731 -1.7969
 7000SOL     OW32635   4.708   1.671   7.674 -0.5237  0.1660 -0.5985
 7000SOL    HW132636   4.623   1.682   7.632  1.8551  0.9272 -5.2013
 7000SOL    HW232637   4.681   1.615   7.748 -1.5674 -0.5637 -1.5384
 7001SOL     OW32638   3.997   2.286   2.624  0.1060 -0.0091  0.3065
 7001SOL    HW132639   4.081   2.330   2.610  1.4232 -1.6397  3.0015
 7001SOL    HW232640   3.942   2.314   2.551 -1.1315 -1.0820  0.8180
 7002SOL     OW32641   2.377   0.727   8.823 -0.0652  0.2933 -0.3196
 7002SOL    HW132642   2.306   0.679   8.781 -0.5664 -2.1418  3.2709
 7002SOL    HW232643   2.404   0.776   8.746  1.1146  1.0201  0.5508
 7003SOL     OW32644   3.462   0.386   0.644  0.4596  0.1574 -0.2111
 7003SOL    HW132645   3.466   0.294   0.671 -1.1634 -0.1653 -1.0584
 7003SOL    HW232646   3.553   0.414   0.635  0.8194 -1.1832 -0.7892
 7004SOL     OW32647   0.343   3.143   3.364 -0.4422 -0.2563  0.4707
 7004SOL    HW132648   0.345   3.070   3.427  1.5672 -0.8369 -0.2432
 7004SOL    HW232649   0.363   3.094   3.284  2.0877  1.9518 -0.2565
 7005SOL     OW32650   0.993   4.262  16.392 -0.3324 -0.3336 -0.1579
 7005SOL    HW132651   0.899   4.246  16.402 -0.3072 -0.9067 -0.7962
 7005SOL    HW232652   0.993   4.289  16.300  0.5763  2.1658  0.6028
 7006SOL     OW32653   2.328   3.855  14.216  1.0701 -0.5244 -0.4878
 7006SOL    HW132654   2.310   3.939  14.174  0.0377 -0.0416  0.9212
 7006SOL    HW232655   2.357   3.809  14.137  0.8292  0.0388 -0.9111
 7007SOL     OW32656   3.113   1.791   7.685 -0.0906 -0.0218  0.6434
 7007SOL    HW132657   3.164   1.711   7.697 -0.0258 -0.1918 -0.7961
 7007SOL    HW232658   3.181   1.852   7.658 -0.4798  0.3293  0.4480
 7008SOL     OW32659   4.466   1.181   6.255  0.0397 -0.2380  0.1602
 7008SOL    HW132660   4.434   1.110   6.311  0.7519  1.2781  2.5167
 7008SOL    HW232661   4.385   1.228   6.237 -1.6227 -4.1982 -2.5061
 7009SOL     OW32662   1.512   4.604  17.670 -0.6451  0.1492  0.0435
 7009SOL    HW132663   1.568   4.676  17.698  1.1138 -1.7662  1.4525
 7009SOL    HW232664   1.581   4.541  17.647  2.0612  2.7835  0.9485
 7010SOL     OW32665   1.581   3.347   7.840 -0.6761  0.0825 -0.0990
 7010SOL    HW132666   1.652   3.315   7.896 -0.9084 -3.8142 -2.0599
 7010SOL    HW232667   1.517   3.279   7.862 -0.0275 -0.4185  0.2143
 7011SOL     OW32668   1.573   3.967   8.152 -0.7851 -0.6421 -0.3260
 7011SOL    HW132669   1.663   3.981   8.182 -1.1065  0.7714 -0.0316
 7011SOL    HW232670   1.551   3.890   8.204  1.1508 -0.1374  1.2521
 7012SOL     OW32671   4.476   2.515  15.841 -0.7559 -0.0283 -0.9059
 7012SOL    HW132672   4.540   2.533  15.910 -0.5654 -1.4208 -0.7077
 7012SOL    HW232673   4.398   2.516  15.897  1.7771  0.3399  2.5987
 7013SOL     OW32674   2.249   2.531   7.811 -0.0351 -0.3579  0.5358
 7013SOL    HW132675   2.206   2.573   7.737  0.6290  2.3500  1.6780
 7013SOL    HW232676   2.317   2.481   7.766  0.2226  2.0455 -1.7317
 7014SOL     OW32677   0.126   1.095   4.801 -0.5694  0.3114 -0.1790
 7014SOL    HW132678   0.062   1.042   4.848 -1.1469  2.1940  1.1546
 7014SOL    HW232679   0.206   1.042   4.804 -1.9227 -1.6453  0.8887
 7015SOL     OW32680   3.418   3.827   6.133  0.5757 -0.3185 -0.4807
 7015SOL    HW132681   3.332   3.784   6.136  0.6207 -0.2398  1.9367
 7015SOL    HW232682   3.390   3.919   6.132  2.0147  0.1259 -0.2435
 7016SOL     OW32683   1.851   2.127   1.684  0.1363  0.0790 -0.3844
 7016SOL    HW132684   1.788   2.167   1.623 -0.2341  1.0910  0.6608
 7016SOL    HW232685   1.905   2.079   1.622 -1.4720 -0.6083 -1.2712
 7017SOL     OW32686   2.112   1.599   6.305 -0.0180 -0.0989  0.1397
 7017SOL    HW132687   2.072   1.664   6.363 -2.5076 -1.4109 -0.1105
 7017SOL    HW232688   2.186   1.577   6.361 -0.8774 -1.4413  0.7634
 7018SOL     OW32689   1.630   2.409   9.418 -0.5411  0.7968 -0.5177
 7018SOL    HW132690   1.565   2.446   9.478 -2.6956 -1.7661 -1.2641
 7018SOL    HW232691   1.570   2.379   9.350 -2.1354 -0.7128  1.5336
 7019SOL     OW32692   3.456   1.410   2.149 -0.1316 -0.2699 -0.0219
 7019SOL    HW132693   3.532   1.468   2.150 -0.0587 -0.3856  0.9033
 7019SOL    HW232694   3.384   1.472   2.139  0.1834 -0.1304 -1.4065
 7020SOL     OW32695   1.078   0.932   5.144  0.2254 -0.1305  0.1209
 7020SOL    HW132696   1.160   0.969   5.175  0.8850 -1.3841 -0.1486
 7020SOL    HW232697   1.020   1.004   5.168  1.1667  0.9015 -0.6760
 7021SOL     OW32698   0.193   0.563   3.893 -0.8708 -0.2126 -0.3416
 7021SOL    HW132699   0.209   0.590   3.803  0.5563  1.7953  0.5175
 7021SOL    HW232700   0.234   0.633   3.943  0.2680 -1.0760 -0.0755
 7022SOL     OW32701   0.782   2.895   3.618  0.2754  0.2682  0.2189
 7022SOL    HW132702   0.786   2.990   3.634 -0.6795  0.0695  1.6575
 7022SOL    HW232703   0.746   2.867   3.702 -0.6531 -0.1780 -0.3245
 7023SOL     OW32704   1.912   1.977  12.971 -0.5211 -0.5933 -0.3465
 7023SOL    HW132705   1.855   2.054  12.980  0.4741  0.0549  0.5502
 7023SOL    HW232706   1.883   1.913  13.036 -2.6356  0.3146 -0.3820
 7024SOL     OW32707   2.309   0.108   7.751 -0.3092 -0.7044 -0.3196
 7024SOL    HW132708   2.335   0.147   7.668 -0.8490  1.3893  0.4913
 7024SOL    HW232709   2.232   0.065   7.714 -0.9662 -1.8353  2.3269
 7025SOL     OW32710   1.679   1.723   8.987  0.2491 -0.4637  0.2051
 7025SOL    HW132711   1.594   1.708   9.029  0.2949 -0.2471  0.3781
 7025SOL    HW232712   1.671   1.806   8.940 -4.0171 -0.4668  0.9264
 7026SOL     OW32713   1.172   3.039   6.072  0.7155  0.8825  0.1020
 7026SOL    HW132714   1.189   2.986   5.994 -0.4003 -1.1520  1.2302
 7026SOL    HW232715   1.173   2.966   6.134  0.6325  0.0754 -0.8451
 7027SOL     OW32716   1.446   0.808   9.073 -0.1336 -0.1796 -0.0012
 7027SOL    HW132717   1.437   0.713   9.082  0.8360 -0.1726  0.9445
 7027SOL    HW232718   1.358   0.840   9.092 -0.7303 -2.5052  1.2823
 7028SOL     OW32719   3.473   3.796   7.598 -0.0061 -0.1331 -0.3126
 7028SOL    HW132720   3.477   3.891   7.594  0.1865 -0.1923 -1.5346
 7028SOL    HW232721   3.461   3.772   7.690  0.8049  0.0996 -0.1441
 7029SOL     OW32722   1.007   2.550  12.055 -0.1532 -0.3994 -0.0675
 7029SOL    HW132723   1.060   2.612  12.104 -0.0375 -0.4297 -0.1554
 7029SOL    HW232724   0.949   2.609  12.007  1.7322  0.2894 -1.4860
 7030SOL     OW32725   1.306   4.297   0.555  0.1370  0.1661 -0.1005
 7030SOL    HW132726   1.261   4.214   0.540  1.5351 -0.4397 -0.8900
 7030SOL    HW232727   1.365   4.278   0.628  0.3031  0.4662 -0.1581
 7031SOL     OW32728   4.064   2.415   3.385 -0.0414  0.4695  0.4505
 7031SOL    HW132729   4.127   2.487   3.381 -0.4126  0.6795 -1.4214
 7031SOL    HW232730   4.104   2.353   3.324  2.6911  0.3968  2.3466
 7032SOL     OW32731   2.705   1.338   4.374 -0.5241  0.0383 -0.1711
 7032SOL    HW132732   2.752   1.263   4.409  0.0768  0.3738 -0.2539
 7032SOL    HW232733   2.739   1.335   4.285  1.4063 -1.3772  0.6183
 7033SOL     OW32734   4.672   2.809   5.311 -0.7844 -0.4687  0.0418
 7033SOL    HW132735   0.023   2.834   5.325 -0.6633 -0.9425  0.0970
 7033SOL    HW232736   4.674   2.797   5.216  0.9223  1.6644 -0.1821
 7034SOL     OW32737   3.965   1.810   0.300  0.0203 -0.4256 -0.5738
 7034SOL    HW132738   4.051   1.774   0.322 -0.4558 -0.4670  1.1758
 7034SOL    HW232739   3.928   1.818   0.388  1.0857 -2.7800  0.0738
 7035SOL     OW32740   0.464   3.658  11.768 -0.3283  0.3916  0.0448
 7035SOL    HW132741   0.504   3.595  11.708  0.0680  1.8163 -1.1974
 7035SOL    HW232742   0.538   3.665  11.830  0.2777 -2.1734 -0.3820
 7036SOL     OW32743   2.678   2.720   0.870  0.7093 -0.5940  0.0315
 7036SOL    HW132744   2.584   2.707   0.878  0.4948  0.2716 -1.0015
 7036SOL    HW232745   2.677   2.754   0.780  0.0401  1.0653  0.6628
 7037SOL     OW32746   0.343   1.838   2.132  0.0186 -0.0169  0.5804
 7037SOL    HW132747   0.361   1.834   2.226  1.3647 -0.9973  0.2751
 7037SOL    HW232748   0.345   1.933   2.116  1.9805 -0.1420  0.0682
 7038SOL     OW32749   4.304   2.608   7.194  0.6020  0.6059  0.3196
 7038SOL    HW132750   4.241   2.677   7.174 -1.5050 -1.0849  1.1179
 7038SOL    HW232751   4.251   2.561   7.258 -0.3763 -0.8001 -1.5180
 7039SOL     OW32752   3.249   4.033   4.104  0.9366  0.4204 -0.2128
 7039SOL    HW132753   3.323   4.071   4.151  1.5780  0.1132 -0.9726
 7039SOL    HW232754   3.299   3.989   4.036  0.0759 -1.6145  0.4673
 7040SOL     OW32755   4.336   1.398   3.171  0.2492 -0.2128 -0.0483
 7040SOL    HW132756   4.315   1.491   3.159 -2.0430 -0.6057  0.9632
 7040SOL    HW232757   4.256   1.350   3.150 -0.3810  1.5470 -1.7186
 7041SOL     OW32758   0.492   1.312   5.888 -0.4727  0.1359 -0.2769
 7041SOL    HW132759   0.587   1.307   5.875 -0.7665 -0.7072 -2.1316
 7041SOL    HW232760   0.460   1.300   5.798  1.0099  0.9717 -0.9228
 7042SOL     OW32761   0.685   1.303   5.626 -0.4893 -0.0247  0.3376
 7042SOL    HW132762   0.707   1.364   5.696  0.9008 -0.7506  0.5296
 7042SOL    HW232763   0.591   1.319   5.617 -0.0545  2.7667  0.9540
 7043SOL     OW32764   3.078   0.059   2.158  0.0300  0.5690 -0.2686
 7043SOL    HW132765   3.165   0.026   2.181  0.0078 -0.4541 -1.6937
 7043SOL    HW232766   3.076   0.145   2.201  0.0509  0.0043  0.8535
 7044SOL     OW32767   1.036   0.829   9.548 -0.2298  0.1889  0.1235
 7044SOL    HW132768   1.101   0.766   9.579  1.8480  1.1239 -2.3527
 7044SOL    HW232769   1.089   0.909   9.550  0.3135 -0.1677  0.2416
 7045SOL     OW32770   3.357   2.763   6.390 -0.1777 -0.0884  0.4583
 7045SOL    HW132771   3.382   2.841   6.441 -0.5524  0.3905 -0.0984
 7045SOL    HW232772   3.421   2.761   6.319  0.4844  1.8066  0.9805
 7046SOL     OW32773   3.126   1.253   3.390 -0.0675  0.5396  0.0404
 7046SOL    HW132774   3.120   1.336   3.438  0.8694 -0.4185  1.7610
 7046SOL    HW232775   3.195   1.282   3.331 -0.2904 -0.7041 -0.8222
 7047SOL     OW32776   2.573   4.169   8.585 -0.0861  0.5630  0.3299
 7047SOL    HW132777   2.660   4.209   8.576  0.6210 -1.2756 -0.9758
 7047SOL    HW232778   2.582   4.088   8.534 -0.3035 -0.1813  1.4693
 7048SOL     OW32779   0.526   2.778   2.654 -0.3755  0.4768  0.6259
 7048SOL    HW132780   0.540   2.809   2.565 -0.0443 -1.7131 -0.0990
 7048SOL    HW232781   0.593   2.827   2.702 -0.3244  1.9745 -0.9800
 7049SOL     OW32782   1.276   1.798  13.344 -0.2414  0.2458 -0.4691
 7049SOL    HW132783   1.194   1.749  13.346 -0.9227  1.4302  0.6663
 7049SOL    HW232784   1.251   1.875  13.292 -0.8586  0.3991  0.0539
 7050SOL     OW32785   4.544   0.453   2.405  0.2763 -0.1603 -0.4347
 7050SOL    HW132786   4.552   0.381   2.344 -0.5727  0.2046 -0.9846
 7050SOL    HW232787   4.473   0.503   2.363  1.4908  1.1705 -0.9014
 7051SOL     OW32788   1.501   3.856  11.860  0.5276 -0.0085 -0.5050
 7051SOL    HW132789   1.548   3.779  11.893  0.1568 -1.2445 -2.9043
 7051SOL    HW232790   1.425   3.820  11.816  0.4347  0.6572 -0.8991
 7052SOL     OW32791   3.928   4.022   2.145 -0.2602  0.3868 -0.4332
 7052SOL    HW132792   3.918   3.990   2.055 -0.6187 -2.1378  0.5175
 7052SOL    HW232793   4.023   4.006   2.144 -0.2737  0.3622 -2.4753
 7053SOL     OW32794   3.796   2.821   4.322  0.2664 -0.3247 -0.3348
 7053SOL    HW132795   3.835   2.815   4.235  1.9805 -2.9255  0.6379
 7053SOL    HW232796   3.750   2.905   4.316 -2.6808 -2.0406 -1.5783
 7054SOL     OW32797   2.481   0.356   5.464  0.0453  0.2941  0.4032
 7054SOL    HW132798   2.411   0.397   5.413 -0.4686  0.1488  0.9932
 7054SOL    HW232799   2.440   0.284   5.512 -1.5496  0.0272 -1.3330
 7055SOL     OW32800   4.272   3.673   8.140 -0.1766 -0.3635  0.4443
 7055SOL    HW132801   4.226   3.631   8.068 -2.0720 -0.2327  1.5758
 7055SOL    HW232802   4.330   3.729   8.089  1.0063 -1.1627  0.9116
 7056SOL     OW32803   3.392   4.513   7.836 -0.1655  0.5120 -0.1287
 7056SOL    HW132804   3.300   4.499   7.858 -0.3495  0.5963 -0.8577
 7056SOL    HW232805   3.433   4.540   7.918  0.6106  0.7458 -0.5931
 7057SOL     OW32806   0.257   4.208   3.286  0.5280  0.0940 -0.0921
 7057SOL    HW132807   0.290   4.293   3.257 -0.7672  0.5744 -0.1638
 7057SOL    HW232808   0.176   4.239   3.325  0.2493 -0.0639 -0.5418
 7058SOL     OW32809   3.235   0.596  14.268  0.2469  0.6365  0.6847
 7058SOL    HW132810   3.162   0.642  14.226  0.7184  0.0094 -0.8058
 7058SOL    HW232811   3.226   0.616  14.361  0.3570  1.6004  0.4866
 7059SOL     OW32812   2.223   4.175  13.939 -0.1779 -0.3641 -0.6174
 7059SOL    HW132813   2.201   4.216  14.022  0.4980  0.9378 -1.0755
 7059SOL    HW232814   2.302   4.129  13.969 -0.1133  0.2639  0.1729
 7060SOL     OW32815   0.065   1.005  12.209  0.1339  0.2882 -0.3837
 7060SOL    HW132816   0.142   0.994  12.154 -0.1550 -0.3001 -0.6674
 7060SOL    HW232817   0.068   0.927  12.266 -0.0411  0.3552 -0.2853
 7061SOL     OW32818   1.212   2.769   1.819 -0.1276  0.0266  0.7348
 7061SOL    HW132819   1.235   2.791   1.729  2.3503 -0.5319  1.2313
 7061SOL    HW232820   1.298   2.749   1.854 -0.2413 -1.2654  0.2799
 7062SOL     OW32821   2.984   4.628  11.551 -0.1037 -0.2545  0.0320
 7062SOL    HW132822   2.985   4.723  11.552 -1.3399 -0.2483  0.9689
 7062SOL    HW232823   3.017   4.604  11.464 -1.5704 -0.2347 -0.5444
 7063SOL     OW32824   3.381   4.721   1.462  0.0963 -0.0050 -0.0348
 7063SOL    HW132825   3.305   4.715   1.405  0.9518  1.9646 -1.3688
 7063SOL    HW232826   3.339   4.673   1.533  2.3000  0.3069  1.4687
 7064SOL     OW32827   4.472   2.584   6.594  0.1913  0.2799 -0.0684
 7064SOL    HW132828   4.523   2.512   6.630  1.8308  2.1271  1.3462
 7064SOL    HW232829   4.518   2.660   6.631 -0.0140 -0.0253  0.8194
 7065SOL     OW32830   1.832   4.631  13.358  0.2234  0.3663  0.1562
 7065SOL    HW132831   1.842   4.536  13.351 -1.1164  0.1459  1.2440
 7065SOL    HW232832   1.904   4.655  13.416  0.8130 -1.0388  0.0123
 7066SOL     OW32833   1.027   4.121   8.834  0.4292  0.2412 -0.3682
 7066SOL    HW132834   1.068   4.038   8.858 -1.8284 -1.0134 -0.8166
 7066SOL    HW232835   1.013   4.121   8.740  1.0881 -0.3892 -0.4621
 7067SOL     OW32836   2.483   0.583  15.354  0.6602 -0.2723  0.7672
 7067SOL    HW132837   2.443   0.508  15.310 -0.8851  1.8440 -1.4558
 7067SOL    HW232838   2.409   0.613  15.407  0.0632 -0.1856 -0.1065
 7068SOL     OW32839   2.566   1.291   4.982 -0.7098  0.5886  0.3801
 7068SOL    HW132840   2.612   1.371   4.957 -0.6850  0.4608  0.0121
 7068SOL    HW232841   2.535   1.247   4.903  1.3916  1.0652 -0.7018
 7069SOL     OW32842   0.520   1.848   3.365  0.0717  0.2049  0.0074
 7069SOL    HW132843   0.501   1.841   3.459 -0.4325 -2.6076 -0.3015
 7069SOL    HW232844   0.604   1.895   3.370 -0.7685  1.6165  0.7315
 7070SOL     OW32845   1.326   3.501   9.139 -0.1016 -0.6090  0.4871
 7070SOL    HW132846   1.239   3.463   9.123 -0.2347 -0.4581  0.8686
 7070SOL    HW232847   1.375   3.426   9.173  0.7229 -1.4739 -2.5811
 7071SOL     OW32848   1.884   2.312  17.144  0.0609  0.0639 -0.0315
 7071SOL    HW132849   1.940   2.355  17.209 -1.7855  2.0155  0.2850
 7071SOL    HW232850   1.952   2.278  17.086 -0.7344 -1.0358 -0.3175
 7072SOL     OW32851   1.981   4.198  17.635  0.1582  0.2656  0.1170
 7072SOL    HW132852   2.024   4.280  17.612  2.5954 -1.1048 -0.2205
 7072SOL    HW232853   1.975   4.151  17.552  1.0049  0.3844 -0.0134
 7073SOL     OW32854   4.690   2.681   6.866 -0.2673  0.2433 -0.1441
 7073SOL    HW132855   4.727   2.770   6.869 -0.8086  0.4861 -0.6492
 7073SOL    HW232856   4.599   2.705   6.883 -0.0623  1.4830 -0.7996
 7074SOL     OW32857   0.735   3.436  10.818  0.3396 -0.2343 -0.9736
 7074SOL    HW132858   0.746   3.350  10.858 -0.6812  0.2955  0.4335
 7074SOL    HW232859   0.792   3.429  10.741  0.4780  0.2011 -0.9073
 7075SOL     OW32860   0.769   1.402   0.819  0.2608  0.0692  0.1469
 7075SOL    HW132861   0.680   1.413   0.786  0.2209  0.3286  0.3493
 7075SOL    HW232862   0.771   1.433   0.909 -1.6025  0.5865 -0.0014
 7076SOL     OW32863   1.376   3.595   7.479 -0.6228  0.7283  0.2940
 7076SOL    HW132864   1.404   3.684   7.459 -0.5709  0.4895 -0.7206
 7076SOL    HW232865   1.288   3.602   7.516 -0.3528  0.3936  1.0044
 7077SOL     OW32866   0.733   2.814  15.842  0.4073 -0.0742  0.0647
 7077SOL    HW132867   0.735   2.740  15.903 -1.5248  1.9951  2.6414
 7077SOL    HW232868   0.805   2.796  15.781 -0.7456 -0.2802 -1.2358
 7078SOL     OW32869   1.516   2.725  17.139  0.3241 -0.2289  0.1513
 7078SOL    HW132870   1.463   2.676  17.076 -0.1378 -0.0130  0.3790
 7078SOL    HW232871   1.561   2.657  17.188  0.6878 -0.7944 -0.9658
 7079SOL     OW32872   2.405   3.384   2.478 -0.5068 -0.1075 -0.3316
 7079SOL    HW132873   2.481   3.431   2.512 -1.0501 -0.1820  1.0062
 7079SOL    HW232874   2.349   3.461   2.467 -1.0867 -0.7655 -2.0545
 7080SOL     OW32875   3.958   0.257  12.196 -0.4579 -0.3823 -0.2286
 7080SOL    HW132876   3.934   0.276  12.105  1.6540  1.2777 -0.4216
 7080SOL    HW232877   3.991   0.169  12.177  1.1006  0.9378 -3.6182
 7081SOL     OW32878   0.560   2.059   8.102  0.7660 -0.0806  0.6233
 7081SOL    HW132879   0.479   2.016   8.074  1.4348 -1.2340  0.4986
 7081SOL    HW232880   0.594   2.100   8.022 -0.0185  0.3560  0.5071
 7082SOL     OW32881   4.608   2.371   3.301  0.5411 -0.1219  0.0744
 7082SOL    HW132882   4.547   2.373   3.375  0.0406 -1.4860 -0.3027
 7082SOL    HW232883   4.649   2.454   3.327  0.1633 -0.3739  1.4903
 7083SOL     OW32884   4.524   1.649  14.620  0.3847  0.4941 -0.2841
 7083SOL    HW132885   4.518   1.557  14.645 -0.7353  1.0152  1.3620
 7083SOL    HW232886   4.587   1.686  14.682 -0.9726 -0.4608  1.6671
 7084SOL     OW32887   4.271   4.006  14.413 -0.0537 -0.1499  0.4289
 7084SOL    HW132888   4.338   3.947  14.447 -0.4111 -0.1974  1.0506
 7084SOL    HW232889   4.231   4.031  14.496 -0.4029  0.2412  0.1465
 7085SOL     OW32890   4.072   3.951   1.040  0.2003 -0.1167 -0.5958
 7085SOL    HW132891   4.168   3.942   1.042  0.2601  1.1218  1.8667
 7085SOL    HW232892   4.043   3.876   0.987  1.3553 -1.0618  0.1066
 7086SOL     OW32893   3.719   4.108   3.168  0.2131 -0.3090 -0.0690
 7086SOL    HW132894   3.787   4.166   3.201  0.5655 -2.1571  2.4741
 7086SOL    HW232895   3.768   4.026   3.163  1.0506  0.2797 -1.6154
 7087SOL     OW32896   4.149   2.592   2.359 -0.3034  0.0068  0.2101
 7087SOL    HW132897   4.090   2.610   2.286  1.0954 -0.6041 -1.0649
 7087SOL    HW232898   4.126   2.666   2.416 -2.5541  1.6058 -2.8023
 7088SOL     OW32899   1.621   3.483   6.516  0.1619  0.2418  0.1178
 7088SOL    HW132900   1.674   3.518   6.444  1.1080  0.7942  1.0663
 7088SOL    HW232901   1.532   3.489   6.481 -0.2886  1.1589  1.4204
 7089SOL     OW32902   3.869   2.432   9.953  0.0862  0.1771 -0.3917
 7089SOL    HW132903   3.959   2.460   9.970  0.2013 -1.3035  1.4508
 7089SOL    HW232904   3.853   2.388  10.037  0.5847  0.8909  0.0749
 7090SOL     OW32905   3.155   3.067  15.583 -0.2263 -0.6137  0.3106
 7090SOL    HW132906   3.063   3.041  15.570 -0.3031 -0.9169  1.4912
 7090SOL    HW232907   3.142   3.107  15.669 -2.2477 -0.3369 -0.1235
 7091SOL     OW32908   4.317   3.086   5.105  0.0183 -0.6177  0.3800
 7091SOL    HW132909   4.231   3.125   5.091  0.5020  0.7824  1.2702
 7091SOL    HW232910   4.297   2.992   5.100 -1.4181 -0.3872  1.9339
 7092SOL     OW32911   1.090   1.070  12.679  0.2053  0.0087 -0.6968
 7092SOL    HW132912   1.158   1.008  12.654  0.9414  0.7139 -0.4502
 7092SOL    HW232913   1.020   1.027  12.727  0.8368  1.1521  1.2526
 7093SOL     OW32914   2.818   3.777   9.337 -0.0274  0.3066 -0.0186
 7093SOL    HW132915   2.820   3.700   9.393  1.8136 -0.5799 -1.2839
 7093SOL    HW232916   2.811   3.735   9.251  3.4140  0.1509 -0.2374
 7094SOL     OW32917   0.874   0.128   4.814  0.0658 -0.2705  0.1400
 7094SOL    HW132918   0.797   0.169   4.853 -0.1242 -0.8157  0.3428
 7094SOL    HW232919   0.919   0.100   4.893  0.6516 -2.4971 -0.9703
 7095SOL     OW32920   2.047   1.935   1.566  0.4092  0.0429  0.1793
 7095SOL    HW132921   2.004   1.877   1.629 -1.5318 -1.4249 -2.4975
 7095SOL    HW232922   2.126   1.888   1.542  2.0492  2.5470  0.6305
 7096SOL     OW32923   4.652   2.775   0.723  0.6797 -0.2966  0.1276
 7096SOL    HW132924   4.580   2.821   0.679  0.1280 -0.0467  1.2999
 7096SOL    HW232925   4.716   2.784   0.653 -2.7868  1.6098 -2.7731
 7097SOL     OW32926   1.734   1.899  13.855  0.3156 -0.0672 -0.0961
 7097SOL    HW132927   1.651   1.925  13.815  0.3085 -1.4947 -0.9953
 7097SOL    HW232928   1.759   1.827  13.797 -1.4146 -0.8800  0.1694
 7098SOL     OW32929   0.437   4.265   3.778  0.3577  0.1335  0.5316
 7098SOL    HW132930   0.446   4.333   3.844 -0.0788  0.9376 -0.2374
 7098SOL    HW232931   0.476   4.293   3.695  1.7169  0.7307  1.3756
 7099SOL     OW32932   3.636   3.767   8.077 -0.2533 -0.0748 -0.4897
 7099SOL    HW132933   3.616   3.859   8.090  2.4421  0.3696  0.4895
 7099SOL    HW232934   3.637   3.724   8.163  1.2122  0.7697 -0.0943
 7100SOL     OW32935   1.975   2.214  11.329  0.1694  0.1902  0.0501
 7100SOL    HW132936   1.897   2.158  11.329  1.6683 -1.9504 -1.4911
 7100SOL    HW232937   1.945   2.271  11.258 -1.0255  0.0367  0.4376
 7101SOL     OW32938   4.084   2.124   7.559  0.3868 -0.3213  0.0866
 7101SOL    HW132939   4.008   2.182   7.565  0.7477  0.0137  1.4760
 7101SOL    HW232940   4.058   2.051   7.502 -0.2137 -1.4736  1.8298
 7102SOL     OW32941   1.808   1.986  14.312 -0.3947  0.6880  0.1150
 7102SOL    HW132942   1.838   1.985  14.403  0.7890 -0.5262 -0.2903
 7102SOL    HW232943   1.857   1.914  14.272  1.1757  3.4007 -2.8864
 7103SOL     OW32944   2.051   0.213   7.559 -0.5894  0.2899  0.1233
 7103SOL    HW132945   2.069   0.190   7.467  1.4175  0.3115  0.5191
 7103SOL    HW232946   1.962   0.179   7.571  0.0832 -0.8212  1.8099
 7104SOL     OW32947   3.029   2.706   8.509 -0.1570  0.5400 -0.4037
 7104SOL    HW132948   3.000   2.676   8.595  0.1427  0.1886 -0.4260
 7104SOL    HW232949   3.123   2.715   8.523 -0.5858  3.1051  0.7362
 7105SOL     OW32950   1.213   2.080  15.247 -0.2174  0.0271  0.0521
 7105SOL    HW132951   1.167   2.158  15.280  2.2872  0.8745  1.4910
 7105SOL    HW232952   1.182   2.078  15.156  1.2875  2.4126 -0.5181
 7106SOL     OW32953   4.637   3.481   1.111 -0.2502  0.2380 -0.3678
 7106SOL    HW132954   4.580   3.427   1.056 -0.4477  1.8499 -1.7402
 7106SOL    HW232955   4.589   3.560   1.136  0.1617  0.8440 -1.4648
 7107SOL     OW32956   1.501   1.677   9.442  0.3707 -0.0732 -0.4867
 7107SOL    HW132957   1.565   1.642   9.504 -0.1906 -0.5085 -0.1586
 7107SOL    HW232958   1.556   1.664   9.364  0.9105  1.4126 -0.3542
 7108SOL     OW32959   3.227   3.615   7.801  0.1337  0.4080 -0.2965
 7108SOL    HW132960   3.316   3.637   7.825  0.4652 -1.6669  0.3822
 7108SOL    HW232961   3.194   3.557   7.869 -1.3464  1.8351  0.2186
 7109SOL     OW32962   2.199   3.119  13.483  0.2346  0.0357 -0.4114
 7109SOL    HW132963   2.165   3.105  13.571  1.0701  1.5349  0.1588
 7109SOL    HW232964   2.225   3.211  13.480  0.4346  0.0053  0.6239
 7110SOL     OW32965   2.080   0.746   0.777  0.0458  0.4555 -0.0066
 7110SOL    HW132966   2.040   0.754   0.691 -0.7553  0.6720  0.3837
 7110SOL    HW232967   2.135   0.669   0.760  1.2231  1.1609  0.5483
 7111SOL     OW32968   1.295   1.136   3.441  0.4369  0.0320  0.0794
 7111SOL    HW132969   1.342   1.217   3.421 -1.1748  0.8069 -0.5193
 7111SOL    HW232970   1.342   1.066   3.395  2.4991  0.1250  2.0159
 7112SOL     OW32971   0.257   0.243   7.457  0.2689 -0.1053 -0.1902
 7112SOL    HW132972   0.250   0.316   7.395 -2.6032 -0.9652 -0.9157
 7112SOL    HW232973   0.270   0.164   7.406  2.0786  0.2151 -0.2118
 7113SOL     OW32974   2.519   4.293   1.035 -0.3033  0.3215  0.0642
 7113SOL    HW132975   2.495   4.383   1.015  1.1011  1.0620  1.7365
 7113SOL    HW232976   2.433   4.252   1.043 -0.1465 -0.2718 -1.2389
 7114SOL     OW32977   0.260   3.789   1.829  0.1609  0.3554  0.5520
 7114SOL    HW132978   0.292   3.731   1.898 -1.8518  0.6952  1.7975
 7114SOL    HW232979   0.339   3.840   1.813  0.0515 -0.0363 -1.2556
 7115SOL     OW32980   3.286   4.557   5.854  0.5740  0.1258  0.3816
 7115SOL    HW132981   3.299   4.615   5.778  0.1602  0.3103  0.4509
 7115SOL    HW232982   3.203   4.517   5.828  0.1912  1.3032 -0.2096
 7116SOL     OW32983   4.078   0.384   1.333 -0.1608 -0.6507 -0.2802
 7116SOL    HW132984   4.030   0.375   1.251 -1.6189 -0.1322  0.5233
 7116SOL    HW232985   4.165   0.355   1.304  0.4793 -0.6579  1.6655
 7117SOL     OW32986   3.458   3.143  11.321 -0.1433 -0.6801  0.4866
 7117SOL    HW132987   3.541   3.139  11.367 -0.2862  0.9634  0.8707
 7117SOL    HW232988   3.461   3.216  11.259  3.1302 -1.3768 -0.1771
 7118SOL     OW32989   3.658   1.541  12.360  0.2980  0.0412  0.1011
 7118SOL    HW132990   3.749   1.566  12.348  0.1396  0.0877 -1.0305
 7118SOL    HW232991   3.617   1.611  12.309 -0.9778 -1.7266 -1.2866
 7119SOL     OW32992   3.481   1.054  16.074 -0.0469  0.5121  0.6731
 7119SOL    HW132993   3.573   1.026  16.078 -0.3624 -0.2559  2.2731
 7119SOL    HW232994   3.480   1.103  16.156 -0.0417  1.9584 -0.1751
 7120SOL     OW32995   4.295   1.939   7.802 -0.0971 -0.0411 -0.3689
 7120SOL    HW132996   4.342   1.950   7.719 -0.4829 -0.7267 -0.6812
 7120SOL    HW232997   4.329   2.011   7.854 -0.7031  0.2722 -0.4051
 7121SOL     OW32998   4.643   1.790   6.342 -0.4417 -0.2130  0.1211
 7121SOL    HW132999   4.597   1.708   6.324 -0.7564  0.0068 -0.0950
 7121SOL    HW233000   4.733   1.759   6.339 -0.8846 -1.5571  0.9793
 7122SOL     OW33001   3.309   0.539   8.438 -0.3285 -0.4207 -0.0433
 7122SOL    HW133002   3.400   0.550   8.409 -0.2653 -0.9456 -0.0363
 7122SOL    HW233003   3.307   0.590   8.519  2.8122 -2.1399  1.1161
 7123SOL     OW33004   0.376   0.025   8.686 -0.0963 -0.7358  0.5506
 7123SOL    HW133005   0.415   4.719   8.760  2.3237 -0.0911 -0.3013
 7123SOL    HW233006   0.349   0.108   8.726  0.0974  0.2594 -1.3521
 7124SOL     OW33007   0.432   4.456  12.917  0.8748 -0.0673 -0.1085
 7124SOL    HW133008   0.376   4.493  12.849  0.9801  0.7489  0.2517
 7124SOL    HW233009   0.394   4.503  12.992 -1.3239 -1.9108 -0.0391
 7125SOL     OW33010   1.321   1.873  10.831 -0.2239  0.0236 -0.1017
 7125SOL    HW133011   1.310   1.778  10.842 -1.5515 -0.1192 -2.6930
 7125SOL    HW233012   1.414   1.890  10.822  0.0646 -0.7018  1.5050
 7126SOL     OW33013   0.146   2.939   4.809  0.2189 -0.1669 -0.0156
 7126SOL    HW133014   0.227   2.933   4.758  1.4201  0.6306  1.8207
 7126SOL    HW233015   0.094   2.870   4.769  0.1930 -0.3636  0.3700
 7127SOL     OW33016   3.418   2.289  11.837  0.4095 -0.1757  0.4261
 7127SOL    HW133017   3.444   2.197  11.837 -1.0411 -0.5828  1.7977
 7127SOL    HW233018   3.480   2.335  11.780 -1.7443  0.8749 -1.0722
 7128SOL     OW33019   2.348   4.577   2.930 -0.5978 -0.3896 -0.3062
 7128SOL    HW133020   2.299   4.495   2.939  1.2138 -1.5049 -0.6821
 7128SOL    HW233021   2.425   4.556   2.982 -0.5390 -2.2907 -1.1701
 7129SOL     OW33022   3.192   3.025   7.585 -0.6844  0.7948 -0.1012
 7129SOL    HW133023   3.192   3.028   7.680 -2.3346 -0.1844 -0.0696
 7129SOL    HW233024   3.225   2.936   7.572  0.5060  1.2338 -0.0932
 7130SOL     OW33025   0.687   4.199   8.199  0.2635  0.2932  0.3274
 7130SOL    HW133026   0.753   4.132   8.214  0.9738  0.5708 -1.5053
 7130SOL    HW233027   0.639   4.183   8.280  1.3364  1.7604  1.2455
 7131SOL     OW33028   1.435   0.716   2.340  0.5649 -0.2699  0.6046
 7131SOL    HW133029   1.519   0.727   2.295 -0.4660 -1.2151 -1.5488
 7131SOL    HW233030   1.434   0.627   2.375  0.5535 -0.2311  0.7043
 7132SOL     OW33031   3.156   2.763  15.396 -0.5511  0.0906 -0.0804
 7132SOL    HW133032   3.080   2.746  15.453  0.7873 -0.0713  1.6389
 7132SOL    HW233033   3.215   2.824  15.439 -0.5037  0.0692 -0.1150
 7133SOL     OW33034   2.137   0.357  15.482 -0.5261 -0.2414 -0.2107
 7133SOL    HW133035   2.042   0.368  15.482 -0.1465  2.9209 -0.6516
 7133SOL    HW233036   2.158   0.355  15.575  1.6013 -1.2858 -0.6986
 7134SOL     OW33037   4.657   2.154  12.671  0.6011 -0.2986  0.0118
 7134SOL    HW133038   4.625   2.198  12.592 -2.7567 -1.1628  0.8680
 7134SOL    HW233039   4.732   2.212  12.686  1.7466 -2.2892  2.0255
 7135SOL     OW33040   3.325   1.158   2.701 -0.5699  0.4014  0.2015
 7135SOL    HW133041   3.263   1.090   2.673  0.1651 -0.0814 -0.2753
 7135SOL    HW233042   3.337   1.123   2.789  0.7064  0.7147  0.1449
 7136SOL     OW33043   4.281   1.351   3.474  0.6506 -0.6571 -0.1486
 7136SOL    HW133044   4.323   1.265   3.469 -0.7245 -1.3253 -0.1967
 7136SOL    HW233045   4.277   1.383   3.384 -1.9590  1.8209  0.8539
 7137SOL     OW33046   0.227   3.947   1.580 -0.3289  0.0033 -0.3179
 7137SOL    HW133047   0.301   3.910   1.531 -0.9039 -2.6799  0.8627
 7137SOL    HW233048   0.219   3.893   1.658 -0.6429  0.9441  0.2986
 7138SOL     OW33049   2.349   3.515   1.768  0.3728  0.0717  0.1708
 7138SOL    HW133050   2.374   3.555   1.685 -3.1424 -0.7712 -1.2766
 7138SOL    HW233051   2.421   3.453   1.778  0.2782  0.1331  1.2056
 7139SOL     OW33052   1.701   4.406   4.789  0.4246  0.2459 -0.2827
 7139SOL    HW133053   1.626   4.454   4.753  2.0953  1.3311 -2.3463
 7139SOL    HW233054   1.767   4.475   4.793  0.3752  0.2980 -0.3701
 7140SOL     OW33055   2.777   0.965   1.605  0.0677  0.0110  0.2647
 7140SOL    HW133056   2.837   0.995   1.673  0.3098  0.8622 -0.3181
 7140SOL    HW233057   2.801   0.872   1.602 -1.5509 -0.4179  0.4288
 7141SOL     OW33058   1.805   0.842   6.864  0.3023 -0.2922 -0.2231
 7141SOL    HW133059   1.714   0.864   6.881  0.8908  0.2909  2.2454
 7141SOL    HW233060   1.811   0.858   6.770 -1.8279  0.9050 -0.1416
 7142SOL     OW33061   0.540   1.460   0.668 -0.1319  0.3333  0.0714
 7142SOL    HW133062   0.586   1.528   0.619  0.2549  0.0194 -0.0025
 7142SOL    HW233063   0.542   1.391   0.601 -1.1346  0.6008 -0.2294
 7143SOL     OW33064   0.002   3.274   8.022  0.4293  0.0228  0.1964
 7143SOL    HW133065   4.658   3.230   8.009 -1.3494  2.6472  2.6342
 7143SOL    HW233066   4.725   3.364   8.051 -1.7616  0.5429 -2.6527
 7144SOL     OW33067   2.737   1.226   2.396 -0.2773 -0.4129 -0.2380
 7144SOL    HW133068   2.821   1.189   2.424 -1.8180 -2.5386  1.5062
 7144SOL    HW233069   2.764   1.260   2.310  2.7440 -0.6060  0.6376
 7145SOL     OW33070   1.287   3.235   6.870 -0.1793 -0.2553 -0.2118
 7145SOL    HW133071   1.294   3.294   6.945  1.0294 -0.7733  0.0739
 7145SOL    HW233072   1.295   3.301   6.801  0.1726  1.1730  1.1959
 7146SOL     OW33073   0.067   0.691   6.479  0.0229 -0.1683 -0.3874
 7146SOL    HW133074   4.712   0.697   6.475 -0.0405 -0.5809  0.4357
 7146SOL    HW233075   0.085   0.618   6.539  1.2409  0.2389 -0.2577
 7147SOL     OW33076   4.674   0.683   4.157 -0.3981  0.7233  0.1719
 7147SOL    HW133077   4.678   0.770   4.116 -0.1830  0.6785  0.0979
 7147SOL    HW233078   4.735   0.696   4.229  1.7665  0.6242 -1.6303
 7148SOL     OW33079   4.023   4.014  11.419  0.1033 -0.3011  0.2148
 7148SOL    HW133080   4.058   4.100  11.444 -0.8873 -0.2481  1.3836
 7148SOL    HW233081   4.050   4.007  11.327  2.1904  0.9029  0.7389
 7149SOL     OW33082   1.129   4.101   4.562  0.3263 -0.1594  0.4930
 7149SOL    HW133083   1.211   4.056   4.542 -0.2887 -1.4140  0.7876
 7149SOL    HW233084   1.074   4.049   4.503 -1.9997  0.8520  1.7605
 7150SOL     OW33085   1.049   2.091   8.425 -0.4801 -0.1077  0.4593
 7150SOL    HW133086   0.971   2.145   8.422  0.6683  1.4157 -1.8073
 7150SOL    HW233087   1.068   2.092   8.332  0.8507  0.3949  0.7357
 7151SOL     OW33088   0.336   3.426  14.997 -0.6963  0.1565 -0.5704
 7151SOL    HW133089   0.295   3.365  14.936  0.8726  1.7681 -3.2106
 7151SOL    HW233090   0.263   3.459  15.050 -0.5037  0.3489 -0.4273
 7152SOL     OW33091   0.332   0.533  17.561  0.4150  0.4036 -0.0363
 7152SOL    HW133092   0.249   0.485  17.569  0.0800  1.5170  3.1711
 7152SOL    HW233093   0.384   0.466  17.517 -1.0897 -0.0028 -1.1873
 7153SOL     OW33094   4.111   0.354   7.921  0.2155 -0.5780 -0.1616
 7153SOL    HW133095   4.150   0.434   7.886 -3.6159  1.8836  1.1946
 7153SOL    HW233096   4.182   0.290   7.915  1.6301  0.8002  2.0666
 7154SOL     OW33097   0.702   3.434   6.635 -0.1706  0.0745  0.4209
 7154SOL    HW133098   0.740   3.349   6.657 -1.3830 -1.1385 -2.2107
 7154SOL    HW233099   0.616   3.442   6.674  0.0737  0.1901  0.9344
 7155SOL     OW33100   1.797   2.647   6.669 -0.0127  0.3636 -0.0238
 7155SOL    HW133101   1.754   2.718   6.716  1.0168 -0.9816  2.9665
 7155SOL    HW233102   1.791   2.678   6.579  1.1700  0.0795 -0.1927
 7156SOL     OW33103   4.311   3.380  11.613 -0.7625  0.4414 -0.5171
 7156SOL    HW133104   4.221   3.380  11.645 -0.1977 -0.7031  1.0836
 7156SOL    HW233105   4.295   3.381  11.519  0.2406  0.1526 -0.6888
 7157SOL     OW33106   0.413   3.865   5.928 -0.2778 -0.2177 -0.3389
 7157SOL    HW133107   0.328   3.842   5.967  0.6143  0.0161  1.7778
 7157SOL    HW233108   0.442   3.782   5.892  1.4409 -0.4009  1.4406
 7158SOL     OW33109   2.078   0.022  11.796  0.0954  0.2336 -0.1360
 7158SOL    HW133110   2.159   0.066  11.769  2.0374 -1.4877  2.8517
 7158SOL    HW233111   2.118   4.680  11.824 -0.8461 -0.2218 -0.1224
 7159SOL     OW33112   4.635   2.870   6.624  0.1269 -0.7244 -0.3556
 7159SOL    HW133113   4.573   2.939   6.648  0.3968 -0.6260  0.0505
 7159SOL    HW233114   4.713   2.892   6.674  0.0006  1.7899 -1.2845
 7160SOL     OW33115   3.697   0.219   9.756 -0.0135  0.0471  0.2258
 7160SOL    HW133116   3.626   0.192   9.815  0.6551 -2.3150 -0.0482
 7160SOL    HW233117   3.769   0.181   9.808  0.2177  1.4418  0.9358
 7161SOL     OW33118   0.972   2.777  13.176  0.0251  0.3521  0.4170
 7161SOL    HW133119   1.059   2.794  13.140  0.3276 -0.5592  0.7275
 7161SOL    HW233120   1.000   2.719  13.248  0.2529 -1.7089 -1.3381
 7162SOL     OW33121   3.365   3.253   9.797 -0.4158  0.0412 -0.3375
 7162SOL    HW133122   3.368   3.256   9.893  0.7819 -1.1968 -0.3337
 7162SOL    HW233123   3.283   3.296   9.775 -0.0588 -0.4064 -2.4737
 7163SOL     OW33124   4.643   4.283   9.777  0.1514  0.6033 -0.6363
 7163SOL    HW133125   4.642   4.298   9.682 -2.1659  3.2063 -0.2226
 7163SOL    HW233126   4.555   4.317   9.795  0.3673  0.7238  0.1638
 7164SOL     OW33127   1.361   1.237   4.093  0.4964 -0.2835 -0.7149
 7164SOL    HW133128   1.444   1.209   4.056  1.1025 -0.6173  0.8898
 7164SOL    HW233129   1.377   1.241   4.188 -0.3331 -5.6521 -0.3610
 7165SOL     OW33130   1.695   3.223  15.129  0.3228  0.0148 -0.0671
 7165SOL    HW133131   1.674   3.135  15.159 -1.4265  0.5590  0.3147
 7165SOL    HW233132   1.790   3.236  15.130  0.2783  0.3955 -1.5586
 7166SOL     OW33133   1.628   4.383   7.175 -0.4771 -0.6037 -0.0379
 7166SOL    HW133134   1.613   4.426   7.259  0.1439  0.0564 -0.2628
 7166SOL    HW233135   1.679   4.307   7.203  1.7693  0.6648 -0.7296
 7167SOL     OW33136   2.370   1.725  17.673  0.3109 -0.3141  0.0192
 7167SOL    HW133137   2.408   1.762  17.753  3.1878 -1.4194 -0.8351
 7167SOL    HW233138   2.384   1.803  17.619  0.2678 -0.1730  0.2114
 7168SOL     OW33139   2.938   0.736   2.845  0.2120 -0.4324  0.1162
 7168SOL    HW133140   2.983   0.702   2.768 -1.4815 -0.9218 -0.6568
 7168SOL    HW233141   3.017   0.742   2.899 -0.1481 -1.1312  0.7230
 7169SOL     OW33142   0.849   1.654   3.275  0.1695 -0.0042  0.0847
 7169SOL    HW133143   0.878   1.563   3.274  1.7314  0.4934  0.7632
 7169SOL    HW233144   0.794   1.636   3.199  1.9312 -2.1197 -0.6769
 7170SOL     OW33145   4.344   4.047   1.059  0.3341  0.1049  0.5734
 7170SOL    HW133146   4.338   4.059   1.153  0.3749 -0.6027  0.6675
 7170SOL    HW233147   4.291   4.122   1.032  0.9526  0.3629  0.0679
 7171SOL     OW33148   2.386   2.422   3.849 -0.5538 -0.2352 -0.0306
 7171SOL    HW133149   2.343   2.347   3.806  0.3016 -0.1007 -1.1085
 7171SOL    HW233150   2.425   2.470   3.776  1.0350 -1.3803  0.0473
 7172SOL     OW33151   0.325   3.024  12.029 -0.2267  0.2809  0.1928
 7172SOL    HW133152   0.383   3.090  11.992 -0.1601 -1.0993 -2.1540
 7172SOL    HW233153   0.310   2.966  11.954 -0.5320  1.7777 -0.9021
 7173SOL     OW33154   3.765   4.409   4.918  0.0212  0.2756 -0.5007
 7173SOL    HW133155   3.709   4.432   4.843  0.5607 -0.2566 -1.0731
 7173SOL    HW233156   3.842   4.378   4.870  0.1757  0.1168 -0.1493
 7174SOL     OW33157   2.423   0.633   1.723 -0.5395  0.1074  0.1027
 7174SOL    HW133158   2.503   0.629   1.670 -0.1271 -0.7225  0.7859
 7174SOL    HW233159   2.420   0.721   1.760  0.3263 -0.9590  2.7245
 7175SOL     OW33160   0.988   3.008   2.716  0.5266 -0.4286 -0.1520
 7175SOL    HW133161   1.013   2.987   2.805  1.9345 -0.7133 -0.6175
 7175SOL    HW233162   0.894   3.029   2.723  1.1336  2.2663 -0.0311
 7176SOL     OW33163   3.189   4.070  15.648  0.1985  0.0697  0.6382
 7176SOL    HW133164   3.161   4.131  15.579 -0.3828 -1.1759 -0.2202
 7176SOL    HW233165   3.260   4.022  15.607 -0.1754  1.3539 -1.5131
 7177SOL     OW33166   4.608   1.938   6.050 -0.4597  0.0594  0.2205
 7177SOL    HW133167   4.578   2.020   6.088 -2.1100  0.3110 -1.6159
 7177SOL    HW233168   4.633   1.961   5.960 -0.0809 -1.9298 -0.1901
 7178SOL     OW33169   4.574   3.355   8.598 -0.6278  0.4405 -0.3853
 7178SOL    HW133170   4.653   3.405   8.580 -1.5080  0.5086 -3.9432
 7178SOL    HW233171   4.556   3.311   8.515 -2.1191 -0.2087  0.2787
 7179SOL     OW33172   2.637   0.982   3.134 -0.0641 -0.6098  0.1530
 7179SOL    HW133173   2.727   1.013   3.147 -0.2638 -0.6419  1.6377
 7179SOL    HW233174   2.648   0.894   3.099  2.2951 -0.4944  0.5937
 7180SOL     OW33175   1.952   2.021   4.027  0.3408  0.2245  0.0335
 7180SOL    HW133176   1.945   1.999   3.934 -1.9943 -0.5970  0.4043
 7180SOL    HW233177   1.868   1.983   4.052  1.4956 -1.9052  0.6958
 7181SOL     OW33178   0.227   0.668   7.244 -0.4360  0.4947 -0.0059
 7181SOL    HW133179   0.166   0.658   7.317  0.0990  0.7292  0.4750
 7181SOL    HW233180   0.256   0.579   7.227 -1.0485  0.1095  0.9602
 7182SOL     OW33181   0.051   2.494   4.784  0.5902 -0.1069 -0.0201
 7182SOL    HW133182   0.100   2.421   4.747  0.4822 -0.4280  0.4738
 7182SOL    HW233183   0.086   2.484   4.872 -1.6958 -0.4640  0.8419
 7183SOL     OW33184   2.819   2.347   2.890  0.3375 -0.1183 -0.1199
 7183SOL    HW133185   2.809   2.251   2.891  0.0271 -0.0815  1.1033
 7183SOL    HW233186   2.790   2.367   2.802 -3.0237 -3.0243  0.3058
 7184SOL     OW33187   3.711   1.012   4.638 -0.0665 -0.2215 -0.5583
 7184SOL    HW133188   3.704   1.102   4.670 -0.3161 -0.6479  0.6072
 7184SOL    HW233189   3.617   0.993   4.635  0.2687 -2.0865  0.5443
 7185SOL     OW33190   4.591   3.537   2.116  0.1178  0.1286 -0.0039
 7185SOL    HW133191   4.657   3.484   2.159  2.0517  2.5901  0.0710
 7185SOL    HW233192   4.633   3.621   2.096 -0.3848 -0.0117 -1.6782
 7186SOL     OW33193   3.853   2.955   1.298  0.1988  0.4833 -0.0764
 7186SOL    HW133194   3.840   3.025   1.233  0.6011  1.2403  0.6671
 7186SOL    HW233195   3.942   2.965   1.331 -0.1935  2.5184  0.3515
 7187SOL     OW33196   3.312   3.250   4.067  1.1981  0.7181 -0.1587
 7187SOL    HW133197   3.220   3.224   4.057  0.8515  2.2844 -0.9329
 7187SOL    HW233198   3.326   3.319   4.003  0.2804 -0.3315 -1.4915
 7188SOL     OW33199   2.352   4.339   8.142 -0.5066  0.3974  0.3822
 7188SOL    HW133200   2.394   4.378   8.219 -0.4846 -0.9074  1.0389
 7188SOL    HW233201   2.317   4.423   8.113 -0.7121  0.1867  0.0120
 7189SOL     OW33202   3.213   3.273  13.318 -0.1588  0.5695 -0.3067
 7189SOL    HW133203   3.126   3.235  13.328  0.6478 -1.7037 -1.7738
 7189SOL    HW233204   3.275   3.201  13.309 -1.4136 -0.2458 -2.4244
 7190SOL     OW33205   4.447   0.507   0.554 -0.1721 -0.4748  0.2436
 7190SOL    HW133206   4.461   0.505   0.459  0.6728 -0.0195  0.3572
 7190SOL    HW233207   4.459   0.600   0.573  0.1750 -0.7942  1.5830
 7191SOL     OW33208   2.544   4.623   7.382 -0.4748  0.2083 -0.5623
 7191SOL    HW133209   2.546   4.718   7.399 -1.7746  0.0342  0.6271
 7191SOL    HW233210   2.449   4.618   7.395 -0.5790  2.1582 -0.4694
 7192SOL     OW33211   4.545   0.464   4.431  0.1768  0.0706 -0.1209
 7192SOL    HW133212   4.582   0.548   4.459 -0.6604  0.1119  0.8317
 7192SOL    HW233213   4.468   0.455   4.486  1.3407  0.8276  1.6430
 7193SOL     OW33214   3.429   0.282   5.066  0.0965  0.4588  0.2211
 7193SOL    HW133215   3.345   0.320   5.043 -0.2555 -0.3048  0.2347
 7193SOL    HW233216   3.470   0.288   4.979  0.5243  1.9737  0.5258
 7194SOL     OW33217   3.398   0.740   7.019  0.0171  0.0880 -0.7008
 7194SOL    HW133218   3.447   0.784   6.949 -0.7742  0.8810 -0.7703
 7194SOL    HW233219   3.363   0.811   7.073  0.7286  0.7565 -1.1212
 7195SOL     OW33220   3.930   2.347  15.768  0.2805 -0.2540  0.4755
 7195SOL    HW133221   3.928   2.431  15.723 -1.1646 -0.1209  0.8059
 7195SOL    HW233222   4.022   2.319  15.778 -0.2030 -2.0239  0.0655
 7196SOL     OW33223   0.237   2.575   3.864  0.1273 -0.4504 -0.3914
 7196SOL    HW133224   0.273   2.547   3.780 -1.1035 -3.7329  0.2020
 7196SOL    HW233225   0.293   2.538   3.933 -1.1591  0.6007  1.2142
 7197SOL     OW33226   4.286   3.683   9.033 -0.2209 -0.1710  0.3009
 7197SOL    HW133227   4.353   3.627   8.993  0.5370 -0.5187  2.0734
 7197SOL    HW233228   4.222   3.613   9.047 -0.6056 -0.0717 -0.9356
 7198SOL     OW33229   2.040   0.927   1.626  0.5451  0.1044  0.5765
 7198SOL    HW133230   2.112   0.975   1.585 -0.1744  0.7529  0.0735
 7198SOL    HW233231   1.977   0.946   1.556  0.3343  0.9734  0.9936
 7199SOL     OW33232   1.005   3.974   2.324  0.0231  0.2402 -0.6972
 7199SOL    HW133233   0.925   3.946   2.369  0.2108  1.7815  0.6275
 7199SOL    HW233234   0.998   4.069   2.329 -2.7658  0.0770 -1.7399
 7200SOL     OW33235   4.655   3.957   6.710  0.5659 -0.5012  0.3617
 7200SOL    HW133236   4.639   3.943   6.803  1.0428 -0.8885  0.3845
 7200SOL    HW233237   4.664   4.052   6.701 -1.0368 -0.6303 -2.8115
 7201SOL     OW33238   0.402   4.482   6.352  0.2248 -0.6217 -0.1060
 7201SOL    HW133239   0.329   4.518   6.403  1.8100 -1.9436  3.0740
 7201SOL    HW233240   0.436   4.408   6.402 -0.9547 -1.2849 -0.2888
 7202SOL     OW33241   0.846   4.160   1.975  0.3463 -0.1563  0.6185
 7202SOL    HW133242   0.813   4.188   1.889  1.8660  1.9829  0.7203
 7202SOL    HW233243   0.794   4.211   2.036 -1.9066  0.6568 -1.9568
 7203SOL     OW33244   2.148   4.574   3.836  0.3598  0.0338 -0.1410
 7203SOL    HW133245   2.100   4.655   3.819 -0.0590  0.1201  1.4541
 7203SOL    HW233246   2.200   4.561   3.756 -0.8722 -0.1436 -0.9157
 7204SOL     OW33247   1.583   3.857   9.135  0.6100  0.0715  0.1596
 7204SOL    HW133248   1.631   3.940   9.126  0.5095 -0.0170 -1.0874
 7204SOL    HW233249   1.501   3.885   9.175 -0.2191 -1.1582 -0.7163
 7205SOL     OW33250   2.742   0.178   4.758  0.4309 -0.1740  0.2398
 7205SOL    HW133251   2.723   0.084   4.753  1.5442 -0.3391 -0.7666
 7205SOL    HW233252   2.824   0.172   4.807  0.3596 -0.0291  0.3775
 7206SOL     OW33253   3.856   1.923   2.069 -0.1953 -0.2139  1.0889
 7206SOL    HW133254   3.862   1.973   1.987 -4.0204 -0.7300  0.5337
 7206SOL    HW233255   3.832   1.994   2.128 -1.3299  0.8192 -0.6247
 7207SOL     OW33256   3.295   2.463  15.688  0.2368 -0.1338  0.5893
 7207SOL    HW133257   3.241   2.390  15.718 -1.0197  0.4751 -0.1916
 7207SOL    HW233258   3.383   2.429  15.705 -0.2472 -1.5616  0.2077
 7208SOL     OW33259   2.922   3.941  15.120  0.0120 -0.7104 -0.1867
 7208SOL    HW133260   2.895   4.029  15.095 -0.6609 -0.6222  0.8550
 7208SOL    HW233261   2.933   3.891  15.040  0.0269  0.5640 -0.9871
 7209SOL     OW33262   1.717   1.794   7.285 -0.1556  0.2364  0.2029
 7209SOL    HW133263   1.713   1.848   7.207 -1.4608  1.0214  0.7990
 7209SOL    HW233264   1.629   1.756   7.285  0.1863 -0.5394 -2.7355
 7210SOL     OW33265   1.289   1.673   2.028 -0.3195 -0.1443 -0.0614
 7210SOL    HW133266   1.263   1.751   2.078  0.8254  0.2142 -0.0100
 7210SOL    HW233267   1.207   1.651   1.985 -0.2955 -2.0891  0.9166
 7211SOL     OW33268   1.879   4.301   8.323 -0.1020 -0.0773 -0.0910
 7211SOL    HW133269   1.804   4.351   8.356  1.6132  0.8946  2.4046
 7211SOL    HW233270   1.834   4.217   8.319 -0.8589  0.3213  0.0649
 7212SOL     OW33271   4.517   3.691   3.154  0.1567  0.1566 -0.6417
 7212SOL    HW133272   4.579   3.759   3.181  1.0204  0.7781 -4.2011
 7212SOL    HW233273   4.578   3.622   3.129 -1.2580 -1.1788 -0.3720
 7213SOL     OW33274   2.778   0.182   2.343 -0.1518  0.1050  0.2079
 7213SOL    HW133275   2.685   0.180   2.320 -0.1693 -0.5098  0.3202
 7213SOL    HW233276   2.804   0.091   2.328  0.9957  0.6659 -1.2675
 7214SOL     OW33277   0.803   1.103   2.334 -0.4412  0.0799 -0.3035
 7214SOL    HW133278   0.715   1.073   2.308  0.1855 -1.7593 -0.2701
 7214SOL    HW233279   0.858   1.025   2.333  0.0959  0.4574  1.2852
 7215SOL     OW33280   2.578   1.751   3.956  0.5896 -0.5691  0.0221
 7215SOL    HW133281   2.648   1.791   3.905 -1.0502  1.6941 -0.4272
 7215SOL    HW233282   2.511   1.721   3.893  0.0507  0.6081  0.0452
 7216SOL     OW33283   3.963   0.428   7.138  0.6377 -0.2979 -0.1150
 7216SOL    HW133284   3.905   0.451   7.211  1.0139  2.3691 -0.6712
 7216SOL    HW233285   3.996   0.517   7.124 -0.8137  0.5259  1.6658
 7217SOL     OW33286   2.951   3.044   6.717  0.0190  0.3307  0.5671
 7217SOL    HW133287   2.970   2.972   6.658  0.6064  1.6869 -0.8865
 7217SOL    HW233288   2.961   2.984   6.791 -2.0738 -1.5024 -0.6584
 7218SOL     OW33289   1.844   0.748  12.871  0.4700  0.1246  0.2338
 7218SOL    HW133290   1.755   0.781  12.869  1.3853  2.4524 -2.4501
 7218SOL    HW233291   1.854   0.737  12.965  1.4396  1.6427  0.3051
 7219SOL     OW33292   0.033   3.484  16.996 -0.3633  0.2952  0.1657
 7219SOL    HW133293   0.043   3.432  16.916  0.1409 -0.1234  0.4973
 7219SOL    HW233294   4.682   3.465  17.019  0.1314 -1.4859  0.6675
 7220SOL     OW33295   0.199   0.338  17.401  0.2061 -0.0081  0.0199
 7220SOL    HW133296   0.124   0.379  17.444 -2.1159 -1.5897 -2.5351
 7220SOL    HW233297   0.207   0.254  17.446 -2.5532 -1.7044 -2.6991
 7221SOL     OW33298   4.379   1.003   6.870  0.2780 -0.0615  0.2291
 7221SOL    HW133299   4.466   1.040   6.858  0.2111  0.4614  1.3355
 7221SOL    HW233300   4.398   0.945   6.943 -0.0483  2.6734  2.4598
 7222SOL     OW33301   3.638   3.636  16.108 -0.2597 -0.2606 -0.2317
 7222SOL    HW133302   3.597   3.550  16.114 -2.0500  0.8460  3.3332
 7222SOL    HW233303   3.568   3.691  16.075  0.2549  0.0848 -0.7373
 7223SOL     OW33304   2.804   3.482   9.380 -0.2164  0.3829  0.2003
 7223SOL    HW133305   2.888   3.509   9.417  0.4129 -0.1428 -0.8211
 7223SOL    HW233306   2.830   3.426   9.306 -2.4847 -1.0075  0.4425
 7224SOL     OW33307   0.156   3.853   8.843  0.4146  0.1563  0.8894
 7224SOL    HW133308   0.071   3.857   8.886  0.4361 -1.2960  1.0833
 7224SOL    HW233309   0.170   3.763   8.814  1.3816 -0.1146  2.2125
 7225SOL     OW33310   1.187   3.549   7.254  0.0947 -0.0575  0.1625
 7225SOL    HW133311   1.104   3.518   7.289 -0.4809 -2.4284 -3.3030
 7225SOL    HW233312   1.185   3.642   7.277  0.0774  0.5412 -2.3492
 7226SOL     OW33313   0.018   1.401   3.116 -0.2961 -0.1972 -0.0190
 7226SOL    HW133314   4.681   1.373   3.165  0.4562 -1.3666  0.4923
 7226SOL    HW233315   0.066   1.318   3.110 -0.3214 -0.3395  1.8695
 7227SOL     OW33316   0.850   0.650  14.206  0.3801 -0.2248  0.3003
 7227SOL    HW133317   0.842   0.735  14.249 -1.0888 -1.3333  2.2095
 7227SOL    HW233318   0.941   0.659  14.180  0.2951 -0.0722  0.0555
 7228SOL     OW33319   0.315   1.294   7.131 -0.7610  0.0530 -0.4325
 7228SOL    HW133320   0.303   1.320   7.040  0.9926  0.0293 -0.6773
 7228SOL    HW233321   0.261   1.354   7.182 -0.3864 -0.5999  0.7366
 7229SOL     OW33322   3.603   3.460   9.282  0.0540 -0.4082  0.3897
 7229SOL    HW133323   3.550   3.525   9.329 -1.9596 -1.9573  0.2814
 7229SOL    HW233324   3.561   3.420   9.205  2.5165 -1.2605 -0.4981
 7230SOL     OW33325   0.482   4.549  17.564  0.2113 -0.0653  0.2249
 7230SOL    HW133326   0.445   4.537  17.652 -0.2274  0.0918  0.0576
 7230SOL    HW233327   0.570   4.515  17.578  0.4165  0.4967  0.3318
 7231SOL     OW33328   0.602   3.323   7.731 -0.1011  0.0871 -0.7971
 7231SOL    HW133329   0.692   3.314   7.699  0.0821  0.5706 -0.4367
 7231SOL    HW233330   0.579   3.231   7.734 -1.2982  0.3816 -1.0218
 7232SOL     OW33331   0.085   1.450  15.139  0.1447  0.1214 -0.3473
 7232SOL    HW133332   0.146   1.405  15.081  0.2071 -0.9635  0.5706
 7232SOL    HW233333   0.007   1.399  15.117  1.8883 -1.8856 -1.9055
 7233SOL     OW33334   2.637   4.072   9.287 -0.1894  0.5270  0.2427
 7233SOL    HW133335   2.701   4.007   9.258  1.0009  0.2584  3.5156
 7233SOL    HW233336   2.646   4.142   9.222  1.6756 -1.6090 -1.7974
 7234SOL     OW33337   3.489   0.101   2.925  0.1876 -0.1549 -0.3141
 7234SOL    HW133338   3.532   0.150   2.856 -0.9475  1.0978 -0.1520
 7234SOL    HW233339   3.518   0.146   3.005  0.5463 -0.5107 -0.2458
 7235SOL     OW33340   3.020   0.406   7.391 -0.0740 -0.0369 -0.1091
 7235SOL    HW133341   2.960   0.348   7.345  1.9953 -0.9625 -1.6425
 7235SOL    HW233342   2.974   0.400   7.475 -1.6367  2.6218 -0.7632
 7236SOL     OW33343   3.150   2.814   0.825  0.0027  0.2184 -0.2341
 7236SOL    HW133344   3.184   2.776   0.744 -3.1778 -1.4655 -0.7578
 7236SOL    HW233345   3.193   2.900   0.817  0.9533 -0.1975  0.4234
 7237SOL     OW33346   0.008   4.644  17.596  0.4453  0.2760 -1.0858
 7237SOL    HW133347   4.717   4.650  17.686  2.1003  0.4707 -0.5259
 7237SOL    HW233348   4.666   4.635  17.548  0.0346  0.7466 -0.4802
 7238SOL     OW33349   2.407   0.708   8.399 -0.0144  0.1248 -0.0793
 7238SOL    HW133350   2.425   0.782   8.457  0.3598 -1.4922  1.8764
 7238SOL    HW233351   2.492   0.713   8.355 -1.0220  1.1055 -1.9033
 7239SOL     OW33352   4.132   0.940  17.672 -0.0373 -0.0334  0.3479
 7239SOL    HW133353   4.108   0.907  17.585 -0.6630 -0.2501  0.6061
 7239SOL    HW233354   4.223   0.968  17.658  0.5903 -2.2940 -0.1041
 7240SOL     OW33355   0.398   4.360   4.099 -0.9403  0.0405  0.6540
 7240SOL    HW133356   0.445   4.422   4.044  1.1390 -1.9043  0.2567
 7240SOL    HW233357   0.470   4.301   4.123 -0.0812 -0.0368 -2.1305
 7241SOL     OW33358   1.378   0.288   7.604 -0.0843 -0.3615 -0.1750
 7241SOL    HW133359   1.420   0.367   7.638  1.2525 -0.0561 -2.4865
 7241SOL    HW233360   1.420   0.214   7.647  1.5467 -0.2562 -1.5651
 7242SOL     OW33361   0.839   4.490   3.581 -0.4590  0.7815  0.7404
 7242SOL    HW133362   0.897   4.523   3.650 -0.1990  2.3892 -0.2515
 7242SOL    HW233363   0.899   4.445   3.521 -1.0695 -0.7124  1.2443
 7243SOL     OW33364   3.151   0.183   6.957 -0.6338 -0.2073  0.1520
 7243SOL    HW133365   3.197   0.196   6.874  1.9056  3.3529  2.1443
 7243SOL    HW233366   3.068   0.152   6.920 -1.6741 -0.5529  2.7781
 7244SOL     OW33367   0.692   1.773   3.805  0.1296 -0.0189 -0.6540
 7244SOL    HW133368   0.730   1.760   3.718  0.8690 -1.1975 -0.1600
 7244SOL    HW233369   0.729   1.698   3.851  1.5006  0.1331 -1.5180
 7245SOL     OW33370   1.915   3.761   2.466 -0.1496 -0.7848  0.2358
 7245SOL    HW133371   1.893   3.693   2.402  1.2906 -0.8882 -0.1568
 7245SOL    HW233372   1.867   3.834   2.427  0.9117 -0.0456  0.3222
 7246SOL     OW33373   4.339   1.003   0.171  0.3590 -0.4414 -0.4046
 7246SOL    HW133374   4.340   1.032   0.080 -0.4773  1.8678  0.3339
 7246SOL    HW233375   4.425   1.030   0.202  1.0522 -0.0194 -2.7113
 7247SOL     OW33376   3.407   3.407   5.876 -0.2599 -0.3987  0.0560
 7247SOL    HW133377   3.491   3.423   5.833 -0.2753 -2.3857 -0.6713
 7247SOL    HW233378   3.414   3.317   5.907  1.0781  0.3725  2.0193
 7248SOL     OW33379   0.884   1.530   6.349 -0.3756 -0.3690 -0.2023
 7248SOL    HW133380   0.846   1.539   6.437  0.3242 -0.2806  0.0875
 7248SOL    HW233381   0.975   1.511   6.369 -0.9237 -0.2776  2.3914
 7249SOL     OW33382   2.906   3.770   2.018 -0.0798  0.5810  0.0725
 7249SOL    HW133383   2.880   3.861   2.030  0.0541  0.9082 -2.1546
 7249SOL    HW233384   2.894   3.741   2.109 -0.3512 -1.2120 -0.5233
 7250SOL     OW33385   1.072   1.973  10.735  0.2259  0.3061  0.2877
 7250SOL    HW133386   1.156   1.940  10.768 -0.3377 -1.0335  0.4053
 7250SOL    HW233387   1.103   2.037  10.672 -0.5040  1.5821  1.2283
 7251SOL     OW33388   3.346   4.698   0.803  0.2700 -0.6312 -0.0197
 7251SOL    HW133389   3.431   0.001   0.809 -0.8288  1.3619  1.1154
 7251SOL    HW233390   3.310   4.735   0.722 -1.3769 -0.0614  0.9611
 7252SOL     OW33391   1.516   4.104   2.336  0.5919 -0.0678 -0.0961
 7252SOL    HW133392   1.427   4.079   2.312  0.0073  3.7566 -1.8939
 7252SOL    HW233393   1.525   4.169   2.266  0.5552 -0.9894 -0.9628
 7253SOL     OW33394   0.678   4.503   9.840  0.1540  0.1011 -0.4203
 7253SOL    HW133395   0.643   4.492   9.752 -5.8102  0.1174  1.9117
 7253SOL    HW233396   0.722   4.584   9.816 -1.6393  1.0781 -0.3770
 7254SOL     OW33397   3.088   3.682   3.297  0.2529 -0.3723 -0.4908
 7254SOL    HW133398   3.039   3.603   3.318  0.7790 -0.7241 -0.5730
 7254SOL    HW233399   3.045   3.716   3.219 -1.9739  0.0429  0.8985
 7255SOL     OW33400   2.202   2.005   7.579 -0.2192  0.0157  0.4345
 7255SOL    HW133401   2.116   2.040   7.603  0.0825  1.6823 -0.9172
 7255SOL    HW233402   2.199   1.924   7.630 -1.3346  0.4713  1.0870
 7256SOL     OW33403   1.472   4.320   5.007  0.2843  0.0829  0.0490
 7256SOL    HW133404   1.538   4.329   4.938  0.8997  1.7445  0.8722
 7256SOL    HW233405   1.507   4.359   5.087  0.8614 -0.8866  0.2672
 7257SOL     OW33406   0.388   2.043   7.861 -0.1306  0.7395  0.0096
 7257SOL    HW133407   0.356   1.986   7.790 -0.1444  1.3188 -0.4484
 7257SOL    HW233408   0.427   2.114   7.810 -1.3370  2.1218  1.0286
 7258SOL     OW33409   3.402   1.800   2.401 -0.4532  0.8239  0.2644
 7258SOL    HW133410   3.442   1.714   2.417 -1.3182  0.4993  0.7089
 7258SOL    HW233411   3.476   1.843   2.358 -1.1778  0.5827 -1.2289
 7259SOL     OW33412   4.569   2.977   7.574 -0.2728  0.0414  0.0494
 7259SOL    HW133413   4.622   2.925   7.514 -0.5601  0.7072 -0.7884
 7259SOL    HW233414   4.621   2.982   7.653 -0.6716  0.4290  0.2902
 7260SOL     OW33415   0.382   3.537   7.428 -0.0476  0.4018 -0.4424
 7260SOL    HW133416   0.402   3.623   7.391  2.1028  0.0670 -0.0466
 7260SOL    HW233417   0.359   3.559   7.518 -2.0438  0.2560 -0.9274
 7261SOL     OW33418   0.552   1.921   4.540 -0.0808  0.0176 -0.3513
 7261SOL    HW133419   0.529   1.854   4.476  0.1284 -1.9664  1.6380
 7261SOL    HW233420   0.634   1.950   4.500  0.7795 -2.6239 -0.4916
 7262SOL     OW33421   0.817   3.097  15.802  0.5903  0.1237  0.0839
 7262SOL    HW133422   0.875   3.088  15.726  0.9896  1.7531  0.1966
 7262SOL    HW233423   0.804   3.007  15.829  0.2042  0.6262  1.5483
 7263SOL     OW33424   1.172   2.866  16.332 -0.6587  0.4948 -0.0120
 7263SOL    HW133425   1.210   2.872  16.245 -1.7708  2.0250 -0.3894
 7263SOL    HW233426   1.080   2.877  16.310 -1.1677 -3.4249  0.2611
 7264SOL     OW33427   2.926   2.421   2.260 -0.1938  0.2507  0.0573
 7264SOL    HW133428   3.018   2.435   2.237  0.1635 -1.0918  0.6645
 7264SOL    HW233429   2.900   2.467   2.340  1.5362  0.3285  0.5672
 7265SOL     OW33430   2.257   0.124   8.488  0.2029 -0.0460 -0.6541
 7265SOL    HW133431   2.254   0.157   8.578  2.9051  0.5466 -0.7839
 7265SOL    HW233432   2.201   0.191   8.448 -1.0393  0.6040  2.2169
 7266SOL     OW33433   0.341   0.177   5.069 -0.5603  0.8891  0.8102
 7266SOL    HW133434   0.343   0.087   5.037  1.9860  1.7274 -1.3488
 7266SOL    HW233435   0.372   0.230   4.996 -0.8626 -1.2697 -0.8960
 7267SOL     OW33436   3.980   1.106   0.879 -0.4294 -0.3903  0.2125
 7267SOL    HW133437   3.999   1.125   0.787  0.0116  1.4739  0.6922
 7267SOL    HW233438   4.019   1.019   0.888 -0.7246 -0.1338  3.7350
 7268SOL     OW33439   4.475   4.135   5.018 -0.0929 -0.0891  0.0138
 7268SOL    HW133440   4.406   4.068   5.026  0.6974 -0.6638  1.9129
 7268SOL    HW233441   4.422   4.215   5.016  1.0661  0.7199  1.3718
 7269SOL     OW33442   0.665   2.128   9.955 -0.8753 -0.8208  0.2777
 7269SOL    HW133443   0.760   2.120   9.966 -1.0885 -1.3932  1.7111
 7269SOL    HW233444   0.660   2.138   9.860 -1.8390 -2.2191  0.1877
 7270SOL     OW33445   2.813   3.625  10.272  0.2430  0.0451  0.8170
 7270SOL    HW133446   2.828   3.546  10.219  0.0140  0.0853  0.6945
 7270SOL    HW233447   2.718   3.624  10.258  0.3377 -1.5880  0.2341
 7271SOL     OW33448   0.196   1.723   8.011  0.0643  0.1244 -0.2376
 7271SOL    HW133449   0.154   1.705   8.095  3.9104 -1.1385  1.4332
 7271SOL    HW233450   0.229   1.808   8.039  2.6836  0.0691 -3.1714
 7272SOL     OW33451   0.995   0.778   3.828 -0.2775  0.2832  0.0163
 7272SOL    HW133452   1.015   0.816   3.914  1.6051  1.4921 -0.9592
 7272SOL    HW233453   1.069   0.815   3.779 -1.3367  2.3389 -0.0166
 7273SOL     OW33454   1.799   1.497   4.492  0.4975  0.3374  0.5708
 7273SOL    HW133455   1.795   1.554   4.415  3.5717  2.5181  1.9970
 7273SOL    HW233456   1.866   1.433   4.465 -0.5858 -0.7595  0.4951
 7274SOL     OW33457   1.813   2.109   9.447 -0.4124 -0.2870  0.2564
 7274SOL    HW133458   1.840   2.201   9.442  1.3117 -0.8470 -1.0220
 7274SOL    HW233459   1.856   2.071   9.370  0.4150  1.3307 -0.1027
 7275SOL     OW33460   0.715   3.497   5.431  0.2292  0.2602  0.2867
 7275SOL    HW133461   0.655   3.570   5.417 -0.3271 -0.4633 -1.1423
 7275SOL    HW233462   0.758   3.485   5.346  1.4811 -0.7059  1.0490
 7276SOL     OW33463   3.810   2.972   8.380 -0.5909 -0.2892 -0.0012
 7276SOL    HW133464   3.888   2.947   8.330 -0.2287  1.9957 -0.5409
 7276SOL    HW233465   3.748   3.000   8.312  0.3792 -1.6232 -1.4662
 7277SOL     OW33466   3.826   4.109   6.970 -0.6571 -0.1391  0.1906
 7277SOL    HW133467   3.893   4.093   6.904 -1.4829 -0.2629 -0.6252
 7277SOL    HW233468   3.767   4.035   6.955  0.8117 -1.2804  0.1019
 7278SOL     OW33469   4.530   2.280  10.974 -0.3396 -0.2468  0.1529
 7278SOL    HW133470   4.485   2.241  11.049 -1.7442  0.6321 -0.2389
 7278SOL    HW233471   4.496   2.369  10.971 -0.2067 -0.1913  0.3067
 7279SOL     OW33472   3.373   1.489   4.543 -0.6768  0.0525 -0.9655
 7279SOL    HW133473   3.462   1.468   4.516 -0.8587 -3.1916  0.9975
 7279SOL    HW233474   3.383   1.584   4.545 -2.0799  0.1322  1.9161
 7280SOL     OW33475   3.151   2.983   4.214 -0.0950  0.5096 -0.1182
 7280SOL    HW133476   3.177   3.013   4.127  0.8508 -1.3933 -0.4935
 7280SOL    HW233477   3.061   3.014   4.208 -0.4574 -0.6416 -0.5091
 7281SOL     OW33478   3.375   0.088   6.375  0.0736  0.1683 -0.7065
 7281SOL    HW133479   3.345   0.028   6.306 -0.6213  0.1617 -0.3987
 7281SOL    HW233480   3.405   0.162   6.323  1.6444 -0.5479 -0.8175
 7282SOL     OW33481   1.895   1.392   5.331 -0.0454 -0.3966 -0.8367
 7282SOL    HW133482   1.850   1.456   5.387  1.5456  1.1927 -1.3796
 7282SOL    HW233483   1.972   1.369   5.383  1.3112  1.5993 -1.9518
 7283SOL     OW33484   4.390   1.799   5.962  0.3492  0.2077 -0.0436
 7283SOL    HW133485   4.352   1.884   5.942  0.0139  0.1677  0.4352
 7283SOL    HW233486   4.462   1.822   6.021 -1.1942  1.5617  1.3079
 7284SOL     OW33487   1.442   3.470   8.803  0.1102  0.1190  0.6043
 7284SOL    HW133488   1.444   3.517   8.886  0.2596 -0.2196  0.7953
 7284SOL    HW233489   1.525   3.501   8.767 -0.1292  1.6002  1.3410
 7285SOL     OW33490   2.542   2.974   7.791 -0.1199 -0.7523  0.8451
 7285SOL    HW133491   2.624   3.014   7.763  0.7398 -2.4774  0.8881
 7285SOL    HW233492   2.545   2.972   7.887  2.0502 -1.8760  0.7328
 7286SOL     OW33493   2.642   0.434   7.719 -0.0120  0.4580 -0.3672
 7286SOL    HW133494   2.607   0.401   7.802 -1.8678  0.1406 -1.2755
 7286SOL    HW233495   2.649   0.526   7.745  0.3176  0.2784  0.1765
 7287SOL     OW33496   0.559   2.922  12.915 -1.0559  0.2023 -1.0181
 7287SOL    HW133497   0.602   2.995  12.959 -1.7864 -0.2405  0.4643
 7287SOL    HW233498   0.631   2.859  12.925  1.1917  2.8882 -0.3537
 7288SOL     OW33499   1.954   2.655  11.725  0.2422  0.0541 -0.6318
 7288SOL    HW133500   1.969   2.602  11.647  0.7124 -0.6111 -0.0994
 7288SOL    HW233501   2.028   2.637  11.783  0.2424  2.7943  0.1979
 7289SOL     OW33502   0.188   3.756   9.397  0.2059 -0.3820  0.1380
 7289SOL    HW133503   0.106   3.783   9.436 -0.0920  0.7076 -1.2407
 7289SOL    HW233504   0.153   3.696   9.331 -1.6011  0.3387  0.4456
 7290SOL     OW33505   2.139   2.004   8.217 -0.1398  0.6719 -0.0137
 7290SOL    HW133506   2.092   2.087   8.217 -1.9656 -0.3573 -1.1194
 7290SOL    HW233507   2.165   1.992   8.308 -0.8860  0.0495  0.1145
 7291SOL     OW33508   3.347   1.888   4.566 -0.4765 -0.6634  0.1487
 7291SOL    HW133509   3.344   1.841   4.482 -2.7799 -2.4044  1.1951
 7291SOL    HW233510   3.259   1.922   4.583  0.5668  1.4327  1.2460
 7292SOL     OW33511   1.441   2.840   6.093 -0.1296 -0.6400  0.1564
 7292SOL    HW133512   1.385   2.815   6.020 -0.2532 -0.3239  0.1447
 7292SOL    HW233513   1.375   2.858   6.160  1.5697  1.8095  1.1958
 7293SOL     OW33514   1.216   2.712  12.148 -0.3589 -0.3215 -0.4406
 7293SOL    HW133515   1.150   2.765  12.193 -0.6774 -0.4072 -0.8084
 7293SOL    HW233516   1.215   2.750  12.061  0.4718  2.1337  0.6350
 7294SOL     OW33517   2.404   3.847   3.933 -0.1603  0.5313  0.1491
 7294SOL    HW133518   2.423   3.815   4.021 -1.1711  1.3488  0.6685
 7294SOL    HW233519   2.310   3.865   3.940 -0.4536 -0.4237 -1.5207
 7295SOL     OW33520   4.592   2.296  16.220 -0.1222  0.3660  0.0077
 7295SOL    HW133521   4.565   2.282  16.129 -0.8107  0.3857  0.2120
 7295SOL    HW233522   4.512   2.326  16.262  0.1129 -0.2144  0.8811
 7296SOL     OW33523   3.989   3.675   7.102  1.0494  0.3273  0.2660
 7296SOL    HW133524   3.957   3.619   7.032  2.3592 -0.0559 -0.0298
 7296SOL    HW233525   3.937   3.648   7.177  0.8671  0.9135  0.3506
 7297SOL     OW33526   0.596   0.819  13.074  0.2964  0.3128 -0.5058
 7297SOL    HW133527   0.661   0.760  13.035  2.2990  1.0852  1.6126
 7297SOL    HW233528   0.560   0.840  12.988  0.0736  0.5928 -0.3429
 7298SOL     OW33529   4.002   2.668  15.993 -0.3578  0.1402 -0.4471
 7298SOL    HW133530   3.944   2.727  16.040 -0.9323 -1.7829  1.2693
 7298SOL    HW233531   4.082   2.719  15.995  0.1490 -0.6793  0.5165
 7299SOL     OW33532   3.290   0.462  11.845 -0.0864 -0.0390 -0.1031
 7299SOL    HW133533   3.227   0.393  11.822 -1.0520  0.6405  0.4852
 7299SOL    HW233534   3.268   0.516  11.768 -1.3198  0.7998  0.8244
 7300SOL     OW33535   2.320   3.659   3.648  0.1777 -0.4280  0.2242
 7300SOL    HW133536   2.393   3.653   3.710  0.8161 -1.9088 -0.6737
 7300SOL    HW233537   2.320   3.574   3.604 -0.7376 -1.0396  1.3937
 7301SOL     OW33538   2.114   2.741  10.631  0.1801 -0.3198 -0.2622
 7301SOL    HW133539   2.204   2.719  10.656 -0.2396 -2.8802 -1.0028
 7301SOL    HW233540   2.068   2.784  10.703  0.1031 -0.4620 -0.2250
 7302SOL     OW33541   3.472   0.022   0.432  0.5085  0.1204 -0.0955
 7302SOL    HW133542   3.458   4.668   0.443 -1.8522  0.4362 -0.3989
 7302SOL    HW233543   3.392   0.055   0.474  0.0322  0.2406 -1.1029
 7303SOL     OW33544   0.474   3.185   6.790  0.1825 -0.4054 -0.0622
 7303SOL    HW133545   0.401   3.186   6.852 -0.6364 -0.7301 -1.0151
 7303SOL    HW233546   0.462   3.275   6.760  0.1780  0.2405  1.9415
 7304SOL     OW33547   0.923   0.408   8.241 -0.0159 -0.3059 -0.5306
 7304SOL    HW133548   0.972   0.325   8.240 -1.8645 -1.3926 -0.9811
 7304SOL    HW233549   0.896   0.417   8.150  0.3355 -0.5767 -0.6617
 7305SOL     OW33550   3.491   4.248   2.152 -0.1736  0.6326  0.1179
 7305SOL    HW133551   3.489   4.174   2.091  1.1994 -0.4427  1.3625
 7305SOL    HW233552   3.451   4.204   2.226 -1.3010  4.1043  1.5572
 7306SOL     OW33553   0.286   3.358   3.671 -0.1540 -0.4459 -0.0760
 7306SOL    HW133554   0.308   3.417   3.743  1.7296 -0.9925 -0.1869
 7306SOL    HW233555   0.207   3.316   3.706  0.7393 -1.2028  1.0586
 7307SOL     OW33556   2.528   3.445  16.080  0.0842  0.1663 -0.0058
 7307SOL    HW133557   2.592   3.434  16.151  0.4579 -1.7864 -0.6295
 7307SOL    HW233558   2.519   3.540  16.089 -0.5097  0.0752  0.3267
 7308SOL     OW33559   3.808   0.707   8.023  0.3566  0.4402 -0.6612
 7308SOL    HW133560   3.863   0.631   8.043 -1.3820 -0.1979  1.7119
 7308SOL    HW233561   3.862   0.759   7.964 -0.9486 -0.8067 -2.9624
 7309SOL     OW33562   2.701   2.364   3.136 -0.5696 -0.2631  0.2429
 7309SOL    HW133563   2.717   2.362   3.042  0.4368 -2.1300  0.4598
 7309SOL    HW233564   2.788   2.357   3.176  0.4503  2.5977 -1.4841
 7310SOL     OW33565   0.292   3.880  11.774  0.3216  0.4189 -0.3201
 7310SOL    HW133566   0.328   3.948  11.718  0.9324  1.1256  0.9516
 7310SOL    HW233567   0.347   3.806  11.751 -0.0784  0.3651 -1.1077
 7311SOL     OW33568   3.485   4.509   4.143  0.6472  0.3389 -0.3605
 7311SOL    HW133569   3.554   4.506   4.078 -0.5457 -0.8733 -1.5735
 7311SOL    HW233570   3.536   4.525   4.223 -0.1054  0.5010  0.0912
 7312SOL     OW33571   3.402   0.897   6.669  0.0836 -0.5143 -0.2548
 7312SOL    HW133572   3.401   0.971   6.608  1.7006  0.2707  0.6791
 7312SOL    HW233573   3.311   0.903   6.698  0.7987  1.8015  1.5326
 7313SOL     OW33574   0.801   2.901  13.349 -0.0676 -0.3137 -0.4931
 7313SOL    HW133575   0.745   2.950  13.289 -0.1180 -1.3630 -1.2981
 7313SOL    HW233576   0.864   2.864  13.287  0.7041 -2.2979  1.4889
 7314SOL     OW33577   0.548   1.862   4.024 -0.3210 -0.0681  0.1303
 7314SOL    HW133578   0.620   1.846   4.085 -0.0386 -0.5041 -0.3176
 7314SOL    HW233579   0.591   1.840   3.942 -0.3617  0.4028 -0.0118
 7315SOL     OW33580   0.990   2.510   5.259 -0.5172  0.2919  0.6607
 7315SOL    HW133581   1.028   2.598   5.260  0.0349  0.0620 -0.0164
 7315SOL    HW233582   1.003   2.492   5.352  0.2601 -0.4256  0.4117
 7316SOL     OW33583   0.704   4.455  12.887  0.4184 -0.8871 -0.2090
 7316SOL    HW133584   0.614   4.436  12.913 -0.2861  0.9946 -1.2803
 7316SOL    HW233585   0.691   4.525  12.823  1.0746 -0.3114  0.2896
 7317SOL     OW33586   2.386   1.596   3.832  0.5073  0.7169  0.0791
 7317SOL    HW133587   2.339   1.579   3.913  3.1458  1.3022  1.7347
 7317SOL    HW233588   2.313   1.638   3.785 -1.3974 -0.5695  1.9155
 7318SOL     OW33589   4.209   0.703   7.110 -0.0447  0.1199 -0.3253
 7318SOL    HW133590   4.119   0.720   7.080 -0.3036  0.5152  0.6423
 7318SOL    HW233591   4.248   0.667   7.031 -0.5948 -0.9434 -0.1032
 7319SOL     OW33592   4.638   1.451   2.793  0.1221 -0.1766 -0.0572
 7319SOL    HW133593   4.599   1.534   2.822 -1.1050 -0.6054 -0.4903
 7319SOL    HW233594   4.568   1.394   2.823  0.3139  0.1829  1.1122
 7320SOL     OW33595   4.177   3.738  16.080  0.6016  0.4647 -0.3963
 7320SOL    HW133596   4.259   3.786  16.071  1.5499 -0.5949  2.5056
 7320SOL    HW233597   4.196   3.683  16.156  0.1401  2.7228  1.3567
 7321SOL     OW33598   1.294   1.722   7.031  0.0712 -0.7580 -0.6656
 7321SOL    HW133599   1.221   1.780   7.054  0.6696  0.2956 -1.4103
 7321SOL    HW233600   1.252   1.677   6.958 -0.0252 -1.4411 -0.1908
 7322SOL     OW33601   3.038   4.042   3.207  0.1677  0.0230 -0.6275
 7322SOL    HW133602   3.116   3.992   3.185 -0.9099 -1.0704 -2.0528
 7322SOL    HW233603   3.079   4.123   3.236  0.3817 -0.1903 -0.3378
 7323SOL     OW33604   4.187   2.006  17.526 -0.6374  0.3545  0.7185
 7323SOL    HW133605   4.229   2.010  17.439 -0.7817 -0.6589  0.6064
 7323SOL    HW233606   4.115   1.946  17.506  0.7063 -1.3937  1.0677
 7324SOL     OW33607   3.204   3.883   9.485  0.5083 -0.5933  0.1804
 7324SOL    HW133608   3.183   3.835   9.404  0.2766 -1.1643  0.5753
 7324SOL    HW233609   3.225   3.973   9.462  0.6507 -0.8659 -0.7524
 7325SOL     OW33610   2.572   0.233   8.792  0.0527 -0.1054 -0.8504
 7325SOL    HW133611   2.548   0.142   8.775 -1.9383  0.9753 -3.7990
 7325SOL    HW233612   2.494   0.284   8.770 -0.9742 -1.1042  0.4528
 7326SOL     OW33613   3.872   1.381   7.168 -0.4849  0.4303 -0.6728
 7326SOL    HW133614   3.951   1.348   7.127 -0.4086 -0.3862  0.1324
 7326SOL    HW233615   3.805   1.361   7.103  1.6863 -0.4741 -2.6046
 7327SOL     OW33616   3.608   4.032   2.637 -0.1312  0.0787  0.1769
 7327SOL    HW133617   3.598   4.019   2.731 -0.2257 -0.1541  0.1353
 7327SOL    HW233618   3.690   4.081   2.637  0.5071 -0.9718 -1.7150
 7328SOL     OW33619   3.344   0.480   0.022 -0.2456 -0.5021  0.0243
 7328SOL    HW133620   3.265   0.530   0.044  0.4897 -0.4581  2.6346
 7328SOL    HW233621   3.383   0.543  17.720  3.1643 -1.1816  1.5805
 7329SOL     OW33622   2.732   2.665  15.782 -0.5576 -0.1597  0.3108
 7329SOL    HW133623   2.686   2.589  15.746  0.8483  0.1384 -2.0915
 7329SOL    HW233624   2.768   2.709  15.705 -1.7695 -0.5631 -0.4833
 7330SOL     OW33625   0.593   0.994  15.111 -0.0204  0.1870 -0.1662
 7330SOL    HW133626   0.641   0.975  15.192 -0.4104 -0.6682 -0.1362
 7330SOL    HW233627   0.539   1.068  15.137 -1.8461 -0.7720 -1.2288
 7331SOL     OW33628   4.359   1.523   6.301 -0.0052 -0.1534 -0.1008
 7331SOL    HW133629   4.290   1.578   6.262  0.5330  0.6237  0.0355
 7331SOL    HW233630   4.328   1.544   6.389  0.5209 -2.5206  0.6327
 7332SOL     OW33631   4.339   2.337   5.331 -0.1842  0.5193  0.2346
 7332SOL    HW133632   4.280   2.357   5.258  1.3167 -1.7400 -1.5826
 7332SOL    HW233633   4.287   2.280   5.387 -0.9299  1.1687  0.2057
 7333SOL     OW33634   2.624   1.884   7.534  0.0888 -0.3158 -0.0691
 7333SOL    HW133635   2.650   1.976   7.533  0.1463 -0.3165  1.3342
 7333SOL    HW233636   2.707   1.838   7.546  0.6465  0.9401  0.9106
 7334SOL     OW33637   3.604   2.938  10.277  0.5050 -0.3562  0.3653
 7334SOL    HW133638   3.687   2.956  10.233 -0.6091  2.1797 -0.7054
 7334SOL    HW233639   3.639   2.867  10.330  3.0926  1.4187  1.0522
 7335SOL     OW33640   3.161   2.721   2.485 -0.4401  0.1403 -0.2597
 7335SOL    HW133641   3.237   2.729   2.542  0.2266 -2.6573 -0.7714
 7335SOL    HW233642   3.202   2.750   2.403 -0.1092  0.8807  0.1638
 7336SOL     OW33643   1.384   1.137   3.168 -0.0852  0.3368 -0.2441
 7336SOL    HW133644   1.419   1.156   3.081 -0.4802  0.3877 -0.3935
 7336SOL    HW233645   1.456   1.163   3.225 -0.0986  2.2519 -1.1012
 7337SOL     OW33646   1.017   1.232   8.220  0.1837 -0.0475  0.3186
 7337SOL    HW133647   1.053   1.143   8.213  2.7767  1.0695 -0.5938
 7337SOL    HW233648   0.991   1.225   8.312 -0.0897  0.8935  0.3120
 7338SOL     OW33649   2.584   2.848   7.181  0.0336  0.1913 -0.1379
 7338SOL    HW133650   2.622   2.891   7.105  0.6180 -1.6607 -0.8842
 7338SOL    HW233651   2.523   2.796   7.129 -0.5138 -1.6151  2.3166
 7339SOL     OW33652   4.246   2.915   6.107  0.0123  0.2188 -0.6015
 7339SOL    HW133653   4.272   2.951   6.022  2.4332 -1.7733 -0.7063
 7339SOL    HW233654   4.265   2.986   6.167 -1.7593  0.6063 -0.4997
 7340SOL     OW33655   1.800   1.513   6.179 -0.0787  0.4190 -0.4446
 7340SOL    HW133656   1.855   1.487   6.105 -1.6934 -1.1666 -1.0705
 7340SOL    HW233657   1.771   1.425   6.199 -1.3676  0.4913 -1.9588
 7341SOL     OW33658   3.009   4.052   6.659  0.2656  0.5492 -0.1529
 7341SOL    HW133659   2.964   4.132   6.685 -0.4106 -0.1658  0.8553
 7341SOL    HW233660   2.937   3.989   6.657 -0.3052  1.2030 -0.3669
 7342SOL     OW33661   3.220   2.574   1.336  0.8832  0.1340  0.0983
 7342SOL    HW133662   3.200   2.484   1.307 -0.6448 -0.1183  1.9523
 7342SOL    HW233663   3.197   2.626   1.259  0.3479 -1.2526 -0.6913
 7343SOL     OW33664   1.115   4.637   8.457 -0.4680 -0.2723  0.5660
 7343SOL    HW133665   1.073   4.568   8.508  0.7322 -1.0372  0.5071
 7343SOL    HW233666   1.121   4.586   8.376  2.0941  1.7298 -0.4968
 7344SOL     OW33667   1.186   0.544   2.605  0.1011 -0.5349 -0.1722
 7344SOL    HW133668   1.151   0.531   2.517  1.7815 -1.4956 -0.7007
 7344SOL    HW233669   1.281   0.538   2.592  0.0349  0.0282 -0.9666
 7345SOL     OW33670   1.930   3.067   0.635  0.1917  0.3618 -0.5327
 7345SOL    HW133671   1.945   2.979   0.600  0.3290  0.0767  0.2330
 7345SOL    HW233672   1.841   3.060   0.670  0.6374 -1.9670  0.1533
 7346SOL     OW33673   0.376   0.249   8.414 -0.0669  0.2247 -0.6543
 7346SOL    HW133674   0.319   0.295   8.476 -0.2841 -0.0358 -0.6646
 7346SOL    HW233675   0.459   0.254   8.460 -0.2035  2.0441 -0.5765
 7347SOL     OW33676   2.062   1.744  16.134 -0.5860  0.5384  0.2480
 7347SOL    HW133677   2.014   1.727  16.216  0.7215  1.1188  1.1366
 7347SOL    HW233678   2.012   1.685  16.078  2.5044 -1.3306 -0.5261
 7348SOL     OW33679   4.718   3.893   5.907 -0.3214 -0.4079  0.4554
 7348SOL    HW133680   4.633   3.884   5.951  0.5376 -0.1847  2.1830
 7348SOL    HW233681   4.713   3.971   5.852 -1.5516 -0.0726  1.0263
 7349SOL     OW33682   1.224   3.798   4.334 -0.0756 -0.2348  0.1759
 7349SOL    HW133683   1.256   3.714   4.367  0.0028 -0.8755 -1.4945
 7349SOL    HW233684   1.140   3.809   4.378  1.1508  1.6632  2.0602
 7350SOL     OW33685   2.470   0.731  14.752 -0.2945 -0.6661 -0.0460
 7350SOL    HW133686   2.445   0.687  14.834  0.5075 -1.8767 -0.4629
 7350SOL    HW233687   2.516   0.809  14.784  1.7502 -1.6046 -0.7434
 7351SOL     OW33688   3.723   1.924   3.044 -0.4658 -0.1103 -0.3662
 7351SOL    HW133689   3.655   1.992   3.040 -0.4905 -0.1511 -0.6319
 7351SOL    HW233690   3.677   1.863   3.102  1.0450  1.1548  2.1625
 7352SOL     OW33691   3.081   2.008  15.830  0.0516 -0.1885 -0.0061
 7352SOL    HW133692   3.141   2.015  15.904  1.0509  3.5776 -1.1761
 7352SOL    HW233693   2.997   1.983  15.869  0.4832 -1.3067  0.2096
 7353SOL     OW33694   1.482   2.692   3.384  0.7912  0.4112 -1.2944
 7353SOL    HW133695   1.491   2.773   3.334 -0.6386  0.8291 -0.8775
 7353SOL    HW233696   1.414   2.651   3.330  0.1917  1.4036 -1.2959
 7354SOL     OW33697   1.931   4.540   7.131  0.1757 -0.4602  0.8377
 7354SOL    HW133698   1.953   4.502   7.216 -1.1648  0.1985  1.4772
 7354SOL    HW233699   2.015   4.579   7.110 -1.0888  0.6732 -2.1096
 7355SOL     OW33700   2.325   4.304   2.168  0.3628  0.4972  0.5886
 7355SOL    HW133701   2.270   4.308   2.247  0.7756  0.5221  0.8712
 7355SOL    HW233702   2.263   4.330   2.099  0.7436  1.5851  0.6673
 7356SOL     OW33703   2.219   3.652   4.933  0.5168  0.0454  0.0357
 7356SOL    HW133704   2.136   3.608   4.950  1.3374 -1.6716 -0.4257
 7356SOL    HW233705   2.277   3.584   4.899  0.5806  0.0421  0.1514
 7357SOL     OW33706   2.170   1.220   6.897  0.2122 -0.3408  0.3880
 7357SOL    HW133707   2.252   1.174   6.909  2.9069  3.5611 -2.9145
 7357SOL    HW233708   2.186   1.301   6.945  0.2539  0.2332 -0.5850
 7358SOL     OW33709   0.296   0.108   3.061  0.4911 -0.1271 -0.0003
 7358SOL    HW133710   0.283   0.025   3.016 -4.3121  0.4219  0.3407
 7358SOL    HW233711   0.238   0.169   3.016  0.3839 -0.2217  0.0097
 7359SOL     OW33712   2.731   2.500   6.679  0.1194 -0.3794 -0.0873
 7359SOL    HW133713   2.818   2.520   6.644 -1.0287  0.9810 -2.1268
 7359SOL    HW233714   2.742   2.528   6.769 -0.8976 -0.7187  0.1442
 7360SOL     OW33715   3.481   3.672   1.823  0.3586  0.6479 -0.1830
 7360SOL    HW133716   3.399   3.674   1.872  0.0494 -0.6163 -0.6304
 7360SOL    HW233717   3.521   3.591   1.855  1.6488  0.4307 -2.2962
 7361SOL     OW33718   0.204   2.337   5.735  0.7728  0.0453  0.2431
 7361SOL    HW133719   0.260   2.384   5.797  0.8977  0.9074 -0.5104
 7361SOL    HW233720   0.126   2.392   5.738  1.9878  1.7586  0.7278
 7362SOL     OW33721   0.774   3.373   3.254 -0.1684  0.4426  0.0101
 7362SOL    HW133722   0.693   3.416   3.227  1.5315  2.8205 -1.3703
 7362SOL    HW233723   0.740   3.292   3.292 -1.3224 -0.1617 -2.2924
 7363SOL     OW33724   2.518   4.420   1.478  0.1683 -0.2947  0.4702
 7363SOL    HW133725   2.433   4.460   1.498  0.2224 -0.5222  1.1618
 7363SOL    HW233726   2.537   4.445   1.388 -1.5789 -1.5693 -0.2403
 7364SOL     OW33727   4.010   0.139   4.966  0.1384  0.2337 -0.3605
 7364SOL    HW133728   4.084   0.092   4.929  0.0686  0.8072 -1.2576
 7364SOL    HW233729   4.017   0.229   4.933 -0.1420 -0.2572 -1.7551
 7365SOL     OW33730   1.113   2.141   0.640  0.0618 -0.4856  0.1469
 7365SOL    HW133731   1.036   2.178   0.683  0.2663  1.1875 -0.9255
 7365SOL    HW233732   1.150   2.218   0.597 -2.8716  2.2225  2.5077
 7366SOL     OW33733   0.930   3.599   9.659 -0.7617  0.6307 -0.2755
 7366SOL    HW133734   0.860   3.540   9.631 -2.1798  1.3297  1.8450
 7366SOL    HW233735   0.914   3.613   9.752 -0.4895  1.5018 -0.3612
 7367SOL     OW33736   2.690   2.570   3.320  0.1537 -0.7730  0.1958
 7367SOL    HW133737   2.693   2.499   3.255  3.1086  0.3800 -0.9109
 7367SOL    HW233738   2.596   2.575   3.336  0.0994  1.1682 -0.8471
 7368SOL     OW33739   2.492   1.903   5.467  0.0733  0.0328  0.2924
 7368SOL    HW133740   2.430   1.842   5.428 -0.3751  0.2973  0.5885
 7368SOL    HW233741   2.551   1.921   5.394  0.4787 -2.6650 -0.0365
 7369SOL     OW33742   1.917   0.709   2.583  0.1193  0.2037  0.3365
 7369SOL    HW133743   1.931   0.779   2.519  0.0019 -0.3659 -0.3142
 7369SOL    HW233744   1.947   0.636   2.529 -0.2313 -1.0618  1.8700
 7370SOL     OW33745   2.808   1.514   9.711  0.1491 -0.0496 -0.5136
 7370SOL    HW133746   2.821   1.429   9.754 -0.9305  0.0447  0.0179
 7370SOL    HW233747   2.747   1.563   9.766  1.8385  0.7572  0.5935
 7371SOL     OW33748   0.101   1.256  12.591  0.3576 -0.8141  0.7522
 7371SOL    HW133749   0.080   1.166  12.616 -1.1675 -0.4592  0.7594
 7371SOL    HW233750   0.123   1.240  12.500 -0.4187  0.7465  0.2830
 7372SOL     OW33751   1.990   4.636   2.036  0.4068 -0.2477 -0.5253
 7372SOL    HW133752   2.059   4.651   2.100 -0.2581  0.0127  0.1204
 7372SOL    HW233753   1.914   4.629   2.093  2.2227  0.0597  1.9422
 7373SOL     OW33754   3.446   0.785   4.980 -0.2045 -0.0086 -0.0864
 7373SOL    HW133755   3.448   0.702   5.028 -1.4515  1.4865  2.4993
 7373SOL    HW233756   3.516   0.755   4.922 -0.5205  2.5796 -1.7939
 7374SOL     OW33757   3.956   1.423   8.688  0.1997  0.3580  0.5259
 7374SOL    HW133758   4.020   1.483   8.651 -0.1873 -0.2966 -1.1730
 7374SOL    HW233759   4.017   1.366   8.735 -2.7415 -1.0493  2.6852
 7375SOL     OW33760   2.856   0.777   4.857  0.3980 -0.3309 -0.2158
 7375SOL    HW133761   2.842   0.684   4.844  1.1483 -0.4876  0.0845
 7375SOL    HW233762   2.952   0.784   4.849  0.4820  1.6944  2.4375
 7376SOL     OW33763   1.921   3.741   7.068  0.6159  0.3335  0.4166
 7376SOL    HW133764   1.972   3.779   7.139  0.2364  3.4115 -0.9448
 7376SOL    HW233765   1.857   3.701   7.126  1.6226  0.5844  1.7003
 7377SOL     OW33766   1.206   0.683   2.195 -0.2875 -0.1764  0.5966
 7377SOL    HW133767   1.280   0.709   2.249 -0.5221 -2.0032  1.8071
 7377SOL    HW233768   1.152   0.761   2.182  1.2290  0.6251 -0.8792
 7378SOL     OW33769   2.370   1.492   2.240 -0.1849 -0.1407 -0.1158
 7378SOL    HW133770   2.278   1.465   2.245  0.3196 -1.8302  0.1318
 7378SOL    HW233771   2.413   1.475   2.324  1.8821  0.7649 -1.0128
 7379SOL     OW33772   3.679   2.426  11.374  0.0896  0.2077 -0.1989
 7379SOL    HW133773   3.751   2.463  11.322  0.2998  1.2283  0.8316
 7379SOL    HW233774   3.605   2.453  11.320 -0.5148 -1.0531 -0.0075
 7380SOL     OW33775   2.361   3.469   4.765 -0.3451 -0.2112  0.7423
 7380SOL    HW133776   2.370   3.506   4.677  2.4006  2.4030  2.1421
 7380SOL    HW233777   2.430   3.402   4.768 -1.3473 -1.1690  2.6000
 7381SOL     OW33778   2.503   3.049  13.631  0.3843 -0.3393 -0.1198
 7381SOL    HW133779   2.553   3.111  13.683 -1.5888  0.9948  0.2010
 7381SOL    HW233780   2.418   3.089  13.650 -0.2577 -0.4914 -2.5733
 7382SOL     OW33781   3.847   1.719  10.365  0.3385  0.1883 -0.6627
 7382SOL    HW133782   3.937   1.744  10.386  0.8449 -1.1132 -1.2366
 7382SOL    HW233783   3.865   1.647  10.305  1.1830  0.4497 -0.7187
 7383SOL     OW33784   4.342   0.750  11.692  0.1598  0.4022 -0.7459
 7383SOL    HW133785   4.370   0.686  11.756 -0.2996  1.6877  0.7347
 7383SOL    HW233786   4.415   0.810  11.707 -0.0471  0.4083  0.2236
 7384SOL     OW33787   1.194   0.594   6.847  0.0459  0.3975 -0.5812
 7384SOL    HW133788   1.225   0.674   6.803 -0.5741  1.5320  1.0539
 7384SOL    HW233789   1.101   0.614   6.853 -0.1967 -1.0597  0.3006
 7385SOL     OW33790   0.079   3.012   5.624 -1.7053  0.1315 -0.2405
 7385SOL    HW133791   0.143   2.993   5.556  0.0740 -0.5115  1.5811
 7385SOL    HW233792   0.124   3.076   5.679 -1.9098 -1.0838  1.3691
 7386SOL     OW33793   3.118   4.485   2.680  0.1792  0.4921 -0.4381
 7386SOL    HW133794   3.200   4.505   2.727  0.2515 -1.2616  0.1827
 7386SOL    HW233795   3.066   4.508   2.757 -0.3766 -0.2329 -0.6067
 7387SOL     OW33796   3.623   4.499   5.142  0.3427 -0.2998  0.3028
 7387SOL    HW133797   3.540   4.547   5.132  0.5448 -0.0447 -0.1514
 7387SOL    HW233798   3.666   4.502   5.057 -0.1831 -0.9003  0.0077
 7388SOL     OW33799   1.502   2.504   9.031 -0.3238  1.1777  0.2188
 7388SOL    HW133800   1.553   2.563   9.087  0.3181 -0.7890  1.7171
 7388SOL    HW233801   1.437   2.469   9.092  1.1628  0.5172  1.4325
 7389SOL     OW33802   3.928   1.745   7.856 -0.1321 -0.2873  0.5665
 7389SOL    HW133803   3.995   1.688   7.818  0.1414  1.1133 -1.0407
 7389SOL    HW233804   3.860   1.679   7.872 -1.6633  1.0301 -0.4939
 7390SOL     OW33805   1.643   1.163   2.134 -0.0453  0.1556 -0.4542
 7390SOL    HW133806   1.590   1.212   2.072  0.0398  0.3544 -0.3719
 7390SOL    HW233807   1.639   1.078   2.090 -0.3484 -0.5242  0.8723
 7391SOL     OW33808   0.351   0.540  17.023 -0.0836  0.8399 -0.0041
 7391SOL    HW133809   0.278   0.487  17.054  0.1551  0.3340 -0.3101
 7391SOL    HW233810   0.339   0.540  16.928 -1.6097  1.7407  0.1907
 7392SOL     OW33811   4.086   1.284   3.177  0.2880 -0.6408 -0.0851
 7392SOL    HW133812   4.092   1.227   3.253 -1.0764 -0.5626  0.0973
 7392SOL    HW233813   4.066   1.218   3.110  0.0151  1.1479 -1.7672
 7393SOL     OW33814   1.038   4.711   3.386 -0.2244 -0.0643 -0.1155
 7393SOL    HW133815   0.946   4.724   3.361 -0.2802  1.2411  0.7742
 7393SOL    HW233816   1.035   4.639   3.449 -0.6037  1.1287  1.2071
 7394SOL     OW33817   3.275   4.601   2.216 -0.0216 -0.5977 -0.4674
 7394SOL    HW133818   3.205   4.583   2.279 -1.2278  2.3576 -0.9575
 7394SOL    HW233819   3.266   4.527   2.156  0.5403  0.7959 -2.2697
 7395SOL     OW33820   2.841   0.613   5.534  0.1615  0.1566  0.0549
 7395SOL    HW133821   2.859   0.539   5.592 -1.4334 -0.0482  0.2721
 7395SOL    HW233822   2.746   0.617   5.532  0.0510 -2.2898 -0.0506
 7396SOL     OW33823   2.360   3.166  13.205  0.0082  0.5501  0.2770
 7396SOL    HW133824   2.440   3.132  13.166 -1.6082 -1.2529 -1.4713
 7396SOL    HW233825   2.336   3.102  13.272  0.5204  0.9757  0.8700
 7397SOL     OW33826   3.040   3.844   2.743  0.2666 -0.0419 -0.0522
 7397SOL    HW133827   2.999   3.929   2.729  0.4046  0.0837  0.3167
 7397SOL    HW233828   3.119   3.869   2.792  0.5968 -0.2105 -0.4977
 7398SOL     OW33829   0.990   0.405  11.849  0.0830  0.2740  0.1645
 7398SOL    HW133830   0.950   0.483  11.886  1.7995  0.0321  2.4689
 7398SOL    HW233831   1.069   0.444  11.814 -0.1461 -0.0591 -0.7276
 7399SOL     OW33832   3.012   4.677  17.710  0.3071  0.6058 -0.1115
 7399SOL    HW133833   3.038   0.029  17.707 -1.0259  0.9539 -0.8295
 7399SOL    HW233834   3.095   4.635  17.687  1.6014  1.7907  2.3321
 7400SOL     OW33835   4.670   3.403   5.001 -0.6038  0.1227  0.3111
 7400SOL    HW133836   4.649   3.310   5.005 -2.9643  0.5779 -1.0800
 7400SOL    HW233837   0.020   3.423   5.025 -0.3689  0.7215 -1.0212
 7401SOL     OW33838   0.992   1.545  16.621  0.2924  0.4218 -0.4227
 7401SOL    HW133839   0.927   1.613  16.602  1.6482  1.7201 -0.4402
 7401SOL    HW233840   1.050   1.604  16.668 -0.1731 -0.5547  1.3543
 7402SOL     OW33841   3.878   3.810  15.594 -0.3152 -0.1533 -0.1737
 7402SOL    HW133842   3.941   3.776  15.658  0.1357  1.8906  0.4458
 7402SOL    HW233843   3.823   3.734  15.574 -0.2911 -0.6183  1.4484
 7403SOL     OW33844   1.241   0.709   0.786 -0.6801 -0.7575 -0.4656
 7403SOL    HW133845   1.183   0.781   0.811 -0.6277 -1.3797  1.4895
 7403SOL    HW233846   1.273   0.689   0.874 -0.1916  1.9793 -0.0310
 7404SOL     OW33847   2.049   2.054   7.315 -0.3982 -0.0281 -0.6214
 7404SOL    HW133848   2.139   2.041   7.343  0.6754  2.3931 -2.9193
 7404SOL    HW233849   2.060   2.077   7.222  1.2946 -0.5573 -0.5394
 7405SOL     OW33850   4.636   2.211   1.523  0.9607 -0.1125 -0.0367
 7405SOL    HW133851   4.606   2.120   1.531  1.3060 -0.2614 -0.4969
 7405SOL    HW233852   4.706   2.219   1.588  0.3856  1.2823  0.4214
 7406SOL     OW33853   2.035   3.207   8.226 -0.0120  0.5208 -0.0386
 7406SOL    HW133854   2.086   3.288   8.223  0.3388  0.3240  0.6274
 7406SOL    HW233855   1.948   3.235   8.255 -0.3357 -0.9779  0.4292
 7407SOL     OW33856   0.341   0.088   0.047 -0.2203  0.4311 -0.0260
 7407SOL    HW133857   0.283   0.160   0.025 -0.9041  0.0993  0.6713
 7407SOL    HW233858   0.417   0.117  17.754  1.3643 -0.2276  1.9724
 7408SOL     OW33859   1.868   1.366  16.849 -0.2031 -0.2855 -0.3738
 7408SOL    HW133860   1.848   1.402  16.935 -1.4708  2.0294 -1.6246
 7408SOL    HW233861   1.834   1.442  16.800 -2.2741 -1.3909 -0.6564
 7409SOL     OW33862   3.065   1.694   9.113  0.5616  0.1955  0.0350
 7409SOL    HW133863   3.072   1.607   9.151  0.4334  0.2137  0.0985
 7409SOL    HW233864   3.061   1.679   9.018 -0.0986 -4.1252  0.7603
 7410SOL     OW33865   1.278   1.131   6.731  0.5141 -0.0520  0.2085
 7410SOL    HW133866   1.233   1.213   6.755  1.2659  0.9560 -1.7634
 7410SOL    HW233867   1.347   1.126   6.796 -0.9002 -0.8125  1.6450
 7411SOL     OW33868   1.593   1.565  16.176 -0.3786 -0.6003 -0.2336
 7411SOL    HW133869   1.554   1.647  16.205 -0.2172 -0.5887 -0.0425
 7411SOL    HW233870   1.567   1.513  16.253  1.0709  0.2126  0.8129
 7412SOL     OW33871   4.124   0.860  17.384  0.3109 -0.2363  0.5333
 7412SOL    HW133872   4.141   0.834  17.293 -0.3255  1.6241 -0.1176
 7412SOL    HW233873   4.094   0.951  17.387  2.3207  0.4873 -0.9714
 7413SOL     OW33874   0.528   2.494   2.699 -0.0337  0.6611  0.4695
 7413SOL    HW133875   0.471   2.501   2.776 -1.2682 -2.2000 -0.1724
 7413SOL    HW233876   0.560   2.585   2.698  0.7953  0.3632  0.1664
 7414SOL     OW33877   3.179   0.311   8.378  0.2434 -0.1681 -0.1733
 7414SOL    HW133878   3.216   0.396   8.401  0.2999 -0.4382  0.7341
 7414SOL    HW233879   3.095   0.318   8.423  0.5561  2.9924 -0.0537
 7415SOL     OW33880   1.892   0.397   1.344 -0.1831 -0.3372 -0.3467
 7415SOL    HW133881   1.865   0.488   1.361 -1.2664 -0.6145 -0.5968
 7415SOL    HW233882   1.896   0.403   1.249 -1.0636 -0.9508 -0.4129
 7416SOL     OW33883   1.233   1.841  13.613  0.0923  0.1034 -0.2958
 7416SOL    HW133884   1.194   1.910  13.667 -2.9225 -1.6068 -0.3328
 7416SOL    HW233885   1.237   1.870  13.522 -0.2809 -0.2666 -0.4287
 7417SOL     OW33886   3.851   3.208   8.566  0.0519  0.2647  0.2247
 7417SOL    HW133887   3.872   3.296   8.532 -1.3428  0.6631  0.3884
 7417SOL    HW233888   3.865   3.160   8.485  0.9429  0.5340  0.2141
 7418SOL     OW33889   0.796   3.371   8.878 -0.7510  0.1014 -0.0500
 7418SOL    HW133890   0.741   3.371   8.956 -1.4742 -0.0987 -0.5650
 7418SOL    HW233891   0.878   3.346   8.921 -1.1205  2.5210  2.0119
 7419SOL     OW33892   3.061   4.118   8.040 -0.4069  0.2533  0.3619
 7419SOL    HW133893   2.977   4.151   8.075 -1.0881  0.9023 -1.8990
 7419SOL    HW233894   3.111   4.102   8.120  1.6538  1.6697 -0.6597
 7420SOL     OW33895   2.436   0.552   6.884 -0.3627 -0.3935 -0.2632
 7420SOL    HW133896   2.372   0.578   6.950  1.2311  0.7353  0.8301
 7420SOL    HW233897   2.488   0.632   6.883  0.7202 -1.0846  1.2931
 7421SOL     OW33898   0.996   4.654   2.814 -0.2074 -0.4677  0.1702
 7421SOL    HW133899   1.067   4.646   2.878  1.6700  1.6745 -1.6705
 7421SOL    HW233900   0.926   4.685   2.872 -0.8675 -0.4891 -0.6127
 7422SOL     OW33901   3.623   1.250  12.598  0.6184  0.1044 -0.4954
 7422SOL    HW133902   3.622   1.209  12.684  0.0269  0.6291 -0.2497
 7422SOL    HW233903   3.717   1.255  12.581  0.3599  2.9169 -1.1190
 7423SOL     OW33904   2.835   2.419   5.990  0.3910  0.2029  0.3716
 7423SOL    HW133905   2.913   2.472   6.010  0.8239 -0.4619  0.4577
 7423SOL    HW233906   2.884   2.355   5.938  2.2245  1.7517  0.2047
 7424SOL     OW33907   4.562   4.652  12.923  0.1064  0.5201 -0.5475
 7424SOL    HW133908   4.512   4.638  13.003  0.8620 -0.5516 -0.2611
 7424SOL    HW233909   4.635   4.590  12.928 -0.7613 -0.4502  0.1829
 7425SOL     OW33910   0.466   0.555  12.726  0.0544  0.5104 -0.1265
 7425SOL    HW133911   0.561   0.561  12.739  0.1432  2.1200 -1.5043
 7425SOL    HW233912   0.432   0.605  12.800 -0.1715  0.2677 -0.0674
 7426SOL     OW33913   2.920   3.124   4.268 -0.6146 -0.1965 -0.3359
 7426SOL    HW133914   2.851   3.059   4.277 -0.1628 -0.6119  0.1061
 7426SOL    HW233915   2.918   3.154   4.359  1.0355 -2.3979  0.4170
 7427SOL     OW33916   1.911   2.316   5.525 -0.2185  0.7978  0.0194
 7427SOL    HW133917   1.914   2.237   5.579 -0.5744  0.8220  0.0737
 7427SOL    HW233918   1.819   2.340   5.541 -0.0692  0.1720  1.8297
 7428SOL     OW33919   2.147   2.435  12.290 -0.4603  0.2568  0.2920
 7428SOL    HW133920   2.163   2.352  12.246 -2.4424  0.0283  0.0094
 7428SOL    HW233921   2.123   2.495  12.219  0.1110  0.7831  0.5376
 7429SOL     OW33922   3.667   4.039  11.646  0.1960  0.0436  0.5395
 7429SOL    HW133923   3.674   3.955  11.690 -1.0495 -0.1286  0.4130
 7429SOL    HW233924   3.732   4.095  11.688  2.6078 -2.6448  0.3393
 7430SOL     OW33925   3.998   2.157   5.097  0.0877 -0.0279 -0.0352
 7430SOL    HW133926   3.951   2.109   5.166 -2.6555  0.7846 -1.3282
 7430SOL    HW233927   3.940   2.149   5.021 -1.2068  0.5960  0.8926
 7431SOL     OW33928   2.178   4.272   7.130 -0.0384  0.4465 -0.0708
 7431SOL    HW133929   2.243   4.224   7.181  0.3678  0.1612 -0.8543
 7431SOL    HW233930   2.173   4.352   7.182 -1.6898 -0.2888  0.8873
 7432SOL     OW33931   3.811   1.852   4.429  0.2949  0.2356 -0.3271
 7432SOL    HW133932   3.817   1.888   4.517 -0.1559 -0.2139 -0.1092
 7432SOL    HW233933   3.884   1.790   4.427  0.3167  0.2119  2.2753
 7433SOL     OW33934   2.502   2.821   2.661  0.1394 -0.1320 -0.7001
 7433SOL    HW133935   2.460   2.907   2.667  0.6440 -0.1255  2.4413
 7433SOL    HW233936   2.590   2.858   2.650 -0.5225  2.1941  1.8225
 7434SOL     OW33937   3.679   3.744   4.681  0.4877  0.1462  0.3012
 7434SOL    HW133938   3.606   3.685   4.698  1.5092 -0.6377  1.9556
 7434SOL    HW233939   3.737   3.726   4.755  0.9765 -0.2757 -0.1839
 7435SOL     OW33940   4.385   3.687   4.874  0.1096 -1.0866 -0.4415
 7435SOL    HW133941   4.439   3.718   4.947 -1.9636  1.2267  0.0820
 7435SOL    HW233942   4.365   3.602   4.914 -0.9509 -0.5136  0.2452
 7436SOL     OW33943   3.920   1.788   6.083  0.3270 -0.1713  0.2580
 7436SOL    HW133944   3.984   1.747   6.141 -1.4090  0.0880  2.3753
 7436SOL    HW233945   3.840   1.740   6.107 -0.1386  0.7668  0.5948
 7437SOL     OW33946   0.658   4.203   4.221  0.2809  0.0517  0.0168
 7437SOL    HW133947   0.692   4.261   4.288 -1.6961 -2.0513  2.8437
 7437SOL    HW233948   0.650   4.120   4.268 -1.7026  0.3559  0.1861
 7438SOL     OW33949   1.937   2.308  13.697 -0.3608 -0.3244  0.1512
 7438SOL    HW133950   1.911   2.246  13.765 -0.7296  0.1305  0.4235
 7438SOL    HW233951   2.029   2.283  13.690 -1.1409 -2.4675 -2.4700
 7439SOL     OW33952   4.517   2.001  17.071  0.2133  0.4556 -0.7589
 7439SOL    HW133953   4.492   2.090  17.097 -0.6347 -0.1874  0.5953
 7439SOL    HW233954   4.588   2.020  17.010 -0.6917 -0.9753 -2.2372
 7440SOL     OW33955   0.664   1.153   8.667  0.5051  0.2611 -0.2265
 7440SOL    HW133956   0.590   1.116   8.621  0.8440  3.1570 -3.1183
 7440SOL    HW233957   0.643   1.246   8.655  1.2479  0.3545 -0.8379
 7441SOL     OW33958   2.670   1.345   8.488 -0.2342 -0.0134  0.0256
 7441SOL    HW133959   2.576   1.329   8.491 -0.2514 -0.1570 -1.7120
 7441SOL    HW233960   2.669   1.433   8.450  0.5722  0.3452  0.8209
 7442SOL     OW33961   4.246   3.857   0.136  0.2870  0.1028 -0.4859
 7442SOL    HW133962   4.326   3.855   0.083 -0.3195  1.6798 -1.4317
 7442SOL    HW233963   4.280   3.811   0.213  0.4846  0.9261 -0.0828
 7443SOL     OW33964   3.694   3.046   4.612 -0.3822  0.5169 -0.2846
 7443SOL    HW133965   3.692   2.988   4.689 -0.8913 -0.2082 -0.8420
 7443SOL    HW233966   3.776   3.010   4.578 -1.9822 -3.0128 -0.4723
 7444SOL     OW33967   4.740   4.394   2.869 -0.2528 -0.0885  0.0549
 7444SOL    HW133968   0.021   4.372   2.960 -0.3200  1.0821  0.3529
 7444SOL    HW233969   0.055   4.323   2.836  0.6896  1.4540 -1.6536
 7445SOL     OW33970   4.671   3.236   6.616 -0.0652 -0.0478  0.4997
 7445SOL    HW133971   4.738   3.301   6.635 -0.9812  0.2043  2.8066
 7445SOL    HW233972   4.629   3.225   6.701 -0.4602  0.0939  0.3234
 7446SOL     OW33973   1.133   3.842   8.677 -0.1367 -0.2666  0.0479
 7446SOL    HW133974   1.207   3.893   8.709  0.0459 -0.6434  0.2334
 7446SOL    HW233975   1.149   3.751   8.703  3.0433 -0.0580 -1.1765
 7447SOL     OW33976   1.043   1.833   4.428  0.1564 -0.5864  0.4557
 7447SOL    HW133977   1.089   1.789   4.357 -1.6407  0.8644 -1.5900
 7447SOL    HW233978   1.093   1.809   4.506 -1.4639  0.1532  1.7352
 7448SOL     OW33979   1.518   3.002  16.523  0.0059 -0.3571 -0.0266
 7448SOL    HW133980   1.471   3.082  16.499 -0.3452 -0.9979 -1.4601
 7448SOL    HW233981   1.453   2.933  16.511  1.1737 -1.4318 -0.2476
 7449SOL     OW33982   0.618   3.577  14.910  0.1231  0.2994  0.0973
 7449SOL    HW133983   0.693   3.631  14.889  1.3979 -1.5143 -0.0312
 7449SOL    HW233984   0.544   3.632  14.885 -0.9511 -0.1500  2.2368
 7450SOL     OW33985   3.611   4.669   6.334  0.5866  0.5936  0.2937
 7450SOL    HW133986   3.531   4.720   6.348 -1.7125 -2.9218 -0.0867
 7450SOL    HW233987   3.576   4.594   6.381 -2.1099  1.5074 -0.2334
 7451SOL     OW33988   0.706   0.397   4.063  0.0380 -0.1711  0.2277
 7451SOL    HW133989   0.662   0.317   4.092 -0.6865 -0.8499 -2.7962
 7451SOL    HW233990   0.630   0.452   4.045 -0.8690 -0.7785  2.1326
 7452SOL     OW33991   3.050   1.216   8.457  0.1372 -0.5234 -0.2077
 7452SOL    HW133992   3.096   1.279   8.402 -1.5299  0.4983 -0.4120
 7452SOL    HW233993   3.122   1.184   8.511  1.2867 -1.8194 -2.5278
 7453SOL     OW33994   2.039   2.401  17.331  0.2459 -0.0272 -0.2417
 7453SOL    HW133995   2.120   2.452  17.341  0.8508 -0.8925 -0.7040
 7453SOL    HW233996   1.994   2.429  17.411 -1.3281 -0.6522 -0.9123
 7454SOL     OW33997   2.175   1.668  10.095  0.1742  0.5778  0.0849
 7454SOL    HW133998   2.084   1.646  10.117 -0.4499  3.1631  0.1618
 7454SOL    HW233999   2.194   1.711  10.178  1.1253 -1.4003  0.8802
 7455SOL     OW34000   2.227   4.122   0.033  0.4522 -0.4493  0.3355
 7455SOL    HW134001   2.140   4.144   0.001  0.7281 -1.8482 -1.4438
 7455SOL    HW234002   2.251   4.039  17.750  1.3524  0.6877 -1.4704
 7456SOL     OW34003   3.859   1.570   3.610  0.2818 -0.9932  0.0322
 7456SOL    HW134004   3.802   1.613   3.675  1.7382  0.4051  0.3725
 7456SOL    HW234005   3.880   1.493   3.664 -0.2354  0.4189  2.2529
 7457SOL     OW34006   2.970   3.375   8.929  0.2348 -0.5898 -0.2689
 7457SOL    HW134007   2.910   3.361   8.856 -0.8476  0.8054  0.3466
 7457SOL    HW234008   2.981   3.471   8.931  0.1555 -0.6018  1.1511
 7458SOL     OW34009   4.186   0.834   1.269 -0.0074 -0.0130  0.0003
 7458SOL    HW134010   4.272   0.835   1.225  0.4333 -2.2983  0.7641
 7458SOL    HW234011   4.218   0.808   1.355 -0.1610 -1.4707 -0.3757
 7459SOL     OW34012   3.941   3.064  14.680 -0.4208  0.0189  0.2020
 7459SOL    HW134013   3.937   3.020  14.595  1.1110  2.5893 -1.2184
 7459SOL    HW234014   3.871   3.035  14.738  0.6468  1.3553  2.1333
 7460SOL     OW34015   2.212   4.525  12.637 -0.2400 -0.6766  0.4645
 7460SOL    HW134016   2.170   4.580  12.571 -0.2130 -0.0403  0.9675
 7460SOL    HW234017   2.144   4.527  12.704  1.5467 -1.9408  2.3342
 7461SOL     OW34018   1.283   1.982   8.576  0.2382  0.2799 -0.0918
 7461SOL    HW134019   1.239   1.998   8.492 -2.4791  0.1028  1.2691
 7461SOL    HW234020   1.299   2.071   8.609  0.0563  0.7480 -1.2932
 7462SOL     OW34021   2.443   3.991  12.651  0.1879  0.0569 -0.0413
 7462SOL    HW134022   2.466   4.012  12.742  0.5117 -1.3977  0.2154
 7462SOL    HW234023   2.513   3.928  12.633  0.4439  0.4763 -0.5003
 7463SOL     OW34024   2.345   3.690   6.340 -0.0329 -0.4929 -0.2660
 7463SOL    HW134025   2.269   3.730   6.298  0.9110 -0.7579 -2.2239
 7463SOL    HW234026   2.344   3.750   6.415  0.6348  0.1929 -0.8137
 7464SOL     OW34027   1.523   0.541   5.618  0.0180  0.4443  0.3210
 7464SOL    HW134028   1.537   0.627   5.577 -2.5185  0.5216 -0.3774
 7464SOL    HW234029   1.536   0.479   5.546 -1.4927 -0.5215  0.8941
 7465SOL     OW34030   2.781   0.293   6.649  0.2887  0.3289 -0.2257
 7465SOL    HW134031   2.741   0.290   6.736  0.4329  2.1645 -0.0920
 7465SOL    HW234032   2.709   0.245   6.609 -0.3487  1.7867 -0.8623
 7466SOL     OW34033   0.482   3.939   6.173  0.2373 -0.5293 -0.2176
 7466SOL    HW134034   0.566   3.896   6.156 -0.5294 -0.7014 -3.4325
 7466SOL    HW234035   0.440   3.928   6.088  1.1134 -1.3634 -0.5396
 7467SOL     OW34036   0.688   1.786   5.984  0.3481  0.5092  0.0530
 7467SOL    HW134037   0.731   1.761   5.902  0.1949 -2.2620  0.8093
 7467SOL    HW234038   0.723   1.875   5.990  1.0155  0.4013 -2.3248
 7468SOL     OW34039   0.009   2.489  15.281  0.1818 -0.2605  0.0314
 7468SOL    HW134040   4.654   2.486  15.275  0.0137  1.6489  1.9664
 7468SOL    HW234041   0.027   2.527  15.367  1.1241 -1.1970  0.2543
 7469SOL     OW34042   4.253   3.031   9.127  0.0963  0.5474 -0.3338
 7469SOL    HW134043   4.318   3.058   9.062  2.6089 -0.8008  1.6167
 7469SOL    HW234044   4.190   3.102   9.114  1.2506  1.8731  1.3732
 7470SOL     OW34045   2.841   3.162   6.207 -0.0420 -0.1905  0.6767
 7470SOL    HW134046   2.810   3.187   6.120  1.5995 -2.5569 -0.5824
 7470SOL    HW234047   2.935   3.177   6.194 -0.2323 -0.1280 -0.6687
 7471SOL     OW34048   2.914   0.353  17.240 -1.1316  0.0069  0.6746
 7471SOL    HW134049   2.932   0.319  17.328 -0.5436  1.3729  1.0779
 7471SOL    HW234050   2.908   0.265  17.203  2.8459  0.0424 -0.0327
 7472SOL     OW34051   2.963   2.162   9.363 -0.0562 -0.3311  0.2465
 7472SOL    HW134052   2.929   2.102   9.429 -0.7816 -0.4358 -0.2236
 7472SOL    HW234053   2.927   2.237   9.410 -0.0825  1.2469 -2.2590
 7473SOL     OW34054   4.439   4.552   8.649  0.4574  0.7175  0.2768
 7473SOL    HW134055   4.350   4.559   8.614  0.3532 -2.0998 -0.0724
 7473SOL    HW234056   4.409   4.499   8.723 -3.0294  2.3301  0.0357
 7474SOL     OW34057   2.215   3.850   8.039  0.2599 -0.0361 -0.4718
 7474SOL    HW134058   2.220   3.944   8.057  1.5622 -0.0053 -0.9685
 7474SOL    HW234059   2.277   3.851   7.966  1.2733  0.9903  0.3947
 7475SOL     OW34060   0.129   2.534   6.713  0.0639  0.6769 -0.0434
 7475SOL    HW134061   0.117   2.575   6.628  1.7430 -1.2209 -1.1978
 7475SOL    HW234062   0.054   2.570   6.761 -0.4966 -0.8901  0.2678
 7476SOL     OW34063   0.563   0.475   8.542 -0.2481 -0.2156  0.0731
 7476SOL    HW134064   0.576   0.569   8.527 -0.3103  0.0852  2.0066
 7476SOL    HW234065   0.651   0.443   8.559  0.2665  1.3631  0.3885
 7477SOL     OW34066   1.344   3.110   1.400 -0.1061  0.4675 -0.3352
 7477SOL    HW134067   1.373   3.196   1.429  0.5861  0.1856 -0.2009
 7477SOL    HW234068   1.382   3.110   1.312 -3.0519 -0.4672 -1.6133
 7478SOL     OW34069   3.574   3.168   8.606  0.0847 -0.6880 -0.2996
 7478SOL    HW134070   3.566   3.079   8.641  1.3029 -0.4548  0.5645
 7478SOL    HW234071   3.669   3.170   8.594  0.0506  0.3549 -0.3746
 7479SOL     OW34072   1.002   3.865   6.334 -0.0527  0.1611  0.2246
 7479SOL    HW134073   1.034   3.950   6.363  1.0679 -0.5976  1.2231
 7479SOL    HW234074   0.979   3.890   6.245 -2.4326 -2.4226  0.1069
 7480SOL     OW34075   2.265   4.108   3.115  0.0625 -0.2133  0.1674
 7480SOL    HW134076   2.327   4.175   3.144  1.2871 -0.6873 -1.3217
 7480SOL    HW234077   2.274   4.043   3.185  1.0701 -0.4513 -0.1802
 7481SOL     OW34078   4.221   3.426   2.915 -0.3175 -0.3757 -0.4749
 7481SOL    HW134079   4.165   3.458   2.844  0.8210  1.1294 -0.6949
 7481SOL    HW234080   4.191   3.335   2.909  1.9639 -1.1419 -0.1531
 7482SOL     OW34081   3.032   3.303   1.595  0.5701  0.0982  0.1997
 7482SOL    HW134082   3.034   3.228   1.653  1.0534  1.5461  2.0580
 7482SOL    HW234083   3.075   3.265   1.519  1.5484 -0.7866  1.1978
 7483SOL     OW34084   2.807   4.139   6.229  0.6554  0.1041 -0.0749
 7483SOL    HW134085   2.843   4.175   6.309 -0.5901 -3.5252  2.1131
 7483SOL    HW234086   2.866   4.063   6.231 -1.6228 -1.6910 -0.6048
 7484SOL     OW34087   2.602   3.580  14.903  0.5388 -0.1037  0.0106
 7484SOL    HW134088   2.520   3.558  14.947  0.8084  2.0961  1.6046
 7484SOL    HW234089   2.654   3.626  14.968  0.0117  0.1371  0.2586
 7485SOL     OW34090   2.032   3.705   4.301  0.4398  0.0925 -0.3121
 7485SOL    HW134091   1.993   3.718   4.215  0.8042  3.0956 -0.0057
 7485SOL    HW234092   2.080   3.787   4.304 -0.7875  0.8456 -1.2939
 7486SOL     OW34093   3.598   0.796  15.252 -0.3547 -0.1474 -0.7710
 7486SOL    HW134094   3.522   0.819  15.306  0.3072 -2.9466  1.3106
 7486SOL    HW234095   3.663   0.768  15.315 -1.6664  1.2805  1.2418
 7487SOL     OW34096   2.368   4.401   4.246  0.7087 -0.3057  0.3945
 7487SOL    HW134097   2.296   4.450   4.286 -0.4235 -2.2223  0.7266
 7487SOL    HW234098   2.358   4.420   4.153  0.4547 -2.9474 -0.1305
 7488SOL     OW34099   4.618   2.303   7.839  0.6285 -0.0230 -0.0597
 7488SOL    HW134100   4.586   2.316   7.929 -1.4431  0.9478 -0.9336
 7488SOL    HW234101   4.693   2.363   7.848 -0.0284  0.7875 -0.0152
 7489SOL     OW34102   0.552   1.093  11.913 -0.1854  0.0428  0.0667
 7489SOL    HW134103   0.643   1.062  11.906 -0.5865 -0.5841 -2.6966
 7489SOL    HW234104   0.515   1.027  11.854  0.5827  1.5167 -2.0532
 7490SOL     OW34105   4.622   0.388  14.504 -0.7396  0.6162  0.0714
 7490SOL    HW134106   4.557   0.448  14.467  0.2530  1.8636  0.3323
 7490SOL    HW234107   4.599   0.308  14.458 -2.0923  0.5190  0.8954
 7491SOL     OW34108   0.803   2.869   4.054  0.0249  0.8465 -0.7803
 7491SOL    HW134109   0.825   2.962   4.054  1.2326  0.5588 -0.4962
 7491SOL    HW234110   0.736   2.874   3.986  0.6242 -2.8661 -1.6125
 7492SOL     OW34111   1.298   0.113  13.166 -0.1677  1.0977 -0.0738
 7492SOL    HW134112   1.297   0.168  13.088 -0.0863  0.6009 -0.4229
 7492SOL    HW234113   1.260   0.034  13.127  1.2923  1.1620 -1.6143
 7493SOL     OW34114   1.530   0.221   0.993 -0.0690 -0.4857 -0.6609
 7493SOL    HW134115   1.499   0.241   0.905  1.2948 -1.6007 -1.3898
 7493SOL    HW234116   1.444   0.215   1.035  0.4013  0.6724  0.4886
 7494SOL     OW34117   2.241   3.843   7.719 -0.2610  0.2244 -0.1374
 7494SOL    HW134118   2.232   3.828   7.625  1.2012  0.9121 -0.3790
 7494SOL    HW234119   2.331   3.874   7.730  0.2583 -1.4687  0.4529
 7495SOL     OW34120   1.403   2.061  12.957 -0.4810  0.1638 -0.0208
 7495SOL    HW134121   1.359   2.028  12.879 -0.9842 -0.2488  0.4446
 7495SOL    HW234122   1.426   2.150  12.927  2.3082 -0.9710 -1.2317
 7496SOL     OW34123   0.128   4.129   8.334 -0.3636  0.8395 -0.5340
 7496SOL    HW134124   0.106   4.105   8.423  1.2473 -2.3892 -1.0001
 7496SOL    HW234125   0.121   4.224   8.340 -1.1477  0.8520 -1.7052
 7497SOL     OW34126   2.265   3.676   7.055 -0.2147  0.2276 -0.1590
 7497SOL    HW134127   2.358   3.669   7.075 -0.2111 -0.6589 -0.5012
 7497SOL    HW234128   2.256   3.763   7.094 -1.8981 -1.3687  3.0184
 7498SOL     OW34129   0.671   4.375   2.291  0.7942 -0.0053 -0.0822
 7498SOL    HW134130   0.624   4.324   2.225  0.8570 -1.0914  0.7139
 7498SOL    HW234131   0.603   4.372   2.359 -1.1495 -0.0335 -2.0054
 7499SOL     OW34132   2.365   3.692   1.557 -0.5203  0.5863  0.2512
 7499SOL    HW134133   2.440   3.680   1.498 -1.4125  0.3957 -0.8513
 7499SOL    HW234134   2.295   3.729   1.502 -0.8220  0.6427  0.6732
 7500SOL     OW34135   2.552   0.000   3.511  0.1969  0.0331  0.3133
 7500SOL    HW134136   2.526   4.672   3.449  1.4345  0.7028 -0.9257
 7500SOL    HW234137   2.535   4.704   3.598  2.0064  1.4022  1.2394
 7501SOL     OW34138   2.259   1.737   8.660  1.1121 -0.4381  0.0721
 7501SOL    HW134139   2.195   1.782   8.605 -0.0493 -3.0873 -0.7011
 7501SOL    HW234140   2.205   1.667   8.695  0.2936 -0.0012 -0.3311
 7502SOL     OW34141   0.353   2.584   9.514 -0.0512 -0.4277 -0.1435
 7502SOL    HW134142   0.343   2.679   9.517 -1.1625 -0.4648 -2.3439
 7502SOL    HW234143   0.406   2.575   9.593 -0.7085  1.4474  0.5281
 7503SOL     OW34144   2.374   1.179   6.085  0.0251 -0.1067  0.2497
 7503SOL    HW134145   2.397   1.264   6.046 -0.5745  0.0393  0.2091
 7503SOL    HW234146   2.288   1.202   6.120 -0.1414 -0.0923 -0.1652
 7504SOL     OW34147   3.236   2.863   6.668 -0.2029  0.5534  0.0636
 7504SOL    HW134148   3.253   2.954   6.648  0.8214  0.4437  0.4496
 7504SOL    HW234149   3.154   2.838   6.625 -0.1944  2.5132 -1.0877
 7505SOL     OW34150   3.319   2.184   3.146  0.5543  0.2542 -0.3545
 7505SOL    HW134151   3.252   2.126   3.110  0.1402  0.5059  0.0222
 7505SOL    HW234152   3.269   2.264   3.160  0.9659  0.9125 -2.5912
 7506SOL     OW34153   3.022   3.550  15.123  0.0082  0.2089  0.2545
 7506SOL    HW134154   2.946   3.534  15.179  0.2251 -0.3684  0.3801
 7506SOL    HW234155   3.092   3.504  15.169  1.0016  1.9049  0.4084
 7507SOL     OW34156   0.167   0.427  16.060  0.1107  0.0953  0.2804
 7507SOL    HW134157   0.111   0.500  16.031  0.9330 -0.2418 -2.1557
 7507SOL    HW234158   0.126   0.406  16.144  0.8397 -0.1042  0.5902
 7508SOL     OW34159   0.530   2.721   4.590  0.1123 -0.4892 -0.0020
 7508SOL    HW134160   0.555   2.642   4.637  0.2236  0.4964  1.6196
 7508SOL    HW234161   0.463   2.685   4.532  0.9041  2.3958 -2.7617
 7509SOL     OW34162   2.969   1.735   8.129 -0.3683 -0.1335 -0.4249
 7509SOL    HW134163   2.941   1.772   8.046 -0.3411  1.7752  0.4244
 7509SOL    HW234164   2.905   1.774   8.188  0.6738 -0.6344  1.0350
 7510SOL     OW34165   1.439   0.731   2.729 -0.0551 -0.4724  0.0015
 7510SOL    HW134166   1.441   0.770   2.816  1.2136 -1.7480  0.5549
 7510SOL    HW234167   1.532   0.709   2.716  0.4948  2.1012 -0.3433
 7511SOL     OW34168   0.894   4.256   5.844  0.0008 -0.6038 -0.3890
 7511SOL    HW134169   0.976   4.210   5.823  0.3098  1.1218 -2.9615
 7511SOL    HW234170   0.861   4.189   5.904  1.2944 -1.0838 -0.2138
 7512SOL     OW34171   3.414   3.784  12.248  0.2683 -0.1539  0.1020
 7512SOL    HW134172   3.457   3.703  12.222  1.0054 -0.6141  2.7083
 7512SOL    HW234173   3.392   3.817  12.161  1.8426 -0.9461 -0.5932
 7513SOL     OW34174   1.281   3.733   3.781 -0.1663 -0.1071 -0.0055
 7513SOL    HW134175   1.324   3.659   3.738  1.1533  0.9007 -0.4111
 7513SOL    HW234176   1.213   3.733   3.714  0.8015  1.3253 -0.9930
 7514SOL     OW34177   0.776   1.056   7.938  0.6507  0.2073 -0.0442
 7514SOL    HW134178   0.837   0.983   7.930  1.4690  0.9226 -0.3779
 7514SOL    HW234179   0.720   1.029   8.010 -0.6785  1.1038 -0.7349
 7515SOL     OW34180   1.783   3.384   4.148 -0.1577  0.0814 -0.0362
 7515SOL    HW134181   1.776   3.394   4.053 -0.2716 -1.5619 -0.2065
 7515SOL    HW234182   1.869   3.343   4.159 -0.4034 -0.5835 -0.5312
 7516SOL     OW34183   4.584   2.137   1.918  0.1777 -0.4937  0.6345
 7516SOL    HW134184   4.515   2.080   1.953 -0.3989 -1.0857 -1.4558
 7516SOL    HW234185   4.619   2.081   1.849 -0.7757  2.3716 -2.1577
 7517SOL     OW34186   1.723   1.256   8.795 -0.1408  0.0049 -0.6818
 7517SOL    HW134187   1.745   1.171   8.756  0.7036  1.0500 -2.4455
 7517SOL    HW234188   1.666   1.295   8.728 -1.6751  0.0994  0.6697
 7518SOL     OW34189   1.750   2.153  10.301  0.1658  0.1388 -0.1533
 7518SOL    HW134190   1.772   2.155  10.208 -1.9840  0.4281 -0.6450
 7518SOL    HW234191   1.655   2.162  10.309 -0.1799 -1.3362 -2.6500
 7519SOL     OW34192   1.720   3.037   3.973 -0.0438 -0.3153 -0.3091
 7519SOL    HW134193   1.734   3.129   3.953  0.0523 -0.1621  0.4397
 7519SOL    HW234194   1.659   3.000   3.909 -1.3236  0.7853  0.2698
 7520SOL     OW34195   1.291   2.201  15.711 -0.3519  0.1338  0.2769
 7520SOL    HW134196   1.379   2.239  15.703  0.3251 -1.8599 -1.6256
 7520SOL    HW234197   1.244   2.276  15.748  0.8246  0.4961  1.0479
 7521SOL     OW34198   4.081   0.622  13.219 -0.4445  0.3126  0.2855
 7521SOL    HW134199   4.112   0.535  13.195  0.1423  0.3931  0.7385
 7521SOL    HW234200   3.986   0.617  13.208 -0.4092 -1.1448  0.6514
 7522SOL     OW34201   3.795   1.120   0.471 -0.1147  0.2383 -0.1868
 7522SOL    HW134202   3.803   1.079   0.385  1.2157 -2.1293  1.0713
 7522SOL    HW234203   3.708   1.088   0.496  0.2907  0.6380  1.7541
 7523SOL     OW34204   2.614   4.130   9.553 -0.3162 -0.2018 -0.1179
 7523SOL    HW134205   2.527   4.168   9.557 -0.2290 -0.0338  0.2725
 7523SOL    HW234206   2.632   4.119   9.460 -1.7592  0.3711 -0.4584
 7524SOL     OW34207   3.028   2.470  14.425 -0.2538 -0.2369  0.2387
 7524SOL    HW134208   3.079   2.534  14.375 -1.1369 -0.0908 -0.4611
 7524SOL    HW234209   3.027   2.514  14.510  0.9941  0.2341  0.0073
 7525SOL     OW34210   1.235   3.537   9.440 -0.2541  0.1756  0.2812
 7525SOL    HW134211   1.285   3.619   9.449  0.1596 -0.0738  0.2593
 7525SOL    HW234212   1.295   3.478   9.394 -1.4629 -0.9471  0.1418
 7526SOL     OW34213   4.135   4.715   4.129  0.1675 -0.0503 -0.1665
 7526SOL    HW134214   4.203   4.700   4.193 -0.3019 -0.7391  0.1646
 7526SOL    HW234215   4.175   4.714   4.042  0.7054 -0.1083  0.0838
 7527SOL     OW34216   2.447   1.172   7.253  0.1837 -0.2107  0.3054
 7527SOL    HW134217   2.368   1.226   7.249 -0.5754 -1.1585  2.1609
 7527SOL    HW234218   2.506   1.205   7.320  2.1309 -0.9612 -1.0633
 7528SOL     OW34219   0.768   1.787   2.533  0.1786  0.0116 -0.0485
 7528SOL    HW134220   0.720   1.707   2.555 -0.4024  0.3418 -0.0943
 7528SOL    HW234221   0.801   1.821   2.615 -1.6281  2.0532 -0.1638
 7529SOL     OW34222   2.367   1.978  13.474 -0.0775 -0.4061  0.6501
 7529SOL    HW134223   2.404   1.901  13.516 -0.0085 -1.0032 -0.5050
 7529SOL    HW234224   2.406   2.045  13.531  3.4166 -0.9337 -1.1743
 7530SOL     OW34225   1.900   0.476   1.783  0.3847  0.1691  0.0389
 7530SOL    HW134226   1.988   0.493   1.750  0.9839 -1.6547  0.6887
 7530SOL    HW234227   1.897   0.384   1.755  2.6605  0.2996 -0.6182
 7531SOL     OW34228   0.898   1.298   6.179 -0.0936 -0.3666 -0.9420
 7531SOL    HW134229   0.939   1.347   6.108  0.3490  1.2561  0.4269
 7531SOL    HW234230   0.850   1.369   6.222  0.7000 -0.6070  0.3144
 7532SOL     OW34231   1.114   1.621   7.254 -0.3089  0.6251  0.1906
 7532SOL    HW134232   1.109   1.714   7.232  0.1018  0.8598  1.0732
 7532SOL    HW234233   1.074   1.612   7.341 -0.8745 -2.2216 -0.3749
 7533SOL     OW34234   4.592   2.217  10.405  0.0760 -0.3184 -0.5844
 7533SOL    HW134235   4.585   2.204  10.499  1.0098  0.2665 -0.4400
 7533SOL    HW234236   4.667   2.275  10.403 -0.2744  0.1231 -1.2322
 7534SOL     OW34237   0.539   4.083   2.413  0.3477 -0.5482  0.0585
 7534SOL    HW134238   0.612   4.023   2.426  0.0623 -0.4277  2.2959
 7534SOL    HW234239   0.484   4.048   2.343 -0.2322 -2.5821  1.5504
 7535SOL     OW34240   0.669   3.830  15.716  0.2132  0.1247  0.1425
 7535SOL    HW134241   0.622   3.846  15.797  1.9705 -0.2859  1.2486
 7535SOL    HW234242   0.703   3.741  15.725 -1.0152 -0.3816 -0.3142
 7536SOL     OW34243   0.533   1.988   2.572  0.2109 -0.5506  0.1430
 7536SOL    HW134244   0.527   1.936   2.492 -3.1259  1.6986 -1.1016
 7536SOL    HW234245   0.461   1.945   2.619 -1.4463  0.5664 -1.3618
 7537SOL     OW34246   2.139   0.873   7.524 -0.5126  0.3489  0.0502
 7537SOL    HW134247   2.164   0.895   7.614  1.3884  0.6216 -0.5443
 7537SOL    HW234248   2.044   0.888   7.525 -0.2943  1.8913 -0.9562
 7538SOL     OW34249   2.750   4.143   5.436  0.1506  0.0566  0.6190
 7538SOL    HW134250   2.816   4.136   5.505  0.4566 -0.0026  0.3208
 7538SOL    HW234251   2.677   4.184   5.483 -1.2031  1.7881 -2.9606
 7539SOL     OW34252   1.106   0.692  14.541  0.1540  0.4432 -0.7201
 7539SOL    HW134253   1.123   0.644  14.460  0.1063  0.6078 -0.8270
 7539SOL    HW234254   1.013   0.712  14.539 -0.0690 -0.6542 -1.6707
 7540SOL     OW34255   1.071   2.111   8.112  0.0047  0.5062 -0.3279
 7540SOL    HW134256   0.978   2.121   8.092 -0.1602 -1.9170 -0.7683
 7540SOL    HW234257   1.085   2.020   8.087 -0.6193 -0.0338  1.3069
 7541SOL     OW34258   2.153   0.796   4.412  0.1035 -0.5690  0.1214
 7541SOL    HW134259   2.186   0.861   4.350  2.0073 -0.9151  0.7813
 7541SOL    HW234260   2.069   0.786   4.368  0.3389 -1.0261 -0.2210
 7542SOL     OW34261   0.252   4.613   2.952  0.5064 -0.1567 -0.6355
 7542SOL    HW134262   0.202   4.597   2.872 -1.1116 -0.0344  0.3515
 7542SOL    HW234263   0.244   4.527   2.992  1.1487  0.0344 -0.1035
 7543SOL     OW34264   3.108   0.672   2.636  0.3035  0.1223 -0.2414
 7543SOL    HW134265   3.088   0.663   2.542  3.8772  0.0362 -0.9752
 7543SOL    HW234266   3.173   0.604   2.648  0.6275  1.3240  4.7663
 7544SOL     OW34267   0.551   3.026   9.036 -0.0543 -0.4562 -0.4262
 7544SOL    HW134268   0.494   2.967   8.986  1.0409 -1.6160 -0.2903
 7544SOL    HW234269   0.623   3.047   8.978 -1.1565  0.9992 -1.2868
 7545SOL     OW34270   2.194   4.534  11.940 -0.4026  0.2785  0.5662
 7545SOL    HW134271   2.232   4.455  11.902 -0.3293  2.1140 -3.1556
 7545SOL    HW234272   2.284   4.566  11.950 -1.1881  2.5152  0.6585
 7546SOL     OW34273   1.090   2.096   5.468  0.0612 -0.5179 -0.1718
 7546SOL    HW134274   1.067   2.120   5.378 -0.0152  0.0333 -0.0062
 7546SOL    HW234275   1.183   2.072   5.465  0.3211  0.6800 -1.6455
 7547SOL     OW34276   2.277   1.197   7.895  0.3363  0.9085  0.4168
 7547SOL    HW134277   2.232   1.278   7.871 -1.9087  0.1470  2.0587
 7547SOL    HW234278   2.266   1.214   7.989  2.6193  0.2111  0.8073
 7548SOL     OW34279   3.360   3.021   4.796 -0.1632 -0.0333 -0.4197
 7548SOL    HW134280   3.451   3.009   4.822  0.2742  2.5685 -0.7429
 7548SOL    HW234281   3.345   2.936   4.755  1.1468 -0.7258  0.5655
 7549SOL     OW34282   1.982   2.215   7.525  0.1646 -0.1863 -0.6345
 7549SOL    HW134283   1.982   2.140   7.466  1.6601  0.8163 -1.9009
 7549SOL    HW234284   1.967   2.178   7.612  0.3920  0.3855 -0.3515
 7550SOL     OW34285   2.020   2.864   0.245 -0.1325  0.0155 -0.4934
 7550SOL    HW134286   1.956   2.795   0.261  3.3758 -2.4875  2.7129
 7550SOL    HW234287   2.024   2.901   0.333 -2.0133 -0.0786 -0.3748
 7551SOL     OW34288   2.689   4.524   3.029 -0.0114 -0.2952  0.3336
 7551SOL    HW134289   2.686   4.611   2.990 -0.1151  0.6183  2.3354
 7551SOL    HW234290   2.777   4.528   3.066 -0.5489 -0.3314  1.6192
 7552SOL     OW34291   1.792   3.995  12.847 -0.0078  0.3598  0.2859
 7552SOL    HW134292   1.717   4.014  12.903 -1.3881 -3.2576 -0.3686
 7552SOL    HW234293   1.766   4.037  12.765  1.1279 -1.0243 -0.7779
 7553SOL     OW34294   2.174   2.717  10.100  0.2275 -0.6869 -0.9844
 7553SOL    HW134295   2.198   2.764  10.181  0.2637 -0.1484 -1.3053
 7553SOL    HW234296   2.157   2.791  10.042 -1.3317  2.5003  3.4475
 7554SOL     OW34297   3.320   2.602   3.254 -0.1580  0.0073  0.1077
 7554SOL    HW134298   3.276   2.521   3.229 -2.1464  0.3623  2.5563
 7554SOL    HW234299   3.367   2.568   3.330 -0.6881 -0.7594  0.0864
 7555SOL     OW34300   2.427   2.108   7.962 -0.1005  0.3086  0.1879
 7555SOL    HW134301   2.464   2.052   8.031 -3.9958 -0.7673  1.3934
 7555SOL    HW234302   2.415   2.191   8.007 -2.3656  0.9626 -1.6691
 7556SOL     OW34303   2.855   2.596   9.396 -0.4255  0.4306 -0.0825
 7556SOL    HW134304   2.870   2.502   9.392 -1.1004  0.3460 -0.5357
 7556SOL    HW234305   2.810   2.599   9.481  2.2592  0.4760  1.3359
 7557SOL     OW34306   2.458   2.930  15.425  0.0603 -0.0755 -0.5300
 7557SOL    HW134307   2.442   2.920  15.519  0.5039 -1.0442 -0.5545
 7557SOL    HW234308   2.407   2.855  15.395 -0.6940 -0.4619  1.6691
 7558SOL     OW34309   2.301   3.857   6.562 -0.0175  0.4369  0.6995
 7558SOL    HW134310   2.266   3.787   6.617  0.2008  0.0184  0.3049
 7558SOL    HW234311   2.353   3.908   6.625  0.2213  0.3038  0.6113
 7559SOL     OW34312   0.121   3.086  12.209 -0.0754 -0.2578 -0.2533
 7559SOL    HW134313   0.193   3.060  12.152  1.1461  2.3339  0.1156
 7559SOL    HW234314   0.076   3.140  12.143 -2.6624 -1.5358  0.4519
 7560SOL     OW34315   0.818   0.994  12.133  0.1378  0.5125 -0.0070
 7560SOL    HW134316   0.723   1.007  12.121 -0.3667 -2.4902  0.8504
 7560SOL    HW234317   0.860   1.060  12.078 -0.4340  2.7156  2.1827
 7561SOL     OW34318   0.888   0.971  13.337  0.2833  0.6937 -0.0393
 7561SOL    HW134319   0.793   0.965  13.337  0.3190  0.1339  0.1467
 7561SOL    HW234320   0.892   1.054  13.384 -0.0376 -0.6696  2.4282
 7562SOL     OW34321   0.153   4.308   9.553 -0.3452  0.0749 -0.0269
 7562SOL    HW134322   0.211   4.282   9.624  0.6471  1.1767 -0.4257
 7562SOL    HW234323   0.114   4.392   9.579  0.9551  0.9042 -0.7303
 7563SOL     OW34324   2.559   4.721   5.892 -0.4908 -0.4124 -0.4144
 7563SOL    HW134325   2.573   4.680   5.806  0.9636 -0.7396 -0.0191
 7563SOL    HW234326   2.612   0.061   5.889  0.1700 -0.8377 -0.0688
 7564SOL     OW34327   0.101   1.473   9.112  0.4541  0.0715 -0.5086
 7564SOL    HW134328   0.007   1.464   9.128  0.3123  1.5557 -0.4668
 7564SOL    HW234329   0.141   1.414   9.176  0.4676  0.5791 -0.0445
 7565SOL     OW34330   4.167   0.593   4.106 -0.0311 -0.2336  0.4029
 7565SOL    HW134331   4.246   0.576   4.158  1.7230 -0.8736 -2.4734
 7565SOL    HW234332   4.184   0.688   4.103 -1.7620  0.0131 -1.2438
 7566SOL     OW34333   0.001   3.823   3.308 -0.5061  0.2893 -0.2316
 7566SOL    HW134334   0.094   3.827   3.329 -0.4532 -2.0813 -0.0508
 7566SOL    HW234335   4.722   3.916   3.294 -1.9318 -0.0736 -0.7223
 7567SOL     OW34336   3.342   0.593   4.638  0.4723 -0.3975  0.0561
 7567SOL    HW134337   3.432   0.622   4.653 -0.2684  0.5609  2.5411
 7567SOL    HW234338   3.331   0.501   4.661 -1.2715 -0.7999 -2.3135
 7568SOL     OW34339   2.618   4.179  11.458  0.5412 -0.3601 -0.0587
 7568SOL    HW134340   2.611   4.264  11.413  0.6510 -1.3635 -1.9983
 7568SOL    HW234341   2.647   4.134  11.379 -2.2064 -0.5806 -0.9773
 7569SOL     OW34342   3.154   2.208   6.688  0.3004 -0.1545 -0.0400
 7569SOL    HW134343   3.134   2.126   6.643  0.3923  0.4604 -1.2059
 7569SOL    HW234344   3.110   2.188   6.770 -0.7609  0.1941 -0.5257
 7570SOL     OW34345   2.033   3.741   7.451  0.3692 -0.0372 -0.0871
 7570SOL    HW134346   1.942   3.721   7.471 -0.6612  2.3512 -2.4862
 7570SOL    HW234347   2.028   3.836   7.453 -1.2824 -0.1367 -0.1626
 7571SOL     OW34348   4.709   4.014  12.172  0.3247  0.2799  0.4914
 7571SOL    HW134349   4.680   4.103  12.155  2.3120  0.9853  0.7991
 7571SOL    HW234350   4.630   3.960  12.178  1.6346 -1.5561  1.4822
 7572SOL     OW34351   0.327   0.438   2.193 -0.2977 -0.0989 -0.2131
 7572SOL    HW134352   0.384   0.407   2.123 -0.4997  0.7576 -0.7554
 7572SOL    HW234353   0.333   0.532   2.177  1.4595 -0.3093 -0.8065
 7573SOL     OW34354   1.021   2.735   9.782  0.0089  0.7602  0.2702
 7573SOL    HW134355   1.065   2.813   9.748  2.7166  0.1395  2.3280
 7573SOL    HW234356   0.994   2.757   9.872 -2.0534 -0.1909 -0.1179
 7574SOL     OW34357   0.041   0.578   4.993  0.9279  0.1000 -0.1768
 7574SOL    HW134358   0.038   0.504   5.052 -1.0491  2.1747  2.3341
 7574SOL    HW234359   4.717   0.548   4.928 -0.8919 -0.8370  2.0507
 7575SOL     OW34360   2.821   0.252   6.078 -0.2724  0.2957  0.4120
 7575SOL    HW134361   2.842   0.195   6.152  0.9147  0.3522  0.1151
 7575SOL    HW234362   2.815   0.204   5.995 -3.2532 -0.5168  1.1070
 7576SOL     OW34363   1.123   2.366   3.318  0.0032  0.1223 -0.1468
 7576SOL    HW134364   1.043   2.387   3.366  0.3063  0.0544  0.3944
 7576SOL    HW234365   1.081   2.299   3.264  1.3328 -0.9817  0.1780
 7577SOL     OW34366   2.635   3.192   4.472 -0.3990  0.0314 -0.2682
 7577SOL    HW134367   2.702   3.253   4.441 -1.4166  0.5071 -1.5153
 7577SOL    HW234368   2.677   3.166   4.554 -0.3299 -1.8686 -0.8941
 7578SOL     OW34369   3.123   2.942   3.301 -0.3407  0.1724 -0.2155
 7578SOL    HW134370   3.078   2.957   3.218  2.3464  0.9838 -1.5266
 7578SOL    HW234371   3.214   2.957   3.277 -0.1487 -0.9453 -0.1983
 7579SOL     OW34372   3.174   3.265   0.378  0.2716 -0.0357 -0.0769
 7579SOL    HW134373   3.136   3.337   0.328  0.5916 -0.2818 -0.6746
 7579SOL    HW234374   3.217   3.212   0.310  0.3621 -0.2886  0.1755
 7580SOL     OW34375   0.557   0.683   4.902 -0.2484 -0.1405  0.4034
 7580SOL    HW134376   0.484   0.636   4.862 -0.2084 -0.8775  1.1765
 7580SOL    HW234377   0.508   0.711   4.980 -1.1877 -2.2029  0.5563
 7581SOL     OW34378   2.541   3.399   8.520  0.3642  0.0604  0.2984
 7581SOL    HW134379   2.608   3.448   8.473 -0.3816  0.1065 -0.7124
 7581SOL    HW234380   2.520   3.334   8.453 -2.0561 -0.6647  1.7665
 7582SOL     OW34381   1.678   4.606  16.412 -0.3084  0.2443 -0.0839
 7582SOL    HW134382   1.685   4.515  16.440 -0.1108  0.2551 -0.1019
 7582SOL    HW234383   1.704   4.653  16.492  1.5770  1.2741 -1.3119
 7583SOL     OW34384   0.014   0.726  14.839  0.6909 -0.2337 -0.5774
 7583SOL    HW134385   4.664   0.704  14.863  0.1459 -0.2213 -2.5872
 7583SOL    HW234386   4.739   0.820  14.847 -1.4943 -0.7509  1.3706
 7584SOL     OW34387   1.244   2.079   4.454  0.4531 -0.2348 -0.6012
 7584SOL    HW134388   1.303   2.093   4.380  1.4169 -0.9912  0.0188
 7584SOL    HW234389   1.167   2.035   4.418  1.3264 -1.7954 -0.5530
 7585SOL     OW34390   1.207   0.298   5.846 -0.0498 -0.3915 -0.0967
 7585SOL    HW134391   1.117   0.271   5.826 -0.1742 -0.6865  0.8736
 7585SOL    HW234392   1.246   0.231   5.901  1.0150 -1.2068 -1.8435
 7586SOL     OW34393   1.097   1.795   0.952  0.1917  0.4593  0.5140
 7586SOL    HW134394   1.189   1.780   0.931  0.6721  2.1780  1.3744
 7586SOL    HW234395   1.065   1.813   0.864 -1.0303 -1.5458  0.5477
 7587SOL     OW34396   3.928   0.073   6.084  0.1284 -0.0155  0.0129
 7587SOL    HW134397   3.937   4.739   6.023 -2.0687  0.2526 -0.6225
 7587SOL    HW234398   3.987   0.133   6.039  1.0365 -2.2504 -1.8299
 7588SOL     OW34399   4.068   3.312  11.717 -0.1399  0.1127 -0.0115
 7588SOL    HW134400   4.027   3.263  11.646 -0.2716 -0.3078  0.3558
 7588SOL    HW234401   4.072   3.241  11.781 -0.1097  1.1087  1.0818
 7589SOL     OW34402   2.933   2.647   9.943 -0.0440  0.2587  0.4878
 7589SOL    HW134403   2.903   2.586  10.010 -0.5336  0.5690  0.5459
 7589SOL    HW234404   3.017   2.603   9.929 -0.5263 -0.9283  1.3606
 7590SOL     OW34405   0.641   4.226   9.144 -0.0994  0.1748  0.7193
 7590SOL    HW134406   0.622   4.134   9.124 -1.3828  0.8011 -0.8866
 7590SOL    HW234407   0.578   4.243   9.214 -0.5170 -0.4865  0.5042
 7591SOL     OW34408   3.222   2.349   7.256  0.0386  0.2472 -0.2478
 7591SOL    HW134409   3.317   2.338   7.254  0.0268  0.2724 -0.9163
 7591SOL    HW234410   3.188   2.261   7.270  1.2635 -0.0656  0.7722
 7592SOL     OW34411   3.326   1.970   8.865  0.0432 -0.2832  0.2804
 7592SOL    HW134412   3.318   1.927   8.951  2.1112  0.3388  0.7890
 7592SOL    HW234413   3.420   1.980   8.856  0.0285 -1.3278 -0.9601
 7593SOL     OW34414   4.569   3.206   7.166  0.0898  0.0676 -0.6550
 7593SOL    HW134415   4.646   3.194   7.222  0.5802 -0.2649 -1.3970
 7593SOL    HW234416   4.519   3.264   7.223  1.5180 -0.6906  1.4107
 7594SOL     OW34417   2.716   4.654   4.718  0.2738 -0.1220  0.0451
 7594SOL    HW134418   2.728   4.589   4.787  2.5051  0.0526 -0.1765
 7594SOL    HW234419   2.749   4.605   4.643  0.1755  0.0740 -0.1270
 7595SOL     OW34420   2.107   1.698  16.749  0.5561  0.5043 -0.5704
 7595SOL    HW134421   2.059   1.735  16.823  1.5806 -2.1341  1.3838
 7595SOL    HW234422   2.090   1.759  16.677  1.6395  2.5358  0.9251
 7596SOL     OW34423   2.080   2.594   0.083 -0.3595  0.0216  0.0572
 7596SOL    HW134424   2.055   2.593  17.748  1.2093 -1.5249 -0.3707
 7596SOL    HW234425   2.008   2.544   0.122 -1.0018  1.4114  0.6267
 7597SOL     OW34426   2.301   1.323   8.743 -0.1404  0.0323  0.0181
 7597SOL    HW134427   2.245   1.375   8.800 -0.4296 -1.2000  0.8504
 7597SOL    HW234428   2.295   1.364   8.657  3.1484 -1.4684 -0.9482
 7598SOL     OW34429   0.060   2.434   1.015  0.0785  0.2121 -0.5949
 7598SOL    HW134430   4.739   2.508   1.005 -0.1187  0.1385  0.0507
 7598SOL    HW234431   0.074   2.434   1.110 -0.4297  1.8426 -0.5170
 7599SOL     OW34432   0.215   0.474  15.065  0.2843  0.2607 -0.2392
 7599SOL    HW134433   0.213   0.478  14.969  1.3078 -1.1070 -0.3138
 7599SOL    HW234434   0.125   0.455  15.090 -0.1562  2.5029 -0.1224
 7600SOL     OW34435   0.866   1.039   9.337  0.2609 -0.2777  0.2473
 7600SOL    HW134436   0.955   1.040   9.373  0.5697 -0.4161 -0.5102
 7600SOL    HW234437   0.820   1.080   9.411 -1.3822 -0.6290 -0.5788
 7601SOL     OW34438   1.095   0.306  14.871  0.1596 -0.2205 -0.3304
 7601SOL    HW134439   1.035   0.236  14.895  1.0326 -0.7603  0.2884
 7601SOL    HW234440   1.149   0.257  14.808  0.2462 -0.4542 -0.0738
 7602SOL     OW34441   2.951   0.926   4.602  0.1600  0.3213  0.2649
 7602SOL    HW134442   3.010   0.863   4.562 -0.6530 -0.0730 -0.3196
 7602SOL    HW234443   2.904   0.864   4.657  2.4220 -1.4777  0.1536
 7603SOL     OW34444   2.732   0.047   5.455 -0.5926  0.0741 -0.1748
 7603SOL    HW134445   2.702   0.003   5.535  1.8840 -3.2503 -1.0391
 7603SOL    HW234446   2.764   4.710   5.408  2.8842  0.5236  1.5031
 7604SOL     OW34447   0.187   1.222   8.242 -0.9424  0.3323 -0.1558
 7604SOL    HW134448   0.154   1.255   8.158  1.4207 -0.0541 -1.2336
 7604SOL    HW234449   0.275   1.259   8.248 -1.2174  1.0250 -0.4192
 7605SOL     OW34450   2.838   3.682   2.333  0.0642 -0.5490 -0.3244
 7605SOL    HW134451   2.807   3.771   2.318 -1.9169 -1.6343 -2.6032
 7605SOL    HW234452   2.771   3.651   2.394  1.4020  2.9438  2.9349
 7606SOL     OW34453   3.511   3.943  13.462  0.0123 -0.4482 -0.3548
 7606SOL    HW134454   3.433   3.888  13.478 -1.3986  1.5202 -0.4509
 7606SOL    HW234455   3.476   4.031  13.444  0.7546 -0.4802 -1.9097
 7607SOL     OW34456   1.474   2.421   4.928  0.5874 -0.1500  0.0827
 7607SOL    HW134457   1.469   2.509   4.890  2.3210 -0.3126 -0.5548
 7607SOL    HW234458   1.513   2.381   4.850  0.7948  0.4555 -0.1270
 7608SOL     OW34459   3.926   1.511   3.148  0.6032 -0.3900  0.0034
 7608SOL    HW134460   3.976   1.436   3.116  2.3104  1.7198 -2.3144
 7608SOL    HW234461   3.978   1.583   3.113 -0.9875  0.1296 -1.2577
 7609SOL     OW34462   3.816   2.511   3.299  0.8233  0.2768 -0.3677
 7609SOL    HW134463   3.901   2.477   3.329  2.4372  2.7932 -2.1043
 7609SOL    HW234464   3.764   2.438   3.332 -0.2828  0.4590 -1.7355
 7610SOL     OW34465   4.162   3.824   4.729  0.5048 -0.7661 -0.1794
 7610SOL    HW134466   4.158   3.903   4.782 -0.8210 -0.7528 -0.2981
 7610SOL    HW234467   4.215   3.774   4.791  0.3491 -0.7157 -0.0041
 7611SOL     OW34468   2.780   3.572   6.247 -0.2664 -0.7934 -0.1437
 7611SOL    HW134469   2.735   3.523   6.177 -0.7293  1.7095 -1.6074
 7611SOL    HW234470   2.813   3.495   6.294  1.2755 -0.9650 -1.4702
 7612SOL     OW34471   3.834   0.124   7.542  0.4291  0.6168 -0.0074
 7612SOL    HW134472   3.891   0.152   7.471 -0.2586  1.1452 -0.3483
 7612SOL    HW234473   3.748   0.155   7.512  0.1082 -0.8207 -0.5679
 7613SOL     OW34474   0.430   3.202   7.087 -0.7663  1.2303  1.0249
 7613SOL    HW134475   0.342   3.235   7.070 -1.8990 -2.3515 -0.1782
 7613SOL    HW234476   0.417   3.116   7.127 -0.7518  0.4858 -0.5481
 7614SOL     OW34477   3.596   3.396  16.366 -0.6544  0.3594  0.7765
 7614SOL    HW134478   3.604   3.465  16.431  0.0492  0.5826  0.4537
 7614SOL    HW234479   3.690   3.384  16.349 -0.8652  0.0640 -0.1775
 7615SOL     OW34480   0.293   4.102  15.034  0.6088  0.3641  0.0314
 7615SOL    HW134481   0.296   4.093  14.939 -1.5692 -0.1466 -0.0094
 7615SOL    HW234482   0.270   4.191  15.059  1.4643 -0.2429  3.0591
 7616SOL     OW34483   2.139   0.200  16.065 -0.1091  0.0448 -0.1385
 7616SOL    HW134484   2.104   0.113  16.046 -0.3316  0.2365 -0.6219
 7616SOL    HW234485   2.063   0.252  16.037  0.4614  0.8821 -0.1488
 7617SOL     OW34486   0.309   4.114   6.262  0.3404  0.1225 -0.2441
 7617SOL    HW134487   0.381   4.062   6.225  0.4470 -0.2683  0.5115
 7617SOL    HW234488   0.231   4.062   6.242  1.4365 -1.2701 -0.8728
 7618SOL     OW34489   4.360   4.694   5.867 -0.2107  0.2979  0.3318
 7618SOL    HW134490   4.368   4.665   5.958  0.1218 -0.1803  0.1490
 7618SOL    HW234491   4.361   0.050   5.867 -1.6195  0.3185 -1.9414
 7619SOL     OW34492   3.830   0.187   0.749 -0.4716  0.1117 -0.5775
 7619SOL    HW134493   3.872   0.195   0.664  3.3619  0.6492  1.4004
 7619SOL    HW234494   3.860   0.262   0.801 -0.1800  0.0038 -0.5938
 7620SOL     OW34495   2.587   1.390  10.027  0.1236 -0.9978 -0.1425
 7620SOL    HW134496   2.492   1.383  10.018 -0.2254  2.4128  0.8508
 7620SOL    HW234497   2.627   1.334   9.961  0.3040 -0.0687 -0.8259
 7621SOL     OW34498   4.622   0.713   4.465 -0.0412  0.2029 -0.1141
 7621SOL    HW134499   4.667   0.796   4.449 -0.5387  1.0775  3.0603
 7621SOL    HW234500   4.654   0.697   4.554  1.2830 -1.3068 -0.8577
 7622SOL     OW34501   4.095   3.491   9.010  0.2122 -0.5116 -0.0063
 7622SOL    HW134502   4.024   3.460   9.066 -0.3752 -1.3837 -1.2613
 7622SOL    HW234503   4.126   3.401   9.003 -0.6266 -0.8949  1.2315
 7623SOL     OW34504   1.947   4.096   1.375  0.0124 -0.1900  0.8423
 7623SOL    HW134505   1.887   4.026   1.400  1.3111 -2.1250 -1.4899
 7623SOL    HW234506   2.013   4.087   1.444 -1.0504 -0.4924  1.8115
 7624SOL     OW34507   1.054   4.099  15.054  0.0859  0.5643 -0.2861
 7624SOL    HW134508   1.034   4.174  14.997 -0.7627 -0.4088 -1.2515
 7624SOL    HW234509   0.966   4.068  15.074 -0.0743  0.9068 -0.4595
 7625SOL     OW34510   1.747   3.469   3.055  0.0849  0.0995  0.5953
 7625SOL    HW134511   1.696   3.505   2.983 -0.4312 -0.8060  0.5155
 7625SOL    HW234512   1.795   3.402   3.006 -1.7252 -0.2565 -0.6748
 7626SOL     OW34513   3.348   1.068  12.045 -0.6477 -0.4884  0.4144
 7626SOL    HW134514   3.436   1.082  12.079 -1.2661 -0.2314  1.8956
 7626SOL    HW234515   3.306   1.147  12.080  0.5392  1.2636 -2.1137
 7627SOL     OW34516   2.196   1.519   2.844 -0.1138  0.8227 -0.1460
 7627SOL    HW134517   2.205   1.481   2.932 -0.6626  0.8369 -0.0851
 7627SOL    HW234518   2.223   1.444   2.792 -2.4047  0.5048 -0.8600
 7628SOL     OW34519   2.919   4.320   3.586 -0.2881 -0.5744 -0.0399
 7628SOL    HW134520   2.954   4.387   3.527 -0.0726 -1.9079 -1.4468
 7628SOL    HW234521   2.973   4.330   3.664  0.0210 -0.3390 -0.2881
 7629SOL     OW34522   1.726   1.282   4.676 -0.0857 -0.0553 -0.2569
 7629SOL    HW134523   1.819   1.275   4.697 -0.4565 -1.1200  0.9862
 7629SOL    HW234524   1.725   1.377   4.667  1.2843  0.0506  0.7174
 7630SOL     OW34525   4.137   0.544   8.192 -0.3240  0.1156  0.2027
 7630SOL    HW134526   4.195   0.581   8.125  0.5831  1.7658  1.8908
 7630SOL    HW234527   4.202   0.497   8.245 -1.8174  0.3577  2.2563
 7631SOL     OW34528   2.480   4.612  12.402 -0.0247  0.2653 -0.6027
 7631SOL    HW134529   2.440   4.540  12.353  2.5735 -1.5679 -0.0002
 7631SOL    HW234530   2.406   4.670  12.421  1.1343  0.9802  1.7414
 7632SOL     OW34531   2.210   4.721   2.169 -0.0710 -0.7348 -0.0309
 7632SOL    HW134532   2.249   4.667   2.238  0.2709 -1.0037 -0.4344
 7632SOL    HW234533   2.276   0.048   2.151 -1.6790  0.4507 -1.4908
 7633SOL     OW34534   1.990   1.344  11.182  0.0655  0.4157 -0.3023
 7633SOL    HW134535   1.921   1.278  11.187  0.6034 -0.1805 -0.9924
 7633SOL    HW234536   2.009   1.355  11.275  0.3709  1.9552 -0.5338
 7634SOL     OW34537   2.258   2.312   7.219 -0.3131 -0.3283 -0.0076
 7634SOL    HW134538   2.294   2.367   7.149  0.7954 -1.4876 -0.3320
 7634SOL    HW234539   2.232   2.383   7.278  0.4111 -0.9852  1.0929
 7635SOL     OW34540   2.911   4.669   5.729 -0.0830  0.4530 -0.5076
 7635SOL    HW134541   2.945   4.699   5.814  1.6567  0.9028 -1.3578
 7635SOL    HW234542   2.876   4.586   5.762  0.9683  1.0697  2.2395
 7636SOL     OW34543   1.259   4.491   7.489 -0.5638 -0.0711 -0.5135
 7636SOL    HW134544   1.207   4.571   7.485 -0.6999 -0.0594  1.5619
 7636SOL    HW234545   1.253   4.455   7.400 -2.4665  0.2002 -0.4873
 7637SOL     OW34546   0.442   1.264   8.261  0.0533 -0.8444 -0.3248
 7637SOL    HW134547   0.531   1.236   8.240 -0.4627 -1.2265 -1.9920
 7637SOL    HW234548   0.442   1.348   8.216  0.5225 -1.2042 -0.9927
 7638SOL     OW34549   3.847   3.758   7.716 -0.4792 -0.1039 -0.5906
 7638SOL    HW134550   3.814   3.673   7.686 -3.3463  0.7115  0.2318
 7638SOL    HW234551   3.769   3.811   7.700 -0.0479  0.6127 -0.3518
 7639SOL     OW34552   3.891   4.694   3.845 -0.2013  0.5142 -0.1448
 7639SOL    HW134553   3.979   4.728   3.863  0.6716 -1.5548 -0.5390
 7639SOL    HW234554   3.917   4.621   3.790  0.4286 -0.2041  1.1239
 7640SOL     OW34555   4.049   2.954   1.791  0.1598 -0.1446 -0.0863
 7640SOL    HW134556   4.127   2.907   1.821  0.5632  0.5851  0.0141
 7640SOL    HW234557   4.023   2.922   1.705  2.5828 -0.5878 -0.6535
 7641SOL     OW34558   2.983   1.148   2.505 -0.4005  0.0174  0.0000
 7641SOL    HW134559   3.039   1.224   2.518  0.4670 -0.8119  1.1338
 7641SOL    HW234560   3.044   1.096   2.452 -0.5811 -0.1360 -0.0566
 7642SOL     OW34561   2.381   1.418   5.942  0.5329 -0.0119 -0.0166
 7642SOL    HW134562   2.339   1.504   5.936 -1.2845 -0.8299  0.9906
 7642SOL    HW234563   2.425   1.408   5.858 -1.1627 -1.0460 -0.7871
 7643SOL     OW34564   4.513   4.451   4.336  0.1735  1.0397 -0.3278
 7643SOL    HW134565   4.517   4.358   4.311  1.2965  0.8504  0.5587
 7643SOL    HW234566   4.579   4.498   4.284 -0.7489  1.1315 -1.4203
 7644SOL     OW34567   3.725   1.442   9.913 -0.3657 -0.0759  0.0524
 7644SOL    HW134568   3.688   1.434   9.825 -1.8267  1.4434  0.5336
 7644SOL    HW234569   3.762   1.355   9.929 -1.4539 -0.7993 -1.3558
 7645SOL     OW34570   1.273   3.541   1.778 -0.0613 -0.0786 -0.1017
 7645SOL    HW134571   1.262   3.597   1.854 -0.5744 -2.1569  1.3618
 7645SOL    HW234572   1.211   3.471   1.800  1.2525 -1.6916 -1.5722
 7646SOL     OW34573   4.484   1.884   4.870  0.6215  0.5459  0.0156
 7646SOL    HW134574   4.534   1.810   4.906 -0.9566 -0.7107 -0.3652
 7646SOL    HW234575   4.502   1.863   4.778  1.4133  0.2475  0.2393
 7647SOL     OW34576   1.906   2.685   9.178  0.1516  0.0696  0.5386
 7647SOL    HW134577   1.918   2.775   9.147 -0.2335  0.2657  0.9522
 7647SOL    HW234578   1.986   2.664   9.227  1.2258  0.9513 -0.8695
 7648SOL     OW34579   3.160   4.634   8.834  0.5688  0.1318  0.9105
 7648SOL    HW134580   3.218   4.577   8.885  0.3363 -1.6107 -0.7840
 7648SOL    HW234581   3.162   4.718   8.880  0.2029  1.2181 -1.0545
 7649SOL     OW34582   3.523   4.045   3.464 -0.2396  0.4122 -1.0798
 7649SOL    HW134583   3.547   3.969   3.412 -1.7583 -1.7509  1.3770
 7649SOL    HW234584   3.599   4.061   3.520 -0.7231  1.3885 -0.7015
 7650SOL     OW34585   0.353   4.698   6.595  0.2190  0.1435 -0.2216
 7650SOL    HW134586   0.313   4.675   6.680 -0.1124 -2.1675 -1.0016
 7650SOL    HW234587   0.382   4.609   6.573 -1.5957 -0.2754 -0.9429
 7651SOL     OW34588   4.134   1.519   2.568  0.5726 -0.2921  0.1991
 7651SOL    HW134589   4.161   1.494   2.657 -1.3694 -1.8725  0.3348
 7651SOL    HW234590   4.215   1.557   2.534 -0.5691  0.0358 -2.1332
 7652SOL     OW34591   2.204   0.696   6.164 -0.4913 -0.0554 -0.2124
 7652SOL    HW134592   2.210   0.601   6.169 -1.6484 -0.1893 -1.3194
 7652SOL    HW234593   2.287   0.730   6.197  0.1355  0.3746 -2.2295
 7653SOL     OW34594   3.462   2.881   7.738  0.5322  0.2801 -0.1435
 7653SOL    HW134595   3.395   2.908   7.801  1.7894  0.4616  1.1144
 7653SOL    HW234596   3.539   2.908   7.788  1.2200 -1.2760 -0.3802
 7654SOL     OW34597   0.386   2.506   6.832  0.7277  0.7657 -0.0924
 7654SOL    HW134598   0.293   2.523   6.815  0.8654  1.1083 -0.5039
 7654SOL    HW234599   0.415   2.591   6.799 -4.8194  2.9311  0.6874
 7655SOL     OW34600   1.108   2.202   9.365 -0.3352 -0.4673  0.0556
 7655SOL    HW134601   1.199   2.178   9.348  0.2974  0.7869  1.7009
 7655SOL    HW234602   1.065   2.129   9.321 -0.5229 -0.2367 -0.1420
 7656SOL     OW34603   0.046   0.017   4.451  0.3011  0.5089  0.3412
 7656SOL    HW134604   0.025   0.025   4.544 -0.3526 -1.3487  0.3595
 7656SOL    HW234605   0.029   0.107   4.424 -0.1791  0.0580 -0.8843
 7657SOL     OW34606   2.060   1.789   6.496 -0.5926  0.1259 -0.2013
 7657SOL    HW134607   2.017   1.874   6.504 -1.9859 -0.6750  0.7831
 7657SOL    HW234608   2.079   1.765   6.586  0.1247  0.3555 -0.2920
 7658SOL     OW34609   2.764   3.717  16.155 -0.2429 -0.3723 -0.0546
 7658SOL    HW134610   2.854   3.718  16.187  0.1652  1.3769 -1.2349
 7658SOL    HW234611   2.716   3.710  16.238 -0.5308 -0.5253 -0.2314
 7659SOL     OW34612   2.863   4.059   5.167 -0.3260  0.0626  0.0857
 7659SOL    HW134613   2.821   4.104   5.240  0.9224  0.0564  0.8077
 7659SOL    HW234614   2.911   4.132   5.126  1.2380 -1.0043  0.0373
 7660SOL     OW34615   4.153   3.420   3.977 -0.2637  0.2628 -0.2307
 7660SOL    HW134616   4.171   3.422   4.071 -0.2558  0.9020 -0.2465
 7660SOL    HW234617   4.060   3.400   3.974 -0.0569 -0.6913 -0.0879
 7661SOL     OW34618   4.289   0.583   5.904 -0.4676  0.7273 -0.2912
 7661SOL    HW134619   4.214   0.589   5.846 -0.0705 -0.9131 -0.9978
 7661SOL    HW234620   4.297   0.677   5.919  1.4557  0.9392 -2.6244
 7662SOL     OW34621   1.004   3.480   7.821 -0.0297 -0.2050  0.3498
 7662SOL    HW134622   0.952   3.548   7.864  1.7206 -0.0624  2.2419
 7662SOL    HW234623   1.060   3.447   7.891  1.7118  1.9179 -0.0211
 7663SOL     OW34624   3.330   3.447   3.896  0.0905 -0.1546  0.6548
 7663SOL    HW134625   3.365   3.518   3.843  1.3275 -0.7120  0.7335
 7663SOL    HW234626   3.242   3.427   3.863 -1.0609  1.4782  2.7448
 7664SOL     OW34627   4.499   4.173   1.736 -0.0794 -0.3992  0.3051
 7664SOL    HW134628   4.541   4.105   1.787 -2.8202 -0.3607  2.6568
 7664SOL    HW234629   4.490   4.237   1.807  1.2436  0.6663 -0.4787
 7665SOL     OW34630   1.933   1.967   4.684  0.4061 -0.2550  0.0336
 7665SOL    HW134631   2.004   1.911   4.653 -0.0918 -2.2317  2.4700
 7665SOL    HW234632   1.982   1.998   4.760  0.8968  0.6821 -0.6658
 7666SOL     OW34633   3.582   0.470   6.401  0.5615 -0.2732 -0.2754
 7666SOL    HW134634   3.590   0.556   6.359  0.9822 -0.2328 -0.1086
 7666SOL    HW234635   3.551   0.505   6.484  0.6083 -0.0309 -0.3601
 7667SOL     OW34636   2.765   4.527   2.519 -0.1574  0.3724 -0.2342
 7667SOL    HW134637   2.764   4.442   2.477  2.5494  0.8936 -1.3909
 7667SOL    HW234638   2.787   4.587   2.447  0.4954  0.7872  0.3048
 7668SOL     OW34639   0.480   4.270   8.002  0.0013 -0.5873 -0.0883
 7668SOL    HW134640   0.407   4.304   8.054 -0.6018 -1.6647 -0.2299
 7668SOL    HW234641   0.548   4.264   8.070 -2.0263 -0.6167  1.9569
 7669SOL     OW34642   0.889   0.244   1.128  0.0784 -0.8265  0.5403
 7669SOL    HW134643   0.842   0.246   1.045  0.5727  0.3699  0.2961
 7669SOL    HW234644   0.821   0.224   1.193 -0.2960 -0.3236  0.2981
 7670SOL     OW34645   0.260   3.915   7.611 -0.2270 -0.2271  0.4306
 7670SOL    HW134646   0.261   3.970   7.689  0.9976 -0.3712  0.5157
 7670SOL    HW234647   0.326   3.944   7.548  1.2346 -0.6355  1.7788
 7671SOL     OW34648   1.642   0.415  12.398 -0.2441  0.0889 -0.2762
 7671SOL    HW134649   1.640   0.428  12.492 -2.2777  1.5513 -0.5248
 7671SOL    HW234650   1.728   0.451  12.376 -0.6952  0.3200 -1.7112
 7672SOL     OW34651   4.645   4.347   3.159  0.3974 -0.5031  0.1507
 7672SOL    HW134652   4.591   4.418   3.193 -0.4232 -0.5917 -0.9679
 7672SOL    HW234653   4.692   4.334   3.241 -0.5853  0.2114  0.8190
 7673SOL     OW34654   4.416   3.150  11.343  0.2372 -0.4467 -0.0468
 7673SOL    HW134655   4.336   3.192  11.374  0.5925 -0.4643  0.9000
 7673SOL    HW234656   4.436   3.091  11.416 -0.9475  0.4719  1.0009
 7674SOL     OW34657   4.570   3.473  16.690 -0.2374  0.3884 -0.4073
 7674SOL    HW134658   4.616   3.554  16.714  1.0273 -0.6835  0.7547
 7674SOL    HW234659   4.629   3.399  16.700 -0.2821  0.3093 -0.7386
 7675SOL     OW34660   1.772   4.417  11.615 -0.3007 -0.6680  1.0003
 7675SOL    HW134661   1.693   4.368  11.593 -0.3191 -0.7221  1.1948
 7675SOL    HW234662   1.799   4.364  11.689 -0.1275 -2.2188 -0.1879
 7676SOL     OW34663   0.203   3.697   4.754  0.3870  0.1188 -0.0680
 7676SOL    HW134664   0.216   3.603   4.751  0.7071  0.1235  0.9828
 7676SOL    HW234665   0.199   3.722   4.662  0.8083  0.5103  0.0201
 7677SOL     OW34666   1.414   0.680   4.152  0.1303  0.5537  0.5762
 7677SOL    HW134667   1.362   0.757   4.176 -2.8997 -1.3361  0.1503
 7677SOL    HW234668   1.339   0.622   4.166  1.3516 -1.0736  0.4278
 7678SOL     OW34669   0.139   3.304  15.251  0.0590  0.1875 -0.3356
 7678SOL    HW134670   0.234   3.296  15.247 -0.0996 -2.0009  0.1360
 7678SOL    HW234671   0.114   3.261  15.333 -0.0334  2.0034  0.5975
 7679SOL     OW34672   0.383   1.399   5.183 -0.2263 -0.3282  0.6398
 7679SOL    HW134673   0.449   1.459   5.217 -1.0583 -0.3490  2.3193
 7679SOL    HW234674   0.319   1.466   5.163 -1.0364 -1.3002 -0.0115
 7680SOL     OW34675   0.972   4.195   0.477 -0.1878 -0.0253  0.2624
 7680SOL    HW134676   0.897   4.158   0.431  0.0637 -2.2767  1.6381
 7680SOL    HW234677   1.050   4.141   0.464  0.1376  0.3450  0.6444
 7681SOL     OW34678   1.190   1.680   5.262 -0.2227  0.3399  0.4321
 7681SOL    HW134679   1.171   1.706   5.352 -0.6077 -0.1525  0.4900
 7681SOL    HW234680   1.232   1.762   5.235  2.2918 -1.2631 -0.4507
 7682SOL     OW34681   1.972   4.680   8.560 -0.2270  1.2023 -0.3882
 7682SOL    HW134682   1.978   4.590   8.527 -0.2061  1.1424 -0.2216
 7682SOL    HW234683   1.958   4.731   8.481  0.9683  1.2309 -0.5725
 7683SOL     OW34684   3.417   0.819   2.692 -0.5492  0.3905  0.0445
 7683SOL    HW134685   3.491   0.850   2.745 -1.0891 -0.6586  1.4274
 7683SOL    HW234686   3.340   0.820   2.748 -0.3254  1.3936  0.3412
 7684SOL     OW34687   2.819   3.338   6.428  0.3928  0.1837 -0.3513
 7684SOL    HW134688   2.784   3.255   6.397  0.3573 -0.3501  1.0876
 7684SOL    HW234689   2.908   3.345   6.395  1.2955  0.7099  2.1626
 7685SOL     OW34690   0.372   1.355  16.962 -0.1430 -0.0523  0.1508
 7685SOL    HW134691   0.279   1.374  16.977 -0.0199 -1.3939  2.6451
 7685SOL    HW234692   0.396   1.367  17.054 -3.0077 -0.0901  0.9002
 7686SOL     OW34693   2.315   4.120   0.970  0.3231 -0.4518 -0.8120
 7686SOL    HW134694   2.261   4.050   0.932  0.9341 -0.9624 -0.7369
 7686SOL    HW234695   2.379   4.125   0.900  1.6670 -1.2057  0.3688
 7687SOL     OW34696   3.179   3.307   1.345 -0.1267  0.2933 -0.2165
 7687SOL    HW134697   3.144   3.281   1.260  1.2025  0.1442 -0.7194
 7687SOL    HW234698   3.170   3.402   1.346 -0.7712  0.2337 -0.6832
 7688SOL     OW34699   2.145   2.321  12.622 -0.0376 -0.7149  0.5295
 7688SOL    HW134700   2.123   2.229  12.633  0.5305 -0.8737  0.3416
 7688SOL    HW234701   2.240   2.316  12.628  0.0488 -0.3407 -0.5352
 7689SOL     OW34702   1.756   1.701  10.132  0.1771  0.0836  0.0104
 7689SOL    HW134703   1.710   1.663  10.207 -0.3214  1.7179  0.5324
 7689SOL    HW234704   1.842   1.723  10.167 -0.2882  1.3291  0.3782
 7690SOL     OW34705   2.294   3.759  14.889 -0.1845  0.0753 -0.0181
 7690SOL    HW134706   2.371   3.774  14.834 -0.3494 -0.5497 -0.4282
 7690SOL    HW234707   2.298   3.663  14.882 -1.5645  0.0246 -0.0911
 7691SOL     OW34708   4.620   0.665   5.933  0.3163 -0.4208  0.3239
 7691SOL    HW134709   4.702   0.704   5.962  1.2007 -0.4706 -2.1976
 7691SOL    HW234710   4.605   0.732   5.866  0.6210 -0.4760  0.2056
 7692SOL     OW34711   4.723   3.503   1.801  0.3752 -0.0114 -0.5129
 7692SOL    HW134712   4.673   3.436   1.849  1.2452  0.5637  1.1898
 7692SOL    HW234713   0.058   3.456   1.765 -0.1654  0.3120 -2.0579
 7693SOL     OW34714   1.058   4.672   7.582  0.8683 -0.3363  0.2449
 7693SOL    HW134715   1.083   0.019   7.613 -0.7377  0.9494 -2.0597
 7693SOL    HW234716   0.992   4.656   7.650 -0.5159  1.5905 -0.6413
 7694SOL     OW34717   2.658   2.561  15.506 -0.2174 -0.0598 -0.3855
 7694SOL    HW134718   2.694   2.647  15.484  0.4627  0.4680  2.8364
 7694SOL    HW234719   2.721   2.504  15.463 -1.1206 -1.6112  0.3589
 7695SOL     OW34720   0.177   3.870  10.517  0.1535  0.0646  0.3786
 7695SOL    HW134721   0.198   3.791  10.565  0.4352 -0.0463  0.0756
 7695SOL    HW234722   0.143   3.936  10.577  0.1379  1.2288 -0.8916
 7696SOL     OW34723   0.148   2.095  10.585  0.3375 -0.4021  0.6495
 7696SOL    HW134724   0.177   2.079  10.495  2.7169  0.6253  1.2252
 7696SOL    HW234725   0.092   2.018  10.598  1.2797 -1.1667  0.1420
 7697SOL     OW34726   2.700   4.693   9.432  0.5583 -0.1735 -0.1205
 7697SOL    HW134727   2.742   0.002   9.361 -0.4742  0.7318 -0.1078
 7697SOL    HW234728   2.693   4.602   9.402 -0.9852  0.4859 -1.7340
 7698SOL     OW34729   4.691   2.642   3.921  0.0798 -0.4935 -0.2834
 7698SOL    HW134730   0.033   2.594   3.905  0.8126  0.3369  0.9855
 7698SOL    HW234731   4.669   2.591   3.999  0.2673 -1.9289 -1.1626
 7699SOL     OW34732   0.692   1.207   8.203  0.0567  0.0432 -0.2769
 7699SOL    HW134733   0.747   1.185   8.277  0.0927  0.6256 -0.1254
 7699SOL    HW234734   0.654   1.120   8.191 -1.2260  0.2229  2.5581
 7700SOL     OW34735   0.656   0.860   2.674 -0.0916  0.2233  0.4029
 7700SOL    HW134736   0.674   0.847   2.767  0.3043 -1.0797  0.1344
 7700SOL    HW234737   0.740   0.836   2.635 -0.4099  0.7889 -0.6236
 7701SOL     OW34738   1.836   0.777   3.228  0.1802 -0.0516  0.2582
 7701SOL    HW134739   1.896   0.709   3.258  1.7137  1.2759  0.1683
 7701SOL    HW234740   1.872   0.859   3.260 -0.2001  0.7346 -1.2928
 7702SOL     OW34741   0.849   2.605   8.831 -0.0071 -0.5386  0.5682
 7702SOL    HW134742   0.861   2.698   8.853  0.1338 -1.1052  2.8719
 7702SOL    HW234743   0.769   2.594   8.883 -1.8823 -0.8900 -2.4038
 7703SOL     OW34744   0.840   3.300  14.701  0.3374 -0.3102 -0.3110
 7703SOL    HW134745   0.877   3.217  14.730 -2.6143 -0.7288  2.2977
 7703SOL    HW234746   0.781   3.282  14.628  0.4210  1.1122 -0.7414
 7704SOL     OW34747   3.168   1.230   3.843  0.2751  0.0213 -0.5452
 7704SOL    HW134748   3.127   1.154   3.803 -0.3383 -0.4749  1.0544
 7704SOL    HW234749   3.112   1.256   3.916  1.7673  0.8525  0.2996
 7705SOL     OW34750   0.187   0.578  10.293 -0.0182 -0.4018  0.0788
 7705SOL    HW134751   0.113   0.628  10.329 -0.8164 -1.0535 -0.6577
 7705SOL    HW234752   0.153   0.546  10.210  1.8522  1.4236 -1.3842
 7706SOL     OW34753   3.175   1.562   9.601 -0.0049 -0.2290 -0.1738
 7706SOL    HW134754   3.095   1.582   9.552 -0.1552 -1.0854 -0.2773
 7706SOL    HW234755   3.164   1.603   9.687  1.3930 -0.9721  0.3604
 7707SOL     OW34756   0.271   1.356   6.886 -0.2875  0.7722 -0.3981
 7707SOL    HW134757   0.310   1.298   6.821 -0.5212  1.0625 -0.7958
 7707SOL    HW234758   0.178   1.350   6.863 -0.3044 -0.2580 -0.0541
 7708SOL     OW34759   3.209   1.349   5.699 -0.4443 -0.2971 -0.1845
 7708SOL    HW134760   3.258   1.427   5.671  0.0239  1.0973  4.5038
 7708SOL    HW234761   3.159   1.337   5.618 -0.6893  2.3044 -0.4231
 7709SOL     OW34762   3.221   2.649  13.582  0.3536  0.1278 -0.6246
 7709SOL    HW134763   3.178   2.610  13.506 -0.7253  0.9818 -0.4646
 7709SOL    HW234764   3.232   2.739  13.551 -0.3979  0.0871 -1.0189
 7710SOL     OW34765   1.138   3.622   8.048 -0.0020 -0.3672  0.2101
 7710SOL    HW134766   1.226   3.659   8.057 -0.1798 -0.7407  3.4284
 7710SOL    HW234767   1.099   3.680   8.112  3.8468  2.8648 -0.3711
 7711SOL     OW34768   1.502   2.697  10.942  0.3547  0.2641 -0.0771
 7711SOL    HW134769   1.502   2.738  11.028  1.4847 -0.3995  0.2494
 7711SOL    HW234770   1.433   2.635  10.966  0.3064 -0.1144 -1.1794
 7712SOL     OW34771   3.921   2.140  16.489 -0.0317 -0.1548  0.0031
 7712SOL    HW134772   3.934   2.066  16.430 -1.9248 -0.7891  0.3834
 7712SOL    HW234773   3.850   2.112  16.546  0.0572  1.1551  0.7688
 7713SOL     OW34774   0.539   0.513   6.669  0.3001 -0.5190  0.3482
 7713SOL    HW134775   0.595   0.585   6.696  1.5359 -0.9905 -0.9393
 7713SOL    HW234776   0.602   0.441   6.664  1.3367  0.4863 -1.0709
 7714SOL     OW34777   3.553   0.165  12.556 -0.1201 -0.4645  0.2284
 7714SOL    HW134778   3.483   0.212  12.600  1.7265  1.5493  1.0156
 7714SOL    HW234779   3.623   0.229  12.539  0.3031 -0.7739  0.7958
 7715SOL     OW34780   0.644   0.834   3.508 -0.2466 -0.1122 -0.0258
 7715SOL    HW134781   0.606   0.922   3.504  0.0245 -0.0813 -1.9272
 7715SOL    HW234782   0.682   0.830   3.596 -0.5924 -1.3395  0.0758
 7716SOL     OW34783   1.793   1.710   6.892  0.2553  0.4553  0.0721
 7716SOL    HW134784   1.749   1.633   6.928 -1.6503  1.0011 -1.0402
 7716SOL    HW234785   1.717   1.766   6.912 -0.7958 -0.4888 -1.2343
 7717SOL     OW34786   1.506   4.042   7.272  0.8676 -0.5127  0.0560
 7717SOL    HW134787   1.497   4.028   7.178 -0.8688 -0.5844  0.2341
 7717SOL    HW234788   1.589   4.089   7.282  1.7027 -2.0914  0.5940
 7718SOL     OW34789   4.681   4.039   1.408  0.3333 -0.2040 -0.2023
 7718SOL    HW134790   4.726   3.963   1.445  0.9271 -0.4646 -1.4697
 7718SOL    HW234791   4.740   4.063   1.336  1.2162  1.4077  1.0457
 7719SOL     OW34792   1.213   4.485   7.192  0.4086  0.3048  0.1041
 7719SOL    HW134793   1.131   4.524   7.222 -1.9706 -2.5590 -2.7370
 7719SOL    HW234794   1.211   4.502   7.098 -1.3290 -0.1265  0.0651
 7720SOL     OW34795   4.163   1.641  10.070 -0.0191 -0.2777 -0.4529
 7720SOL    HW134796   4.093   1.612  10.012 -0.0520 -2.5932  0.7780
 7720SOL    HW234797   4.165   1.569  10.132  0.6139  1.0107  1.0443
 7721SOL     OW34798   2.772   4.507   1.669  0.4168  0.1220 -0.0790
 7721SOL    HW134799   2.745   4.479   1.581 -0.7504 -1.8886  0.9399
 7721SOL    HW234800   2.732   4.437   1.719 -1.8505  0.7228 -1.0213
 7722SOL     OW34801   3.601   2.519   6.011 -0.8016 -0.5149 -0.4631
 7722SOL    HW134802   3.636   2.488   5.928 -0.0702 -1.4822  0.1999
 7722SOL    HW234803   3.680   2.559   6.048  0.8170 -3.6731 -0.5538
 7723SOL     OW34804   3.602   2.417  11.659  0.0131  0.2028  0.0738
 7723SOL    HW134805   3.659   2.486  11.694  0.3215 -0.7811  1.4842
 7723SOL    HW234806   3.626   2.422  11.566  1.2353 -1.4247  0.3072
 7724SOL     OW34807   1.100   0.639  14.117  0.4032 -0.3196 -0.4103
 7724SOL    HW134808   1.142   0.674  14.038 -0.0994 -1.2658 -1.0978
 7724SOL    HW234809   1.181   0.619  14.164  0.0935  4.0543  1.9737
 7725SOL     OW34810   3.427   1.261   9.831 -0.4339  0.5901 -0.1940
 7725SOL    HW134811   3.440   1.353   9.855 -1.2568  1.0504 -1.5549
 7725SOL    HW234812   3.508   1.215   9.853  0.3324  2.3002  0.5544
 7726SOL     OW34813   1.654   2.596  13.055  0.7633 -0.3529 -0.0300
 7726SOL    HW134814   1.623   2.505  13.058 -1.6513  0.5014  1.3007
 7726SOL    HW234815   1.687   2.591  12.966  1.6291  1.2531  0.2082
 7727SOL     OW34816   0.069   3.605   0.658  0.0862 -0.2333  0.0999
 7727SOL    HW134817   4.731   3.604   0.713  1.2804  1.3557  1.8332
 7727SOL    HW234818   0.134   3.566   0.717 -0.0351 -0.3829  0.1359
 7728SOL     OW34819   4.173   1.382   7.087  0.3322 -0.2642 -0.2979
 7728SOL    HW134820   4.178   1.476   7.106 -3.0828 -0.2908  0.6930
 7728SOL    HW234821   4.167   1.370   6.993 -2.8410 -1.5352  0.0771
 7729SOL     OW34822   0.809   0.233   3.880 -0.3329  0.3781  0.4320
 7729SOL    HW134823   0.782   0.310   3.931 -0.2421 -0.8059  2.2642
 7729SOL    HW234824   0.744   0.243   3.811 -1.3804  1.6433  1.5851
 7730SOL     OW34825   4.704   2.733   4.656  0.1255 -0.0263 -0.0757
 7730SOL    HW134826   4.644   2.756   4.727  2.1627 -1.2738  2.0388
 7730SOL    HW234827   4.729   2.646   4.688  0.6266  1.5209  3.7110
 7731SOL     OW34828   4.069   1.628   6.677 -0.1281 -0.0536  0.1497
 7731SOL    HW134829   4.048   1.717   6.647 -1.1351 -0.6091 -0.8039
 7731SOL    HW234830   4.160   1.616   6.651 -0.1416  0.8397 -0.3240
 7732SOL     OW34831   0.799   2.297   6.347  0.1510  0.2804  0.2396
 7732SOL    HW134832   0.839   2.296   6.434 -0.7578 -1.8416  0.6305
 7732SOL    HW234833   0.821   2.384   6.313  1.6732 -0.3292 -0.3763
 7733SOL     OW34834   2.953   3.291   9.612  0.0246  0.4619  0.3506
 7733SOL    HW134835   2.994   3.230   9.550 -0.0941  0.0925  0.6367
 7733SOL    HW234836   3.034   3.322   9.651  0.1293  1.2856 -0.5424
 7734SOL     OW34837   3.216   0.082  17.253 -0.1028  0.3312  0.0900
 7734SOL    HW134838   3.168   0.132  17.320  2.3055 -0.4631  2.3822
 7734SOL    HW234839   3.180   0.127  17.177  0.4979  1.0561  0.2301
 7735SOL     OW34840   3.175   4.233   1.311 -0.2699 -0.8210 -0.3739
 7735SOL    HW134841   3.089   4.246   1.351 -1.2439  0.0526 -2.7385
 7735SOL    HW234842   3.168   4.293   1.237  0.9453 -1.8189 -1.2819
 7736SOL     OW34843   1.814   0.655   1.410  0.4721 -0.1193  0.6796
 7736SOL    HW134844   1.764   0.642   1.491 -0.5135  0.9480  0.2338
 7736SOL    HW234845   1.851   0.740   1.430  0.3237 -0.3268  1.8878
 7737SOL     OW34846   1.433   3.849  13.898 -0.6001  0.4364  0.5575
 7737SOL    HW134847   1.442   3.940  13.924 -1.6586  0.2258  1.6322
 7737SOL    HW234848   1.492   3.852  13.822 -2.1074  0.5649 -0.6084
 7738SOL     OW34849   4.148   0.345   6.366 -0.1279  0.5453 -0.3367
 7738SOL    HW134850   4.161   0.372   6.275  1.2913 -0.5129 -0.4448
 7738SOL    HW234851   4.055   0.327   6.351  0.3235 -0.8074 -1.5114
 7739SOL     OW34852   3.678   0.585   2.029  0.3146 -0.5230 -0.1521
 7739SOL    HW134853   3.597   0.629   2.056  0.9290  1.1278 -1.0229
 7739SOL    HW234854   3.750   0.633   2.069  0.7503 -1.3082  0.0043
 7740SOL     OW34855   2.381   3.799   7.263 -0.0038 -0.0128  0.0302
 7740SOL    HW134856   2.438   3.870   7.234  0.5643 -0.6120 -0.3169
 7740SOL    HW234857   2.430   3.717   7.271 -1.0958 -0.7868 -1.1674
 7741SOL     OW34858   1.530   3.985   7.003  0.0912  0.3516 -0.3482
 7741SOL    HW134859   1.471   3.913   6.980  0.2233  0.4690 -1.0359
 7741SOL    HW234860   1.477   4.054   6.964  1.0670  0.9207 -0.6718
 7742SOL     OW34861   4.297   2.383   2.257  0.1924 -0.3973 -0.1145
 7742SOL    HW134862   4.267   2.458   2.309  1.7319 -0.1627  0.4511
 7742SOL    HW234863   4.359   2.432   2.203  0.6004 -1.7031 -0.8182
 7743SOL     OW34864   2.685   2.908  12.897 -0.0431 -0.7226  0.0652
 7743SOL    HW134865   2.664   2.815  12.890 -1.0771 -0.5274  0.5130
 7743SOL    HW234866   2.769   2.908  12.851  0.7289 -0.7727  1.5011
 7744SOL     OW34867   1.134   0.338   4.797  0.1342 -0.0952 -0.1797
 7744SOL    HW134868   1.223   0.316   4.825 -0.8972 -1.3077  2.1280
 7744SOL    HW234869   1.092   0.286   4.865  0.1619  1.2285  0.8458
 7745SOL     OW34870   4.168   0.203  16.933 -0.1780 -0.0941 -0.1928
 7745SOL    HW134871   4.190   0.165  17.018  0.8198 -0.0743 -0.4354
 7745SOL    HW234872   4.073   0.209  16.936 -0.0551  0.7029  2.2416
 7746SOL     OW34873   2.228   4.265   5.691  0.1007  0.6708  0.3445
 7746SOL    HW134874   2.229   4.222   5.777  0.7024  0.1712  0.0914
 7746SOL    HW234875   2.189   4.351   5.708 -1.4401  0.0849 -0.2140
 7747SOL     OW34876   1.797   3.722   7.631 -0.3578 -0.3412 -0.1612
 7747SOL    HW134877   1.761   3.785   7.693  0.4941 -2.7708  2.7939
 7747SOL    HW234878   1.723   3.674   7.594 -0.1864  0.8511 -2.0288
 7748SOL     OW34879   3.718   1.016   5.072  0.0839  0.4460 -0.0684
 7748SOL    HW134880   3.685   0.932   5.104  3.4886 -0.8773  0.0343
 7748SOL    HW234881   3.812   0.998   5.080  0.1054  0.6553  0.1724
 7749SOL     OW34882   2.941   0.856   9.499 -0.3808  0.1060 -0.5808
 7749SOL    HW134883   2.964   0.828   9.588 -1.0252  1.7332  0.0944
 7749SOL    HW234884   2.889   0.936   9.513  0.0971  0.4792 -0.9144
 7750SOL     OW34885   2.991   4.318  17.635 -0.2199  0.0840 -0.0979
 7750SOL    HW134886   2.926   4.363  17.690  1.1509  0.3612  1.2757
 7750SOL    HW234887   3.070   4.354  17.674 -0.0501  0.3641 -0.6987
 7751SOL     OW34888   0.201   2.760   5.807 -0.1217 -0.5775  0.0086
 7751SOL    HW134889   0.259   2.801   5.743 -1.5441 -0.8247 -1.4177
 7751SOL    HW234890   0.154   2.833   5.847 -1.9038 -1.5392 -0.3427
 7752SOL     OW34891   2.735   0.354   3.238  0.1377 -0.5459  0.1079
 7752SOL    HW134892   2.686   0.298   3.298  0.8550 -1.1036  0.1806
 7752SOL    HW234893   2.813   0.381   3.287 -0.5113  1.5905 -0.0638
 7753SOL     OW34894   1.953   2.308   6.510 -0.2358 -0.1338 -0.5347
 7753SOL    HW134895   2.033   2.259   6.530 -1.8179 -1.1092  3.2560
 7753SOL    HW234896   1.952   2.307   6.414  0.3990 -1.1453 -0.5289
 7754SOL     OW34897   3.501   0.932   6.175 -0.4034 -0.3132  0.0147
 7754SOL    HW134898   3.574   0.975   6.129  0.8412 -1.7230  0.6814
 7754SOL    HW234899   3.553   0.874   6.231 -0.0515 -0.6492 -0.6515
 7755SOL     OW34900   4.489   1.664   2.912  0.8343  0.4540  0.6376
 7755SOL    HW134901   4.458   1.660   3.003  0.7364 -0.4000  0.5646
 7755SOL    HW234902   4.416   1.717   2.879  1.0729  1.6379  1.9858
 7756SOL     OW34903   2.080   3.727   3.305 -0.4991 -0.3677 -0.1105
 7756SOL    HW134904   2.083   3.761   3.394 -0.5461 -1.1300  0.1782
 7756SOL    HW234905   2.057   3.637   3.324  1.5665 -0.9081 -0.1394
 7757SOL     OW34906   2.426   3.523  10.479 -0.4028  0.2266 -0.3443
 7757SOL    HW134907   2.500   3.525  10.419  0.0453  3.8693  0.3500
 7757SOL    HW234908   2.397   3.433  10.466 -0.5995  0.6061 -2.4901
 7758SOL     OW34909   3.106   3.292   6.756  0.7705 -0.2901  0.5996
 7758SOL    HW134910   3.116   3.348   6.679  0.4947 -0.8532  0.1604
 7758SOL    HW234911   3.043   3.224   6.735  1.0272 -0.5580  0.7024
 7759SOL     OW34912   0.523   2.771   7.658 -0.5837  0.6148 -0.1689
 7759SOL    HW134913   0.450   2.831   7.642 -0.0249  1.1661 -0.6085
 7759SOL    HW234914   0.572   2.824   7.721 -1.6546  0.5472  0.7371
 7760SOL     OW34915   2.227   4.629   7.436 -0.2325 -0.3625  0.0327
 7760SOL    HW134916   2.191   4.596   7.518 -0.5984 -0.2674 -0.0876
 7760SOL    HW234917   2.161   4.688   7.399  0.0270 -0.6983 -0.9787
 7761SOL     OW34918   3.467   3.161   4.483  0.4585 -0.2219 -0.2425
 7761SOL    HW134919   3.446   3.218   4.558  1.3851 -3.6600  2.6110
 7761SOL    HW234920   3.541   3.113   4.519 -0.0316  0.9800  2.3811
 7762SOL     OW34921   2.017   4.396   5.013 -0.1769  0.0681 -0.1788
 7762SOL    HW134922   2.086   4.448   5.054  0.0742  0.3480 -0.9609
 7762SOL    HW234923   1.942   4.448   5.042 -1.0266 -1.2349 -0.0167
 7763SOL     OW34924   3.565   3.596   6.072 -0.6899  0.1641  0.3634
 7763SOL    HW134925   3.567   3.601   5.976 -1.6899  1.4849  0.4026
 7763SOL    HW234926   3.529   3.684   6.088 -1.3569  0.2680 -1.6539
 7764SOL     OW34927   3.168   1.921   6.014  0.0699 -0.0771  0.0887
 7764SOL    HW134928   3.231   1.964   5.956  0.9008  2.6163  2.9873
 7764SOL    HW234929   3.221   1.851   6.053  3.4702  1.3261 -2.0017
 7765SOL     OW34930   3.129   1.290  17.005  0.2243 -0.6164  0.1767
 7765SOL    HW134931   3.172   1.370  17.034 -0.5776 -0.5797  1.2870
 7765SOL    HW234932   3.140   1.303  16.911  0.1330 -0.8687  0.1319
 7766SOL     OW34933   2.569   0.104   8.420 -0.0088  0.8933 -0.1056
 7766SOL    HW134934   2.563   0.026   8.366  1.2347  0.3925  0.4631
 7766SOL    HW234935   2.511   0.087   8.494  1.1430 -2.0171  0.1367
 7767SOL     OW34936   3.014   4.400   5.537 -0.6642 -0.4594  0.2434
 7767SOL    HW134937   3.038   4.430   5.625  2.2300  0.0213 -0.7117
 7767SOL    HW234938   3.004   4.307   5.559 -1.0561 -0.0600  1.7526
 7768SOL     OW34939   0.783   2.299   5.349  0.0638 -0.2219 -0.1228
 7768SOL    HW134940   0.732   2.361   5.296  0.3825 -1.9497 -2.4689
 7768SOL    HW234941   0.871   2.330   5.328 -1.4142  1.0607 -4.5116
 7769SOL     OW34942   4.288   0.197   6.924  0.1893  0.4331  0.1523
 7769SOL    HW134943   4.264   0.114   6.883 -1.7875  1.9563 -1.8030
 7769SOL    HW234944   4.199   0.233   6.933 -0.0353 -0.4430  1.3843
 7770SOL     OW34945   2.935   0.797   7.251  0.3570  0.2370 -0.2479
 7770SOL    HW134946   2.940   0.818   7.158 -1.0358 -0.9505 -0.5790
 7770SOL    HW234947   2.935   0.885   7.288  0.8132  0.8174 -1.6373
 7771SOL     OW34948   2.330   3.204  17.357 -0.2593 -0.2205 -0.0440
 7771SOL    HW134949   2.242   3.230  17.385  0.6763  1.6565  1.2030
 7771SOL    HW234950   2.354   3.285  17.311 -1.3427  0.6164  0.8760
 7772SOL     OW34951   0.724   3.383   2.845 -0.4068 -0.0474  0.5062
 7772SOL    HW134952   0.744   3.463   2.893  3.1840 -0.2368 -0.7038
 7772SOL    HW234953   0.725   3.316   2.913  0.2769  0.1707  0.7101
 7773SOL     OW34954   1.439   2.608  12.236 -0.0547 -0.5233  0.4158
 7773SOL    HW134955   1.353   2.643  12.215 -0.3701 -0.8781  1.1435
 7773SOL    HW234956   1.494   2.686  12.226 -3.4987  1.5458 -2.2738
 7774SOL     OW34957   1.844   2.791   8.797 -0.3620  0.4782  0.3859
 7774SOL    HW134958   1.779   2.831   8.855  1.3758  1.9578  1.3082
 7774SOL    HW234959   1.832   2.848   8.721 -0.3555  2.8348  2.1606
 7775SOL     OW34960   1.089   2.999   8.675  0.2134 -0.0632 -0.0816
 7775SOL    HW134961   1.038   3.008   8.594  0.4298  1.3256 -0.0655
 7775SOL    HW234962   1.145   2.922   8.668  2.8041  1.6000  2.3735
 7776SOL     OW34963   2.225   3.822  16.200 -0.4818  0.1585 -0.2634
 7776SOL    HW134964   2.273   3.905  16.201  1.6884 -1.0646 -1.4866
 7776SOL    HW234965   2.146   3.843  16.249  0.4859 -0.1155  1.3842
 7777SOL     OW34966   4.536   3.951   4.780  0.7619  0.0870  0.3427
 7777SOL    HW134967   4.446   3.924   4.801  0.2836  0.9224 -0.6121
 7777SOL    HW234968   4.537   4.031   4.834  1.7873  0.4429 -0.2173
 7778SOL     OW34969   3.021   3.727  16.307 -0.0823  0.8586 -0.1976
 7778SOL    HW134970   3.066   3.808  16.331 -0.8071  0.2787  3.2756
 7778SOL    HW234971   3.088   3.666  16.277 -0.3209  0.4552  0.0795
 7779SOL     OW34972   1.274   3.668   2.758  0.1094  0.1389 -0.2806
 7779SOL    HW134973   1.318   3.683   2.674 -0.5378  2.6397 -0.1641
 7779SOL    HW234974   1.197   3.621   2.725  0.2671 -0.7879  0.6799
 7780SOL     OW34975   3.248   3.671   2.170  0.4944 -0.0222  0.3254
 7780SOL    HW134976   3.343   3.679   2.159  0.6158  0.1584  1.5542
 7780SOL    HW234977   3.225   3.651   2.079  1.4415 -2.9601  0.7638
 7781SOL     OW34978   3.648   4.572   4.361 -0.0445  0.4504 -0.3072
 7781SOL    HW134979   3.744   4.567   4.358  0.0680  3.3970 -1.2703
 7781SOL    HW234980   3.634   4.636   4.431  0.8371  1.6702 -1.2676
 7782SOL     OW34981   2.871   3.649   4.037 -0.5558  0.0042  0.2142
 7782SOL    HW134982   2.844   3.597   3.962  3.1829 -0.7890 -0.6059
 7782SOL    HW234983   2.829   3.730   4.008 -0.8444 -0.1551  0.1873
 7783SOL     OW34984   1.067   3.985   4.030  0.6770  0.8635  0.2869
 7783SOL    HW134985   1.149   3.993   3.980 -0.0284 -0.6168 -1.0921
 7783SOL    HW234986   1.071   4.061   4.089  0.2612  0.2623  1.0925
 7784SOL     OW34987   3.766   0.453   7.327 -0.4117 -0.3738  0.0787
 7784SOL    HW134988   3.688   0.508   7.336 -0.3250 -0.5044  1.6416
 7784SOL    HW234989   3.735   0.367   7.355 -3.0981  0.5956  0.0911
 7785SOL     OW34990   1.025   2.586   1.352  0.1674  0.3768 -0.3549
 7785SOL    HW134991   0.943   2.634   1.365  0.5732  0.0627  3.1801
 7785SOL    HW234992   1.086   2.645   1.396 -0.6061  1.1360 -0.2956
 7786SOL     OW34993   0.523   3.696   9.601 -0.4377  0.0465  0.5144
 7786SOL    HW134994   0.591   3.744   9.649 -0.7759  3.0284 -1.9846
 7786SOL    HW234995   0.543   3.613   9.644 -1.2975 -0.5796 -0.2858
 7787SOL     OW34996   0.199   4.732   6.122 -0.3673  0.0797 -0.0708
 7787SOL    HW134997   0.277   0.042   6.145 -0.7665  1.2658 -1.2749
 7787SOL    HW234998   0.194   4.690   6.207  0.3896 -1.4230 -0.7610
 7788SOL     OW34999   4.330   3.800   1.960 -0.0195 -0.1533 -0.9581
 7788SOL    HW135000   4.291   3.749   2.031  2.2235  0.4401  0.6832
 7788SOL    HW235001   4.411   3.832   2.000 -0.2941  0.7039 -1.0888
 7789SOL     OW35002   4.383   0.332   7.313 -0.1709  0.2036 -0.0467
 7789SOL    HW135003   4.322   0.374   7.374 -0.6407 -1.1743  0.4258
 7789SOL    HW235004   4.466   0.348   7.358  0.1600 -1.0428 -0.2155
 7790SOL     OW35005   0.171   1.995  12.331  0.5167  0.3635 -0.1852
 7790SOL    HW135006   0.082   1.968  12.309  0.2493 -0.0100  1.3116
 7790SOL    HW235007   0.164   2.090  12.336 -0.8369  0.3618 -2.0866
 7791SOL     OW35008   3.837   1.204   8.243 -0.4640  0.4685 -0.5002
 7791SOL    HW135009   3.872   1.179   8.328  1.0639  2.4490 -0.5445
 7791SOL    HW235010   3.839   1.125   8.190  0.2441 -0.1916  0.5037
 7792SOL     OW35011   2.242   0.012   4.626  0.3072  0.6268  0.4541
 7792SOL    HW135012   2.315   4.725   4.571 -0.6651 -1.2420  0.0762
 7792SOL    HW235013   2.203   4.668   4.651  0.7249  0.5309  0.7855
 7793SOL     OW35014   0.931   2.881   2.145 -0.1348  0.6026 -0.1843
 7793SOL    HW135015   0.896   2.824   2.214 -0.1865  0.4287 -0.3535
 7793SOL    HW235016   0.898   2.836   2.068  5.1990  1.2295 -2.7810
 7794SOL     OW35017   0.798   0.059   2.625  0.3433 -0.9038  0.5585
 7794SOL    HW135018   0.779   4.731   2.561  0.7773 -0.3302 -0.1742
 7794SOL    HW235019   0.844   0.125   2.573  1.5123 -1.9334  0.3061
 7795SOL     OW35020   3.638   1.977   8.875  0.1848 -0.1879 -0.6514
 7795SOL    HW135021   3.732   1.969   8.887  0.1635  1.8352  0.9394
 7795SOL    HW235022   3.620   2.035   8.949 -0.9712 -1.7645  0.3059
 7796SOL     OW35023   2.531   4.088   8.992  0.1842 -0.2368  0.1834
 7796SOL    HW135024   2.534   4.176   8.954 -0.0110  0.4953  1.8776
 7796SOL    HW235025   2.455   4.050   8.949 -1.9297  0.4572  3.3222
 7797SOL     OW35026   3.633   0.634   6.044  0.5539  0.5483  0.3987
 7797SOL    HW135027   3.560   0.651   5.985  0.3088 -2.1457 -0.0884
 7797SOL    HW235028   3.666   0.553   6.007  1.7798  2.2451 -2.1637
 7798SOL     OW35029   1.810   1.719   4.054 -0.0386 -0.4438 -0.3591
 7798SOL    HW135030   1.766   1.803   4.040 -0.0624 -0.6350 -1.4265
 7798SOL    HW235031   1.740   1.658   4.030 -2.4476  1.1840  2.5053
 7799SOL     OW35032   4.339   1.689   1.508  0.9854 -0.2196 -0.3669
 7799SOL    HW135033   4.304   1.720   1.592  1.8865 -0.6038  0.1393
 7799SOL    HW235034   4.270   1.724   1.451 -0.0507 -1.2108  0.2743
 7800SOL     OW35035   4.352   0.232   2.582 -0.0138  0.3464 -0.7204
 7800SOL    HW135036   4.271   0.241   2.533 -0.6394 -0.5124  0.1681
 7800SOL    HW235037   4.362   0.318   2.625  1.5266  0.3949 -1.1690
 7801SOL     OW35038   0.504   1.781   7.122  0.0515 -0.0650  0.1757
 7801SOL    HW135039   0.461   1.738   7.196 -1.0606 -0.4839 -0.7092
 7801SOL    HW235040   0.582   1.726   7.117 -0.8605 -1.2598 -0.8122
 7802SOL     OW35041   1.752   2.056   7.382 -0.1485  0.4222 -0.3523
 7802SOL    HW135042   1.743   1.964   7.358 -3.1688  0.6807 -0.1101
 7802SOL    HW235043   1.843   2.054   7.352  0.1698 -0.2516  0.6859
 7803SOL     OW35044   3.678   4.421   6.667  0.2115  0.6629  0.6323
 7803SOL    HW135045   3.759   4.393   6.624  0.8213  0.8783  1.6622
 7803SOL    HW235046   3.706   4.470   6.744 -1.9896 -0.4208  2.1050
 7804SOL     OW35047   3.648   2.182   3.095  0.1626  0.3613  0.2001
 7804SOL    HW135048   3.603   2.224   3.022  1.6556  1.7375  0.0650
 7804SOL    HW235049   3.584   2.198   3.164  0.2663 -0.1345  0.4141
 7805SOL     OW35050   0.902   1.281   7.555 -0.5526 -0.3610 -0.7514
 7805SOL    HW135051   0.871   1.314   7.639  1.5809  0.6847 -0.3658
 7805SOL    HW235052   0.984   1.242   7.585  0.6870  0.9785 -2.3675
 7806SOL     OW35053   1.398   1.453  10.160 -0.0954  0.3921  0.4438
 7806SOL    HW135054   1.432   1.464  10.072  0.7529  0.5839  0.8005
 7806SOL    HW235055   1.349   1.532  10.184  0.3076  0.8904 -0.3900
 7807SOL     OW35056   3.415   1.073   4.949  0.6089 -0.1977 -0.4404
 7807SOL    HW135057   3.509   1.070   4.929  0.5343 -1.4551 -0.5643
 7807SOL    HW235058   3.406   0.991   4.997 -1.1579  0.3419  0.1451
 7808SOL     OW35059   0.274   0.487   9.047  0.2582 -0.8293  0.0305
 7808SOL    HW135060   0.195   0.514   9.093  0.4952  0.9163 -0.5969
 7808SOL    HW235061   0.234   0.406   9.017 -0.6653 -0.2150 -0.3839
 7809SOL     OW35062   4.493   2.053   7.618 -0.5036  0.3373 -0.6480
 7809SOL    HW135063   4.497   2.039   7.523 -2.1097  1.3615 -0.8608
 7809SOL    HW235064   4.587   2.065   7.635 -0.2867 -3.4061  0.7367
 7810SOL     OW35065   3.125   0.794   9.728 -0.3220  0.3115 -0.2111
 7810SOL    HW135066   3.095   0.708   9.756 -0.1178 -0.6646 -3.0491
 7810SOL    HW235067   3.143   0.827   9.816 -1.6550  0.1453  0.1293
 7811SOL     OW35068   1.577   2.154   3.593 -0.0471 -0.5447 -0.2320
 7811SOL    HW135069   1.564   2.071   3.639 -1.4265  0.9136  2.0371
 7811SOL    HW235070   1.652   2.184   3.644 -0.1592  1.6811 -1.3599
 7812SOL     OW35071   3.845   2.276   7.215  0.2850  0.3327 -0.7564
 7812SOL    HW135072   3.924   2.251   7.167 -0.2465 -1.8282 -0.5140
 7812SOL    HW235073   3.812   2.193   7.249  1.1132  0.8914  1.4547
 7813SOL     OW35074   4.220   3.577   2.061  1.1591  0.7427  0.3354
 7813SOL    HW135075   4.138   3.569   2.013  1.2344 -0.3416  0.4034
 7813SOL    HW235076   4.284   3.549   1.996 -0.0736 -0.7854 -0.2021
 7814SOL     OW35077   1.001   1.515   3.586  0.5255 -0.7311 -0.1015
 7814SOL    HW135078   1.058   1.570   3.532  0.8200 -0.4241  0.5209
 7814SOL    HW235079   1.016   1.435   3.537  1.1219 -0.6447 -0.0701
 7815SOL     OW35080   4.065   3.747  10.711  0.2387 -0.3248 -0.7531
 7815SOL    HW135081   4.140   3.806  10.709 -0.1666  0.2370  0.8597
 7815SOL    HW235082   4.051   3.734  10.617  0.2000  2.6075 -1.1437
 7816SOL     OW35083   1.912   3.296   6.836 -0.2049 -0.3488  0.1357
 7816SOL    HW135084   1.895   3.386   6.863  1.7137  0.2511 -0.6448
 7816SOL    HW235085   1.967   3.308   6.759  0.6727 -1.2262  0.6159
 7817SOL     OW35086   1.503   4.166   1.658  0.1769  0.2428  0.6376
 7817SOL    HW135087   1.578   4.225   1.655  1.1317 -1.0746 -1.5530
 7817SOL    HW235088   1.437   4.219   1.613 -0.6583  0.3989  2.0614
 7818SOL     OW35089   2.452   4.645   6.280  0.3087 -0.0838  0.0564
 7818SOL    HW135090   2.482   4.680   6.364 -0.0349 -0.0881  0.1840
 7818SOL    HW235091   2.532   4.642   6.228  0.9762  0.6101  1.0594
 7819SOL     OW35092   4.668   4.466  15.263 -0.0208  0.2473  0.0906
 7819SOL    HW135093   0.020   4.449  15.286 -0.2433 -0.6025  0.3304
 7819SOL    HW235094   4.633   4.504  15.344  2.5142  1.8658  0.4347
 7820SOL     OW35095   1.751   4.215   9.062  0.2522  0.0665  0.0947
 7820SOL    HW135096   1.750   4.176   8.975 -0.7814  0.9999 -0.3168
 7820SOL    HW235097   1.693   4.290   9.045 -1.2084 -1.1025 -0.1130
 7821SOL     OW35098   4.524   3.745   6.076 -0.0124 -0.2382  0.5481
 7821SOL    HW135099   4.477   3.744   5.993  2.5152  1.6276 -0.9002
 7821SOL    HW235100   4.450   3.747   6.137  1.3543 -1.5133  2.2483
 7822SOL     OW35101   4.087   3.404   7.681  0.1720  0.2648 -0.2070
 7822SOL    HW135102   4.078   3.355   7.599  0.0055 -1.6700  0.9846
 7822SOL    HW235103   4.053   3.487   7.647 -0.7696 -0.1452 -0.2788
 7823SOL     OW35104   2.200   2.158   1.499  0.0500 -0.0687  0.5708
 7823SOL    HW135105   2.143   2.088   1.532 -1.3165  1.5691  1.7127
 7823SOL    HW235106   2.286   2.129   1.530 -0.2369 -0.1919  1.2672
 7824SOL     OW35107   2.460   1.789   8.932 -0.2335  0.3278  0.3701
 7824SOL    HW135108   2.447   1.695   8.925  2.7250 -0.0781  0.4586
 7824SOL    HW235109   2.465   1.797   9.027 -0.2019  3.5846  0.1028
 7825SOL     OW35110   1.900   0.731   8.105 -0.3120 -0.2393  0.3436
 7825SOL    HW135111   1.941   0.701   8.025 -0.1678  0.4865  0.1416
 7825SOL    HW235112   1.885   0.824   8.087 -0.9351 -0.3898  0.0591
 7826SOL     OW35113   0.007   0.180  17.560  0.4030  0.7542 -0.6495
 7826SOL    HW135114   4.671   0.234  17.542  0.2022  0.5992 -0.2838
 7826SOL    HW235115   4.724   0.087  17.555 -4.2320  1.8540  0.0891
 7827SOL     OW35116   1.704   3.386   0.665  0.1011 -0.5992 -0.2082
 7827SOL    HW135117   1.771   3.434   0.712  0.4896  0.5686 -1.9865
 7827SOL    HW235118   1.633   3.380   0.730 -2.0446 -0.7629 -2.5774
 7828SOL     OW35119   0.069   0.692   6.189  0.0655  0.1924  0.3741
 7828SOL    HW135120   0.068   0.600   6.162 -0.8060 -0.2783  1.9888
 7828SOL    HW235121   0.072   0.685   6.285 -2.4159  1.7264  0.5523
 7829SOL     OW35122   0.125   1.756   7.413 -0.0714  0.1523 -0.6986
 7829SOL    HW135123   0.215   1.738   7.384 -0.1682 -0.2774 -0.7381
 7829SOL    HW235124   0.101   1.671   7.450  0.1765  0.1509 -0.5356
 7830SOL     OW35125   1.467   2.431   3.962  0.3594 -0.1015 -0.0284
 7830SOL    HW135126   1.495   2.521   3.980 -1.3092  0.4866 -0.3844
 7830SOL    HW235127   1.375   2.435   3.934 -0.1651 -0.0856  1.7399
 7831SOL     OW35128   4.379   0.467   1.963  0.0655 -0.2467 -0.2340
 7831SOL    HW135129   4.432   0.485   1.886  0.9496 -1.3358  0.1244
 7831SOL    HW235130   4.356   0.376   1.944  0.2589 -0.5631  1.0725
 7832SOL     OW35131   1.682   0.403  12.832 -0.0289 -0.6303  0.8591
 7832SOL    HW135132   1.673   0.337  12.901 -0.9546 -0.2543  1.1013
 7832SOL    HW235133   1.773   0.421  12.859  0.6778 -0.7644 -1.4147
 7833SOL     OW35134   1.326   3.104   1.905 -0.4525 -0.0014 -0.6915
 7833SOL    HW135135   1.298   3.190   1.936 -1.3298 -0.3333 -0.5589
 7833SOL    HW235136   1.252   3.047   1.922  0.4445 -0.7972  0.5466
 7834SOL     OW35137   2.379   3.627   8.513  0.1178  0.0803 -0.2025
 7834SOL    HW135138   2.439   3.552   8.516 -0.5876 -0.4013  1.6379
 7834SOL    HW235139   2.296   3.593   8.480 -0.9632 -1.6051  4.2905
 7835SOL     OW35140   2.886   1.860   7.878  0.6747 -0.5264 -0.5771
 7835SOL    HW135141   2.889   1.954   7.899 -0.6838 -1.1198  2.2187
 7835SOL    HW235142   2.958   1.856   7.815  2.9139 -1.8907  2.0877
 7836SOL     OW35143   3.362   3.911  12.810 -0.6261 -0.7364  0.1685
 7836SOL    HW135144   3.366   3.866  12.725  0.9030 -1.8615  0.8306
 7836SOL    HW235145   3.301   3.852  12.854 -1.8731  1.9353  2.0016
 7837SOL     OW35146   0.744   1.439   5.861 -0.1303  0.1555 -0.3915
 7837SOL    HW135147   0.834   1.418   5.834  0.4309  0.9809  0.8188
 7837SOL    HW235148   0.764   1.468   5.950  2.4962  0.6763 -1.1380
 7838SOL     OW35149   1.604   1.824  16.467 -0.2963  0.4765 -0.7578
 7838SOL    HW135150   1.577   1.792  16.381  0.6735  0.5338 -1.0845
 7838SOL    HW235151   1.673   1.881  16.434 -0.1510  1.0882  0.6046
 7839SOL     OW35152   2.288   1.431   3.104  0.0590 -0.5103  0.1919
 7839SOL    HW135153   2.320   1.467   3.187 -0.2901  0.9695 -0.3172
 7839SOL    HW235154   2.360   1.423   3.041 -2.6828  0.4143 -3.0433
 7840SOL     OW35155   3.437   4.148   5.878 -0.4651  0.2849  0.9703
 7840SOL    HW135156   3.417   4.055   5.866 -0.7809  0.5992 -0.9887
 7840SOL    HW235157   3.397   4.161   5.964 -1.0210  2.9503  0.2895
 7841SOL     OW35158   2.315   0.503   4.797  0.2512 -0.1899  0.1419
 7841SOL    HW135159   2.385   0.438   4.792  1.5031  0.9402  2.8065
 7841SOL    HW235160   2.315   0.546   4.883  2.3539  0.3007 -0.1083
 7842SOL     OW35161   2.434   2.390   9.195 -0.8624  0.2625  0.3789
 7842SOL    HW135162   2.511   2.337   9.216 -0.3324  0.8725 -0.0373
 7842SOL    HW235163   2.399   2.404   9.283 -1.9349 -2.0223  0.2989
 7843SOL     OW35164   0.254   3.176   7.909  0.4708 -0.3246 -0.2688
 7843SOL    HW135165   0.245   3.200   8.001  0.4216 -0.4228 -0.2480
 7843SOL    HW235166   0.168   3.205   7.878  0.2614 -1.4841 -0.7924
 7844SOL     OW35167   1.874   0.830  16.740  0.2299  0.2603 -0.0250
 7844SOL    HW135168   1.873   0.830  16.645 -0.2740  0.4531 -0.0186
 7844SOL    HW235169   1.870   0.923  16.762  1.1696 -0.1597  1.9984
 7845SOL     OW35170   3.954   0.926   4.141  0.5107  0.3359  0.2590
 7845SOL    HW135171   3.907   0.908   4.059  1.3300  2.2177 -0.6522
 7845SOL    HW235172   3.883   0.954   4.199 -0.1466 -2.4873  0.7950
 7846SOL     OW35173   4.656   0.268  15.978  0.0086  0.2650 -0.2055
 7846SOL    HW135174   0.012   0.266  15.987 -0.0965  0.1450  0.9256
 7846SOL    HW235175   4.639   0.361  15.995  1.2334  0.0996  1.8734
 7847SOL     OW35176   1.463   4.099   6.733 -0.8346  0.2669  0.4880
 7847SOL    HW135177   1.487   4.134   6.648 -0.9057 -2.6097 -0.7040
 7847SOL    HW235178   1.551   4.075   6.762 -1.6506  0.4962  3.1977
 7848SOL     OW35179   4.251   2.982   7.753  0.4529 -0.4597 -0.0914
 7848SOL    HW135180   4.283   2.927   7.682  2.9494 -0.3641  0.9693
 7848SOL    HW235181   4.326   3.041   7.762  0.8444 -0.9815  0.0348
 7849SOL     OW35182   1.221   1.337   4.993 -0.1913 -0.0398 -0.2997
 7849SOL    HW135183   1.246   1.246   4.973 -2.3457 -1.2839  2.7510
 7849SOL    HW235184   1.257   1.377   4.914  0.2299  2.5109  1.2024
 7850SOL     OW35185   0.925   0.921   6.458  0.1132 -0.0626  0.5705
 7850SOL    HW135186   0.873   0.926   6.538 -1.3760  0.2342 -0.4190
 7850SOL    HW235187   0.986   0.995   6.465 -1.9428  1.6415  0.6075
 7851SOL     OW35188   1.332   3.653   6.678  0.1100  0.5581  0.2628
 7851SOL    HW135189   1.313   3.693   6.763  1.1158  0.0524  0.7262
 7851SOL    HW235190   1.282   3.706   6.617  1.3133  1.0647 -0.2706
 7852SOL     OW35191   3.499   4.400   6.169 -0.0164  0.1181 -0.1665
 7852SOL    HW135192   3.409   4.417   6.143  0.1567  1.9305  0.4531
 7852SOL    HW235193   3.510   4.450   6.249 -1.3211 -1.2228  0.8559
 7853SOL     OW35194   3.511   3.027  15.254  0.6197 -0.2359 -0.1117
 7853SOL    HW135195   3.553   3.093  15.309 -0.9523  1.6476 -1.1634
 7853SOL    HW235196   3.459   2.988  15.325 -0.6727 -0.4683 -1.1808
 7854SOL     OW35197   3.144   3.153   8.908  0.1716 -0.0104 -0.4100
 7854SOL    HW135198   3.085   3.228   8.915  0.2255  0.2408 -2.5508
 7854SOL    HW235199   3.212   3.195   8.855  0.0705 -1.5098 -1.7110
 7855SOL     OW35200   3.549   3.168  10.368 -0.4494 -0.4189  0.5034
 7855SOL    HW135201   3.573   3.085  10.327 -0.4890  1.3869 -3.1009
 7855SOL    HW235202   3.615   3.165  10.437  0.9776 -0.1591 -0.8546
 7856SOL     OW35203   4.413   2.365  15.640  0.0667 -0.4166 -0.5949
 7856SOL    HW135204   4.438   2.430  15.705  0.2400  1.2617 -2.3342
 7856SOL    HW235205   4.399   2.286  15.692  2.7613 -0.7100 -0.3178
 7857SOL     OW35206   0.195   2.970  14.999 -0.6177 -0.3880 -0.4525
 7857SOL    HW135207   0.274   3.003  14.956 -0.3990  3.7459  3.0928
 7857SOL    HW235208   0.223   2.927  15.079 -4.2249  0.7043  1.3917
 7858SOL     OW35209   4.413   0.196   1.853 -0.0627  0.1523 -0.0443
 7858SOL    HW135210   4.479   0.160   1.913  1.2478  1.1944 -0.8549
 7858SOL    HW235211   4.448   0.265   1.797 -0.4685 -0.5805 -1.1785
 7859SOL     OW35212   0.087   1.675  12.117 -0.5826 -0.1986 -0.4443
 7859SOL    HW135213   0.022   1.667  12.047 -1.8358 -0.5101  0.7348
 7859SOL    HW235214   0.046   1.621  12.185 -2.0256  1.4358 -0.0027
 7860SOL     OW35215   0.887   1.846   5.449 -0.0387 -0.1699 -0.0974
 7860SOL    HW135216   0.890   1.919   5.510 -3.7453  0.4506 -0.6597
 7860SOL    HW235217   0.886   1.775   5.514  1.5658 -0.8180 -0.7633
 7861SOL     OW35218   3.549   4.475   1.973  0.5185  0.1725 -0.2299
 7861SOL    HW135219   3.503   4.415   2.032 -0.5350  1.2552  0.0514
 7861SOL    HW235220   3.642   4.453   1.971  0.3194 -0.8206  0.8375
 7862SOL     OW35221   3.470   2.109   3.393 -0.0553  0.0779 -0.0293
 7862SOL    HW135222   3.478   2.036   3.332 -3.7996  0.6338 -1.2084
 7862SOL    HW235223   3.376   2.128   3.395  0.0103  0.4311 -0.5063
 7863SOL     OW35224   4.277   0.007  13.876 -0.2594  0.5884  0.3642
 7863SOL    HW135225   4.318   4.699  13.949  1.7452 -0.5524 -1.5306
 7863SOL    HW235226   4.190   0.027  13.912  0.6826  1.6995  2.0032
 7864SOL     OW35227   2.081   4.140  13.694  0.1550 -0.0439 -0.0258
 7864SOL    HW135228   2.127   4.183  13.766  0.1285 -0.5439  0.2888
 7864SOL    HW235229   2.001   4.192  13.689 -0.1657 -0.6514 -1.2685
 7865SOL     OW35230   3.360   2.912   1.223 -0.5064 -0.0791 -0.2351
 7865SOL    HW135231   3.327   2.973   1.289 -1.0532 -0.1832 -0.4140
 7865SOL    HW235232   3.450   2.895   1.252  0.2947  0.3191 -2.5354
 7866SOL     OW35233   1.521   1.472   8.807  0.0826  0.4955  0.0632
 7866SOL    HW135234   1.435   1.502   8.838 -1.3017 -3.2273 -0.1093
 7866SOL    HW235235   1.546   1.521   8.729 -0.4276  1.2183  0.3496
 7867SOL     OW35236   3.817   2.306  14.928 -0.5855 -0.7024 -0.7644
 7867SOL    HW135237   3.856   2.330  14.844  1.5179 -1.1868  0.0622
 7867SOL    HW235238   3.878   2.247  14.972 -2.3761 -1.3455  0.8634
 7868SOL     OW35239   3.963   1.847  16.406  0.2444 -0.2068  0.5197
 7868SOL    HW135240   4.055   1.822  16.395  0.0001 -1.3065  0.9654
 7868SOL    HW235241   3.927   1.814  16.323  0.0551 -1.3491  1.0544
 7869SOL     OW35242   4.121   2.282   4.594 -0.2034  0.2829 -0.2765
 7869SOL    HW135243   4.038   2.328   4.577  0.1836  1.7703  1.8812
 7869SOL    HW235244   4.154   2.266   4.506 -1.5408  0.9339 -0.8961
 7870SOL     OW35245   3.295   4.516   3.328  0.4419  0.7891  0.1470
 7870SOL    HW135246   3.269   4.608   3.328  2.5338  1.3718 -0.0615
 7870SOL    HW235247   3.387   4.508   3.305  0.0671 -3.1227 -0.0536
 7871SOL     OW35248   4.008   2.255   5.840 -0.3145  0.7497 -0.1218
 7871SOL    HW135249   4.091   2.294   5.869  0.6921 -0.2570 -1.6570
 7871SOL    HW235250   3.984   2.196   5.912 -0.9426 -0.3394 -1.2191
 7872SOL     OW35251   3.957   1.836  17.585  0.5700 -0.0249 -0.7931
 7872SOL    HW135252   3.932   1.799  17.670 -1.7964  0.0410 -1.4462
 7872SOL    HW235253   3.939   1.762  17.528 -2.1128  2.0005 -2.5867
 7873SOL     OW35254   3.224   1.618  16.738 -0.0017  0.5232 -0.1705
 7873SOL    HW135255   3.292   1.649  16.677 -0.1876  3.1532  0.9968
 7873SOL    HW235256   3.217   1.699  16.788  0.4497 -0.5587  1.6351
 7874SOL     OW35257   3.775   0.712   6.758  0.2144  1.1514 -0.6397
 7874SOL    HW135258   3.836   0.769   6.711  2.4813 -0.6522  0.1443
 7874SOL    HW235259   3.826   0.636   6.786 -1.1133  0.7173  0.5566
 7875SOL     OW35260   4.199   0.902   4.918  0.1335 -0.4228  0.3682
 7875SOL    HW135261   4.250   0.885   4.839  0.4752  0.4144  0.3989
 7875SOL    HW235262   4.258   0.865   4.984  0.8054 -1.8587 -1.0343
 7876SOL     OW35263   1.200   4.472  11.627  0.0967  0.1007 -0.0175
 7876SOL    HW135264   1.188   4.425  11.709  1.0748  1.7068  1.0511
 7876SOL    HW235265   1.137   4.425  11.573 -2.7095  1.6050  1.9089
 7877SOL     OW35266   2.195   2.419   8.808 -0.5260 -0.5886 -0.2426
 7877SOL    HW135267   2.152   2.447   8.889  3.0597  2.9849  0.4031
 7877SOL    HW235268   2.282   2.424   8.847 -0.6904 -0.0900  0.0648
 7878SOL     OW35269   0.043   3.352   5.334 -0.2202  0.2154  0.3362
 7878SOL    HW135270   0.078   3.265   5.312  1.9887  0.9776  0.8948
 7878SOL    HW235271   0.076   3.399   5.258 -2.2576 -0.2102 -0.8317
 7879SOL     OW35272   2.905   3.537   1.620  0.4763 -0.0860  0.1480
 7879SOL    HW135273   2.945   3.451   1.603 -0.3217 -0.6495  1.0886
 7879SOL    HW235274   2.891   3.530   1.714 -1.0477 -0.3839 -0.1055
 7880SOL     OW35275   3.896   3.862   4.332  0.8156 -0.5056 -0.2146
 7880SOL    HW135276   3.914   3.932   4.395 -1.6717  0.4794 -0.5772
 7880SOL    HW235277   3.958   3.791   4.349  1.2765 -0.3388 -1.1780
 7881SOL     OW35278   4.602   2.985   3.466 -0.0982 -0.2527 -0.6737
 7881SOL    HW135279   4.511   3.005   3.488 -0.8724 -0.6047 -3.5567
 7881SOL    HW235280   4.643   3.065   3.433  2.1116 -1.2840 -0.4618
 7882SOL     OW35281   1.034   2.223   5.210 -0.3058  0.2435  0.0091
 7882SOL    HW135282   1.112   2.242   5.158  0.4128 -1.7410  0.3628
 7882SOL    HW235283   1.015   2.312   5.239 -1.4014  0.1422 -0.3947
 7883SOL     OW35284   3.733   3.897  11.030  0.2467 -0.0361 -0.2056
 7883SOL    HW135285   3.736   3.886  11.125 -0.9025  1.6743  0.0291
 7883SOL    HW235286   3.764   3.988  11.030 -1.9385  0.7185 -2.0101
 7884SOL     OW35287   0.667   3.821   9.828 -0.1226 -0.2669 -0.0005
 7884SOL    HW135288   0.729   3.769   9.879 -0.4788  0.3001  1.0292
 7884SOL    HW235289   0.719   3.895   9.796  0.4417 -1.3398 -1.5678
 7885SOL     OW35290   0.719   0.646  13.378  0.3337  0.3969  0.5957
 7885SOL    HW135291   0.679   0.602  13.453  1.5621  0.3080  1.1963
 7885SOL    HW235292   0.763   0.566  13.347  0.6611  1.3811 -1.4759
 7886SOL     OW35293   0.037   0.369   5.149  0.2732 -0.5259 -0.1030
 7886SOL    HW135294   0.014   0.277   5.132 -1.4047 -0.1611  0.1130
 7886SOL    HW235295   0.124   0.365   5.188 -1.0133 -0.7434  2.8200
 7887SOL     OW35296   0.326   2.131   3.490 -0.0241 -0.1009 -0.2237
 7887SOL    HW135297   0.340   2.038   3.476  1.1876  0.5178 -3.2060
 7887SOL    HW235298   0.231   2.143   3.503 -0.1355 -0.2828 -0.8746
 7888SOL     OW35299   3.899   4.684   5.133  0.2289 -0.2431 -0.3465
 7888SOL    HW135300   3.905   4.716   5.043 -0.4644  0.0452 -0.2913
 7888SOL    HW235301   3.822   4.729   5.167 -0.9555 -1.1601 -1.8520
 7889SOL     OW35302   4.595   4.493   2.067  0.2055 -0.1638 -0.0220
 7889SOL    HW135303   4.681   4.459   2.091  0.3706 -0.0777 -0.5133
 7889SOL    HW235304   4.549   4.470   2.148 -1.1749 -1.5809 -1.2073
 7890SOL     OW35305   3.168   1.007   2.016  0.1090  0.0139 -0.4910
 7890SOL    HW135306   3.251   0.995   1.970  1.7512  0.9348  2.2296
 7890SOL    HW235307   3.206   1.027   2.101  0.0358  1.4767 -0.8056
 7891SOL     OW35308   2.299   4.259   8.598 -0.4125  0.0012 -0.4627
 7891SOL    HW135309   2.351   4.280   8.521 -0.1321 -0.5381 -0.4177
 7891SOL    HW235310   2.365   4.226   8.659 -0.3599  0.6246 -0.1804
 7892SOL     OW35311   4.324   0.238   3.010  0.1404  0.1449  0.1798
 7892SOL    HW135312   4.329   0.165   3.072  0.9946  0.5508  0.5969
 7892SOL    HW235313   4.411   0.253   2.974  1.5931  1.6810  4.3362
 7893SOL     OW35314   2.227   3.632  13.547 -0.4085 -0.2883  0.0613
 7893SOL    HW135315   2.259   3.658  13.460  0.8439  2.0062  1.2116
 7893SOL    HW235316   2.253   3.713  13.591  1.7273  0.5652 -2.7539
 7894SOL     OW35317   0.449   3.492   0.622  0.2162  0.4491  0.0875
 7894SOL    HW135318   0.366   3.444   0.630  0.6697 -0.5267 -1.1809
 7894SOL    HW235319   0.422   3.573   0.666 -1.1426  0.8333 -1.4369
 7895SOL     OW35320   1.595   1.442   5.063 -0.3438  0.3583  0.4388
 7895SOL    HW135321   1.529   1.460   4.996  0.4560  1.0648 -0.1536
 7895SOL    HW235322   1.535   1.430   5.136 -0.2018  0.5811  0.5899
 7896SOL     OW35323   0.279   3.780  14.547 -0.4333 -0.3738 -0.1688
 7896SOL    HW135324   0.256   3.867  14.516 -0.1063 -0.0626  0.4472
 7896SOL    HW235325   0.195   3.735  14.540  0.0173 -1.4942  1.6395
 7897SOL     OW35326   1.237   3.796   3.340  0.0913 -0.1276  0.2993
 7897SOL    HW135327   1.268   3.708   3.318  0.1896  0.1622 -0.7222
 7897SOL    HW235328   1.321   3.839   3.357  0.7721 -0.9754 -0.8862
 7898SOL     OW35329   2.025   2.373   1.652  0.6363  0.2074  0.4602
 7898SOL    HW135330   1.964   2.300   1.645  2.5763 -1.2952 -0.6554
 7898SOL    HW235331   2.088   2.337   1.714 -1.0959 -1.5589  1.2030
 7899SOL     OW35332   1.873   0.703  13.147  0.3905 -0.5348 -0.4302
 7899SOL    HW135333   1.963   0.734  13.135  1.7037 -3.7715  0.8898
 7899SOL    HW235334   1.883   0.611  13.169 -0.3489 -1.1948 -2.8913
 7900SOL     OW35335   3.599   4.264   6.996 -0.1032  0.2748  0.2533
 7900SOL    HW135336   3.634   4.350   6.971 -1.0077 -0.1649 -2.4910
 7900SOL    HW235337   3.673   4.204   6.988 -1.1578 -1.1146  0.9408
 7901SOL     OW35338   4.390   3.585   7.198 -0.1394 -0.4034  0.3850
 7901SOL    HW135339   4.361   3.497   7.222  0.7939 -0.5076  1.1086
 7901SOL    HW235340   4.332   3.643   7.246 -3.0643  0.8680 -4.6946
 7902SOL     OW35341   2.426   0.691   9.461  0.4312 -0.3762 -0.0192
 7902SOL    HW135342   2.477   0.611   9.447  0.2860 -0.3363 -0.8209
 7902SOL    HW235343   2.456   0.733   9.541 -0.6698 -0.7743  0.5944
 7903SOL     OW35344   3.668   1.843  10.531 -0.7020  0.2463  1.1806
 7903SOL    HW135345   3.727   1.902  10.579  2.0650 -3.2871  2.0914
 7903SOL    HW235346   3.718   1.778  10.483 -0.8093  0.3713  0.8977
 7904SOL     OW35347   0.986   4.225   7.976 -0.6208 -0.3958  0.1680
 7904SOL    HW135348   1.047   4.201   8.045  0.3821 -0.6411 -0.8050
 7904SOL    HW235349   0.944   4.305   8.009 -2.3300 -2.1147  2.1302
 7905SOL     OW35350   1.598   3.639   3.500 -0.1476  0.2317  0.0962
 7905SOL    HW135351   1.550   3.561   3.528 -0.0720 -0.5658 -1.9453
 7905SOL    HW235352   1.670   3.600   3.450 -0.5885 -0.5325  0.0506
 7906SOL     OW35353   0.284   1.659   5.315 -0.1855 -0.0760  0.1929
 7906SOL    HW135354   0.341   1.735   5.329  0.9203 -0.8106 -0.3899
 7906SOL    HW235355   0.201   1.703   5.297 -0.2241  0.1636  0.9666
 7907SOL     OW35356   2.092   2.378   1.356  0.0090  0.3450  0.2548
 7907SOL    HW135357   2.023   2.397   1.419  1.4277 -0.8101  2.1471
 7907SOL    HW235358   2.142   2.320   1.413  1.2688  2.3172  1.1468
 7908SOL     OW35359   0.389   3.689   3.587  0.7348 -0.2341  0.4190
 7908SOL    HW135360   0.354   3.663   3.502  0.7301  1.8262 -0.2125
 7908SOL    HW235361   0.467   3.740   3.566  1.5259 -1.8513 -0.5412
 7909SOL     OW35362   3.410   3.545  15.644  0.3258  0.0765  0.2104
 7909SOL    HW135363   3.369   3.532  15.559  0.2446  2.0923 -0.0587
 7909SOL    HW235364   3.490   3.511  15.604  2.2343  1.6580  2.6302
 7910SOL     OW35365   1.744   0.585  12.631 -0.3362 -0.8009 -0.7268
 7910SOL    HW135366   1.747   0.584  12.726  0.7773  0.5209 -0.7428
 7910SOL    HW235367   1.670   0.642  12.609 -1.4681 -2.3321 -0.9037
 7911SOL     OW35368   1.314   1.144   9.604  0.0491  0.0533  0.1465
 7911SOL    HW135369   1.308   1.157   9.698  0.4655  3.0879 -0.2300
 7911SOL    HW235370   1.404   1.161   9.576 -0.3279  0.1339 -1.0527
 7912SOL     OW35371   0.363   1.146   7.495 -0.3968 -0.1191  0.6970
 7912SOL    HW135372   0.347   1.077   7.432 -1.4570  1.6804 -1.0087
 7912SOL    HW235373   0.416   1.111   7.566  0.1507 -0.0586  0.3213
 7913SOL     OW35374   2.581   0.968   3.732 -0.3337  0.3339 -1.0437
 7913SOL    HW135375   2.546   0.903   3.672 -2.4545  0.7463 -0.2542
 7913SOL    HW235376   2.629   0.925   3.802 -2.0128  1.3959  0.7649
 7914SOL     OW35377   1.925   2.811  16.696 -0.1396  0.5460 -0.0976
 7914SOL    HW135378   1.874   2.876  16.648 -0.6937  0.8272  0.8586
 7914SOL    HW235379   1.955   2.862  16.771  0.2029 -0.5815  0.5329
 7915SOL     OW35380   1.324   0.946   4.159  0.2583 -0.5120 -0.1150
 7915SOL    HW135381   1.348   0.997   4.237 -0.9748  1.5254 -1.0484
 7915SOL    HW235382   1.325   1.016   4.094 -0.5231 -0.4711 -0.0810
 7916SOL     OW35383   2.988   1.693   4.573 -0.7112  0.3452  0.0552
 7916SOL    HW135384   2.963   1.603   4.597  0.1414 -0.0689 -0.6034
 7916SOL    HW235385   2.945   1.700   4.488 -1.8474  0.1298  0.6142
 7917SOL     OW35386   4.247   4.652  11.451  0.2190  0.7464  0.9530
 7917SOL    HW135387   4.311   4.661  11.521  0.5186  1.6724  0.5698
 7917SOL    HW235388   4.302   4.592  11.400 -0.3721  0.8849  0.1376
 7918SOL     OW35389   1.506   0.644   6.584  0.3495  0.4982  0.2095
 7918SOL    HW135390   1.596   0.669   6.560  0.1424 -0.2907 -1.3720
 7918SOL    HW235391   1.490   0.726   6.631  2.0346 -0.2730  2.1177
 7919SOL     OW35392   0.938   3.889  16.252  0.2939 -0.1539 -0.6546
 7919SOL    HW135393   0.877   3.933  16.312  0.3053  0.8178 -1.3496
 7919SOL    HW235394   1.010   3.862  16.309 -1.2858  0.5603  1.6947
 7920SOL     OW35395   2.033   4.559  14.529  0.5846 -0.0828 -0.0541
 7920SOL    HW135396   2.098   4.604  14.475  1.1617  0.5841  1.2045
 7920SOL    HW235397   2.039   4.609  14.610  2.7018  0.4287 -0.5371
 7921SOL     OW35398   2.125   0.340   8.918  0.0250 -0.0757  0.4624
 7921SOL    HW135399   2.121   0.275   8.988  1.5491 -0.2392  0.4007
 7921SOL    HW235400   2.137   0.416   8.975 -2.0406  0.4963  0.1510
 7922SOL     OW35401   2.686   2.225   3.670 -0.2038 -0.5134  0.4338
 7922SOL    HW135402   2.661   2.173   3.746 -1.5036  0.0275  0.3699
 7922SOL    HW235403   2.602   2.235   3.626 -0.5105 -2.6278  0.5377
 7923SOL     OW35404   2.583   4.345   1.729  0.2901 -0.1986  0.4172
 7923SOL    HW135405   2.557   4.357   1.638 -0.7776 -1.6592  0.5367
 7923SOL    HW235406   2.553   4.257   1.750 -0.2671 -0.2082 -0.4316
 7924SOL     OW35407   3.815   4.059  14.275 -0.4787  0.3557  0.5321
 7924SOL    HW135408   3.757   4.133  14.294 -1.0099  0.2470 -0.6274
 7924SOL    HW235409   3.837   4.022  14.360  1.7070 -0.5066 -0.4136
 7925SOL     OW35410   1.806   3.979  11.774  0.1361 -0.3979  0.2190
 7925SOL    HW135411   1.854   4.031  11.838 -1.1895  0.1150  0.8109
 7925SOL    HW235412   1.810   3.888  11.803  2.4092 -0.1112  0.8203
 7926SOL     OW35413   3.361   0.398  16.260  0.6017 -0.3427 -0.1552
 7926SOL    HW135414   3.358   0.465  16.193 -0.8816  2.4130  2.6460
 7926SOL    HW235415   3.354   0.319  16.206  0.2854 -1.4058  1.4346
 7927SOL     OW35416   4.028   3.014   3.558 -0.1465 -0.4368 -0.0091
 7927SOL    HW135417   4.037   3.108   3.545 -0.4826 -0.3520  0.3540
 7927SOL    HW235418   4.115   2.991   3.591  0.0636 -2.4042 -1.9788
 7928SOL     OW35419   0.963   2.817   2.528 -0.0254  0.3700 -0.0134
 7928SOL    HW135420   0.970   2.876   2.603  0.2228  1.1233 -0.6328
 7928SOL    HW235421   1.056   2.801   2.518 -0.0223 -0.7075  1.7585
 7929SOL     OW35422   3.286   1.691   0.667  0.2417 -0.4186  0.3528
 7929SOL    HW135423   3.221   1.635   0.625  1.0224 -1.1761  0.1481
 7929SOL    HW235424   3.356   1.687   0.602 -0.5386 -0.3979 -0.4886
 7930SOL     OW35425   2.970   2.460   1.127  0.1812 -0.6754  0.5140
 7930SOL    HW135426   2.970   2.514   1.047 -0.7867  1.3237  1.8758
 7930SOL    HW235427   2.936   2.526   1.187 -2.1223 -0.8285 -0.6050
 7931SOL     OW35428   1.893   3.761  12.819  0.1557  0.4299 -0.3686
 7931SOL    HW135429   1.848   3.845  12.812  0.6402  0.5787 -1.5949
 7931SOL    HW235430   1.968   3.771  12.877  1.0931  0.7519 -1.6504
 7932SOL     OW35431   2.399   0.345   7.581  0.3475 -0.1587  0.1143
 7932SOL    HW135432   2.413   0.346   7.486 -1.3957 -1.3854 -0.1571
 7932SOL    HW235433   2.488   0.353   7.614  0.0875  0.3039  0.6928
 7933SOL     OW35434   2.882   1.980  10.961 -0.2107  0.5201 -1.3063
 7933SOL    HW135435   2.922   2.037  10.896  2.0232  1.5986  0.9722
 7933SOL    HW235436   2.808   2.039  10.971 -2.5607 -2.5976 -0.3612
 7934SOL     OW35437   4.217   2.288   8.299  0.1993  0.0922  0.3951
 7934SOL    HW135438   4.303   2.331   8.307  0.3858 -0.2545  0.2596
 7934SOL    HW235439   4.207   2.309   8.206 -0.2657 -0.7234  0.2660
 7935SOL     OW35440   2.502   3.189   8.363  0.5530 -0.0092  0.0893
 7935SOL    HW135441   2.544   3.106   8.385  0.2018 -0.4241 -0.8111
 7935SOL    HW235442   2.465   3.177   8.276 -0.6074 -0.8473  0.6961
 7936SOL     OW35443   3.864   3.501  11.696  0.0429 -0.5295 -0.5882
 7936SOL    HW135444   3.929   3.434  11.715 -0.0753 -0.3377  0.5074
 7936SOL    HW235445   3.884   3.539  11.610 -2.2918 -0.3512 -1.0490
 7937SOL     OW35446   0.558   4.499  11.551  0.4564 -0.3620  0.0645
 7937SOL    HW135447   0.627   4.505  11.617  1.0661 -0.9384 -0.5139
 7937SOL    HW235448   0.512   4.419  11.575  1.2815 -0.5169  1.1072
 7938SOL     OW35449   3.893   3.471   3.624 -0.2220  0.4766  0.0324
 7938SOL    HW135450   3.896   3.508   3.535 -2.3535  0.8262  0.1084
 7938SOL    HW235451   3.818   3.512   3.665 -1.7156 -0.2256 -1.9828
 7939SOL     OW35452   2.537   4.678   6.860  0.4176  0.2880 -0.1840
 7939SOL    HW135453   2.508   0.025   6.835  2.0218  0.8449 -0.0452
 7939SOL    HW235454   2.470   4.659   6.927 -1.8695  3.7043 -1.4959
 7940SOL     OW35455   0.622   4.739   7.762 -0.0969 -0.3888 -0.9719
 7940SOL    HW135456   0.695   4.687   7.726  1.3552  0.2869  1.0050
 7940SOL    HW235457   0.548   4.690   7.725 -1.2177 -0.9789  2.1170
 7941SOL     OW35458   2.082   3.449   1.792  0.3050 -0.4374 -0.0909
 7941SOL    HW135459   2.077   3.472   1.884  0.5387 -0.2814 -0.1188
 7941SOL    HW235460   2.171   3.465   1.762  0.7273  0.6575  1.7857
 7942SOL     OW35461   1.971   3.226   9.791  0.1880 -0.7753  0.0862
 7942SOL    HW135462   1.982   3.262   9.879  1.7570 -0.6088 -0.1849
 7942SOL    HW235463   1.886   3.257   9.757 -0.2786  0.0758  2.0509
 7943SOL     OW35464   4.188   0.029   3.267 -0.1495  0.2886  0.1252
 7943SOL    HW135465   4.263   0.048   3.324  1.0163 -1.4765 -0.8490
 7943SOL    HW235466   4.123   0.007   3.335  1.7966  1.2756  2.3057
 7944SOL     OW35467   3.066   2.023  14.782  0.3384  0.1232 -0.2154
 7944SOL    HW135468   3.041   2.095  14.725  0.5537  0.4285  0.0802
 7944SOL    HW235469   3.141   2.000  14.727  0.1284  0.8295 -0.8008
 7945SOL     OW35470   3.790   0.372  12.917 -0.2815 -0.2303  0.1092
 7945SOL    HW135471   3.785   0.293  12.863  0.4196 -0.6941  0.7242
 7945SOL    HW235472   3.785   0.326  13.001 -1.7805 -0.0504  0.1259
 7946SOL     OW35473   0.748   0.799   7.471 -0.2299 -0.1984  0.1311
 7946SOL    HW135474   0.833   0.844   7.470 -1.3549  1.9085 -1.8044
 7946SOL    HW235475   0.710   0.842   7.548 -1.0025  0.5183 -0.6507
 7947SOL     OW35476   2.712   1.810   5.632  0.0235  0.4581 -0.4080
 7947SOL    HW135477   2.771   1.882   5.612  0.4397  0.3232  0.3754
 7947SOL    HW235478   2.633   1.822   5.578 -0.1614 -0.7694 -0.4114
 7948SOL     OW35479   1.902   1.871   8.279 -0.5571  0.7371 -0.5496
 7948SOL    HW135480   1.970   1.916   8.228 -1.7482  3.1906  0.0577
 7948SOL    HW235481   1.882   1.798   8.220 -1.0091  2.8732 -3.0670
 7949SOL     OW35482   4.039   1.038   5.080 -0.1149  0.1968 -0.1033
 7949SOL    HW135483   4.104   0.989   5.030  1.9833  0.6803  2.1465
 7949SOL    HW235484   4.049   1.006   5.169 -2.0571 -0.6518 -0.2024
 7950SOL     OW35485   0.787   1.554   7.450 -0.1866 -0.3523 -0.3769
 7950SOL    HW135486   0.810   1.478   7.504 -0.3294  0.3557  0.6628
 7950SOL    HW235487   0.854   1.612   7.484  0.4713 -0.6101 -1.2417
 7951SOL     OW35488   1.358   4.275  16.827 -0.6399  0.1355 -0.1922
 7951SOL    HW135489   1.326   4.316  16.908 -0.5135 -0.3065  0.0801
 7951SOL    HW235490   1.332   4.187  16.853 -1.0189 -0.0494 -1.1837
 7952SOL     OW35491   2.824   1.137   4.510 -0.6997 -0.2940 -0.3044
 7952SOL    HW135492   2.773   1.079   4.454 -2.1822 -0.3112  1.0713
 7952SOL    HW235493   2.887   1.076   4.550 -1.5856 -1.5416 -0.8241
 7953SOL     OW35494   0.566   0.381   8.828  0.8064 -0.2642  0.7872
 7953SOL    HW135495   0.484   0.330   8.830  1.1489 -0.8682 -0.6185
 7953SOL    HW235496   0.554   0.424   8.744 -0.5727 -1.8650  0.1674
 7954SOL     OW35497   0.166   1.584   6.606 -0.1992  0.0501  0.0161
 7954SOL    HW135498   0.254   1.548   6.615 -0.4265  0.4915  4.0085
 7954SOL    HW235499   0.168   1.661   6.548  1.4952  0.2506  0.3510
 7955SOL     OW35500   1.427   2.293   7.655  0.1287 -0.6068 -0.4598
 7955SOL    HW135501   1.429   2.336   7.570 -0.5746  0.4332  0.0561
 7955SOL    HW235502   1.519   2.267   7.667  0.2645  0.5057  0.9201
 7956SOL     OW35503   3.243   4.261  11.702 -0.2813 -0.1297 -0.3084
 7956SOL    HW135504   3.221   4.264  11.609 -2.5079 -0.7325  0.1921
 7956SOL    HW235505   3.199   4.337  11.740  0.1144  0.7164 -1.5359
 7957SOL     OW35506   1.962   2.889  13.973 -0.0779 -0.9248  0.0011
 7957SOL    HW135507   2.027   2.824  13.999  0.8128  0.1593  0.5223
 7957SOL    HW235508   1.880   2.842  13.991  0.2945 -0.5379  2.7645
 7958SOL     OW35509   3.106   0.233   5.842  0.1300  0.1830 -0.0241
 7958SOL    HW135510   3.197   0.211   5.822  0.0506  1.9085 -2.2234
 7958SOL    HW235511   3.115   0.257   5.935 -2.7405 -0.2033  0.3647
 7959SOL     OW35512   2.427   4.356   3.316 -0.5087  0.1059  0.1791
 7959SOL    HW135513   2.443   4.353   3.222 -1.1833 -5.2181  0.2854
 7959SOL    HW235514   2.443   4.268   3.348  0.7740  0.6858  1.1166
 7960SOL     OW35515   2.615   3.170   8.864 -0.2940 -0.0862 -0.0992
 7960SOL    HW135516   2.670   3.231   8.816 -1.2492  1.4802  0.7994
 7960SOL    HW235517   2.538   3.178   8.809 -1.2001  0.2179  1.2219
 7961SOL     OW35518   0.799   2.629   6.298 -0.1717  0.3818 -0.3596
 7961SOL    HW135519   0.830   2.712   6.263  1.8400 -0.7848 -1.3425
 7961SOL    HW235520   0.768   2.642   6.388  0.9940 -1.3221  0.2939
 7962SOL     OW35521   2.343   1.760   6.706  0.0588 -0.2046  0.1809
 7962SOL    HW135522   2.276   1.699   6.676 -0.3016  0.2212  0.1277
 7962SOL    HW235523   2.395   1.702   6.763  1.4136  0.2472 -0.6040
 7963SOL     OW35524   1.795   2.133   9.740 -0.1936  0.3357 -0.4144
 7963SOL    HW135525   1.852   2.207   9.761 -0.9977  0.6895  0.5681
 7963SOL    HW235526   1.815   2.127   9.647  1.8576 -1.4502  0.1322
 7964SOL     OW35527   1.774   1.136   9.883  0.4294 -0.5069 -0.0714
 7964SOL    HW135528   1.778   1.206   9.948  1.8452 -0.8484  0.2102
 7964SOL    HW235529   1.840   1.164   9.819  0.6699 -2.8749 -0.8660
 7965SOL     OW35530   0.825   4.489   5.704  0.3954 -0.1966 -0.2661
 7965SOL    HW135531   0.914   4.521   5.719 -1.3155  2.5829  3.9544
 7965SOL    HW235532   0.841   4.406   5.750  1.4979 -0.4728 -1.1371
 7966SOL     OW35533   0.006   3.804  10.863  0.0296 -0.0894 -0.3056
 7966SOL    HW135534   0.091   3.774  10.833  0.0963 -1.0113  0.7973
 7966SOL    HW235535   0.010   3.889  10.820  0.8744  0.1106  0.1633
 7967SOL     OW35536   3.634   0.455   3.420  0.2564 -0.2606  0.5138
 7967SOL    HW135537   3.708   0.421   3.470  1.2304  1.8214  0.4904
 7967SOL    HW235538   3.634   0.545   3.453 -0.9966 -0.0271 -0.1303
 7968SOL     OW35539   4.481   4.401   2.313  0.1061 -0.0245 -0.0770
 7968SOL    HW135540   4.473   4.414   2.407 -0.3756 -3.4127  0.3556
 7968SOL    HW235541   4.398   4.360   2.289 -0.3859  0.7032  0.3716
 7969SOL     OW35542   2.258   4.051   5.265 -0.2353 -0.8207 -0.0460
 7969SOL    HW135543   2.249   4.098   5.182 -2.4184 -0.5200  0.3668
 7969SOL    HW235544   2.266   3.963   5.229  1.0134 -1.2408  1.2745
 7970SOL     OW35545   0.392   2.238   0.737 -0.9324  0.0723  0.0559
 7970SOL    HW135546   0.311   2.235   0.788  0.6397  0.5469  2.5295
 7970SOL    HW235547   0.362   2.202   0.653  0.4823 -0.7021 -0.1230
 7971SOL     OW35548   1.020   2.989   2.992 -0.0819  0.2169  0.3572
 7971SOL    HW135549   0.972   2.954   3.068 -0.6452 -0.2398 -0.2133
 7971SOL    HW235550   1.103   2.946   3.012 -0.6664 -1.5700 -1.0640
 7972SOL     OW35551   2.206   1.963  14.262  0.4233 -0.0445  0.5083
 7972SOL    HW135552   2.210   2.040  14.319 -1.2252  0.4935 -0.0771
 7972SOL    HW235553   2.203   1.993  14.171 -2.0755  0.4325  0.7372
 7973SOL     OW35554   1.716   1.189   4.926  0.3693  0.3526 -0.3116
 7973SOL    HW135555   1.701   1.212   4.834 -0.1224  1.6447  0.0868
 7973SOL    HW235556   1.727   1.276   4.965  3.1511 -0.0312 -0.2707
 7974SOL     OW35557   1.479   3.985   6.432  0.0089  0.5244 -1.1767
 7974SOL    HW135558   1.445   3.972   6.344  0.8289  0.3392 -1.4619
 7974SOL    HW235559   1.560   3.935   6.436 -0.4863 -0.1403  0.6190
 7975SOL     OW35560   3.286   1.603   2.098  0.3119  0.1478 -0.1116
 7975SOL    HW135561   3.288   1.641   2.010  2.8336  0.0655 -0.1081
 7975SOL    HW235562   3.251   1.679   2.143 -0.9731 -1.4032  1.4707
 7976SOL     OW35563   0.793   2.456   2.361  0.3436 -0.3166  0.0313
 7976SOL    HW135564   0.702   2.474   2.383  0.2615 -1.4785  0.6087
 7976SOL    HW235565   0.808   2.464   2.267 -1.2155  1.0760 -0.1042
 7977SOL     OW35566   2.236   1.648   5.950 -0.0438  0.0494 -0.2151
 7977SOL    HW135567   2.317   1.669   5.994 -0.4252  0.2575  0.3819
 7977SOL    HW235568   2.177   1.718   5.978 -0.7470 -0.5955 -0.0885
 7978SOL     OW35569   0.647   1.016   0.010 -0.3090  0.9560  0.2509
 7978SOL    HW135570   0.594   0.988  17.693 -3.1909  1.1443  2.2020
 7978SOL    HW235571   0.729   1.031  17.721  0.2860 -4.4630 -0.4978
 7979SOL     OW35572   4.635   0.300  10.867 -0.0032 -0.4704 -0.2276
 7979SOL    HW135573   4.688   0.303  10.947 -0.4826 -0.1474  0.0727
 7979SOL    HW235574   4.657   0.207  10.854  1.3813 -0.3579  1.2019
 7980SOL     OW35575   0.617   4.601   0.903 -0.2012  0.4710  0.0717
 7980SOL    HW135576   0.624   4.625   0.995 -1.9949 -0.2660  0.3850
 7980SOL    HW235577   0.694   4.649   0.872 -1.9974  2.0325 -1.9115
 7981SOL     OW35578   3.593   1.108   8.461 -0.4914 -0.0753 -0.2678
 7981SOL    HW135579   3.670   1.164   8.452  0.6036 -1.6478 -0.7054
 7981SOL    HW235580   3.625   1.026   8.422  0.9192  0.5757 -0.5041
 7982SOL     OW35581   0.114   1.996   4.012 -0.3346  0.4245 -0.1449
 7982SOL    HW135582   0.175   1.933   4.051 -0.8833 -0.4716 -0.7372
 7982SOL    HW235583   0.089   2.049   4.088  1.3350 -1.0233  1.4199
 7983SOL     OW35584   0.196   2.604   2.357 -0.0579  0.3154  0.1610
 7983SOL    HW135585   0.245   2.620   2.438  0.3861 -0.0789 -0.0299
 7983SOL    HW235586   0.186   2.509   2.354  1.5753  0.1203  1.3312
 7984SOL     OW35587   4.338   2.748   0.559  0.1416  0.6078 -0.0686
 7984SOL    HW135588   4.307   2.724   0.647 -3.1216 -0.3675 -1.4703
 7984SOL    HW235589   4.265   2.723   0.502  0.1819 -0.1486  0.2175
 7985SOL     OW35590   2.872   1.041   7.388  0.1090 -0.1929 -0.4184
 7985SOL    HW135591   2.846   0.979   7.456  0.7949  1.7376  1.6037
 7985SOL    HW235592   2.910   1.108   7.445 -2.0491  1.0620 -0.4328
 7986SOL     OW35593   4.537   2.469  12.227 -0.1855  0.0946  0.3407
 7986SOL    HW135594   4.481   2.450  12.152 -1.8387  1.2913  1.2682
 7986SOL    HW235595   4.621   2.450  12.185 -1.0753  0.4486 -1.5973
 7987SOL     OW35596   0.479   2.584   8.138  0.3152 -0.4294  0.6060
 7987SOL    HW135597   0.466   2.632   8.056 -0.0359 -0.3232  0.7239
 7987SOL    HW235598   0.519   2.504   8.104  3.0025  0.9436  0.5405
 7988SOL     OW35599   2.885   1.408   9.295 -0.1614  0.4601 -0.3191
 7988SOL    HW135600   2.863   1.391   9.203  1.7929 -0.6801 -0.5883
 7988SOL    HW235601   2.970   1.364   9.297 -0.6966 -0.5464  0.6082
 7989SOL     OW35602   3.135   2.633   7.743 -0.2571  0.1056  0.3755
 7989SOL    HW135603   3.048   2.673   7.740  0.4209  1.5996  0.4009
 7989SOL    HW235604   3.187   2.705   7.707 -0.1324  0.2527  0.8468
 7990SOL     OW35605   3.439   1.511  12.148 -0.7847 -0.8561 -0.0926
 7990SOL    HW135606   3.468   1.527  12.058  0.2336 -0.3348  0.3226
 7990SOL    HW235607   3.434   1.595  12.193 -0.5529 -0.2177 -1.2557
 7991SOL     OW35608   1.034   3.153   0.259  0.4068 -0.7892 -0.0322
 7991SOL    HW135609   0.981   3.143   0.337  0.3794 -0.0308  0.0528
 7991SOL    HW235610   1.123   3.141   0.292  0.9456 -2.2983 -2.0413
 7992SOL     OW35611   4.513   4.127   8.026  0.0716  0.0918  0.2056
 7992SOL    HW135612   4.517   4.203   7.968 -1.7815  0.2456  0.2914
 7992SOL    HW235613   4.606   4.124   8.049  0.4841 -3.5854 -1.9387
 7993SOL     OW35614   0.105   0.312   7.693  0.8369  0.1762 -0.0553
 7993SOL    HW135615   0.175   0.285   7.634 -0.7397 -1.0080 -1.3874
 7993SOL    HW235616   0.129   0.405   7.694  0.0858  0.4054 -3.0755
 7994SOL     OW35617   2.189   3.088   7.173 -0.4757 -0.0075 -0.1496
 7994SOL    HW135618   2.118   3.149   7.156 -0.4614 -0.0135 -0.2318
 7994SOL    HW235619   2.185   3.089   7.269  1.5125 -2.4006 -0.0292
 7995SOL     OW35620   1.293   0.948  12.955  0.0054  0.1890 -0.3049
 7995SOL    HW135621   1.279   0.937  12.861 -0.8904 -0.8971 -0.0483
 7995SOL    HW235622   1.307   0.858  12.986 -2.5513 -0.2012 -0.2610
 7996SOL     OW35623   0.019   2.576   4.395  0.2039  0.3626 -0.0550
 7996SOL    HW135624   0.003   2.642   4.462 -1.7122 -0.3276  0.1681
 7996SOL    HW235625   0.095   2.610   4.349  0.7904  0.5278  1.0443
 7997SOL     OW35626   2.458   0.712  11.104  0.2809 -0.0021  0.0610
 7997SOL    HW135627   2.548   0.706  11.072  0.4242 -1.3786  0.7134
 7997SOL    HW235628   2.469   0.671  11.190 -0.7518  0.1945  0.2906
 7998SOL     OW35629   0.410   4.599   7.635  0.1977 -0.3696  0.1769
 7998SOL    HW135630   0.389   4.507   7.648 -0.7495 -0.1646  0.1328
 7998SOL    HW235631   0.342   4.643   7.687 -1.4030 -1.0863 -1.3373
 7999SOL     OW35632   0.633   4.333   2.947 -0.7495  0.3382 -0.1549
 7999SOL    HW135633   0.663   4.414   2.989  2.4200  0.4395 -2.6758
 7999SOL    HW235634   0.705   4.309   2.890 -2.2921 -1.4737 -1.3414
 8000SOL     OW35635   2.792   0.136   3.461  0.1415 -0.1642 -0.1052
 8000SOL    HW135636   2.803   0.153   3.554  0.7095 -0.3630 -0.1408
 8000SOL    HW235637   2.706   0.092   3.459 -0.9957  2.1438 -2.0603
 8001SOL     OW35638   1.416   0.116   3.795  0.0904 -0.0763 -0.2678
 8001SOL    HW135639   1.383   0.047   3.737 -1.7993  0.0658  0.6475
 8001SOL    HW235640   1.427   0.186   3.731  0.0743  1.2157  1.1675
 8002SOL     OW35641   0.098   3.779  13.126 -0.3676 -0.1781 -0.0209
 8002SOL    HW135642   0.182   3.733  13.128  0.1259  0.7611  0.3497
 8002SOL    HW235643   0.103   3.850  13.190 -1.1847  1.6984 -2.0362
 8003SOL     OW35644   1.335   0.954  16.044 -0.4185  0.2389  0.1306
 8003SOL    HW135645   1.426   0.925  16.035 -0.1198  0.8319  1.1824
 8003SOL    HW235646   1.328   1.046  16.018 -1.3173 -0.0951 -0.8268
 8004SOL     OW35647   3.920   1.367   6.689 -0.2603 -0.2059 -0.8456
 8004SOL    HW135648   3.920   1.462   6.679 -0.5611 -0.3399 -2.0852
 8004SOL    HW235649   3.827   1.352   6.671 -0.9642  2.3419  0.7192
 8005SOL     OW35650   3.710   3.159  15.887  0.8637 -0.1346  0.3526
 8005SOL    HW135651   3.638   3.220  15.892  0.9694 -0.1118  1.4537
 8005SOL    HW235652   3.694   3.117  15.802  3.4666 -1.3724  0.4584
 8006SOL     OW35653   3.851   4.535   6.076  0.0786  0.0032 -0.0555
 8006SOL    HW135654   3.923   4.500   6.128 -1.0699 -1.7273  0.3719
 8006SOL    HW235655   3.801   4.457   6.051  0.0596 -0.2896  0.9022
 8007SOL     OW35656   0.409   1.890   3.659 -0.4734 -0.0355  0.3060
 8007SOL    HW135657   0.422   1.839   3.739 -0.5945 -3.8555 -2.0561
 8007SOL    HW235658   0.430   1.977   3.691  0.3855 -0.5446  1.1210
 8008SOL     OW35659   0.671   4.372  11.950 -0.5462  0.0842  0.0346
 8008SOL    HW135660   0.708   4.299  11.999 -0.0761  0.5838  0.4292
 8008SOL    HW235661   0.603   4.322  11.904 -0.0986 -0.9978  0.5735
 8009SOL     OW35662   4.589   0.967   2.461 -0.3784  0.0976  0.3986
 8009SOL    HW135663   4.630   0.922   2.388  1.1474  1.4958  0.4135
 8009SOL    HW235664   4.660   1.004   2.513 -0.2409 -0.2411  0.4558
 8010SOL     OW35665   2.677   3.943  14.906 -0.3697 -0.1466  0.4018
 8010SOL    HW135666   2.686   4.036  14.930 -1.8243  0.0231  0.3189
 8010SOL    HW235667   2.666   3.955  14.811  1.0301  1.3061  0.4185
 8011SOL     OW35668   1.672   0.172  11.694  0.5506 -0.4543  0.0023
 8011SOL    HW135669   1.718   0.094  11.723  0.3533  0.4694  2.8280
 8011SOL    HW235670   1.663   0.164  11.599  0.7835 -2.6598  0.1786
 8012SOL     OW35671   3.170   4.323   8.453  0.4558 -0.4673 -0.2314
 8012SOL    HW135672   3.131   4.240   8.425 -0.0516 -1.0405  2.1356
 8012SOL    HW235673   3.141   4.368   8.374 -0.1533  0.8802  0.7562
 8013SOL     OW35674   1.317   3.636   8.624  0.1180  0.1322 -0.1368
 8013SOL    HW135675   1.281   3.582   8.553  1.5133 -2.9769  1.4963
 8013SOL    HW235676   1.351   3.564   8.678 -1.7650 -0.4984  0.1890
 8014SOL     OW35677   1.799   4.159  12.600 -0.0757  0.0120  0.3948
 8014SOL    HW135678   1.820   4.234  12.656 -0.5908  0.6236 -0.2260
 8014SOL    HW235679   1.886   4.147  12.561 -0.1095 -1.6559  0.8417
 8015SOL     OW35680   2.106   3.986   0.609 -0.1516  0.6576 -0.3288
 8015SOL    HW135681   2.124   4.067   0.562 -1.5822 -0.5807 -3.0196
 8015SOL    HW235682   2.011   3.975   0.611 -0.0558 -0.2147 -0.3645
 8016SOL     OW35683   0.823   2.997   9.865 -0.6358 -0.4446  0.8667
 8016SOL    HW135684   0.774   2.929   9.818  0.4368 -1.4054  1.1446
 8016SOL    HW235685   0.866   2.953   9.939  2.7205 -1.0695 -1.4942
 8017SOL     OW35686   0.302   0.548   4.421  0.0905  0.5267  0.1098
 8017SOL    HW135687   0.269   0.487   4.487  0.1679  0.2724 -0.0852
 8017SOL    HW235688   0.307   0.500   4.338  0.4380  0.1667  0.3382
 8018SOL     OW35689   0.657   1.247  12.276  0.1921  0.0115 -0.1150
 8018SOL    HW135690   0.647   1.167  12.224  1.5056  0.8970 -1.7095
 8018SOL    HW235691   0.622   1.205  12.355  2.3653  0.9757  1.3618
 8019SOL     OW35692   2.628   3.463   6.591 -0.6988 -0.4463 -0.3792
 8019SOL    HW135693   2.672   3.433   6.512 -0.4575 -0.0675 -0.3873
 8019SOL    HW235694   2.675   3.407   6.653  0.8613  1.2333 -0.0689
 8020SOL     OW35695   2.022   0.529   2.884 -0.2657 -0.0452  0.2764
 8020SOL    HW135696   1.981   0.613   2.862 -2.5404 -0.8468  1.5191
 8020SOL    HW235697   2.102   0.554   2.930  1.1644  0.3496 -2.4041
 8021SOL     OW35698   2.791   3.539  15.273 -0.3007 -0.4757  0.0687
 8021SOL    HW135699   2.728   3.540  15.345  0.6079  0.2506  0.8486
 8021SOL    HW235700   2.761   3.614  15.222  0.4391 -0.5980 -0.5420
 8022SOL     OW35701   1.937   0.210   1.699  0.5289  0.4227  0.1545
 8022SOL    HW135702   1.975   0.200   1.611  0.4604 -3.1710  0.5264
 8022SOL    HW235703   2.005   0.179   1.759 -0.5760  2.2875  2.3777
 8023SOL     OW35704   3.855   3.257   4.557  0.1267  0.0351  0.5308
 8023SOL    HW135705   3.767   3.224   4.576 -0.1253  0.1328 -0.4672
 8023SOL    HW235706   3.849   3.282   4.465  0.0763  0.7096  0.7159
 8024SOL     OW35707   4.350   1.937  13.023 -0.4532 -0.7822  0.0494
 8024SOL    HW135708   4.423   1.874  13.023  0.8334  0.7153  1.6538
 8024SOL    HW235709   4.277   1.878  13.006 -2.2121  1.3169  0.4081
 8025SOL     OW35710   2.326   1.602  15.209  0.0926  0.0074  0.0128
 8025SOL    HW135711   2.302   1.685  15.166 -2.5193 -0.4568  0.6153
 8025SOL    HW235712   2.265   1.545  15.164  1.0650 -0.6564 -0.4682
 8026SOL     OW35713   1.731   2.180  12.953  0.3630  0.1912 -0.0215
 8026SOL    HW135714   1.660   2.233  12.990  2.5541  3.5870 -0.6009
 8026SOL    HW235715   1.756   2.226  12.873  0.0923 -0.3258 -0.3981
 8027SOL     OW35716   0.330   3.682   6.622  0.3365  0.0991 -0.4698
 8027SOL    HW135717   0.363   3.736   6.551  0.9789 -1.4122 -1.3257
 8027SOL    HW235718   0.375   3.725   6.695  1.9728  1.0827 -2.0853
 8028SOL     OW35719   1.045   4.078   8.565  0.0578  0.9047  0.4602
 8028SOL    HW135720   0.956   4.066   8.530  0.2319 -0.8842  0.6324
 8028SOL    HW235721   1.075   3.988   8.581  1.3461  1.0574 -1.0073
 8029SOL     OW35722   1.383   4.392   8.378  0.2060 -0.3534  0.0160
 8029SOL    HW135723   1.312   4.357   8.431  0.6419  0.0614  0.8776
 8029SOL    HW235724   1.341   4.439   8.306  0.9633  3.5136  2.1085
 8030SOL     OW35725   1.131   3.616   0.292  0.6462  0.0177  0.6874
 8030SOL    HW135726   1.120   3.686   0.228  2.1332 -1.0034 -0.6987
 8030SOL    HW235727   1.221   3.640   0.313  0.4753  0.6713  0.6518
 8031SOL     OW35728   1.767   1.550   6.472  0.7244 -0.3463  0.1361
 8031SOL    HW135729   1.820   1.535   6.393 -2.9640 -0.6484 -2.2588
 8031SOL    HW235730   1.773   1.645   6.477 -0.5725 -0.1795 -1.4739
 8032SOL     OW35731   1.295   1.662  11.755 -0.5836  0.0249  0.1697
 8032SOL    HW135732   1.222   1.685  11.698  0.7395 -2.4703 -2.5467
 8032SOL    HW235733   1.337   1.591  11.706  0.2208 -0.1957  1.1744
 8033SOL     OW35734   2.106   0.335  15.756 -0.2901  0.7976 -0.2766
 8033SOL    HW135735   2.028   0.304  15.801 -0.1559 -0.7413 -1.1295
 8033SOL    HW235736   2.131   0.408  15.813  0.4082 -1.2381  2.0576
 8034SOL     OW35737   0.988   3.888  11.480  0.3445 -0.5592  0.1318
 8034SOL    HW135738   0.920   3.954  11.493 -0.1599 -1.1712  0.6108
 8034SOL    HW235739   0.950   3.846  11.402 -0.2409 -3.3453  1.9124
 8035SOL     OW35740   2.256   1.512   9.186  0.2030  0.1253  0.0042
 8035SOL    HW135741   2.253   1.439   9.248  0.0986  1.0307  1.0839
 8035SOL    HW235742   2.166   1.511   9.151  0.1905  0.7724  0.0043
 8036SOL     OW35743   2.873   0.533   4.523 -0.0004  0.1107 -0.4884
 8036SOL    HW135744   2.861   0.523   4.618 -0.8290 -0.0532 -0.6147
 8036SOL    HW235745   2.849   0.444   4.500 -0.6658 -0.2136  1.4351
 8037SOL     OW35746   2.319   3.121   0.663  0.5124 -0.2790 -0.5152
 8037SOL    HW135747   2.360   3.042   0.699 -0.1514 -0.2996  0.2058
 8037SOL    HW235748   2.338   3.180   0.736 -0.4960 -0.2282 -0.2895
 8038SOL     OW35749   2.145   3.511   7.408 -0.8297  0.6380  0.2932
 8038SOL    HW135750   2.106   3.481   7.491  1.0386 -0.1387  0.8892
 8038SOL    HW235751   2.120   3.603   7.413  1.1641  1.1105  1.6405
 8039SOL     OW35752   0.098   0.587  14.451 -0.1174 -0.5116 -0.7135
 8039SOL    HW135753   0.088   0.500  14.412 -1.4760 -0.4510 -0.5090
 8039SOL    HW235754   0.033   0.573  14.520  0.4494  1.2595  0.1750
 8040SOL     OW35755   3.910   2.507   1.734 -0.1243 -0.1260  0.4697
 8040SOL    HW135756   3.858   2.507   1.654  1.2668  1.5041 -0.4421
 8040SOL    HW235757   3.993   2.510   1.687  0.0707  1.0339  0.8782
 8041SOL     OW35758   1.370   4.492   7.744  0.1700  0.8950 -0.3017
 8041SOL    HW135759   1.348   4.519   7.655  2.0474 -1.7758 -1.5872
 8041SOL    HW235760   1.289   4.524   7.784 -0.7262  2.1593 -3.0689
 8042SOL     OW35761   4.658   1.377   4.228  0.0212 -0.1967  0.6776
 8042SOL    HW135762   4.729   1.319   4.201 -1.8894 -1.0751 -2.4121
 8042SOL    HW235763   4.626   1.392   4.139 -0.8034  1.0514  1.1833
 8043SOL     OW35764   3.289   2.411   6.771 -0.0515  0.0328  0.3746
 8043SOL    HW135765   3.342   2.344   6.815 -1.1845 -0.5827  0.8161
 8043SOL    HW235766   3.228   2.354   6.725  0.4990 -0.4181  0.1988
 8044SOL     OW35767   4.084   4.644   5.864 -0.4783  0.5921 -0.1880
 8044SOL    HW135768   4.057   4.715   5.806 -0.9571  0.8661  0.3686
 8044SOL    HW235769   4.176   4.639   5.840 -0.8367  0.2477 -1.5138
 8045SOL     OW35770   2.138   0.568   1.666  0.1228  0.2305 -0.2696
 8045SOL    HW135771   2.174   0.497   1.613  0.2813 -0.0724  0.2392
 8045SOL    HW235772   2.219   0.615   1.687 -0.8230  2.4854 -1.7562
 8046SOL     OW35773   2.256   2.123   9.818 -0.3368 -0.6852  0.0399
 8046SOL    HW135774   2.298   2.173   9.748 -1.0408  0.4980  0.4572
 8046SOL    HW235775   2.332   2.093   9.867  0.1120  1.8150  0.9129
 8047SOL     OW35776   2.227   3.818   9.082 -0.1234 -0.3476 -0.0235
 8047SOL    HW135777   2.227   3.881   9.009  0.4929  0.1627  0.4209
 8047SOL    HW235778   2.303   3.851   9.130 -0.7892  1.2853 -0.0722
 8048SOL     OW35779   2.329   1.625   4.431 -0.1454  0.3893  0.1956
 8048SOL    HW135780   2.300   1.563   4.364 -0.5548  1.5723 -0.7304
 8048SOL    HW235781   2.409   1.588   4.468  0.9809  2.0406 -0.5735
 8049SOL     OW35782   4.168   3.117   3.995 -0.2737  0.1828 -0.1787
 8049SOL    HW135783   4.183   3.201   3.952  1.0826 -0.6097 -1.2609
 8049SOL    HW235784   4.252   3.076   3.973  0.1809 -0.6798  3.0505
 8050SOL     OW35785   0.043   0.536   9.777  0.2812  0.3750  0.0510
 8050SOL    HW135786   0.079   0.616   9.740 -1.9482  0.9702 -0.8384
 8050SOL    HW235787   0.066   0.478   9.704  0.1537  1.3722 -0.7854
 8051SOL     OW35788   1.950   4.000   5.228 -0.1850  0.1916  0.0156
 8051SOL    HW135789   2.038   4.036   5.235  0.1306 -0.9162  1.7528
 8051SOL    HW235790   1.912   4.029   5.311 -0.9436  2.1566 -1.0350
 8052SOL     OW35791   3.969   2.975  17.022 -0.3086 -0.2330  0.1408
 8052SOL    HW135792   3.914   3.053  17.011  0.4953  0.3409  0.2203
 8052SOL    HW235793   4.031   2.995  17.091 -1.3947 -0.4054  1.1723
 8053SOL     OW35794   4.092   3.224  13.850 -0.6489 -0.8499  0.8043
 8053SOL    HW135795   4.107   3.312  13.816  2.0266 -0.1936  3.6264
 8053SOL    HW235796   4.069   3.242  13.941  1.2350 -1.2594  1.3585
 8054SOL     OW35797   3.375   1.877   3.002  0.2728 -0.4822 -0.5193
 8054SOL    HW135798   3.428   1.897   3.079 -0.2370 -1.0382 -0.0204
 8054SOL    HW235799   3.355   1.964   2.967 -2.1766 -0.6026  0.5462
 8055SOL     OW35800   1.239   2.930  11.391 -0.9568 -0.1169  0.0032
 8055SOL    HW135801   1.222   2.874  11.315  2.3779 -1.5350  0.2784
 8055SOL    HW235802   1.160   2.984  11.399 -0.0133  0.8471  2.7882
 8056SOL     OW35803   3.991   2.069  17.135 -0.2304 -0.3497  0.6978
 8056SOL    HW135804   3.975   2.055  17.041  2.0148 -1.3188  0.4608
 8056SOL    HW235805   4.041   1.991  17.160 -0.4283 -0.8175 -0.3668
 8057SOL     OW35806   0.081   4.603   3.991  0.2524 -0.2919 -0.4755
 8057SOL    HW135807   0.025   4.558   4.054  3.9220  1.3648  4.0127
 8057SOL    HW235808   0.054   4.695   3.982  0.6935 -0.1577 -0.4405
 8058SOL     OW35809   3.673   3.435   5.140  0.3181 -0.1512 -0.8816
 8058SOL    HW135810   3.673   3.442   5.044 -0.7197  1.9811 -0.7280
 8058SOL    HW235811   3.603   3.372   5.158  0.4258 -0.1239 -0.3594
 8059SOL     OW35812   4.029   0.088   4.434  0.5180  0.3531  0.0730
 8059SOL    HW135813   4.046   0.130   4.350 -0.4618  0.6861  0.0436
 8059SOL    HW235814   4.036   0.163   4.492  3.2889  1.0270 -1.1201
 8060SOL     OW35815   4.313   2.656   5.851 -0.7847 -0.2930 -0.1072
 8060SOL    HW135816   4.221   2.677   5.842 -0.2166  1.1209 -2.5631
 8060SOL    HW235817   4.322   2.669   5.945 -1.4776  0.3316 -0.1322
 8061SOL     OW35818   1.685   3.252   9.610 -0.0287  0.9642  0.0969
 8061SOL    HW135819   1.746   3.261   9.538 -0.0036  2.9029  0.3496
 8061SOL    HW235820   1.615   3.315   9.589  0.7748  1.9014  0.2222
 8062SOL     OW35821   2.853   2.511   3.556 -0.8442  0.2823  0.5061
 8062SOL    HW135822   2.801   2.542   3.482 -0.6596  0.5082  0.4716
 8062SOL    HW235823   2.915   2.584   3.554  0.3965 -0.7455  1.4357
 8063SOL     OW35824   3.165   0.239  17.027  0.4677 -0.0819  0.0060
 8063SOL    HW135825   3.071   0.257  17.036  0.3694 -0.4318 -0.3198
 8063SOL    HW235826   3.151   0.216  16.935 -0.1587  1.6765 -0.3333
 8064SOL     OW35827   1.932   1.813   1.800 -0.8674 -0.3881 -0.3368
 8064SOL    HW135828   2.004   1.868   1.831 -1.2026  0.5415 -1.2188
 8064SOL    HW235829   1.896   1.775   1.881 -2.3619  1.6690 -0.0242
 8065SOL     OW35830   2.392   0.067   4.901  0.0920 -0.1129  0.0123
 8065SOL    HW135831   2.384   0.076   4.806  2.3293  2.3892  0.0593
 8065SOL    HW235832   2.300   0.085   4.921 -0.0327 -0.5408 -0.1834
 8066SOL     OW35833   1.874   2.891   7.359 -0.1333 -0.7186  0.0091
 8066SOL    HW135834   1.921   2.961   7.312 -2.5643  1.6803  1.1968
 8066SOL    HW235835   1.791   2.898   7.312 -0.0666 -3.8060 -0.5982
 8067SOL     OW35836   2.306   3.876   5.077  0.5495 -0.0908 -0.3331
 8067SOL    HW135837   2.383   3.929   5.056  0.3232 -0.7913 -3.0562
 8067SOL    HW235838   2.288   3.822   4.999 -2.7573  0.9159 -0.2647
 8068SOL     OW35839   4.414   1.800  10.353 -0.2276 -0.0073  0.5462
 8068SOL    HW135840   4.434   1.892  10.370  1.4132 -0.5035  1.3212
 8068SOL    HW235841   4.442   1.768  10.439 -3.4202 -1.0684  1.1781
 8069SOL     OW35842   3.043   0.233  17.447  0.5364 -0.3195 -0.0747
 8069SOL    HW135843   3.010   0.209  17.534 -0.9493 -1.3892 -0.9272
 8069SOL    HW235844   3.112   0.298  17.462  0.3563 -0.2350  0.3844
 8070SOL     OW35845   0.506   2.577   2.088 -0.5079 -0.0196 -0.2219
 8070SOL    HW135846   0.586   2.526   2.106 -1.2313 -1.7596 -1.8750
 8070SOL    HW235847   0.478   2.611   2.173  3.6349  1.0440  0.7490
 8071SOL     OW35848   1.557   3.601   2.839  0.4366  0.0171 -0.1173
 8071SOL    HW135849   1.596   3.685   2.862  0.2935  0.2798 -0.8271
 8071SOL    HW235850   1.494   3.630   2.772  0.5290  1.2302  0.3235
 8072SOL     OW35851   3.826   4.639   0.433  0.0244 -0.0091 -0.7043
 8072SOL    HW135852   3.917   4.618   0.454  0.2347  0.4568 -1.1617
 8072SOL    HW235853   3.783   4.607   0.513  2.0671  0.8928  0.7544
 8073SOL     OW35854   1.665   3.002   6.570 -0.4725 -0.4549  0.3869
 8073SOL    HW135855   1.598   3.045   6.517  0.1891 -0.7277 -0.6620
 8073SOL    HW235856   1.665   2.914   6.531 -0.5860 -0.4428  0.3585
 8074SOL     OW35857   0.117   1.195   2.033  0.0626  0.5261 -0.0329
 8074SOL    HW135858   0.045   1.204   2.096  0.7613 -1.1737  1.0113
 8074SOL    HW235859   0.060   1.199   1.956  0.2052  0.2709 -0.1510
 8075SOL     OW35860   2.719   1.891   8.563  0.4055  0.6390  0.1198
 8075SOL    HW135861   2.723   1.855   8.652 -0.4200 -1.1568 -0.5561
 8075SOL    HW235862   2.737   1.983   8.582  0.5287  0.3041  1.6076
 8076SOL     OW35863   2.893   1.193  12.286 -0.0339 -0.2675  0.1879
 8076SOL    HW135864   2.852   1.226  12.366 -0.4525 -0.0956 -0.0983
 8076SOL    HW235865   2.908   1.278  12.243  1.5778  0.3277  1.9246
 8077SOL     OW35866   4.533   1.005   5.112  0.4199  0.0803 -0.2907
 8077SOL    HW135867   4.526   1.027   5.205  0.6280 -0.1872 -0.2109
 8077SOL    HW235868   4.484   1.070   5.063  0.0782 -0.1196 -0.2110
 8078SOL     OW35869   1.657   0.756  15.251  0.2046 -1.1203 -0.0191
 8078SOL    HW135870   1.580   0.705  15.275 -0.1439 -0.9119 -0.7113
 8078SOL    HW235871   1.695   0.771  15.338  0.5662 -0.4541 -0.2913
 8079SOL     OW35872   2.924   2.329   0.894 -0.2393 -0.6646  0.8491
 8079SOL    HW135873   2.994   2.276   0.857  1.4007  2.3827 -0.3943
 8079SOL    HW235874   2.964   2.348   0.979 -1.8665  1.4140  1.1506
 8080SOL     OW35875   1.743   2.047  16.374  0.0158  0.1324 -0.1827
 8080SOL    HW135876   1.654   2.072  16.350 -0.4228 -1.7303 -0.5216
 8080SOL    HW235877   1.790   2.127  16.353  0.6053 -0.2830 -0.4499
 8081SOL     OW35878   3.086   4.616  17.086  0.0771  0.1882 -0.7836
 8081SOL    HW135879   3.137   4.648  17.160 -0.0952  0.5147 -0.8034
 8081SOL    HW235880   3.002   4.588  17.121 -0.1254  0.6662 -0.8795
 8082SOL     OW35881   2.325   4.246  12.554 -0.7591 -0.1269 -0.0472
 8082SOL    HW135882   2.318   4.324  12.609 -0.7806 -0.0656 -0.1377
 8082SOL    HW235883   2.380   4.186  12.604  0.1941  2.2063  1.7003
 8083SOL     OW35884   3.798   2.249   0.371  0.8566 -0.3775  0.2802
 8083SOL    HW135885   3.834   2.237   0.283  2.4183  2.2146  0.5583
 8083SOL    HW235886   3.814   2.161   0.404  1.2240 -0.1426  0.7224
 8084SOL     OW35887   1.254   1.560   8.903 -0.6446 -0.4192 -0.1665
 8084SOL    HW135888   1.160   1.547   8.887 -0.9051  0.9072  0.3044
 8084SOL    HW235889   1.242   1.653   8.922  0.8846 -0.2351 -0.1572
 8085SOL     OW35890   3.038   3.372   6.264  0.3887 -0.2078 -0.0339
 8085SOL    HW135891   3.074   3.409   6.183  1.8802 -1.1652  0.1867
 8085SOL    HW235892   3.110   3.404   6.319  0.0446  1.8128 -0.7292
 8086SOL     OW35893   1.660   0.313   3.836  0.3847  0.1128  0.3432
 8086SOL    HW135894   1.579   0.332   3.884  0.3701 -0.5060  0.5674
 8086SOL    HW235895   1.620   0.306   3.749  1.3149 -0.8007 -0.0141
 8087SOL     OW35896   3.322   3.332   2.904  0.1325 -0.4616 -0.4215
 8087SOL    HW135897   3.283   3.258   2.951  0.4379 -1.2610 -1.4524
 8087SOL    HW235898   3.263   3.401   2.935  0.6825 -0.3396  0.3751
 8088SOL     OW35899   0.095   0.121   1.435 -0.2561  0.4785 -0.0304
 8088SOL    HW135900   0.100   0.163   1.520  1.4833 -1.0959  0.6396
 8088SOL    HW235901   0.066   0.032   1.455  1.0859  0.2096  0.6994
 8089SOL     OW35902   3.746   2.765   1.755 -0.2718 -0.4519 -0.0246
 8089SOL    HW135903   3.740   2.858   1.735 -1.0327 -0.1705  1.5512
 8089SOL    HW235904   3.764   2.735   1.666  0.4528 -1.4220  0.4391
 8090SOL     OW35905   2.613   2.687   8.490  0.0359 -0.3695 -0.1851
 8090SOL    HW135906   2.662   2.740   8.553 -2.3378  2.5930 -0.8486
 8090SOL    HW235907   2.663   2.606   8.490 -0.4952 -0.7037 -1.7638
 8091SOL     OW35908   1.439   4.673   6.170 -0.1875 -0.4166 -0.5590
 8091SOL    HW135909   1.511   4.610   6.168 -0.1339 -0.3364 -1.2682
 8091SOL    HW235910   1.372   4.628   6.223 -0.2876  0.1172 -0.2391
 8092SOL     OW35911   0.703   0.864  12.536  0.8563  0.1717 -0.2677
 8092SOL    HW135912   0.622   0.858  12.485  0.3360 -0.4228  0.6321
 8092SOL    HW235913   0.708   0.959  12.547 -4.0266  0.1528  2.0605
 8093SOL     OW35914   3.581   3.582   3.289  0.3359 -0.0754  0.3918
 8093SOL    HW135915   3.629   3.513   3.243  0.9655  0.1882  0.6498
 8093SOL    HW235916   3.491   3.550   3.285  0.1201  0.4037  1.4671
 8094SOL     OW35917   2.198   0.553   8.247 -0.0122  0.0280 -0.5332
 8094SOL    HW135918   2.203   0.582   8.156 -0.8203  0.7062 -0.3568
 8094SOL    HW235919   2.267   0.597   8.296  2.5215 -1.6304 -2.5596
 8095SOL     OW35920   0.181   4.669  14.701  0.5636 -0.6634  0.0018
 8095SOL    HW135921   0.170   4.735  14.769  1.8460  0.8311 -1.2609
 8095SOL    HW235922   0.178   4.592  14.759  0.8225  1.2342  2.5376
 8096SOL     OW35923   4.185   0.589   5.019 -0.3505 -0.1146  0.1030
 8096SOL    HW135924   4.116   0.528   5.047 -1.6520  1.3042 -0.0340
 8096SOL    HW235925   4.186   0.651   5.092  0.1061  0.0807 -0.0684
 8097SOL     OW35926   3.579   2.007   0.346  0.4945  0.1549  0.2184
 8097SOL    HW135927   3.597   1.932   0.289 -2.0531 -0.5335  0.3388
 8097SOL    HW235928   3.648   2.001   0.412 -0.3930 -2.1645  0.8997
 8098SOL     OW35929   2.901   3.959  13.827  0.6034  0.0569  0.3362
 8098SOL    HW135930   2.942   3.931  13.746 -1.4466  0.0780 -0.7054
 8098SOL    HW235931   2.850   4.033  13.794  0.5208 -0.1332  0.0405
 8099SOL     OW35932   0.585   3.601   6.145 -0.3030  0.0703 -0.0331
 8099SOL    HW135933   0.501   3.613   6.190  0.1333  0.5811  0.6604
 8099SOL    HW235934   0.632   3.570   6.223 -0.1633  0.2049 -0.0660
 8100SOL     OW35935   4.076   2.292  16.319  0.2108  0.2692  0.0546
 8100SOL    HW135936   4.011   2.263  16.383 -0.3188  1.9933  0.2917
 8100SOL    HW235937   4.023   2.320  16.244  0.3456 -1.3834 -0.6559
 8101SOL     OW35938   4.222   2.798  15.985  0.1580  0.5851 -0.4530
 8101SOL    HW135939   4.214   2.843  15.900 -2.7282 -0.4397 -0.7314
 8101SOL    HW235940   4.316   2.809  15.996 -0.2672  2.6612  1.0638
 8102SOL     OW35941   0.496   1.305  12.677 -0.0727 -0.3717 -0.1996
 8102SOL    HW135942   0.437   1.297  12.753 -1.2240 -1.1050 -1.1652
 8102SOL    HW235943   0.487   1.393  12.642  0.9099 -0.0060  0.4790
 8103SOL     OW35944   1.442   1.663   9.128 -0.2129  0.2506  0.1969
 8103SOL    HW135945   1.422   1.571   9.109 -0.6400  0.7285 -1.6297
 8103SOL    HW235946   1.356   1.705   9.125  0.1643  0.9044 -1.2758
 8104SOL     OW35947   0.606   1.741   8.158 -0.1323 -0.4759  0.4311
 8104SOL    HW135948   0.692   1.722   8.123 -0.6287  0.5426 -1.3383
 8104SOL    HW235949   0.634   1.785   8.239  2.6440  0.7111 -1.1774
 8105SOL     OW35950   1.709   3.027   7.183 -0.1177 -0.2417 -0.1779
 8105SOL    HW135951   1.746   3.097   7.237 -0.9003 -0.4020  0.5789
 8105SOL    HW235952   1.614   3.041   7.191  0.3544  3.0843 -0.3936
 8106SOL     OW35953   0.159   0.406  14.786  0.6158  0.3712  0.1507
 8106SOL    HW135954   0.071   0.368  14.780  0.6051  0.5893 -1.2413
 8106SOL    HW235955   0.160   0.486  14.733 -2.8944 -1.4193 -2.6421
 8107SOL     OW35956   4.194   2.259   1.818 -0.1898 -0.1326 -0.4916
 8107SOL    HW135957   4.264   2.280   1.755 -0.3057 -1.5303 -1.0976
 8107SOL    HW235958   4.192   2.343   1.863 -0.1078 -0.8046  0.7718
 8108SOL     OW35959   0.899   2.528   3.691  0.7169  0.0084  0.0171
 8108SOL    HW135960   0.925   2.608   3.738 -0.4404  1.3910 -1.7090
 8108SOL    HW235961   0.838   2.481   3.748  1.9868  2.0104  3.0228
 8109SOL     OW35962   3.850   1.372   4.028  0.2102  0.1050 -0.6313
 8109SOL    HW135963   3.869   1.416   3.945  1.8781  0.9357  0.2001
 8109SOL    HW235964   3.761   1.359   3.994  0.7042 -2.0534 -1.0552
 8110SOL     OW35965   3.149   1.990  17.314 -0.2434 -0.9105  0.2268
 8110SOL    HW135966   3.196   2.051  17.371 -0.9705  1.1704 -1.4022
 8110SOL    HW235967   3.113   2.046  17.245 -0.0478 -0.9373  0.1018
 8111SOL     OW35968   3.740   1.595   2.576  0.4482 -0.2048 -0.0576
 8111SOL    HW135969   3.827   1.567   2.546 -0.7781 -3.8757 -0.1514
 8111SOL    HW235970   3.760   1.646   2.654  1.7016  1.1645 -1.2717
 8112SOL     OW35971   2.741   1.356   4.022 -0.1729 -0.4645 -0.5794
 8112SOL    HW135972   2.828   1.325   4.046  0.5994  1.7089 -0.5680
 8112SOL    HW235973   2.767   1.428   3.965  0.0617  0.6438  0.9340
 8113SOL     OW35974   4.586   1.696  11.986  0.2040 -0.5301  0.1559
 8113SOL    HW135975   4.521   1.761  11.958 -0.7677 -1.6796 -0.2799
 8113SOL    HW235976   4.532   1.618  11.972 -0.3087 -0.3423  1.0394
 8114SOL     OW35977   4.622   3.136   3.953  0.4537 -0.3536  0.0497
 8114SOL    HW135978   4.574   3.218   3.962  0.6897 -0.4475  2.0631
 8114SOL    HW235979   4.563   3.060   3.951 -0.1715  0.0974  1.3731
 8115SOL     OW35980   2.732   0.415   3.502  0.5642  0.7320 -0.6244
 8115SOL    HW135981   2.762   0.374   3.583 -0.4771 -1.6244 -1.4551
 8115SOL    HW235982   2.687   0.340   3.464  0.6659  0.1532  0.3972
 8116SOL     OW35983   0.781   2.265   7.630  0.1815  0.4551  0.1394
 8116SOL    HW135984   0.852   2.312   7.586  1.5237 -2.5295 -0.8930
 8116SOL    HW235985   0.745   2.223   7.552 -0.0423  1.1470 -0.1237
 8117SOL     OW35986   1.499   0.792   5.002 -0.2491 -0.0700  0.1201
 8117SOL    HW135987   1.535   0.877   5.026 -2.0487  0.4556  0.9678
 8117SOL    HW235988   1.404   0.789   5.014 -0.5505  0.5244 -2.1216
 8118SOL     OW35989   4.109   4.095   7.785 -0.4050  0.3113 -0.2461
 8118SOL    HW135990   4.136   4.185   7.804 -0.0471  0.0278  0.5769
 8118SOL    HW235991   4.153   4.081   7.701  0.2811  1.8439 -0.1350
 8119SOL     OW35992   0.006   1.689   6.006  0.2159 -0.0367  0.0719
 8119SOL    HW135993   4.703   1.640   6.077 -0.4420 -2.2722 -1.8493
 8119SOL    HW235994   4.694   1.769   6.016 -1.6456 -1.2478  0.2694
 8120SOL     OW35995   0.853   4.478   6.220  0.8188 -0.9666  0.2760
 8120SOL    HW135996   0.847   4.539   6.147 -0.0811 -1.2734  0.0971
 8120SOL    HW235997   0.783   4.514   6.274  1.1158 -0.2230  0.1626
 8121SOL     OW35998   2.418   3.536   0.474 -0.0808  0.7196 -0.0477
 8121SOL    HW135999   2.501   3.504   0.439 -1.0752 -1.2842 -0.5580
 8121SOL    HW236000   2.356   3.473   0.437 -0.1360  1.0094 -0.4409
 8122SOL     OW36001   2.391   3.238  16.956 -0.2063 -0.0743 -0.3787
 8122SOL    HW136002   2.456   3.261  16.890 -2.7897  0.4535 -2.6971
 8122SOL    HW236003   2.336   3.179  16.906 -1.0097 -0.4296  0.9223
 8123SOL     OW36004   3.684   2.877   5.594 -0.2470 -0.0186  0.4536
 8123SOL    HW136005   3.658   2.962   5.558 -1.9275 -0.5630  0.3895
 8123SOL    HW236006   3.718   2.909   5.678  0.9873  0.7120 -0.3214
 8124SOL     OW36007   4.338   3.472   7.502  0.4859  0.3539  0.0480
 8124SOL    HW136008   4.252   3.514   7.504  0.2769 -0.2179  2.6205
 8124SOL    HW236009   4.311   3.413   7.432  0.9358  1.0376 -0.7079
 8125SOL     OW36010   3.582   4.205   8.459  0.0473 -0.0918  0.0784
 8125SOL    HW136011   3.667   4.170   8.432  0.3077  1.0023 -0.5134
 8125SOL    HW236012   3.533   4.128   8.432 -0.2247  0.7806 -1.9266
 8126SOL     OW36013   3.061   3.474   4.141  0.2911  0.8139  0.1129
 8126SOL    HW136014   3.147   3.513   4.129  0.8546 -0.3844  0.3280
 8126SOL    HW236015   3.002   3.549   4.132  0.8306  1.4731  2.0877
 8127SOL     OW36016   4.188   2.216   3.197 -0.1518  0.1601 -0.1373
 8127SOL    HW136017   4.171   2.130   3.236 -1.2517  0.0824 -0.7923
 8127SOL    HW236018   4.103   2.237   3.159 -0.5733 -1.3099  0.0152
 8128SOL     OW36019   2.597   2.753   7.451  0.8246 -0.5628  0.3593
 8128SOL    HW136020   2.606   2.661   7.428  0.9556 -0.2865 -0.6576
 8128SOL    HW236021   2.600   2.793   7.365  0.1878 -1.8803 -0.2686
 8129SOL     OW36022   2.842   2.715   2.779 -0.4357  0.0923 -0.4680
 8129SOL    HW136023   2.833   2.790   2.720 -1.5787 -0.9845 -1.6868
 8129SOL    HW236024   2.762   2.717   2.831 -0.5392 -1.8987 -0.5360
 8130SOL     OW36025   3.190   1.676   2.982 -0.1819  0.3441  0.0267
 8130SOL    HW136026   3.239   1.752   3.014 -1.6620  1.7126 -0.9325
 8130SOL    HW236027   3.264   1.615   2.981 -1.9167 -1.7414  0.2509
 8131SOL     OW36028   2.382   1.584   0.297  0.6072 -0.1837  0.2812
 8131SOL    HW136029   2.297   1.600   0.338  0.5631  0.4262 -0.0464
 8131SOL    HW236030   2.446   1.584   0.368 -0.3024  1.3279  1.1066
 8132SOL     OW36031   4.087   0.555  14.719  0.3231 -0.1559 -0.0955
 8132SOL    HW136032   4.086   0.546  14.623  0.9799  0.4973 -0.1598
 8132SOL    HW236033   3.995   0.553  14.745 -0.5312 -0.1854 -3.1160
 8133SOL     OW36034   1.404   1.462   5.675 -0.5331 -0.1307  0.1917
 8133SOL    HW136035   1.476   1.434   5.732  0.2474  1.3882 -0.0503
 8133SOL    HW236036   1.417   1.556   5.680  0.8975 -0.3340  0.5778
 8134SOL     OW36037   1.758   0.089   3.303 -0.3397 -0.2384 -0.0498
 8134SOL    HW136038   1.748   0.010   3.250  5.9190 -1.4854  0.6121
 8134SOL    HW236039   1.739   0.153   3.234  1.5631 -0.1005 -0.4489
 8135SOL     OW36040   3.914   1.738   7.196 -0.4829 -0.1228 -0.1956
 8135SOL    HW136041   3.974   1.698   7.260 -1.5086  2.6378  2.4727
 8135SOL    HW236042   3.939   1.690   7.117  0.6079  1.6763 -0.9331
 8136SOL     OW36043   4.175   4.010   1.776  0.2719  0.1471  0.4200
 8136SOL    HW136044   4.208   3.928   1.813  3.1790  0.0773 -2.2781
 8136SOL    HW236045   4.221   4.008   1.692 -2.3726 -1.4392 -0.9866
 8137SOL     OW36046   2.219   1.743   5.352  0.1439 -0.0438 -0.2711
 8137SOL    HW136047   2.142   1.724   5.405  0.4722  2.7717  1.1829
 8137SOL    HW236048   2.230   1.659   5.307 -0.8643 -0.1923 -0.2387
 8138SOL     OW36049   1.667   2.233   4.018 -0.3324  0.1028  0.1536
 8138SOL    HW136050   1.584   2.267   3.985  0.2136  0.2065 -1.1399
 8138SOL    HW236051   1.732   2.275   3.961  0.7647 -1.2275  0.4112
 8139SOL     OW36052   1.603   1.230   0.294  0.0586  0.0191  0.6536
 8139SOL    HW136053   1.662   1.253   0.223  1.4746 -1.5316  1.3291
 8139SOL    HW236054   1.610   1.136   0.312 -0.6195 -0.3474 -0.9939
 8140SOL     OW36055   2.484   4.554   6.576 -0.1040  0.3288  0.1239
 8140SOL    HW136056   2.465   4.547   6.670  2.4226  0.1300  0.6180
 8140SOL    HW236057   2.429   4.492   6.529  0.0292 -0.8113  1.4806
 8141SOL     OW36058   0.029   2.215  12.248  0.4363  0.1340  0.4065
 8141SOL    HW136059   0.052   2.251  12.163  2.5790 -1.1143  0.4603
 8141SOL    HW236060   0.007   2.294  12.298  0.3964 -0.7798  1.8307
 8142SOL     OW36061   1.707   3.404   4.840  0.3185 -0.2040 -0.5410
 8142SOL    HW136062   1.688   3.440   4.926  0.8434 -2.1677  0.3782
 8142SOL    HW236063   1.770   3.464   4.801  1.1699 -0.8136 -0.0994
 8143SOL     OW36064   3.172   0.668   4.244 -0.0388 -0.0665 -0.6386
 8143SOL    HW136065   3.206   0.595   4.295 -1.1462  0.4363  0.8057
 8143SOL    HW236066   3.152   0.619   4.165 -3.3424  0.5594 -0.1637
 8144SOL     OW36067   2.730   2.712   5.792 -0.2909 -0.8039 -0.4363
 8144SOL    HW136068   2.688   2.710   5.706  0.6005  0.4419 -0.8974
 8144SOL    HW236069   2.800   2.647   5.783 -0.4567 -1.2060  1.0670
 8145SOL     OW36070   4.522   1.463   1.523 -0.1160 -0.4176 -0.1841
 8145SOL    HW136071   4.476   1.380   1.531 -0.4352 -0.1138  1.0699
 8145SOL    HW236072   4.451   1.527   1.514  1.2768  1.0522 -0.6759
 8146SOL     OW36073   1.442   3.054   6.367 -0.5808 -0.4885 -0.8974
 8146SOL    HW136074   1.406   2.999   6.298 -0.0945 -1.1751 -0.6075
 8146SOL    HW236075   1.359   3.086   6.401 -0.5632  0.2097 -1.5129
 8147SOL     OW36076   4.510   0.303   3.650  0.0347  0.2378  0.7440
 8147SOL    HW136077   4.543   0.364   3.716  2.2747  0.6074 -0.7296
 8147SOL    HW236078   4.418   0.288   3.674 -0.4236 -0.4058 -1.4333
 8148SOL     OW36079   2.581   1.697   7.311  0.3901 -0.2768 -0.5165
 8148SOL    HW136080   2.563   1.634   7.380  0.4671 -1.8659 -1.9602
 8148SOL    HW236081   2.618   1.767   7.364 -1.5001 -0.0688  0.5145
 8149SOL     OW36082   0.783   0.205  12.778  0.3291  0.4508 -0.1283
 8149SOL    HW136083   0.698   0.179  12.814  0.5263  1.7926  1.3209
 8149SOL    HW236084   0.757   0.213  12.686  0.9524  0.5675 -0.2948
 8150SOL     OW36085   4.443   1.610   8.651 -0.2351 -0.1276 -0.2134
 8150SOL    HW136086   4.486   1.614   8.566 -2.0883 -0.4499 -1.1738
 8150SOL    HW236087   4.484   1.681   8.700 -1.6999  1.7304 -1.6622
 8151SOL     OW36088   2.452   1.679   2.579  0.3337  0.0813 -0.4914
 8151SOL    HW136089   2.452   1.689   2.675 -0.4022  0.9312 -0.5819
 8151SOL    HW236090   2.456   1.585   2.560 -1.4552  0.0198 -0.5992
 8152SOL     OW36091   4.587   0.047   8.622  0.1949 -0.4826  0.5103
 8152SOL    HW136092   4.543   4.712   8.663 -1.2859 -1.3066 -2.6215
 8152SOL    HW236093   4.526   0.074   8.554 -1.7821 -0.7038  2.1968
 8153SOL     OW36094   3.644   0.923   7.743  0.3334  0.0428  0.2038
 8153SOL    HW136095   3.631   0.927   7.648 -0.3008 -0.6721  0.2661
 8153SOL    HW236096   3.634   1.014   7.770  3.0740  0.8129 -1.3205
 8154SOL     OW36097   2.573   2.212   9.341  0.4737  0.3272 -0.2251
 8154SOL    HW136098   2.575   2.218   9.436  0.4754 -0.3650 -0.1852
 8154SOL    HW236099   2.613   2.126   9.328 -0.0863 -0.1929  1.5263
 8155SOL     OW36100   0.735   0.230   2.260 -0.4287  0.7571 -0.3247
 8155SOL    HW136101   0.723   0.291   2.187 -0.5318 -1.4715 -2.1396
 8155SOL    HW236102   0.662   0.253   2.318  0.0999 -0.1060  0.6838
 8156SOL     OW36103   0.259   1.420   7.991 -0.0245 -0.5228 -0.1447
 8156SOL    HW136104   0.188   1.482   7.972  0.2119  0.3211  1.7533
 8156SOL    HW236105   0.305   1.461   8.064  0.1643 -2.8779  1.0395
 8157SOL     OW36106   0.477   0.362   1.991  0.4903 -0.5831 -0.2070
 8157SOL    HW136107   0.549   0.314   1.950  0.8290  0.1966 -0.5009
 8157SOL    HW236108   0.442   0.416   1.921 -0.0018 -0.1043  0.4177
 8158SOL     OW36109   1.646   3.773   5.896 -0.7164 -0.2576  0.0072
 8158SOL    HW136110   1.658   3.806   5.985 -2.1523  0.5884 -0.1058
 8158SOL    HW236111   1.728   3.793   5.851 -0.2483 -0.7181  0.6618
 8159SOL     OW36112   2.132   0.480  16.470 -0.5392 -0.2320  0.1199
 8159SOL    HW136113   2.149   0.392  16.435 -0.3627  1.1288 -3.2390
 8159SOL    HW236114   2.217   0.494  16.512  0.7248 -3.0606 -1.4468
 8160SOL     OW36115   1.871   0.153   4.371 -0.3771  0.2313  0.1541
 8160SOL    HW136116   1.782   0.148   4.337 -0.1506  0.4789 -0.4665
 8160SOL    HW236117   1.934   0.155   4.300 -0.3812 -0.2532  0.1415
 8161SOL     OW36118   3.393   4.045   0.493 -0.2827  0.3278  0.2495
 8161SOL    HW136119   3.437   4.121   0.530 -0.6522 -0.4322  2.2563
 8161SOL    HW236120   3.413   3.981   0.561  0.2854  0.7217  0.4500
 8162SOL     OW36121   0.687   3.118   8.810  0.4890 -0.3081  1.0278
 8162SOL    HW136122   0.747   3.192   8.805 -1.1573  0.9305 -0.6532
 8162SOL    HW236123   0.599   3.156   8.809  0.5368 -0.2001  0.7734
 8163SOL     OW36124   3.296   1.993   3.645 -0.2164  0.1654 -0.5402
 8163SOL    HW136125   3.309   1.901   3.620  0.2776 -0.0381  0.4583
 8163SOL    HW236126   3.294   1.972   3.739 -0.9248 -0.5712 -0.7204
 8164SOL     OW36127   4.388   3.871   9.676  0.1229 -0.3308  0.0310
 8164SOL    HW136128   4.427   3.798   9.724  0.5413  0.3506  0.7224
 8164SOL    HW236129   4.298   3.876   9.709 -0.6673  2.0465 -2.5235
 8165SOL     OW36130   3.194   3.270   2.062  0.3198  0.1026 -0.0138
 8165SOL    HW136131   3.108   3.290   2.025 -0.7978  1.0968  3.1849
 8165SOL    HW236132   3.173   3.189   2.109 -2.6557  1.4756  1.0138
 8166SOL     OW36133   1.322   1.348   3.854 -0.0370  0.9046  0.0046
 8166SOL    HW136134   1.352   1.352   3.944  0.1904 -0.1604 -0.0237
 8166SOL    HW236135   1.351   1.259   3.834 -0.5421  0.2159  2.4601
 8167SOL     OW36136   2.614   1.672   8.437  0.1450  0.1125 -0.7977
 8167SOL    HW136137   2.567   1.644   8.516  0.8283 -1.3771 -0.9330
 8167SOL    HW236138   2.661   1.749   8.469 -0.5140  0.1539  0.0806
 8168SOL     OW36139   0.870   1.448   4.373  0.2651 -0.6420  0.2455
 8168SOL    HW136140   0.935   1.501   4.325 -1.1274  1.0372  0.2297
 8168SOL    HW236141   0.889   1.486   4.459  4.8759 -1.3165 -0.4644
 8169SOL     OW36142   0.588   2.412   6.648 -0.0666  0.7944 -0.1455
 8169SOL    HW136143   0.538   2.482   6.606 -0.8346  0.3739  0.0609
 8169SOL    HW236144   0.509   2.363   6.673  1.4780 -1.9955 -0.8208
 8170SOL     OW36145   4.673   3.636   7.607 -0.0928 -0.2134  0.1774
 8170SOL    HW136146   4.719   3.637   7.691  1.3857 -1.7214 -0.6207
 8170SOL    HW236147   4.589   3.670   7.637  0.3145  1.5884 -0.7397
 8171SOL     OW36148   3.575   0.057   2.604  0.2606 -0.0641  0.7611
 8171SOL    HW136149   3.513   0.075   2.534  0.0746  1.7415  1.4136
 8171SOL    HW236150   3.540   4.719   2.647 -1.0868  0.1018 -0.0515
 8172SOL     OW36151   2.581   1.113   6.589  0.2699  0.1141 -0.1443
 8172SOL    HW136152   2.637   1.039   6.615 -0.1000 -0.3206 -0.5938
 8172SOL    HW236153   2.575   1.090   6.496 -1.2192  1.4955 -0.3709
 8173SOL     OW36154   2.886   1.997   5.531  0.4290  0.2537  0.3113
 8173SOL    HW136155   2.962   1.999   5.589  0.8181 -0.5693 -0.1549
 8173SOL    HW236156   2.939   2.027   5.456 -0.1859 -0.2943 -0.3408
 8174SOL     OW36157   1.786   3.689   0.058 -0.4836 -0.2978 -0.1514
 8174SOL    HW136158   1.827   3.618   0.107 -1.6166 -0.5461  0.4542
 8174SOL    HW236159   1.703   3.690   0.106 -0.6573  0.7771 -0.4673
 8175SOL     OW36160   0.634   2.957   0.712  0.2721 -0.4576 -0.5194
 8175SOL    HW136161   0.640   3.005   0.629 -1.0200 -0.1101 -0.4022
 8175SOL    HW236162   0.595   3.036   0.749  0.0416 -2.1954  2.9012
 8176SOL     OW36163   2.479   1.396   1.438 -0.3240  0.0055 -0.1123
 8176SOL    HW136164   2.539   1.348   1.495  0.1816 -0.6220 -1.1862
 8176SOL    HW236165   2.464   1.328   1.373 -1.3470  0.4701 -0.3713
 8177SOL     OW36166   4.568   4.193   4.330 -0.0842 -0.3967 -0.3010
 8177SOL    HW136167   4.591   4.118   4.274  0.0658  0.2775 -1.1396
 8177SOL    HW236168   4.606   4.159   4.411  0.8942  0.6199 -0.3389
 8178SOL     OW36169   2.705   1.443   3.384  0.3040 -0.2527  0.1871
 8178SOL    HW136170   2.671   1.372   3.329  1.6864  0.2632 -1.3500
 8178SOL    HW236171   2.645   1.438   3.458  1.7303 -2.0636  1.2363
 8179SOL     OW36172   2.836   4.003   4.492 -0.3929  0.3560  0.2946
 8179SOL    HW136173   2.767   3.970   4.549  1.5236 -1.8802  1.3310
 8179SOL    HW236174   2.895   3.928   4.483 -0.6672  0.1413  0.2821
 8180SOL     OW36175   0.398   0.364   4.828 -0.2203 -0.4597 -0.0927
 8180SOL    HW136176   0.359   0.450   4.811  3.1865  1.3147  0.9590
 8180SOL    HW236177   0.372   0.319   4.748  3.9053 -1.2941 -0.9686
 8181SOL     OW36178   4.352   0.012  13.278 -0.3628 -0.2677  0.3414
 8181SOL    HW136179   4.381   0.100  13.251  0.5662 -0.7286 -0.1538
 8181SOL    HW236180   4.408   4.701  13.219  1.6294 -0.3519  2.3006
 8182SOL     OW36181   4.134   2.558   9.908  0.0946  0.1134 -0.3116
 8182SOL    HW136182   4.226   2.548   9.929  0.2202 -0.1988 -1.0072
 8182SOL    HW236183   4.131   2.553   9.812 -0.4764  2.1348 -0.4125
 8183SOL     OW36184   1.451   2.873   1.872  0.2822 -0.0797  0.5036
 8183SOL    HW136185   1.403   2.956   1.875 -0.8737 -0.7551  0.7787
 8183SOL    HW236186   1.512   2.889   1.944 -0.0760  0.6544  0.6475
 8184SOL     OW36187   3.535   2.845  11.739 -0.2018 -0.5764 -0.5553
 8184SOL    HW136188   3.541   2.860  11.833  1.4515  2.6767 -1.1539
 8184SOL    HW236189   3.549   2.936  11.712 -1.7337  0.1378  1.0798
 8185SOL     OW36190   4.075   1.027   3.330  0.0622 -0.2434 -0.3168
 8185SOL    HW136191   4.043   0.949   3.284  1.0891 -1.2451  0.6976
 8185SOL    HW236192   4.152   0.996   3.378 -0.6024 -3.1645 -1.1025
 8186SOL     OW36193   2.773   3.454   9.742 -0.0596  0.0904 -0.2459
 8186SOL    HW136194   2.844   3.404   9.704 -1.4578 -0.4954 -2.0867
 8186SOL    HW236195   2.703   3.436   9.679 -0.6035 -0.2362  0.4492
 8187SOL     OW36196   0.015   0.959   6.333  0.0437 -0.3564  0.6661
 8187SOL    HW136197   0.038   1.011   6.256 -3.5438  1.1151  0.5810
 8187SOL    HW236198   4.669   0.933   6.300 -1.0029  0.5922  2.6932
 8188SOL     OW36199   0.589   4.396   8.935  0.0824 -0.2926  0.1874
 8188SOL    HW136200   0.551   4.336   8.872 -0.1658 -0.3835  0.4214
 8188SOL    HW236201   0.594   4.336   9.009  0.1055 -1.4750 -0.7799
 8189SOL     OW36202   1.023   3.371   5.057 -0.2031  0.0241 -0.4972
 8189SOL    HW136203   0.995   3.457   5.090  1.0153 -0.3063  1.3928
 8189SOL    HW236204   0.981   3.307   5.115 -2.2156 -0.3696 -2.3940
 8190SOL     OW36205   3.692   3.972   8.730  0.4157  0.0336 -0.5074
 8190SOL    HW136206   3.699   3.891   8.678  0.6103 -1.1018  1.2899
 8190SOL    HW236207   3.734   4.041   8.678 -0.3445  0.2447 -0.8383
 8191SOL     OW36208   0.361   1.214   6.674  0.6254  0.2767 -0.5817
 8191SOL    HW136209   0.441   1.162   6.670  0.0872 -0.4819 -1.2871
 8191SOL    HW236210   0.341   1.227   6.581  1.7340 -0.9444 -0.9842
 8192SOL     OW36211   1.624   0.713   4.784  0.5702 -0.4480 -0.5878
 8192SOL    HW136212   1.582   0.763   4.714 -1.5954  0.6213  1.4698
 8192SOL    HW236213   1.564   0.726   4.857  0.6936 -2.0532 -0.2049
 8193SOL     OW36214   1.624   3.579   5.045  0.0683 -0.0378  0.1499
 8193SOL    HW136215   1.694   3.645   5.045 -0.5928  0.6525 -1.4591
 8193SOL    HW236216   1.543   3.629   5.051 -0.1681 -0.4331  0.2243
 8194SOL     OW36217   3.572   3.423   2.906  0.1605 -0.7719  0.5008
 8194SOL    HW136218   3.478   3.412   2.889 -0.3740  1.4813  1.9545
 8194SOL    HW236219   3.583   3.515   2.883  0.9960 -1.6313 -2.5098
 8195SOL     OW36220   1.153   0.876  12.174 -0.7251  0.0464  0.1842
 8195SOL    HW136221   1.225   0.824  12.138  0.2230 -1.3411  4.1927
 8195SOL    HW236222   1.148   0.821  12.252 -0.1508  0.2462  0.3614
 8196SOL     OW36223   1.507   2.600   7.533 -0.4449  0.2526  0.2806
 8196SOL    HW136224   1.417   2.630   7.520 -0.6110 -0.0957  0.6362
 8196SOL    HW236225   1.529   2.574   7.443  1.2432 -3.4120  1.7540
 8197SOL     OW36226   3.266   0.484   6.638  0.4905 -0.1789 -0.5108
 8197SOL    HW136227   3.212   0.554   6.600 -1.1176 -1.4258 -0.5061
 8197SOL    HW236228   3.346   0.537   6.638 -0.3015  1.0161  0.4239
 8198SOL     OW36229   0.334   1.686   3.849 -0.7020  0.1427  0.1722
 8198SOL    HW136230   0.255   1.732   3.822 -0.1917  0.5336 -0.6687
 8198SOL    HW236231   0.317   1.685   3.944 -1.1400 -1.1320  0.0768
 8199SOL     OW36232   4.022   4.440   4.132  0.1816 -0.2169 -0.9306
 8199SOL    HW136233   4.057   4.529   4.129  1.2601 -0.5383  2.5542
 8199SOL    HW236234   3.966   4.449   4.209  2.8554 -0.1879  1.0159
 8200SOL     OW36235   1.881   1.006  17.170  0.1917  0.1465 -0.1055
 8200SOL    HW136236   1.955   1.065  17.161  0.6169 -0.4442 -0.4474
 8200SOL    HW236237   1.810   1.065  17.143 -0.7947 -1.1557 -0.3686
 8201SOL     OW36238   0.091   4.645   2.284 -0.3153 -0.5944 -0.5475
 8201SOL    HW136239   0.085   4.684   2.197 -0.4853 -0.3019 -0.4051
 8201SOL    HW236240   0.052   4.716   2.336 -0.7540 -0.4057 -1.1413
 8202SOL     OW36241   0.024   1.709   5.166 -0.0485 -0.2665  0.1031
 8202SOL    HW136242   4.698   1.676   5.106  0.1318 -1.7329  0.7114
 8202SOL    HW236243   0.100   1.731   5.112 -1.1064 -0.1267 -1.3344
 8203SOL     OW36244   4.642   3.694   5.433  0.1832  0.0066  0.0229
 8203SOL    HW136245   4.596   3.630   5.378  2.4207 -1.5915  0.0250
 8203SOL    HW236246   4.600   3.667   5.515 -0.4908 -0.4765 -0.4830
 8204SOL     OW36247   3.675   1.561   7.186  0.0142 -0.1927 -0.8445
 8204SOL    HW136248   3.741   1.493   7.174 -1.1317 -1.7360  1.5350
 8204SOL    HW236249   3.734   1.636   7.181  0.4370 -0.5040 -0.5329
 8205SOL     OW36250   3.788   4.149  15.830 -0.6209 -0.1705 -0.8647
 8205SOL    HW136251   3.804   4.123  15.921  0.6727  0.2945 -0.9727
 8205SOL    HW236252   3.782   4.244  15.842  3.1045 -0.1284  0.5256
 8206SOL     OW36253   3.629   1.882  16.106  0.3232  0.3186 -0.4896
 8206SOL    HW136254   3.717   1.877  16.070 -0.0166  2.0748 -1.5234
 8206SOL    HW236255   3.643   1.926  16.190  0.4604  0.8623 -0.8001
 8207SOL     OW36256   1.791   3.149   4.887 -0.1290  0.5269 -0.2502
 8207SOL    HW136257   1.704   3.120   4.913 -0.8633  2.0386 -1.0298
 8207SOL    HW236258   1.771   3.241   4.870 -0.4638 -0.0640 -3.0868
 8208SOL     OW36259   0.681   3.379   9.120 -0.0911 -0.4709 -0.1867
 8208SOL    HW136260   0.740   3.407   9.190  1.4040  0.4171 -1.8384
 8208SOL    HW236261   0.606   3.379   9.181  0.5925  0.3404  0.6517
 8209SOL     OW36262   3.903   3.153   4.855  0.2619  0.3600 -0.3642
 8209SOL    HW136263   3.924   3.178   4.765 -3.4924 -4.0973 -2.4956
 8209SOL    HW236264   3.905   3.058   4.840  1.3037  0.3182  0.0545
 8210SOL     OW36265   0.727   3.782   1.723  0.6560 -0.0356  0.1391
 8210SOL    HW136266   0.704   3.699   1.765  0.3298 -0.4965 -0.9413
 8210SOL    HW236267   0.766   3.827   1.798  0.4341  0.2283  0.0971
 8211SOL     OW36268   4.057   2.491  14.313  0.1544  0.1148 -0.8226
 8211SOL    HW136269   3.993   2.559  14.337  1.6186  0.2423  2.7431
 8211SOL    HW236270   4.012   2.437  14.249 -0.5327  0.8644 -0.9776
 8212SOL     OW36271   0.203   0.743   2.587  0.0777  0.0853 -0.0944
 8212SOL    HW136272   0.150   0.695   2.524  0.2711  0.7320 -0.7398
 8212SOL    HW236273   0.146   0.748   2.664 -1.5875  1.2125 -1.4169
 8213SOL     OW36274   3.227   3.468   6.427  0.3645 -0.1315  0.0192
 8213SOL    HW136275   3.285   3.444   6.355 -1.7448 -1.0540 -1.3425
 8213SOL    HW236276   3.283   3.534   6.469 -0.8024 -0.2319  1.7139
 8214SOL     OW36277   0.259   0.673  15.449  0.2060 -0.2487  0.0203
 8214SOL    HW136278   0.285   0.639  15.364  1.3056  0.5204  0.0448
 8214SOL    HW236279   0.232   0.600  15.504  0.7170  0.8801  1.8019
 8215SOL     OW36280   1.258   2.270  12.399 -0.1432  0.0383 -0.4840
 8215SOL    HW136281   1.214   2.248  12.481 -2.2624  0.4018 -1.5254
 8215SOL    HW236282   1.325   2.202  12.397 -0.4555 -0.2769 -0.3853
 8216SOL     OW36283   0.149   3.158   8.911  0.1154 -0.1632 -0.0413
 8216SOL    HW136284   0.230   3.170   8.961  0.3159  0.0803 -0.4294
 8216SOL    HW236285   0.102   3.086   8.952  0.5660  0.2707  1.2551
 8217SOL     OW36286   2.454   0.161   4.017 -0.4905  0.8570 -0.2846
 8217SOL    HW136287   2.446   0.119   4.103  0.8195 -2.1827 -1.6456
 8217SOL    HW236288   2.415   0.246   4.038 -0.2628  1.0338 -0.5741
 8218SOL     OW36289   2.088   0.329   2.719 -0.1948 -0.1145 -0.1350
 8218SOL    HW136290   2.177   0.340   2.685  0.3077 -1.4467  0.7523
 8218SOL    HW236291   2.075   0.410   2.768  0.4843 -0.2403  0.2516
 8219SOL     OW36292   1.854   4.348   6.352  0.0467  0.0402  0.2268
 8219SOL    HW136293   1.911   4.355   6.429  1.7059 -1.6582 -0.8552
 8219SOL    HW236294   1.876   4.429   6.305 -2.3156 -0.1821 -1.2603
 8220SOL     OW36295   4.090   0.460   2.084 -0.2680  0.3403  0.1531
 8220SOL    HW136296   4.135   0.415   2.012 -0.7302 -0.8960  0.6407
 8220SOL    HW236297   4.001   0.425   2.076 -1.1125  1.7707  3.2969
 8221SOL     OW36298   4.195   3.247   6.074 -0.4399  0.1199  0.4138
 8221SOL    HW136299   4.233   3.195   6.145  0.9774  0.9400  0.2578
 8221SOL    HW236300   4.279   3.266   6.032  0.8638  1.0180  3.4328
 8222SOL     OW36301   0.995   3.421  12.960  0.3739 -0.0964  0.2051
 8222SOL    HW136302   0.979   3.338  13.005  3.7854  0.2478  2.0505
 8222SOL    HW236303   1.021   3.392  12.873  0.5612  1.9368 -0.4083
 8223SOL     OW36304   2.813   3.797   8.871  0.3701 -0.6690  0.0802
 8223SOL    HW136305   2.799   3.890   8.890 -0.4808 -0.4292 -1.7988
 8223SOL    HW236306   2.777   3.749   8.946 -1.5106  2.0065  0.9263
 8224SOL     OW36307   1.188   1.509   7.611 -0.2766 -0.0348  0.1557
 8224SOL    HW136308   1.208   1.423   7.575  0.8486  0.3352 -0.1203
 8224SOL    HW236309   1.266   1.562   7.593  1.7221 -2.1056  2.7892
 8225SOL     OW36310   2.871   3.810  12.390  0.0987 -0.0471  0.1014
 8225SOL    HW136311   2.842   3.737  12.335 -0.2199  0.1985 -0.0532
 8225SOL    HW236312   2.850   3.887  12.337 -1.1612 -0.3614  0.1463
 8226SOL     OW36313   4.443   1.375   8.816  0.0019  0.6900  0.5478
 8226SOL    HW136314   4.437   1.449   8.757 -0.0089 -0.2820 -0.6726
 8226SOL    HW236315   4.355   1.340   8.830 -0.1695  0.7184 -0.4753
 8227SOL     OW36316   0.139   4.331   6.896 -0.0656 -0.1654 -0.0959
 8227SOL    HW136317   0.161   4.315   6.988 -2.0119  0.0980  0.4169
 8227SOL    HW236318   0.045   4.340   6.915  0.4209  1.4079  1.5563
 8228SOL     OW36319   2.881   0.482   6.439  0.6155  0.7705  0.3603
 8228SOL    HW136320   2.812   0.543   6.414  1.8422  2.2269  0.4878
 8228SOL    HW236321   2.837   0.451   6.517 -2.9222 -0.1591 -2.0023
 8229SOL     OW36322   4.482   2.639   1.834 -0.7912  0.5119  0.5068
 8229SOL    HW136323   4.576   2.657   1.824 -1.0936  0.4293 -2.2877
 8229SOL    HW236324   4.477   2.550   1.800  1.3750  0.3473  0.6247
 8230SOL     OW36325   1.801   3.131   2.641  0.3600 -0.2365  0.4181
 8230SOL    HW136326   1.772   3.191   2.571  1.7829  1.3941  1.2167
 8230SOL    HW236327   1.896   3.139   2.630  0.2856  1.3955  0.8657
 8231SOL     OW36328   4.107   4.540  10.726 -0.2455 -0.1140 -0.2346
 8231SOL    HW136329   4.017   4.506  10.719 -0.2579  0.4267 -2.7432
 8231SOL    HW236330   4.149   4.462  10.763 -2.5697 -0.8289  0.8929
 8232SOL     OW36331   2.179   3.696   6.780 -0.1818  0.1053 -0.2295
 8232SOL    HW136332   2.225   3.692   6.864 -1.4003 -1.7144  0.3410
 8232SOL    HW236333   2.188   3.606   6.750 -0.4533 -0.5713  1.7598
 8233SOL     OW36334   1.296   0.578   1.946 -0.1825  0.0576  0.2189
 8233SOL    HW136335   1.357   0.542   2.011 -1.6781  0.2607  1.7276
 8233SOL    HW236336   1.230   0.621   2.000  2.8106  3.7238  0.9566
 8234SOL     OW36337   1.719   4.459  12.915 -0.0572 -0.3250 -0.2901
 8234SOL    HW136338   1.686   4.536  12.962  0.7517 -0.6409  0.8160
 8234SOL    HW236339   1.787   4.435  12.979 -0.3175 -1.3340 -0.3902
 8235SOL     OW36340   1.499   4.728   8.132 -0.1748  1.2028 -0.3143
 8235SOL    HW136341   1.576   0.008   8.184 -0.7975  2.8994 -0.0316
 8235SOL    HW236342   1.437   4.705   8.200 -0.1892  1.4784 -0.2320
 8236SOL     OW36343   2.423   1.319  15.441 -0.5444  0.7879 -0.1350
 8236SOL    HW136344   2.498   1.378  15.452  0.3165 -0.1946 -0.7367
 8236SOL    HW236345   2.454   1.242  15.489 -2.7899 -0.4489 -0.6887
 8237SOL     OW36346   3.884   4.266   3.321 -0.1860 -0.1617  0.0207
 8237SOL    HW136347   3.931   4.349   3.310  0.4341 -0.2543  1.9207
 8237SOL    HW236348   3.915   4.235   3.406  1.0925 -0.1794 -0.4465
 8238SOL     OW36349   0.701   1.324   5.311 -0.8635  0.0348 -0.0842
 8238SOL    HW136350   0.745   1.378   5.246  0.5623 -0.5125  0.4225
 8238SOL    HW236351   0.669   1.394   5.368 -0.1974 -0.3536  0.7784
 8239SOL     OW36352   2.062   3.874   4.796  0.0232 -0.6184  0.7893
 8239SOL    HW136353   2.124   3.820   4.845  0.0024  0.9164  2.4887
 8239SOL    HW236354   1.979   3.869   4.843 -0.7304 -0.2480 -0.5018
 8240SOL     OW36355   3.539   3.300   2.467 -0.0154  0.5371  0.8362
 8240SOL    HW136356   3.467   3.335   2.415 -1.0463 -0.4566  1.5629
 8240SOL    HW236357   3.513   3.222   2.516 -1.2929  1.0399  0.9523
 8241SOL     OW36358   4.447   3.843   8.695  0.2907 -0.3048  0.1840
 8241SOL    HW136359   4.504   3.840   8.772 -0.4570  2.5842  0.8791
 8241SOL    HW236360   4.507   3.810   8.628 -0.3528 -2.7514  0.8017
 8242SOL     OW36361   3.814   3.122  10.821  0.2994  0.2878 -0.0197
 8242SOL    HW136362   3.741   3.099  10.878  0.2030  0.0450 -0.2416
 8242SOL    HW236363   3.859   3.191  10.869 -1.4995  2.0748 -0.8783
 8243SOL     OW36364   2.596   4.621   5.631  0.4750 -0.7733 -0.1334
 8243SOL    HW136365   2.627   4.536   5.601 -2.1923 -1.5672 -0.5821
 8243SOL    HW236366   2.502   4.607   5.625  0.6642 -0.3282 -3.7240
 8244SOL     OW36367   0.547   2.235   8.324  0.0251 -0.5554 -0.0221
 8244SOL    HW136368   0.555   2.186   8.242 -0.3318  0.0567 -0.4229
 8244SOL    HW236369   0.456   2.263   8.323  1.5298  4.2534  0.4756
 8245SOL     OW36370   2.212   0.996  15.463 -0.8071 -0.5099 -0.3091
 8245SOL    HW136371   2.300   1.012  15.429 -0.0287 -2.7278  0.6852
 8245SOL    HW236372   2.205   1.065  15.529  0.1753 -0.0841 -0.6477
 8246SOL     OW36373   4.535   2.053  12.278 -0.2316  0.2633 -0.2523
 8246SOL    HW136374   4.603   2.116  12.303  1.9329 -1.2676 -2.1726
 8246SOL    HW236375   4.570   1.978  12.328  0.5197  0.8578  0.1208
 8247SOL     OW36376   1.064   4.677   5.123 -0.3635  0.0147  0.1936
 8247SOL    HW136377   1.032   4.701   5.210 -0.4606 -0.7311  0.3623
 8247SOL    HW236378   0.987   4.628   5.092 -0.3531  1.4572 -2.0976
 8248SOL     OW36379   0.806   2.099  11.491 -0.6105 -0.3919 -0.0016
 8248SOL    HW136380   0.716   2.099  11.525 -0.6914 -2.8048 -0.2221
 8248SOL    HW236381   0.853   2.152  11.556 -1.4080  0.6550 -0.2820
 8249SOL     OW36382   2.242   1.789   8.073 -0.3868 -0.0666  0.0345
 8249SOL    HW136383   2.324   1.772   8.120  0.7997 -0.3393 -2.1097
 8249SOL    HW236384   2.219   1.879   8.095 -1.4830 -0.3984  0.2332
 8250SOL     OW36385   1.976   2.289   4.011  0.0725 -0.2702  0.3726
 8250SOL    HW136386   2.008   2.308   4.100 -0.7500  1.6207  0.2567
 8250SOL    HW236387   1.977   2.194   4.004 -1.2120 -0.2344 -0.1432
 8251SOL     OW36388   4.364   1.966   5.446  0.0161 -0.3438  0.8570
 8251SOL    HW136389   4.392   1.924   5.527 -0.7754 -0.6097  0.9889
 8251SOL    HW236390   4.444   1.941   5.400  0.4399 -0.4359  1.6364
 8252SOL     OW36391   2.923   1.849  16.856 -0.0562  0.6221 -0.5044
 8252SOL    HW136392   2.871   1.886  16.785 -0.0222  0.0455 -0.8320
 8252SOL    HW236393   2.869   1.772  16.873  0.4185  0.3735 -0.1252
 8253SOL     OW36394   1.558   4.241  12.823  0.0651  0.2305 -0.2513
 8253SOL    HW136395   1.619   4.314  12.825 -1.3639  1.4001  0.7473
 8253SOL    HW236396   1.507   4.265  12.901 -0.5999  2.3028 -1.3239
 8254SOL     OW36397   1.363   0.423   6.436 -0.3873 -0.1995 -0.4445
 8254SOL    HW136398   1.403   0.477   6.504  0.3019  0.2350 -1.1838
 8254SOL    HW236399   1.297   0.376   6.487  0.9856 -0.4498  1.0995
 8255SOL     OW36400   0.185   2.465  13.893 -0.1127 -0.5344 -0.6908
 8255SOL    HW136401   0.148   2.524  13.827  1.1991  1.4422  0.3451
 8255SOL    HW236402   0.276   2.467  13.861  0.1572  0.2840  0.1317
 8256SOL     OW36403   3.046   3.978   6.105 -0.0223  0.4972  0.2998
 8256SOL    HW136404   3.079   3.892   6.132  1.3469  1.1544  0.6998
 8256SOL    HW236405   3.027   3.960   6.012 -0.9816  0.2383  0.5461
 8257SOL     OW36406   1.070   4.492   1.925 -0.4059  0.3364  0.2223
 8257SOL    HW136407   1.105   4.527   2.007  1.9870  0.5315 -0.8776
 8257SOL    HW236408   0.978   4.490   1.949 -0.4841 -1.6470 -0.2301
 8258SOL     OW36409   4.470   2.826  13.814  0.3178  0.2041 -0.6033
 8258SOL    HW136410   4.432   2.774  13.743  2.4560 -1.5499 -0.4785
 8258SOL    HW236411   4.403   2.818  13.882  0.4996  0.4090 -0.3995
 8259SOL     OW36412   0.169   4.253   7.172  0.1136 -0.1706  0.0256
 8259SOL    HW136413   0.172   4.209   7.257  0.4524  2.5444  1.4252
 8259SOL    HW236414   0.240   4.317   7.181  0.4235 -0.4842 -0.1589
 8260SOL     OW36415   1.242   0.201  13.704 -0.8523  0.5398  0.3966
 8260SOL    HW136416   1.287   0.262  13.762 -1.8960  0.3341  1.4314
 8260SOL    HW236417   1.257   0.124  13.760  0.2681  0.8007  0.4552
 8261SOL     OW36418   1.208   2.132  10.300 -0.2354  0.0006  0.1119
 8261SOL    HW136419   1.224   2.172  10.215  2.1862 -0.7155  0.2237
 8261SOL    HW236420   1.204   2.039  10.280  2.7083 -0.9935  4.1147
 8262SOL     OW36421   1.435   4.442   0.137 -0.2410 -0.5769 -0.4506
 8262SOL    HW136422   1.487   4.368   0.105 -1.1852 -1.1860 -0.5648
 8262SOL    HW236423   1.464   4.513   0.080  0.2505 -0.4173 -0.0049
 8263SOL     OW36424   2.922   2.462  15.631 -0.0317 -0.0902 -0.2348
 8263SOL    HW136425   2.925   2.449  15.537  0.9917  2.2742 -0.5426
 8263SOL    HW236426   2.983   2.536  15.635 -0.6352  0.5050 -2.3810
 8264SOL     OW36427   2.428   3.965   7.916  0.0986 -0.0592 -0.1284
 8264SOL    HW136428   2.488   4.033   7.885 -0.3160 -0.6857 -2.2798
 8264SOL    HW236429   2.467   3.916   7.989 -0.9178  1.2805  1.3033
 8265SOL     OW36430   0.052   3.663  15.499 -0.7694 -0.8137 -0.0808
 8265SOL    HW136431   0.093   3.692  15.417 -2.0652 -1.1445 -0.8421
 8265SOL    HW236432   4.705   3.702  15.494 -0.7832 -0.7718  0.5115
 8266SOL     OW36433   4.246   4.255   2.795  0.0848 -0.9139  0.2817
 8266SOL    HW136434   4.276   4.260   2.704  0.0785  0.7445  0.3706
 8266SOL    HW236435   4.188   4.179   2.787  1.0822 -1.6196 -0.2022
 8267SOL     OW36436   3.585   2.660   1.931 -0.0554  0.7222  0.0109
 8267SOL    HW136437   3.674   2.658   1.894  0.7736  2.1646  1.9119
 8267SOL    HW236438   3.551   2.745   1.903 -1.4988  0.5319  1.1591
 8268SOL     OW36439   0.317   4.419  10.171  0.5626  0.2126 -0.3999
 8268SOL    HW136440   0.244   4.357  10.170  0.3196  0.4949  0.1310
 8268SOL    HW236441   0.287   4.492  10.224 -1.0723  0.1680 -1.2762
 8269SOL     OW36442   1.918   3.334   5.978 -0.2766 -0.2860  0.3072
 8269SOL    HW136443   1.949   3.257   6.025 -0.0595 -0.1487  0.3885
 8269SOL    HW236444   2.000   3.382   5.965 -0.0517 -2.1731 -5.2200
 8270SOL     OW36445   0.582   3.525   3.989 -0.4896 -0.1774 -0.4580
 8270SOL    HW136446   0.606   3.601   3.935  1.3319 -0.7357 -0.4292
 8270SOL    HW236447   0.629   3.548   4.070  1.9337  1.0634 -2.1955
 8271SOL     OW36448   2.680   1.591   4.948 -0.5690  0.3141  0.0124
 8271SOL    HW136449   2.640   1.580   4.862 -0.4986 -0.4644  0.0846
 8271SOL    HW236450   2.680   1.686   4.961  2.1928  0.2209  0.5685
 8272SOL     OW36451   4.459   0.207   6.640 -0.4456 -0.1334 -0.9119
 8272SOL    HW136452   4.536   0.259   6.616  0.0334 -0.7830 -0.7679
 8272SOL    HW236453   4.468   0.199   6.734 -2.7480  0.1384 -0.6589
 8273SOL     OW36454   4.696   4.618   9.525  0.6889 -0.4604  0.3446
 8273SOL    HW136455   4.659   4.577   9.603 -1.1873  2.1345  0.8275
 8273SOL    HW236456   4.674   4.564   9.450 -0.3671  1.7600 -0.9314
 8274SOL     OW36457   0.290   3.467  11.640  0.1557  0.1085 -0.6635
 8274SOL    HW136458   0.216   3.509  11.597  1.5370  2.7205 -0.5322
 8274SOL    HW236459   0.357   3.516  11.591 -1.1781  1.1713 -1.4218
 8275SOL     OW36460   4.627   0.906   2.799  0.0435 -0.5878 -0.0094
 8275SOL    HW136461   4.545   0.874   2.838  0.9715 -1.4410  1.2608
 8275SOL    HW236462   4.649   0.987   2.846 -2.3650  0.3987 -0.5646
 8276SOL     OW36463   3.971   2.675   6.336 -0.4664  0.6946  0.1666
 8276SOL    HW136464   4.050   2.730   6.346 -0.0397  0.0447  0.3600
 8276SOL    HW236465   3.968   2.621   6.414 -0.7396  0.3826 -0.0614
 8277SOL     OW36466   4.179   2.195  12.694 -0.3892 -0.1907 -0.0576
 8277SOL    HW136467   4.141   2.279  12.667 -0.7162  0.0370  1.0778
 8277SOL    HW236468   4.260   2.185  12.645  0.2644  2.5376  0.4314
 8278SOL     OW36469   1.950   0.436   4.613 -0.4936  0.3037  0.6409
 8278SOL    HW136470   1.970   0.343   4.619  1.3525  0.6424 -0.3389
 8278SOL    HW236471   2.035   0.472   4.591 -0.2220 -0.2990  0.7196
 8279SOL     OW36472   2.787   1.228   9.950  0.1210  0.4109 -0.1920
 8279SOL    HW136473   2.805   1.188  10.035 -0.2854 -3.5101 -1.9503
 8279SOL    HW236474   2.879   1.249   9.935  1.2720 -3.7039  1.1195
 8280SOL     OW36475   2.470   1.745   0.539  0.6362  0.1879 -0.0083
 8280SOL    HW136476   2.383   1.786   0.542  0.2098 -0.8406  1.4206
 8280SOL    HW236477   2.520   1.818   0.502  1.1793 -0.1529  0.0634
 8281SOL     OW36478   2.244   2.412   6.623  0.0338 -0.2516 -0.0688
 8281SOL    HW136479   2.221   2.346   6.558 -2.9054  1.5128 -0.8105
 8281SOL    HW236480   2.336   2.421   6.597  0.2422  1.8777  1.4187
 8282SOL     OW36481   4.232   1.301   9.011 -0.6798 -0.6417 -0.4534
 8282SOL    HW136482   4.294   1.240   9.051  0.4828  0.8428  0.0086
 8282SOL    HW236483   4.267   1.386   9.039  1.8245 -1.7097 -0.3878
 8283SOL     OW36484   4.159   1.551  15.609 -0.0979  0.0259  0.1000
 8283SOL    HW136485   4.136   1.531  15.699 -1.8336 -1.6786 -0.7238
 8283SOL    HW236486   4.069   1.570  15.583  0.1460  1.8126  0.5467
 8284SOL     OW36487   4.284   2.857  12.363  0.3401 -0.2552  0.8462
 8284SOL    HW136488   4.194   2.880  12.342 -0.6458 -1.7601  3.4019
 8284SOL    HW236489   4.316   2.938  12.404  1.2043 -1.2362  2.1394
 8285SOL     OW36490   2.762   1.388   2.642  1.2218 -0.3253 -0.2954
 8285SOL    HW136491   2.786   1.452   2.576  0.1874 -0.6599 -0.9942
 8285SOL    HW236492   2.707   1.330   2.588  0.0339 -0.4749  1.0777
 8286SOL     OW36493   2.356   2.530   4.672 -0.4235 -0.2971  0.3148
 8286SOL    HW136494   2.335   2.469   4.742 -1.2981  0.0619  0.3622
 8286SOL    HW236495   2.367   2.614   4.716  1.3082  0.9284 -2.3831
 8287SOL     OW36496   1.420   1.620   6.335 -0.3880  0.2281 -0.8166
 8287SOL    HW136497   1.359   1.577   6.276 -0.0005 -1.7095  0.1869
 8287SOL    HW236498   1.374   1.704   6.340  0.3326  0.7218 -2.3493
 8288SOL     OW36499   2.591   0.649   1.110  0.8537 -0.2125  0.4857
 8288SOL    HW136500   2.633   0.641   1.025 -0.4394 -3.5125  0.1637
 8288SOL    HW236501   2.551   0.736   1.101 -0.1239 -0.7265 -0.1490
 8289SOL     OW36502   2.663   4.317  10.987  0.9590  0.4602 -0.3497
 8289SOL    HW136503   2.686   4.274  10.905  0.3330  0.0124 -0.2898
 8289SOL    HW236504   2.681   4.409  10.965  0.6720  0.3992 -0.8221
 8290SOL     OW36505   1.858   2.675   9.732  0.7511  0.4003 -0.2918
 8290SOL    HW136506   1.855   2.702   9.823  1.6963  0.5855 -0.3148
 8290SOL    HW236507   1.770   2.647   9.707  0.8296 -0.3241  0.2331
 8291SOL     OW36508   0.615   0.653   7.290 -0.0827  0.0536 -0.1526
 8291SOL    HW136509   0.672   0.694   7.355 -2.0390 -0.4294  1.8536
 8291SOL    HW236510   0.561   0.613   7.358 -0.4987 -1.1930 -1.2066
 8292SOL     OW36511   3.292   4.130   6.117 -0.2278  0.2685  0.0512
 8292SOL    HW136512   3.204   4.105   6.090 -0.2456 -1.4456  1.6988
 8292SOL    HW236513   3.277   4.211   6.165 -0.7020 -0.0101  0.3711
 8293SOL     OW36514   3.499   2.476   7.099  0.0957  0.6867  0.3059
 8293SOL    HW136515   3.528   2.495   7.188 -0.8053 -1.5743  1.0805
 8293SOL    HW236516   3.418   2.527   7.099  0.0975  0.7089 -1.8620
 8294SOL     OW36517   3.324   3.362   1.839  0.2982 -0.5946  0.2668
 8294SOL    HW136518   3.302   3.286   1.785 -1.0359  0.6847 -1.0009
 8294SOL    HW236519   3.277   3.338   1.919 -1.3582  0.4883 -0.3720
 8295SOL     OW36520   4.271   0.221   8.811  0.1149  0.0602  0.5037
 8295SOL    HW136521   4.240   0.301   8.853 -1.0301  0.2925 -0.8140
 8295SOL    HW236522   4.282   0.159   8.883  3.3249  0.6636  0.5660
 8296SOL     OW36523   3.266   2.382   7.983  0.3266  0.5981 -0.0796
 8296SOL    HW136524   3.315   2.454   7.942  1.0038 -0.6477 -1.4477
 8296SOL    HW236525   3.310   2.376   8.068 -1.1602 -2.8663  0.4451
 8297SOL     OW36526   0.139   0.154   7.924  0.1520  0.2809  0.1105
 8297SOL    HW136527   0.111   0.194   8.006  1.5379  0.8882  0.2931
 8297SOL    HW236528   0.121   0.220   7.856 -1.5020 -0.3502 -0.0597
 8298SOL     OW36529   2.157   4.315   1.242 -0.0868  0.2868  0.0125
 8298SOL    HW136530   2.070   4.275   1.239 -0.0180  0.3906 -3.0379
 8298SOL    HW236531   2.176   4.332   1.150  0.4825 -0.5182 -0.0104
 8299SOL     OW36532   0.309   3.422   3.949  0.4707  0.3469 -0.2552
 8299SOL    HW136533   0.287   3.449   4.039 -0.0778 -2.0940  0.3687
 8299SOL    HW236534   0.387   3.472   3.928  0.0707  0.1337 -2.2518
 8300SOL     OW36535   2.301   4.436   6.251  0.2067  0.3331  0.0867
 8300SOL    HW136536   2.365   4.503   6.275  1.4110 -0.7798 -0.0020
 8300SOL    HW236537   2.307   4.453   6.157  2.1795  1.0029  0.3287
 8301SOL     OW36538   1.307   0.753  16.935  0.5450  0.3330  0.0412
 8301SOL    HW136539   1.296   0.830  16.991 -0.5500  0.9215 -0.9947
 8301SOL    HW236540   1.307   0.777  16.843  2.6489  1.5194  0.3634
 8302SOL     OW36541   0.882   0.198   6.333 -0.1706  0.1106 -0.1421
 8302SOL    HW136542   0.922   0.271   6.285 -0.8087  1.6581  1.6864
 8302SOL    HW236543   0.788   0.210   6.320 -0.0769  0.0289 -0.8803
 8303SOL     OW36544   1.704   1.982   7.100  0.3875 -0.6593  0.4171
 8303SOL    HW136545   1.725   2.053   7.039  0.4158  0.8447  2.1742
 8303SOL    HW236546   1.625   1.941   7.064  0.0816  1.2167 -1.0454
 8304SOL     OW36547   3.852   4.151  14.691  0.6982 -0.1028 -0.0802
 8304SOL    HW136548   3.828   4.087  14.625  1.0826 -0.2749 -0.0546
 8304SOL    HW236549   3.876   4.220  14.630  1.1969  0.3387  0.6169
 8305SOL     OW36550   2.474   3.847  11.014  0.4105  0.6947 -0.0274
 8305SOL    HW136551   2.386   3.826  11.046 -0.2082  1.4682 -1.2466
 8305SOL    HW236552   2.512   3.761  10.995  3.0898  1.9739 -0.4299
 8306SOL     OW36553   3.860   0.387   1.729 -0.4113 -0.0761  0.0094
 8306SOL    HW136554   3.916   0.437   1.669  0.1059 -0.9640 -0.2441
 8306SOL    HW236555   3.925   0.345   1.785 -1.2464 -0.6221  0.5747
 8307SOL     OW36556   1.985   0.481  12.620 -0.3411  0.2638 -0.1761
 8307SOL    HW136557   1.982   0.449  12.710 -0.7644  0.3527 -0.1550
 8307SOL    HW236558   1.908   0.538  12.625  1.1949  2.3795 -0.9674
 8308SOL     OW36559   3.669   4.549   1.429  0.2093  0.0353 -0.3670
 8308SOL    HW136560   3.617   4.628   1.444 -1.8134 -0.9305 -2.1435
 8308SOL    HW236561   3.633   4.525   1.343  0.8734  0.8076 -0.8570
 8309SOL     OW36562   3.592   2.763   2.294  0.5656 -0.2098 -0.5211
 8309SOL    HW136563   3.684   2.776   2.271  1.1330  0.0908  1.9519
 8309SOL    HW236564   3.573   2.845   2.340 -0.1584 -0.0095 -1.1782
 8310SOL     OW36565   1.111   2.681  15.263 -0.4334  0.0717 -0.4758
 8310SOL    HW136566   1.144   2.649  15.179  0.7786  1.8763 -0.6800
 8310SOL    HW236567   1.172   2.755  15.265 -0.1895 -0.1709  0.9310
 8311SOL     OW36568   1.809   4.580   4.422  0.0634 -0.8303 -0.0312
 8311SOL    HW136569   1.843   4.569   4.334  2.1002 -0.6174  0.7185
 8311SOL    HW236570   1.837   4.494   4.455 -0.4963 -0.7283  0.7065
 8312SOL     OW36571   1.411   0.184   2.953  0.3313  0.4291  0.5681
 8312SOL    HW136572   1.454   0.144   2.878  0.8142  2.3780 -0.2068
 8312SOL    HW236573   1.396   0.274   2.923 -2.3495  0.4826  1.9962
 8313SOL     OW36574   0.837   3.599  13.701  0.3449  0.7855  0.4863
 8313SOL    HW136575   0.880   3.634  13.622  0.0888  0.3314  0.1502
 8313SOL    HW236576   0.798   3.684  13.726  1.5542  1.6942 -0.7204
 8314SOL     OW36577   4.723   3.018   7.813 -0.0298 -0.7147 -0.0762
 8314SOL    HW136578   0.075   2.994   7.822 -0.0787 -0.4221  1.3374
 8314SOL    HW236579   4.685   2.946   7.864  0.7360 -2.3256 -1.7856
 8315SOL     OW36580   2.784   3.111   5.057 -0.8035 -0.7279  0.1899
 8315SOL    HW136581   2.772   3.092   4.964  0.7533  1.4510 -0.4221
 8315SOL    HW236582   2.797   3.205   5.059 -0.6760 -0.7846  2.3840
 8316SOL     OW36583   2.959   2.639  16.703 -0.3168 -0.0388  0.0253
 8316SOL    HW136584   2.937   2.681  16.786  3.0752  2.1959 -0.2004
 8316SOL    HW236585   2.876   2.596  16.683 -0.9931  1.1256  0.3686
 8317SOL     OW36586   3.160   0.739   5.651  0.3586  0.0036 -0.1734
 8317SOL    HW136587   3.169   0.751   5.556  2.7897 -0.5710 -0.0111
 8317SOL    HW236588   3.220   0.666   5.670 -0.7283 -0.8305  0.0594
 8318SOL     OW36589   1.051   3.444  14.869  0.1440 -0.7157  0.1928
 8318SOL    HW136590   0.998   3.517  14.900  0.2448 -0.6268  0.1555
 8318SOL    HW236591   1.007   3.416  14.789  0.7354 -3.2305  0.7141
 8319SOL     OW36592   2.078   4.555   7.658  0.2981 -0.6036  0.0732
 8319SOL    HW136593   2.066   4.624   7.723 -0.7307 -1.8507  1.2187
 8319SOL    HW236594   2.137   4.494   7.704  0.8818 -0.3629 -0.3609
 8320SOL     OW36595   0.816   3.785   0.337 -0.1817 -0.1178  0.2644
 8320SOL    HW136596   0.757   3.854   0.369 -0.3835 -0.2296  0.1356
 8320SOL    HW236597   0.858   3.837   0.269 -2.1507  2.2868  0.8731
 8321SOL     OW36598   0.697   3.229   7.215  0.3937 -0.6665 -0.0546
 8321SOL    HW136599   0.644   3.240   7.136  0.5663 -1.3117 -0.2605
 8321SOL    HW236600   0.646   3.290   7.268 -1.1668 -0.0640 -2.2691
 8322SOL     OW36601   2.464   0.208   9.036 -0.7407  0.0684  0.5351
 8322SOL    HW136602   2.389   0.158   9.006  0.0945  0.2386 -1.8440
 8322SOL    HW236603   2.503   0.236   8.953 -0.2988  0.1288  0.7655
 8323SOL     OW36604   2.723   2.016   7.110  0.4422  0.5471  0.1558
 8323SOL    HW136605   2.790   2.062   7.160 -0.4702  0.7782  1.1700
 8323SOL    HW236606   2.751   2.023   7.019 -1.3815  2.2792 -0.2779
 8324SOL     OW36607   1.065   3.440   4.572  0.3077  0.3169 -0.0320
 8324SOL    HW136608   1.044   3.450   4.665 -1.4377 -0.2985 -0.3568
 8324SOL    HW236609   1.091   3.529   4.548 -3.0334  1.5971  1.0047
 8325SOL     OW36610   0.994   2.833  10.036 -0.0032 -0.5493 -0.0380
 8325SOL    HW136611   0.957   2.766  10.094 -1.2728  1.5106  1.5180
 8325SOL    HW236612   1.084   2.836  10.067  0.6844  1.9973 -2.2637
 8326SOL     OW36613   2.179   2.170   9.485  0.0838  0.1801  0.2881
 8326SOL    HW136614   2.228   2.252   9.483 -0.4075  0.4662  0.0612
 8326SOL    HW236615   2.095   2.206   9.456 -0.4912 -2.7797 -1.8093
 8327SOL     OW36616   2.309   3.503  14.886 -0.4089  0.3588  0.4501
 8327SOL    HW136617   2.351   3.421  14.914 -0.9614  0.2648  1.0083
 8327SOL    HW236618   2.239   3.465  14.832  0.3250 -0.7534  0.2672
 8328SOL     OW36619   1.297   1.812   7.465  0.1210  0.7820 -0.3698
 8328SOL    HW136620   1.222   1.868   7.483 -1.9217 -2.7404  2.0875
 8328SOL    HW236621   1.368   1.844   7.521  1.3822 -0.8671 -1.0069
 8329SOL     OW36622   1.032   1.472   5.997 -0.4726 -0.3065 -0.0909
 8329SOL    HW136623   1.035   1.401   5.933 -4.3996 -3.0817  2.8435
 8329SOL    HW236624   1.022   1.549   5.941  1.5935 -0.7347 -1.0572
 8330SOL     OW36625   2.587   3.993   4.131  0.3491 -0.3039 -0.3155
 8330SOL    HW136626   2.512   3.971   4.187 -0.0064 -0.7484 -0.9636
 8330SOL    HW236627   2.641   4.051   4.184  1.7413 -1.9910  0.0993
 8331SOL     OW36628   0.201   3.468   5.736  0.0497  0.2874 -0.2801
 8331SOL    HW136629   0.145   3.545   5.738  0.0499  0.2805  0.0892
 8331SOL    HW236630   0.281   3.497   5.779 -0.1089  1.4930 -0.8133
 8332SOL     OW36631   0.271   1.928   6.704  0.5636  0.0694  0.0505
 8332SOL    HW136632   0.277   1.843   6.749  1.2603  0.8850  1.5002
 8332SOL    HW236633   0.179   1.939   6.682 -0.1345 -0.8231  2.4496
 8333SOL     OW36634   1.386   1.308   5.440 -0.3327  0.0819  0.4589
 8333SOL    HW136635   1.374   1.359   5.360  0.5195  0.5317  0.6244
 8333SOL    HW236636   1.409   1.378   5.500  1.2420  0.3967 -0.5229
 8334SOL     OW36637   0.990   0.336  15.775  0.1415 -0.8313 -0.3035
 8334SOL    HW136638   0.974   0.267  15.839 -1.2370  0.3469  0.6381
 8334SOL    HW236639   1.054   0.393  15.818  1.5927 -3.2236  0.7017
 8335SOL     OW36640   2.061   2.021   5.378  0.4471  0.5753  0.1137
 8335SOL    HW136641   2.070   2.100   5.324 -1.0995 -0.1633 -1.2472
 8335SOL    HW236642   2.121   1.963   5.330 -0.2581  0.6914 -0.9102
 8336SOL     OW36643   0.382   2.312   9.371 -0.4612  0.0931  0.2062
 8336SOL    HW136644   0.307   2.342   9.319 -1.4331 -1.7597  0.5315
 8336SOL    HW236645   0.392   2.392   9.423  2.6274 -1.9935  2.7697
 8337SOL     OW36646   4.335   1.583   6.567 -0.2883 -0.3086 -0.0723
 8337SOL    HW136647   4.377   1.511   6.615 -0.6671 -2.1295 -2.4481
 8337SOL    HW236648   4.361   1.668   6.601  0.5001 -0.3130 -0.6663
 8338SOL     OW36649   3.366   2.216  17.367  0.0253 -0.4573  0.0554
 8338SOL    HW136650   3.452   2.257  17.375  0.6386 -1.8585  0.6906
 8338SOL    HW236651   3.361   2.170  17.451  0.1338  1.2408  0.9867
 8339SOL     OW36652   4.245   0.836   6.687 -0.1544 -0.0049 -0.1747
 8339SOL    HW136653   4.306   0.825   6.614  1.3461 -0.6668  1.1821
 8339SOL    HW236654   4.296   0.867   6.762 -2.5908  1.2393  0.9753
 8340SOL     OW36655   2.630   4.550  16.800 -0.6559  0.3688  0.2784
 8340SOL    HW136656   2.699   4.491  16.768 -0.2146  0.4869  1.0084
 8340SOL    HW236657   2.551   4.497  16.798  0.5424 -1.4392  0.6094
 8341SOL     OW36658   3.675   0.616  16.773  0.4321 -0.2328  0.0790
 8341SOL    HW136659   3.726   0.537  16.791  1.6477  0.1858 -1.5897
 8341SOL    HW236660   3.717   0.652  16.695  0.2234 -0.0603  0.0466
 8342SOL     OW36661   4.705   3.554   4.522  0.0101  0.0604  0.3527
 8342SOL    HW136662   4.690   3.483   4.584  1.6258 -0.9200 -0.3684
 8342SOL    HW236663   4.637   3.609   4.560 -2.2729 -1.6515 -1.2883
 8343SOL     OW36664   2.401   4.082  10.897 -0.2950 -0.0939  0.0643
 8343SOL    HW136665   2.424   3.997  10.933 -1.7695 -1.2370 -1.6989
 8343SOL    HW236666   2.468   4.142  10.929 -1.0512  0.3223  0.8752
 8344SOL     OW36667   1.973   3.445   7.640  0.2366  0.2053  0.2357
 8344SOL    HW136668   1.909   3.513   7.619  2.7001  2.3824 -0.1031
 8344SOL    HW236669   1.925   3.363   7.625 -0.9350  0.7842  0.8444
 8345SOL     OW36670   4.600   2.465   0.536 -0.2189 -0.2100 -0.8995
 8345SOL    HW136671   4.545   2.424   0.602  2.3298  0.4464  1.6565
 8345SOL    HW236672   4.686   2.459   0.577 -0.2532  1.7670 -0.5319
 8346SOL     OW36673   4.501   3.729  15.524 -0.2486  0.2026 -0.6203
 8346SOL    HW136674   4.462   3.797  15.469  2.1287  2.2614  0.2338
 8346SOL    HW236675   4.423   3.697  15.570 -0.1844  0.9879  0.0295
 8347SOL     OW36676   2.423   2.427   5.778  0.3631  0.0063  0.7857
 8347SOL    HW136677   2.513   2.424   5.745 -0.0931  0.5816 -0.4876
 8347SOL    HW236678   2.434   2.347   5.830 -0.1702 -0.3042  0.4172
 8348SOL     OW36679   3.879   3.981   1.296  0.7364  0.1093  0.1601
 8348SOL    HW136680   3.908   3.987   1.205  2.3115 -2.0722  0.5037
 8348SOL    HW236681   3.789   4.012   1.297  0.6611 -0.2160  2.4944
 8349SOL     OW36682   1.949   2.540   2.234 -0.5093  0.5127  0.8961
 8349SOL    HW136683   2.009   2.587   2.176  1.2976  0.3596  2.6453
 8349SOL    HW236684   1.903   2.485   2.171 -0.7859  2.5892 -0.7010
 8350SOL     OW36685   1.105   4.280  11.807 -0.3108  0.1497  0.0927
 8350SOL    HW136686   1.151   4.202  11.778  0.1239  1.3001 -2.2871
 8350SOL    HW236687   1.014   4.250  11.806 -0.6078  1.1484 -1.9381
 8351SOL     OW36688   3.463   0.352   2.363  0.2828  0.1941  0.1115
 8351SOL    HW136689   3.465   0.376   2.270  0.3396  1.9037  0.5522
 8351SOL    HW236690   3.442   0.260   2.377 -2.6707  1.0682  1.3733
 8352SOL     OW36691   3.589   3.284   7.791  0.5172  0.7064  0.1571
 8352SOL    HW136692   3.660   3.220   7.778  1.8259  2.6126 -2.0739
 8352SOL    HW236693   3.511   3.230   7.802  2.8104 -1.8015  4.2582
 8353SOL     OW36694   3.425   0.206  15.437  0.3365  0.9856 -0.3915
 8353SOL    HW136695   3.446   0.217  15.344  1.2081  2.3719 -0.0311
 8353SOL    HW236696   3.329   0.211  15.437  0.2889  0.1160 -0.9625
 8354SOL     OW36697   1.947   1.395   8.202  0.6523 -0.0803  0.3144
 8354SOL    HW136698   1.914   1.386   8.292 -1.1760  0.3359 -0.3319
 8354SOL    HW236699   2.013   1.460   8.225  1.0665  0.1259 -1.4723
 8355SOL     OW36700   0.763   4.506   1.600  0.5509  0.1378  0.4017
 8355SOL    HW136701   0.829   4.554   1.650  0.5762 -0.3068  0.7879
 8355SOL    HW236702   0.815   4.458   1.535 -0.1188 -0.8563  0.5940
 8356SOL     OW36703   2.267   0.413  12.922 -0.6314  0.0814  0.4933
 8356SOL    HW136704   2.314   0.490  12.955  0.0531 -0.0218 -0.2594
 8356SOL    HW236705   2.346   0.363  12.903 -0.1232 -0.0686  3.0666
 8357SOL     OW36706   3.155   3.952   7.226 -0.2359  0.1297 -0.6127
 8357SOL    HW136707   3.208   3.897   7.284 -0.2261 -0.1018 -0.8397
 8357SOL    HW236708   3.067   3.916   7.230  0.1221 -0.7046 -0.2165
 8358SOL     OW36709   3.388   3.437   6.758 -0.0339  0.2125  0.3970
 8358SOL    HW136710   3.347   3.450   6.843 -0.8425  2.1336 -0.3031
 8358SOL    HW236711   3.364   3.507   6.698 -0.1352  0.7039  1.0217
 8359SOL     OW36712   4.639   3.501  16.423  0.3682  0.4533  0.3390
 8359SOL    HW136713   4.657   3.409  16.406 -1.1663 -0.0669  1.5042
 8359SOL    HW236714   4.620   3.502  16.517 -0.7684 -0.3710  0.1130
 8360SOL     OW36715   0.424   3.322   1.541  0.0623 -0.3317  0.2997
 8360SOL    HW136716   0.496   3.383   1.551  1.9223 -3.0778  3.7544
 8360SOL    HW236717   0.434   3.293   1.450 -1.4100  0.7333 -0.2102
 8361SOL     OW36718   1.918   3.580   4.771  0.2897 -0.2459 -0.5153
 8361SOL    HW136719   1.978   3.586   4.696  2.6447 -0.3213  1.3747
 8361SOL    HW236720   1.850   3.637   4.735  1.9318  2.0438 -0.0383
 8362SOL     OW36721   3.420   3.303   9.161  0.1935  0.0817  0.0552
 8362SOL    HW136722   3.422   3.211   9.184 -1.6000 -0.3090 -1.3489
 8362SOL    HW236723   3.367   3.343   9.231 -0.0448  0.4575 -0.3350
 8363SOL     OW36724   1.710   2.069   4.926  0.4418  0.4088  0.1185
 8363SOL    HW136725   1.734   1.994   4.981  1.6418  1.4345  0.9675
 8363SOL    HW236726   1.762   2.135   4.971 -0.4381  1.4146 -0.3530
 8364SOL     OW36727   3.103   2.192   0.243 -0.1366 -0.2648 -0.1043
 8364SOL    HW136728   3.094   2.265   0.181 -1.0284 -1.0887 -0.9440
 8364SOL    HW236729   3.198   2.180   0.241 -0.2633 -1.4233  0.5873
 8365SOL     OW36730   0.354   1.489   8.601 -0.3143 -0.4374 -0.5310
 8365SOL    HW136731   0.363   1.399   8.569 -1.4913 -1.5692  2.3545
 8365SOL    HW236732   0.283   1.479   8.664 -0.6433  2.1792 -0.4552
 8366SOL     OW36733   3.002   0.672  15.276  0.2668 -0.2563  0.3065
 8366SOL    HW136734   2.914   0.633  15.274  0.3876 -0.5399  0.5707
 8366SOL    HW236735   2.988   0.723  15.196 -2.5000 -2.1015 -0.3957
 8367SOL     OW36736   1.869   4.097   5.456  0.6141  0.3657  0.2743
 8367SOL    HW136737   1.790   4.146   5.477  0.3624 -0.5755  1.4587
 8367SOL    HW236738   1.849   4.023   5.512  0.6856  1.2630  1.4944
 8368SOL     OW36739   3.029   2.942   4.644 -0.1824  0.2344  0.6163
 8368SOL    HW136740   3.026   2.905   4.556 -0.6103  1.2999  0.1786
 8368SOL    HW236741   3.099   2.884   4.673 -1.0213 -1.1469 -0.1342
 8369SOL     OW36742   4.098   3.115   6.758  0.9225 -0.6780  0.3883
 8369SOL    HW136743   4.152   3.193   6.748  2.4685 -1.5362  1.9100
 8369SOL    HW236744   4.012   3.155   6.751  0.6412 -1.2905  0.3111
 8370SOL     OW36745   1.183   3.712   1.417 -0.0888  0.0989 -0.7765
 8370SOL    HW136746   1.141   3.763   1.348 -1.0750 -1.1650 -1.0950
 8370SOL    HW236747   1.110   3.692   1.476  0.7136 -1.5985 -0.3512
 8371SOL     OW36748   1.217   3.448   1.327 -0.2712  0.0695 -0.1693
 8371SOL    HW136749   1.300   3.464   1.282  0.2390  1.0820  1.1463
 8371SOL    HW236750   1.194   3.537   1.354 -1.5601 -0.6313  1.0563
 8372SOL     OW36751   4.733   1.857  10.616  0.1369 -0.2303  0.7153
 8372SOL    HW136752   4.695   1.867  10.703 -0.8249 -0.3253  0.3089
 8372SOL    HW236753   4.676   1.787  10.585 -1.0096  1.0421 -0.0583
 8373SOL     OW36754   4.482   4.008   9.459  0.0697  0.3513  0.2461
 8373SOL    HW136755   4.570   4.038   9.479  0.7358 -0.9593 -0.7313
 8373SOL    HW236756   4.451   3.953   9.532 -0.0807 -0.3360 -0.3340
 8374SOL     OW36757   3.389   3.189   7.975  0.3730  0.3655 -0.3921
 8374SOL    HW136758   3.345   3.223   8.052 -1.0131 -0.5188 -0.8088
 8374SOL    HW236759   3.463   3.249   7.961 -0.9296  2.3731  1.2664
 8375SOL     OW36760   2.357   1.813   3.150 -0.1826 -0.1224 -0.2216
 8375SOL    HW136761   2.263   1.804   3.161  0.1440 -0.1064  2.7064
 8375SOL    HW236762   2.355   1.893   3.097  1.8055  0.7354  1.0019
 8376SOL     OW36763   3.130   0.956   2.706 -0.1302 -0.7411  0.0911
 8376SOL    HW136764   3.040   0.962   2.738 -0.2194  1.4494 -0.6205
 8376SOL    HW236765   3.131   0.866   2.673 -2.1975 -1.1342  1.0908
 8377SOL     OW36766   3.424   2.921   1.732 -0.7168 -0.0828 -0.0576
 8377SOL    HW136767   3.499   2.936   1.676 -0.7946  2.3430  0.4909
 8377SOL    HW236768   3.465   2.941   1.816 -0.4680 -1.4455  0.1509
 8378SOL     OW36769   4.159   2.612   7.738  0.4923 -0.4548 -0.2077
 8378SOL    HW136770   4.158   2.521   7.709  0.6144 -0.5478  0.0797
 8378SOL    HW236771   4.189   2.612   7.829  1.9186  3.4051 -0.6478
 8379SOL     OW36772   3.641   3.347   7.189 -0.2252 -0.8379  0.1211
 8379SOL    HW136773   3.680   3.319   7.107  2.5375  4.1299 -0.2721
 8379SOL    HW236774   3.556   3.374   7.155  0.5481  1.3939 -0.0777
 8380SOL     OW36775   3.913   2.547   3.727 -0.1318  0.3295  0.5792
 8380SOL    HW136776   3.893   2.544   3.634  0.8218  0.5047  0.3706
 8380SOL    HW236777   3.990   2.604   3.736  0.0421  0.1303  0.3426
 8381SOL     OW36778   2.622   3.572   2.155  0.2347 -0.5300  0.4530
 8381SOL    HW136779   2.567   3.571   2.234  0.7573 -1.1225  0.8165
 8381SOL    HW236780   2.604   3.657   2.116  1.5225 -1.4510 -2.1179
 8382SOL     OW36781   4.106   3.187   3.007  0.0569 -0.8257 -0.9995
 8382SOL    HW136782   4.162   3.138   3.068 -0.0933  0.9217  0.5558
 8382SOL    HW236783   4.049   3.119   2.972 -1.3429 -2.1029  3.7661
 8383SOL     OW36784   3.287   1.984   7.585  0.1845  0.2688 -0.1838
 8383SOL    HW136785   3.256   2.063   7.629 -1.0763  0.8485 -2.1126
 8383SOL    HW236786   3.381   1.997   7.598 -0.1862  1.6482  1.0913
 8384SOL     OW36787   3.024   0.632   5.878 -0.1108 -0.7302 -0.6069
 8384SOL    HW136788   2.988   0.554   5.836  3.7905 -1.6995 -2.1857
 8384SOL    HW236789   3.051   0.683   5.802  0.3628  0.2621  0.2213
 8385SOL     OW36790   1.131   2.149  12.622  0.5059 -0.0219 -0.2609
 8385SOL    HW136791   1.186   2.086  12.669 -1.2508 -1.0560  0.3976
 8385SOL    HW236792   1.066   2.093  12.581  1.5016 -1.9383  0.8104
 8386SOL     OW36793   2.663   2.782   6.265  0.5362  0.1392  0.1745
 8386SOL    HW136794   2.628   2.695   6.244 -0.8598  0.0773  2.7399
 8386SOL    HW236795   2.736   2.783   6.203 -0.4323  0.7709 -0.9695
 8387SOL     OW36796   2.584   3.203   4.205  0.2168 -0.2498  0.1977
 8387SOL    HW136797   2.627   3.178   4.287  2.4841  0.3162 -0.8411
 8387SOL    HW236798   2.495   3.212   4.241 -0.2310 -0.1713 -0.9418
 8388SOL     OW36799   4.637   0.362  14.787  0.3027  0.0334 -0.2378
 8388SOL    HW136800   4.612   0.388  14.698 -1.5125  0.2581  0.3347
 8388SOL    HW236801   4.598   0.431  14.840 -0.5146 -0.0157 -0.7749
 8389SOL     OW36802   2.424   3.311  10.201  0.1996 -0.1682  0.0502
 8389SOL    HW136803   2.423   3.303  10.296 -0.5684  0.0457  0.0571
 8389SOL    HW236804   2.511   3.275  10.181  0.6865 -0.4853  2.7315
 8390SOL     OW36805   3.005   4.464   1.520 -0.4462  0.2573  0.4245
 8390SOL    HW136806   2.968   4.382   1.486 -1.7453  1.2817 -0.6181
 8390SOL    HW236807   2.927   4.462   1.577 -0.7700  1.5368  0.0186
 8391SOL     OW36808   2.026   2.817   9.483  0.2663  0.0918  0.4769
 8391SOL    HW136809   2.085   2.891   9.499 -1.3375  0.8553  2.7041
 8391SOL    HW236810   1.993   2.813   9.573 -0.6320 -1.5759  0.0683
 8392SOL     OW36811   3.210   3.938   8.245  0.1943  0.1512  0.3592
 8392SOL    HW136812   3.301   3.951   8.220 -0.5479  3.8173 -0.3937
 8392SOL    HW236813   3.205   3.843   8.238  0.3516  0.2072 -0.4854
 8393SOL     OW36814   3.963   1.120  10.957 -0.9977  0.6154 -0.6428
 8393SOL    HW136815   3.896   1.179  10.992 -1.4463 -1.0056  1.2256
 8393SOL    HW236816   4.027   1.181  10.921  0.8632 -1.3847 -0.7157
 8394SOL     OW36817   4.633   4.656   2.874 -0.1858  0.4352 -0.4476
 8394SOL    HW136818   4.673   4.570   2.881 -1.3260 -0.0669 -0.0965
 8394SOL    HW236819   4.698   4.693   2.815  1.3636 -3.4501 -1.1373
 8395SOL     OW36820   4.647   4.640   6.595  0.0168  0.0576  0.0562
 8395SOL    HW136821   4.682   4.700   6.661 -0.3088  0.0860  0.2073
 8395SOL    HW236822   4.587   4.585   6.645  2.6624 -0.4999  2.6109
 8396SOL     OW36823   2.961   4.499   6.218  0.0587  0.3324  0.3450
 8396SOL    HW136824   3.019   4.521   6.290  2.0074  1.4057 -1.5516
 8396SOL    HW236825   2.872   4.492   6.252  0.1534 -0.5438  0.4167
 8397SOL     OW36826   3.156   1.102   7.282 -0.3500  0.2898 -0.6171
 8397SOL    HW136827   3.146   1.188   7.323 -0.2040  0.6913 -1.4263
 8397SOL    HW236828   3.097   1.103   7.207  0.2610 -1.1736 -1.1287
 8398SOL     OW36829   4.351   1.041   2.999 -0.3482 -0.4046 -0.1316
 8398SOL    HW136830   4.386   1.010   3.082  1.3840 -0.5675 -0.9418
 8398SOL    HW236831   4.334   0.960   2.951 -1.4132 -0.6836  0.7053
 8399SOL     OW36832   3.333   2.220   3.935 -0.1065  0.1336 -0.0765
 8399SOL    HW136833   3.298   2.277   4.003 -0.4718 -0.4296  0.2051
 8399SOL    HW236834   3.389   2.280   3.885 -0.1707 -0.7660 -1.2334
 8400SOL     OW36835   0.185   0.998   2.759  0.1509  0.4352  0.2690
 8400SOL    HW136836   0.148   0.920   2.718 -2.8113  1.7914  0.3231
 8400SOL    HW236837   0.201   0.975   2.850 -0.6088  0.7028  0.4764
 8401SOL     OW36838   2.984   1.850   9.367  0.1480 -0.1522  0.0994
 8401SOL    HW136839   2.993   1.817   9.278  0.1379  0.0938  0.0099
 8401SOL    HW236840   2.966   1.767   9.412  3.5793 -0.7887  0.2895
 8402SOL     OW36841   4.622   0.865   0.009  0.0655  0.0139  0.4060
 8402SOL    HW136842   4.637   0.959   0.022 -0.7891  0.3533 -1.1115
 8402SOL    HW236843   4.642   0.837   0.098  1.7988  2.0962  0.6666
 8403SOL     OW36844   3.269   4.482   9.016 -0.4462 -0.5467  0.1116
 8403SOL    HW136845   3.230   4.556   9.063 -0.4392 -1.8253  2.1173
 8403SOL    HW236846   3.277   4.411   9.079  1.0523 -2.7317 -2.5566
 8404SOL     OW36847   3.692   1.183   2.977  0.4006  0.6168  0.5202
 8404SOL    HW136848   3.596   1.188   2.983  0.3437  2.4834 -2.1371
 8404SOL    HW236849   3.706   1.229   2.894  2.9763 -0.5663  0.2961
 8405SOL     OW36850   3.762   4.346   0.713  0.1070 -0.6092  0.4413
 8405SOL    HW136851   3.839   4.335   0.657 -1.3499  0.2219 -1.7600
 8405SOL    HW236852   3.806   4.355   0.797  1.6384 -0.3665 -0.3903
 8406SOL     OW36853   2.310   2.894   6.984  0.3399 -0.0715 -0.8321
 8406SOL    HW136854   2.271   2.947   7.054  1.0834  2.5065 -2.3403
 8406SOL    HW236855   2.258   2.936   6.916 -0.9101 -1.1616 -0.5347
 8407SOL     OW36856   1.718   0.043   1.718  0.2365 -0.2774  0.1229
 8407SOL    HW136857   1.780   4.717   1.749 -2.0459 -1.6176  1.8185
 8407SOL    HW236858   1.778   0.118   1.711  0.8759 -0.9536 -1.4969
 8408SOL     OW36859   3.996   0.771   0.389  0.5547  0.3025  0.0427
 8408SOL    HW136860   3.996   0.830   0.313  2.8008 -1.6678 -1.4775
 8408SOL    HW236861   3.957   0.697   0.343 -0.0451 -0.0411  1.1058
 8409SOL     OW36862   1.516   2.192   6.459  0.3294  0.3377 -0.1858
 8409SOL    HW136863   1.541   2.284   6.468 -1.6912  1.0120 -1.4950
 8409SOL    HW236864   1.581   2.137   6.504  0.8702  0.5410 -0.7389
 8410SOL     OW36865   2.837   0.197   7.318 -0.4353  0.1775  0.4973
 8410SOL    HW136866   2.819   0.234   7.231  0.3950  1.5617  0.9227
 8410SOL    HW236867   2.875   0.115   7.286 -0.0820  0.0272  1.3213
 8411SOL     OW36868   0.142   0.379  17.129  0.2406  0.4066  0.0485
 8411SOL    HW136869   0.143   0.347  17.219  1.0805  1.7949  0.5277
 8411SOL    HW236870   0.124   0.296  17.085 -0.2382 -0.6097  2.1643
 8412SOL     OW36871   2.611   0.048   3.027 -0.1028  0.0339 -0.2388
 8412SOL    HW136872   2.671   0.122   3.028  2.0514 -1.7818  4.5774
 8412SOL    HW236873   2.528   0.088   3.054 -1.3976 -1.1711 -2.4471
 8413SOL     OW36874   0.005   1.724   6.799 -0.3527 -0.5517  0.5911
 8413SOL    HW136875   0.040   1.714   6.887  1.8084  1.5649 -0.0232
 8413SOL    HW236876   0.075   1.697   6.740  0.7532  2.4012  0.5503
 8414SOL     OW36877   1.313   2.405  10.399 -0.2325  0.1329 -0.1961
 8414SOL    HW136878   1.332   2.491  10.362 -1.8581  0.7229  0.3480
 8414SOL    HW236879   1.218   2.409  10.407 -0.1047 -0.1074  1.4385
 8415SOL     OW36880   2.834   4.149  17.479 -0.1431 -0.2906  0.2477
 8415SOL    HW136881   2.812   4.092  17.553 -0.7730  0.9289  0.9836
 8415SOL    HW236882   2.902   4.204  17.517  0.7527  0.1114 -1.9480
 8416SOL     OW36883   2.529   0.942   5.647 -0.4463  0.2188 -0.1262
 8416SOL    HW136884   2.608   0.996   5.647 -0.8667  0.8570  1.4106
 8416SOL    HW236885   2.502   0.943   5.739  0.3825  0.9304  0.1094
 8417SOL     OW36886   3.431   1.310  12.359  0.3398 -0.5380 -0.1289
 8417SOL    HW136887   3.337   1.308  12.338  0.3928  2.7166 -0.5597
 8417SOL    HW236888   3.457   1.376  12.296 -0.6886 -0.6962 -0.7300
 8418SOL     OW36889   0.747   2.024   6.898 -0.6555 -0.1457 -0.0243
 8418SOL    HW136890   0.780   1.938   6.924  1.3791  0.7721  0.4685
 8418SOL    HW236891   0.664   2.017   6.852 -0.4864 -0.1900 -0.3241
 8419SOL     OW36892   2.403   2.709   0.918  0.6437  0.4305  0.1523
 8419SOL    HW136893   2.401   2.675   1.008  0.8400  1.2909  0.4869
 8419SOL    HW236894   2.314   2.694   0.887  0.1466 -2.0540  2.7942
 8420SOL     OW36895   0.740   1.051  15.833 -0.6982 -0.1673  0.2584
 8420SOL    HW136896   0.728   1.135  15.789 -2.5759  0.0741  1.2430
 8420SOL    HW236897   0.834   1.039  15.820 -1.1158 -2.6363 -0.4935
 8421SOL     OW36898   3.441   2.748   8.903  0.1296 -0.5261  0.0300
 8421SOL    HW136899   3.428   2.663   8.945 -0.0963  0.5070  2.0410
 8421SOL    HW236900   3.370   2.800   8.940 -1.2685 -2.0235 -0.5375
 8422SOL     OW36901   4.250   1.271   2.250  0.5683 -0.5494 -0.3200
 8422SOL    HW136902   4.161   1.305   2.242  0.0882 -2.0187 -1.1467
 8422SOL    HW236903   4.229   1.178   2.258 -1.0089 -0.5832 -4.3350
 8423SOL     OW36904   0.423   3.033  14.827 -0.0203 -0.2897  0.1276
 8423SOL    HW136905   0.481   2.964  14.859 -0.8759 -1.6694 -1.2649
 8423SOL    HW236906   0.493   3.087  14.789 -1.3908  0.7584 -0.9300
 8424SOL     OW36907   2.451   1.152   1.304  0.6539 -0.0576  0.3624
 8424SOL    HW136908   2.429   1.149   1.210  2.2194  0.8063 -0.0232
 8424SOL    HW236909   2.538   1.112   1.303  1.7276  2.3065  1.7148
 8425SOL     OW36910   1.634   2.756   6.903  0.0681 -0.2436 -0.5284
 8425SOL    HW136911   1.600   2.671   6.931  0.2527  0.0026  0.4460
 8425SOL    HW236912   1.725   2.750   6.934 -0.1282 -0.0184  0.1020
 8426SOL     OW36913   1.350   0.634   6.219 -0.1565  0.3704  0.2609
 8426SOL    HW136914   1.347   0.572   6.291  2.5326 -0.9704 -0.7529
 8426SOL    HW236915   1.263   0.672   6.216 -1.1406 -1.9076  0.0637
 8427SOL     OW36916   1.240   3.398   5.338 -0.5542 -0.2122  0.1126
 8427SOL    HW136917   1.323   3.370   5.298 -0.2788  0.1659  0.4185
 8427SOL    HW236918   1.214   3.453   5.265 -1.1167 -1.1313 -0.3838
 8428SOL     OW36919   0.406   0.403   3.254 -0.1436  0.5363  0.4743
 8428SOL    HW136920   0.463   0.380   3.180 -1.6046  0.3428 -0.5905
 8428SOL    HW236921   0.466   0.466   3.296 -1.4811  0.3452  2.6705
 8429SOL     OW36922   1.657   3.437   3.321  0.0360  0.1018  0.2118
 8429SOL    HW136923   1.569   3.422   3.288 -0.2122  3.7774 -0.7581
 8429SOL    HW236924   1.708   3.445   3.240  1.0359 -0.6937  0.7598
 8430SOL     OW36925   1.893   0.450   6.287  0.3173  0.3090 -0.9197
 8430SOL    HW136926   1.876   0.418   6.199  0.5780 -1.0439 -0.4808
 8430SOL    HW236927   1.893   0.546   6.281 -0.3752  0.2829 -1.2545
 8431SOL     OW36928   0.047   2.998  11.235  0.3010 -0.0413 -0.7880
 8431SOL    HW136929   0.119   2.938  11.216 -0.1301 -1.1493  1.0963
 8431SOL    HW236930   0.088   3.083  11.220  0.4872  0.0564  0.3150
 8432SOL     OW36931   2.750   0.564  15.205  0.4684 -0.7149  0.5164
 8432SOL    HW136932   2.664   0.592  15.236  1.1158  2.4185 -0.5649
 8432SOL    HW236933   2.731   0.470  15.195 -0.2603 -0.4540 -0.4590
 8433SOL     OW36934   3.501   2.053  10.414 -0.0677  0.4653  0.6643
 8433SOL    HW136935   3.562   1.979  10.409  1.2245  1.5268  0.8570
 8433SOL    HW236936   3.541   2.094  10.490 -1.6886  0.1666  1.6868
 8434SOL     OW36937   2.347   3.103   3.817  0.5701  0.0665  0.3400
 8434SOL    HW136938   2.433   3.093   3.856  1.4217 -0.0286 -1.5600
 8434SOL    HW236939   2.289   3.086   3.891  1.5304 -0.8842  0.8676
 8435SOL     OW36940   1.424   3.017   6.716 -0.2180  0.0805  0.1044
 8435SOL    HW136941   1.354   3.064   6.762 -0.6922 -0.7132  0.1970
 8435SOL    HW236942   1.492   3.024   6.782 -0.7721 -0.4478  0.7363
 8436SOL     OW36943   2.364   0.218   0.661  0.0305  0.4750  0.2917
 8436SOL    HW136944   2.377   0.280   0.590  0.9418  0.8455  0.7718
 8436SOL    HW236945   2.394   0.137   0.620  1.1428  0.7255  0.6012
 8437SOL     OW36946   0.149   3.502   4.327  0.1121  0.0727 -0.0930
 8437SOL    HW136947   0.083   3.511   4.396  1.5078 -0.0881  1.2578
 8437SOL    HW236948   0.155   3.591   4.292  1.0382 -0.4222 -1.1941
 8438SOL     OW36949   1.050   1.658   1.868  0.4734  0.0002 -0.9137
 8438SOL    HW136950   1.057   1.607   1.787  0.3686 -0.9239 -0.3494
 8438SOL    HW236951   0.983   1.599   1.905  1.1962  0.7856  1.6201
 8439SOL     OW36952   2.842   2.570   8.286 -0.0097  0.0273 -0.3732
 8439SOL    HW136953   2.907   2.621   8.334 -2.0762  1.0351  1.4040
 8439SOL    HW236954   2.899   2.502   8.251  1.3408  0.1550  1.5844
 8440SOL     OW36955   2.992   3.296   2.367  0.6218  0.2599 -0.2757
 8440SOL    HW136956   3.057   3.362   2.391 -0.2381  1.0331 -0.1187
 8440SOL    HW236957   2.969   3.255   2.450 -1.4192  0.8688 -0.5521
 8441SOL     OW36958   2.810   2.498   7.179  0.4152 -0.1749  0.8082
 8441SOL    HW136959   2.895   2.542   7.185  0.5825 -0.3059 -0.6017
 8441SOL    HW236960   2.774   2.513   7.092  1.1813  0.5134  0.6091
 8442SOL     OW36961   2.408   2.439   2.875 -0.0612  0.1421  0.5377
 8442SOL    HW136962   2.397   2.488   2.794  0.4760 -1.9510 -0.8008
 8442SOL    HW236963   2.422   2.347   2.853 -0.6484  0.8457 -2.7120
 8443SOL     OW36964   0.419   3.765   3.968 -0.0411 -0.5278 -0.1554
 8443SOL    HW136965   0.513   3.774   3.950  0.0281 -1.7867 -0.3982
 8443SOL    HW236966   0.392   3.852   3.937 -0.0200 -0.4358  0.0834
 8444SOL     OW36967   3.723   2.176   6.943 -0.1862 -0.4782  0.1911
 8444SOL    HW136968   3.809   2.169   6.902  0.3669 -2.5673  1.7479
 8444SOL    HW236969   3.738   2.117   7.016  2.8561  1.9428  1.5082
 8445SOL     OW36970   1.542   1.932  10.131  0.3400  0.3170  0.1652
 8445SOL    HW136971   1.613   1.868  10.133  2.6247  2.8183 -0.7665
 8445SOL    HW236972   1.500   1.919  10.216  1.7118 -0.2677  0.7465
 8446SOL     OW36973   0.106   1.665   7.043 -0.2345 -0.2392  0.2167
 8446SOL    HW136974   0.144   1.728   7.104  0.6359 -0.7174  0.1795
 8446SOL    HW236975   0.106   1.583   7.093 -1.0445 -1.0186 -1.0541
 8447SOL     OW36976   0.094   0.533  10.053  0.3363 -0.1339  0.4277
 8447SOL    HW136977   0.147   0.612  10.045 -0.7723  0.4355 -1.2585
 8447SOL    HW236978   0.064   0.519   9.963 -0.5585 -1.2399  0.8895
 8448SOL     OW36979   4.343   1.097   3.760 -0.0866  0.3415 -0.2171
 8448SOL    HW136980   4.282   1.055   3.821 -0.0522  0.3019 -0.2100
 8448SOL    HW236981   4.299   1.181   3.746  3.4911  2.3731  0.9123
 8449SOL     OW36982   2.916   2.823   6.150  0.1515 -0.6119  0.5846
 8449SOL    HW136983   2.959   2.745   6.114  1.2233 -0.1202  0.7751
 8449SOL    HW236984   2.997   2.872   6.165  0.3858 -0.4793 -1.1686
 8450SOL     OW36985   0.870   2.602   6.596 -0.1954 -0.6114  0.6505
 8450SOL    HW136986   0.949   2.654   6.580 -0.9970  0.9718  1.9118
 8450SOL    HW236987   0.813   2.658   6.648  0.2631  0.6391 -0.1948
 8451SOL     OW36988   1.768   1.204   7.634  0.3516 -0.1158  0.3769
 8451SOL    HW136989   1.738   1.285   7.677 -1.1227  1.1040 -2.9100
 8451SOL    HW236990   1.855   1.235   7.611  1.5852 -3.2952  0.7761
 8452SOL     OW36991   1.696   2.194   2.239  0.0184 -0.0199 -0.3203
 8452SOL    HW136992   1.719   2.101   2.237 -1.3064 -0.2660 -3.2943
 8452SOL    HW236993   1.723   2.224   2.153  0.1891 -0.7840 -0.5301
 8453SOL     OW36994   4.284   4.133   3.378 -0.2933 -0.0538  0.0747
 8453SOL    HW136995   4.292   4.078   3.300 -1.5688 -1.1059  0.6920
 8453SOL    HW236996   4.290   4.220   3.338 -0.0362 -0.3644 -0.5773
 8454SOL     OW36997   1.629   1.679  14.093  0.3677 -0.3716 -0.4474
 8454SOL    HW136998   1.655   1.756  14.043 -1.7603  0.1272 -0.7446
 8454SOL    HW236999   1.615   1.718  14.179  1.7178  2.7822 -1.6587
 8455SOL     OW37000   0.606   1.050   3.111 -0.0184  0.2886  0.2175
 8455SOL    HW137001   0.611   1.145   3.124 -0.1153  0.4181 -0.6559
 8455SOL    HW237002   0.640   1.053   3.022 -0.7750  0.8969 -0.0529
 8456SOL     OW37003   0.624   2.828   2.920  0.5374  0.2907  0.1650
 8456SOL    HW137004   0.618   2.781   3.003 -0.5602 -0.3514 -0.2789
 8456SOL    HW237005   0.545   2.794   2.879 -0.9919  3.2459  0.6650
 8457SOL     OW37006   1.072   2.992  11.108 -0.1989  0.3919 -0.6383
 8457SOL    HW137007   1.146   2.934  11.127 -0.2034  0.4531 -0.4358
 8457SOL    HW237008   1.006   2.947  11.160  1.9247 -1.5119  0.3803
 8458SOL     OW37009   4.703   2.617   7.552  0.3086  0.6638 -0.0922
 8458SOL    HW137010   4.627   2.639   7.604  0.4691 -0.4451  0.6028
 8458SOL    HW237011   4.711   2.522   7.561 -0.0815  0.6605  0.1917
 8459SOL     OW37012   1.960   3.611  15.391 -0.2466  0.1296 -0.3034
 8459SOL    HW137013   1.975   3.705  15.404 -3.3497  0.5316  0.3667
 8459SOL    HW237014   1.899   3.624  15.317 -0.7852 -0.3250  0.0596
 8460SOL     OW37015   4.401   3.417   9.951  0.5617 -0.5264  0.2931
 8460SOL    HW137016   4.418   3.337   9.902  0.8215 -1.8547  2.5416
 8460SOL    HW237017   4.442   3.397  10.035 -1.7198 -0.3389  1.4294
 8461SOL     OW37018   2.106   1.617   8.238 -0.4168 -0.0821  0.2380
 8461SOL    HW137019   2.144   1.656   8.160  1.5830 -1.1427  0.6743
 8461SOL    HW237020   2.162   1.652   8.308  1.1797  2.6654 -2.4202
 8462SOL     OW37021   3.687   0.398   5.850 -0.1327  0.1729 -0.6264
 8462SOL    HW137022   3.645   0.422   5.768 -1.6439  0.0416  0.1160
 8462SOL    HW237023   3.654   0.310   5.864 -1.8819  0.4082 -3.4311
 8463SOL     OW37024   3.561   1.997   5.320  0.1333  0.3880 -1.2806
 8463SOL    HW137025   3.498   1.982   5.390  1.8254  2.3323  0.6350
 8463SOL    HW237026   3.515   2.068   5.275  0.4369  1.3253 -0.1027
 8464SOL     OW37027   4.402   0.800   7.856 -0.2930 -0.1349  0.1535
 8464SOL    HW137028   4.358   0.863   7.799 -1.0746 -1.4571 -0.6946
 8464SOL    HW237029   4.442   0.850   7.928 -2.0475  1.6344 -0.1075
 8465SOL     OW37030   1.438   3.986   1.842  0.3106 -0.1162  0.0439
 8465SOL    HW137031   1.506   3.933   1.801  0.0011 -1.2725  1.0317
 8465SOL    HW237032   1.437   4.061   1.782 -0.1673 -0.6306 -0.6005
 8466SOL     OW37033   4.348   0.584   2.239  0.6349 -0.1046 -0.6897
 8466SOL    HW137034   4.275   0.524   2.227 -1.0988  1.6322  1.1706
 8466SOL    HW237035   4.397   0.568   2.158  0.9044  0.1742 -0.5820
 8467SOL     OW37036   2.333   0.354   2.608 -0.2964 -0.1795 -0.4227
 8467SOL    HW137037   2.389   0.285   2.571 -1.9694 -1.2517 -0.9447
 8467SOL    HW237038   2.321   0.413   2.533 -1.2606  0.4640  0.2473
 8468SOL     OW37039   2.696   3.738   0.703  0.9456  0.4967  0.2897
 8468SOL    HW137040   2.610   3.774   0.722  0.0104 -0.7807 -1.5171
 8468SOL    HW237041   2.749   3.805   0.659  0.3057  0.6533 -0.2278
 8469SOL     OW37042   1.196   2.652   4.899  0.5606 -0.5116 -0.0205
 8469SOL    HW137043   1.199   2.742   4.867  0.2031 -0.4454  0.1339
 8469SOL    HW237044   1.129   2.602   4.852 -2.0574  2.2379  0.7616
 8470SOL     OW37045   2.326   3.011  11.740  0.3383 -0.6274 -0.2561
 8470SOL    HW137046   2.273   2.968  11.673 -2.1587  0.0101  1.3271
 8470SOL    HW237047   2.405   3.038  11.694  0.0278  1.1340  0.2632
 8471SOL     OW37048   1.277   0.288   1.170  0.0394 -0.6416 -0.6642
 8471SOL    HW137049   1.219   0.272   1.244  0.5311 -2.1137 -0.5840
 8471SOL    HW237050   1.317   0.372   1.189 -0.9236 -0.0730 -1.1608
 8472SOL     OW37051   1.593   0.321   0.023 -0.0939 -0.0646  0.7664
 8472SOL    HW137052   1.642   0.314  17.698  0.2005  2.5285  0.7309
 8472SOL    HW237053   1.532   0.388  17.751  1.6281 -0.0083 -2.7181
 8473SOL     OW37054   3.615   1.062  13.979 -0.4366  0.1445  0.3490
 8473SOL    HW137055   3.594   1.135  14.037 -0.7364 -0.8228  1.4646
 8473SOL    HW237056   3.646   1.122  13.911  2.5789 -0.1573  1.4234
 8474SOL     OW37057   3.402   1.450   8.984 -0.0197  0.0672 -0.3904
 8474SOL    HW137058   3.469   1.440   9.051  0.7014  2.5380 -0.7666
 8474SOL    HW237059   3.453   1.514   8.934  0.7673 -0.4713 -0.2780
 8475SOL     OW37060   0.223   3.928   4.217 -0.1620  0.0653 -0.3580
 8475SOL    HW137061   0.268   3.947   4.299  2.8838 -0.0405 -2.0018
 8475SOL    HW237062   0.237   4.007   4.165  0.1025  1.2076  1.4485
 8476SOL     OW37063   3.631   4.100   1.320  0.1902  0.0940 -0.0907
 8476SOL    HW137064   3.630   4.172   1.383 -0.7753 -0.3083  0.3515
 8476SOL    HW237065   3.550   4.056   1.346 -0.2557  0.9812  0.0293
 8477SOL     OW37066   3.918   3.962   0.137 -0.3466 -0.1089 -0.1362
 8477SOL    HW137067   3.840   3.907   0.133 -1.3222  1.1905  0.9910
 8477SOL    HW237068   3.881   4.032   0.191  0.2701  0.5458 -0.5670
 8478SOL     OW37069   0.331   2.585   3.496 -0.5951 -0.3065 -0.4210
 8478SOL    HW137070   0.354   2.673   3.524  0.9015 -1.0241  0.5973
 8478SOL    HW237071   0.314   2.604   3.403  0.2719 -2.0350 -0.9376
 8479SOL     OW37072   3.971   2.802  17.468 -0.5143  0.3497  0.5234
 8479SOL    HW137073   4.033   2.783  17.538  0.3877 -1.3907 -0.7349
 8479SOL    HW237074   4.022   2.805  17.387  0.7155  0.3466  1.3121
 8480SOL     OW37075   4.551   1.330  10.094 -0.7532 -0.7799  0.6459
 8480SOL    HW137076   4.638   1.312  10.129  0.9628  1.6685 -2.4103
 8480SOL    HW237077   4.498   1.297  10.167  1.8366 -1.3316  2.2904
 8481SOL     OW37078   2.625   2.811   5.273  0.6655 -0.0158 -0.4323
 8481SOL    HW137079   2.579   2.894   5.263  0.5441  0.0021  0.2643
 8481SOL    HW237080   2.706   2.828   5.225  2.1162 -0.0265  1.9666
 8482SOL     OW37081   1.890   4.192   2.301 -0.2386  0.1768 -0.0047
 8482SOL    HW137082   1.846   4.243   2.369 -1.8016 -0.5451 -0.4685
 8482SOL    HW237083   1.867   4.102   2.322  1.8107 -0.4580 -0.4845
 8483SOL     OW37084   1.295   1.051  10.184  0.9824 -0.3171  0.0288
 8483SOL    HW137085   1.379   1.093  10.162  1.5687 -0.1419  2.5406
 8483SOL    HW237086   1.327   0.962  10.197  1.8394 -0.1198 -0.6876
 8484SOL     OW37087   3.651   0.093   5.161  0.0518 -0.6160  0.0739
 8484SOL    HW137088   3.580   0.106   5.099  1.1738 -0.6284 -1.2023
 8484SOL    HW237089   3.613   0.047   5.236 -1.9256 -1.0559 -1.2119
 8485SOL     OW37090   0.670   4.091   3.970  0.4608  0.6049  0.5191
 8485SOL    HW137091   0.659   4.123   4.059 -0.5331  1.5491  0.0575
 8485SOL    HW237092   0.697   4.176   3.935  2.6657  0.1728  1.1207
 8486SOL     OW37093   3.779   1.467   6.406 -0.5300 -0.2761 -0.3745
 8486SOL    HW137094   3.727   1.470   6.326  0.8880 -1.1016 -1.3287
 8486SOL    HW237095   3.716   1.458   6.477  0.8162 -0.9837  0.7354
 8487SOL     OW37096   4.566   3.249   6.897 -0.0799 -0.2837  0.4132
 8487SOL    HW137097   4.534   3.221   6.982 -2.0243 -0.2493 -0.2941
 8487SOL    HW237098   4.535   3.339   6.897  2.3312  0.5215  1.3209
 8488SOL     OW37099   3.714   4.405   2.256  0.2745 -0.3118 -0.4421
 8488SOL    HW137100   3.717   4.425   2.349  0.7506 -0.1602 -0.4900
 8488SOL    HW237101   3.627   4.369   2.239  0.4868 -0.5053 -1.1061
 8489SOL     OW37102   1.490   0.317   7.006  0.3340  0.0046  0.6770
 8489SOL    HW137103   1.507   0.231   6.968  2.1540  0.7243 -0.1667
 8489SOL    HW237104   1.499   0.372   6.928 -0.2038 -0.8439  0.0089
 8490SOL     OW37105   0.102   1.944   0.345  0.2264  0.3303 -0.3821
 8490SOL    HW137106   0.078   1.853   0.361 -3.0469  0.7308 -3.1137
 8490SOL    HW237107   0.095   1.946   0.250 -2.8500 -1.0794 -0.1590
 8491SOL     OW37108   0.148   1.569   2.394  0.7562  0.0340 -0.3314
 8491SOL    HW137109   0.063   1.548   2.434  0.5169  0.2725 -0.7050
 8491SOL    HW237110   0.117   1.640   2.338 -0.7676 -0.5355 -0.2257
 8492SOL     OW37111   2.642   3.182   5.373  0.0866  0.0924  0.5543
 8492SOL    HW137112   2.732   3.150   5.388 -0.1843 -1.7047 -1.6159
 8492SOL    HW237113   2.609   3.133   5.298 -0.1316  2.4363 -0.8756
 8493SOL     OW37114   1.456   0.985  17.299 -0.3688  0.2346 -0.6570
 8493SOL    HW137115   1.528   0.933  17.263 -0.0802  0.5007 -0.4622
 8493SOL    HW237116   1.488   1.006  17.387  1.3262 -2.0528 -0.7225
 8494SOL     OW37117   2.289   4.588  14.352  0.6160  0.2327 -0.2432
 8494SOL    HW137118   2.348   4.524  14.311 -0.5390 -1.4296  0.6460
 8494SOL    HW237119   2.355   4.624  14.412  3.1071 -2.9361 -1.0819
 8495SOL     OW37120   0.475   3.877   5.342  0.0643  0.5255  0.0120
 8495SOL    HW137121   0.471   3.868   5.438  2.2979  0.5919  0.1205
 8495SOL    HW237122   0.387   3.854   5.314 -0.1758  0.7840  0.5517
 8496SOL     OW37123   2.295   0.520   5.376  0.5434  0.9710  0.1718
 8496SOL    HW137124   2.215   0.567   5.398  0.4930  0.7405  0.4710
 8496SOL    HW237125   2.354   0.570   5.432  1.9388 -1.4778  0.9307
 8497SOL     OW37126   0.747   4.442   4.375 -0.6848 -0.1733 -0.2997
 8497SOL    HW137127   0.825   4.495   4.391 -0.1805 -0.1470 -2.9383
 8497SOL    HW237128   0.688   4.512   4.348  0.3965  1.3720  1.3156
 8498SOL     OW37129   0.066   1.524  15.398 -0.0423  0.2509  0.2925
 8498SOL    HW137130   0.088   1.509  15.306  2.2673 -1.2850  1.1104
 8498SOL    HW237131   0.118   1.449  15.424 -0.5178  0.4793  1.8931
 8499SOL     OW37132   2.951   2.989   8.704 -0.2884  0.1258 -0.1949
 8499SOL    HW137133   2.884   2.920   8.696 -0.6474  0.2811  1.3151
 8499SOL    HW237134   2.949   3.006   8.799 -0.1125 -1.2311  0.0488
 8500SOL     OW37135   4.115   1.635   2.995  0.1894  0.5468  0.1798
 8500SOL    HW137136   4.187   1.656   3.055  1.5709  0.9010 -1.6106
 8500SOL    HW237137   4.104   1.726   2.965 -0.7456 -0.0079 -1.1500
 8501SOL     OW37138   2.022   0.208   7.905 -0.3024 -0.1664  0.0099
 8501SOL    HW137139   2.076   0.128   7.903 -1.1720 -0.7124 -1.2097
 8501SOL    HW237140   2.053   0.247   7.824 -0.3103  1.1254  0.6287
 8502SOL     OW37141   1.233   3.529   4.932 -0.2810 -0.0186 -0.0270
 8502SOL    HW137142   1.168   3.458   4.930  0.9569 -1.1646  0.6095
 8502SOL    HW237143   1.306   3.485   4.888  2.4390  1.6731  2.8844
 8503SOL     OW37144   4.302   4.645  15.270 -0.6256  0.0355 -0.3865
 8503SOL    HW137145   4.224   4.664  15.323 -0.4639 -0.6214  0.0966
 8503SOL    HW237146   4.330   4.727  15.231 -0.8796 -0.3799 -1.4497
 8504SOL     OW37147   4.363   0.278  10.801  0.5090  0.4187 -0.1239
 8504SOL    HW137148   4.360   0.277  10.896 -0.0346 -0.4802 -0.1447
 8504SOL    HW237149   4.456   0.280  10.777  1.2323 -0.0906  2.6934
 8505SOL     OW37150   0.303   3.435   5.475 -0.2500 -0.6551  0.1430
 8505SOL    HW137151   0.242   3.464   5.408  0.9762 -1.8906 -1.5065
 8505SOL    HW237152   0.256   3.455   5.556  2.0079 -1.3686  1.6592
 8506SOL     OW37153   4.558   0.404   1.729  0.0975  0.6429  0.7332
 8506SOL    HW137154   4.584   0.416   1.638  0.8479 -0.6175  0.7792
 8506SOL    HW237155   4.648   0.395   1.762  0.0152 -0.5291  0.6237
 8507SOL     OW37156   0.233   3.716  10.738 -0.3626 -0.0388 -0.3585
 8507SOL    HW137157   0.320   3.712  10.698  0.3657  1.5006  1.0808
 8507SOL    HW237158   0.224   3.628  10.774  0.0493  0.3742  0.7389
 8508SOL     OW37159   3.753   2.114   9.455  0.1906  0.2845 -0.4958
 8508SOL    HW137160   3.820   2.057   9.492  0.9093  1.3152 -0.1853
 8508SOL    HW237161   3.706   2.061   9.391 -1.9083  0.7436  0.6495
 8509SOL     OW37162   2.488   0.166   2.489 -0.2237 -0.1712  0.2312
 8509SOL    HW137163   2.561   0.121   2.532 -0.0362 -1.9308 -1.9437
 8509SOL    HW237164   2.492   0.118   2.406  0.7159 -0.9517  0.7238
 8510SOL     OW37165   1.896   0.332   3.981  0.2064  0.1007  0.9535
 8510SOL    HW137166   1.814   0.331   3.933  0.9871  0.2850 -0.4065
 8510SOL    HW237167   1.868   0.384   4.056 -2.2689 -1.0138  0.7862
 8511SOL     OW37168   3.719   3.776   3.114  0.0720  0.3218  0.0154
 8511SOL    HW137169   3.722   3.719   3.191  0.5158  0.9379  0.4654
 8511SOL    HW237170   3.658   3.727   3.060  0.0453 -0.3106  0.6195
 8512SOL     OW37171   4.374   2.017   2.556  0.1240  0.2143  0.5963
 8512SOL    HW137172   4.374   2.030   2.462  1.3538  1.4474  0.7648
 8512SOL    HW237173   4.286   2.029   2.592  0.7942  0.9000  2.0439
 8513SOL     OW37174   1.186   0.325   4.009  0.0900  0.0844  0.2633
 8513SOL    HW137175   1.135   0.292   4.083  0.6948 -1.7818 -0.1541
 8513SOL    HW237176   1.112   0.331   3.949 -0.4465 -0.0925  0.9070
 8514SOL     OW37177   2.143   3.769   6.182 -0.1995 -0.5256 -0.0082
 8514SOL    HW137178   2.205   3.764   6.110 -1.3306 -1.0455 -0.9478
 8514SOL    HW237179   2.058   3.771   6.138 -1.2600 -1.4895  1.9592
 8515SOL     OW37180   3.363   2.810  10.350 -0.5359 -0.0301 -0.2466
 8515SOL    HW137181   3.448   2.849  10.328 -0.8103  1.8894  2.1543
 8515SOL    HW237182   3.301   2.863  10.300  1.4384  1.4473 -1.1685
 8516SOL     OW37183   0.184   1.171  17.352  0.5058 -0.8393  0.0787
 8516SOL    HW137184   0.165   1.246  17.295 -0.4286  0.7091  2.4239
 8516SOL    HW237185   0.266   1.136  17.318  0.0344 -1.8658  0.0070
 8517SOL     OW37186   1.760   3.963   2.369 -0.4856 -0.1535 -0.8269
 8517SOL    HW137187   1.691   4.028   2.354  0.3182  1.1405  1.0838
 8517SOL    HW237188   1.729   3.892   2.313 -1.1459 -0.1151 -0.5106
 8518SOL     OW37189   0.326   0.918   3.197  0.0737  0.3047 -0.0870
 8518SOL    HW137190   0.419   0.940   3.208  0.1975 -1.1136  1.6740
 8518SOL    HW237191   0.329   0.915   3.101 -0.2151 -2.0936 -0.0194
 8519SOL     OW37192   3.038   0.882  11.326 -0.3191 -0.5640 -0.4855
 8519SOL    HW137193   3.060   0.799  11.368  0.5826 -0.3049 -0.4449
 8519SOL    HW237194   3.036   0.926  11.411  1.0746 -1.2337 -0.1035
 8520SOL     OW37195   0.958   1.826   9.485 -0.0344  0.0703 -0.2060
 8520SOL    HW137196   0.906   1.845   9.407  0.4855 -0.5528 -0.7052
 8520SOL    HW237197   1.040   1.796   9.446 -0.3897  0.7999 -1.5028
 8521SOL     OW37198   4.034   1.719   8.131  0.1912 -0.2653  0.4754
 8521SOL    HW137199   3.991   1.635   8.148  1.2400 -1.3668 -2.2036
 8521SOL    HW237200   4.075   1.703   8.046  0.7658 -0.6531  0.8284
 8522SOL     OW37201   0.208   2.325   2.114  0.3849 -0.0509 -0.4117
 8522SOL    HW137202   0.223   2.320   2.208 -0.1825 -1.0635 -0.3720
 8522SOL    HW237203   0.195   2.234   2.087  0.5015 -0.3106  0.4192
 8523SOL     OW37204   3.882   0.751   6.011  0.2494  0.9309 -0.5824
 8523SOL    HW137205   3.928   0.737   6.094 -0.4210  0.6419 -0.2671
 8523SOL    HW237206   3.793   0.725   6.031  0.4680  0.2380 -0.5087
 8524SOL     OW37207   2.685   1.063   7.754 -0.0721 -0.2118  0.6483
 8524SOL    HW137208   2.776   1.037   7.767  0.9570  2.1594 -1.8806
 8524SOL    HW237209   2.655   1.077   7.844  1.4685 -0.4364  1.1900
 8525SOL     OW37210   0.350   1.826  16.247 -0.2145 -0.0025 -0.2312
 8525SOL    HW137211   0.351   1.890  16.176 -2.8802 -1.2609 -1.3972
 8525SOL    HW237212   0.269   1.855  16.290 -0.3172  0.5532 -0.8056
 8526SOL     OW37213   2.312   4.612   8.516 -0.1089 -0.1283  0.0756
 8526SOL    HW137214   2.243   4.561   8.559  0.1356  1.5890  2.5154
 8526SOL    HW237215   2.252   4.683   8.491 -0.0881 -0.3273 -0.5506
 8527SOL     OW37216   3.627   1.512   2.844 -0.2529 -0.1630  0.1487
 8527SOL    HW137217   3.551   1.504   2.786 -0.6640 -1.2310  0.8230
 8527SOL    HW237218   3.681   1.444   2.804  2.2956  0.5392  2.4566
 8528SOL     OW37219   1.274   2.553   2.870 -0.0456  0.0561 -0.4501
 8528SOL    HW137220   1.254   2.459   2.865  3.2244 -0.7488  1.6417
 8528SOL    HW237221   1.189   2.596   2.870 -0.2280 -0.3178  1.9981
 8529SOL     OW37222   0.791   3.978  15.004 -0.5162 -0.2381 -0.1096
 8529SOL    HW137223   0.795   3.929  14.922 -1.9711 -0.5496  0.0098
 8529SOL    HW237224   0.757   3.914  15.066  4.1094 -2.9315 -0.2922
 8530SOL     OW37225   3.732   3.291   9.449  0.5057 -0.4069 -0.2353
 8530SOL    HW137226   3.754   3.336   9.531 -0.9726  0.5562 -0.3766
 8530SOL    HW237227   3.682   3.361   9.406  1.3648 -0.5320 -1.4326
 8531SOL     OW37228   2.585   4.544  10.250  0.0884 -0.7432  0.3166
 8531SOL    HW137229   2.508   4.541  10.306 -0.6392 -0.8886 -0.6769
 8531SOL    HW237230   2.612   4.454  10.271  0.8672 -0.6322 -0.2031
 8532SOL     OW37231   3.337   1.390  15.162 -0.1232  0.1709  0.1322
 8532SOL    HW137232   3.397   1.324  15.195  0.4782 -0.8496 -3.0293
 8532SOL    HW237233   3.295   1.416  15.245  0.1283 -0.4383  0.4467
 8533SOL     OW37234   0.251   1.135   1.082  0.4281 -0.7850 -0.0162
 8533SOL    HW137235   0.260   1.158   1.174  2.2207 -2.3527  0.1930
 8533SOL    HW237236   0.188   1.199   1.048  0.4333  0.2394  1.8884
 8534SOL     OW37237   1.618   2.050   2.954 -0.1582 -0.2615 -0.2671
 8534SOL    HW137238   1.615   2.125   3.013  2.2170  0.2922 -0.8700
 8534SOL    HW237239   1.711   2.029   2.947 -0.3501 -0.8243 -1.1624
 8535SOL     OW37240   2.658   0.504   0.824  0.1102  0.5564 -0.2460
 8535SOL    HW137241   2.745   0.517   0.786  0.4184 -0.6140  0.0661
 8535SOL    HW237242   2.614   0.564   0.764  1.6522 -0.7512 -2.6744
 8536SOL     OW37243   4.415   2.396   3.911  0.8026  0.3037  0.1606
 8536SOL    HW137244   4.425   2.420   3.819 -0.9875  1.3464  0.2394
 8536SOL    HW237245   4.479   2.325   3.918  0.6200  0.1140 -0.1495
 8537SOL     OW37246   0.935   0.731   6.860  0.4717  0.7179  0.2651
 8537SOL    HW137247   0.860   0.676   6.882  1.6139 -1.1653 -0.5984
 8537SOL    HW237248   0.934   0.786   6.939 -1.3456 -0.5685  1.1416
 8538SOL     OW37249   2.133   3.157   0.478 -0.2256 -0.0194  1.1431
 8538SOL    HW137250   2.205   3.148   0.541 -0.3411 -2.4439  0.9560
 8538SOL    HW237251   2.061   3.115   0.524 -0.9041  0.8829  0.9001
 8539SOL     OW37252   2.787   2.169   4.673  0.3046  0.4596  0.1100
 8539SOL    HW137253   2.804   2.117   4.752  3.0817  1.6416  0.3064
 8539SOL    HW237254   2.761   2.253   4.711 -2.6562  0.4625 -1.9210
 8540SOL     OW37255   2.222   1.878   9.573 -0.3945 -0.3977  0.1241
 8540SOL    HW137256   2.203   1.961   9.530  0.4642  1.0274  2.5133
 8540SOL    HW237257   2.163   1.889   9.647 -0.4686  0.5646 -0.0814
 8541SOL     OW37258   0.202   3.649  12.760  0.2137  0.1643  0.2225
 8541SOL    HW137259   0.206   3.740  12.733  2.3091 -0.3734 -1.2880
 8541SOL    HW237260   0.113   3.645  12.795  0.6263  0.8245  1.3528
 8542SOL     OW37261   3.595   4.093  17.315  0.4754  0.1089 -0.3807
 8542SOL    HW137262   3.653   4.080  17.391  0.5301  2.2298 -0.0749
 8542SOL    HW237263   3.532   4.153  17.353  1.2124  0.6398  0.0017
 8543SOL     OW37264   2.220   4.686   9.114 -0.4233 -0.3127 -0.0380
 8543SOL    HW137265   2.198   4.617   9.052 -1.8112 -0.7662  0.9549
 8543SOL    HW237266   2.235   4.628   9.189 -0.6081  0.4739  0.6178
 8544SOL     OW37267   4.222   0.419   6.636 -0.0684 -0.0013  0.1520
 8544SOL    HW137268   4.273   0.339   6.649  2.2861  1.1358 -2.2091
 8544SOL    HW237269   4.172   0.389   6.560 -2.1660 -1.1191  1.9786
 8545SOL     OW37270   3.507   1.256   4.022 -0.1368  0.1472  0.4452
 8545SOL    HW137271   3.520   1.161   4.022 -1.6005 -0.0496  0.1275
 8545SOL    HW237272   3.464   1.266   4.108  2.0028 -1.2808  1.6970
 8546SOL     OW37273   2.088   3.016  15.800 -0.3107 -0.3190  0.5535
 8546SOL    HW137274   2.143   3.076  15.749  0.7686 -1.4117  0.4399
 8546SOL    HW237275   2.145   3.008  15.877  0.1709 -0.9718  0.1214
 8547SOL     OW37276   3.969   0.030  14.027  0.6408  0.0261  0.4295
 8547SOL    HW137277   3.967   4.674  14.025 -0.7793  0.0699 -0.1317
 8547SOL    HW237278   3.876   0.051  14.036 -0.3052 -3.9213 -0.0073
 8548SOL     OW37279   3.359   1.379   9.557  0.4027  0.0637  0.1425
 8548SOL    HW137280   3.336   1.328   9.635 -0.2681 -0.5790 -0.4712
 8548SOL    HW237281   3.285   1.439   9.552  0.7736  0.3608 -1.6190
 8549SOL     OW37282   2.869   2.115   8.566  0.2569 -0.2629 -0.2398
 8549SOL    HW137283   2.897   2.186   8.508 -1.1186 -0.7523 -1.5070
 8549SOL    HW237284   2.937   2.054   8.537 -0.6453 -0.9560 -0.8852
 8550SOL     OW37285   2.044   1.558   2.345 -0.3931  0.1820 -1.0340
 8550SOL    HW137286   1.972   1.543   2.405 -1.9567 -2.6800 -3.6426
 8550SOL    HW237287   2.052   1.471   2.306  0.1365 -0.4485  0.4604
 8551SOL     OW37288   4.280   1.963  17.288  0.2776 -0.1888  1.1296
 8551SOL    HW137289   4.308   2.010  17.210 -0.3263 -1.7929 -0.0556
 8551SOL    HW237290   4.270   1.877  17.247  0.4261 -0.9722  2.7415
 8552SOL     OW37291   0.309   2.965  10.338 -0.6348 -0.2465  0.3996
 8552SOL    HW137292   0.231   2.932  10.382  0.4767 -1.2164  1.6496
 8552SOL    HW237293   0.265   2.996  10.260  1.3928 -1.6258 -1.2852
 8553SOL     OW37294   3.902   2.754   0.646 -0.0927  0.4316  0.0206
 8553SOL    HW137295   3.825   2.737   0.700 -1.8746  0.7988 -2.3644
 8553SOL    HW237296   3.933   2.837   0.682 -1.0882  0.7191  0.2186
 8554SOL     OW37297   2.055   3.026   3.430 -0.6255 -0.2975 -0.5434
 8554SOL    HW137298   2.093   2.996   3.348 -0.4547  0.1373 -0.6214
 8554SOL    HW237299   2.084   2.957   3.490 -0.0663 -0.5472 -1.0949
 8555SOL     OW37300   1.065   4.125   5.140  0.3494 -0.5915  0.2135
 8555SOL    HW137301   1.132   4.187   5.170 -1.3148  1.3863 -0.1639
 8555SOL    HW237302   1.109   4.090   5.062  1.2946  0.3639  0.3181
 8556SOL     OW37303   0.350   0.610   1.540 -0.6895  0.0267  0.3953
 8556SOL    HW137304   0.387   0.548   1.601  1.1184 -0.9577 -1.6988
 8556SOL    HW237305   0.271   0.565   1.510 -0.8337  0.8201 -0.4321
 8557SOL     OW37306   2.398   3.812  10.485  0.1551  0.1898 -0.2219
 8557SOL    HW137307   2.433   3.723  10.479  2.5426  0.9548  2.1282
 8557SOL    HW237308   2.468   3.835  10.546 -0.3825  0.8933  0.1221
 8558SOL     OW37309   4.394   4.357   1.519  0.1716  0.1896  0.4593
 8558SOL    HW137310   4.429   4.299   1.587  0.4391  0.1789  0.3139
 8558SOL    HW237311   4.388   4.297   1.445  1.1574 -0.1327  0.6429
 8559SOL     OW37312   1.387   1.592   2.972 -0.2845  0.1743  0.1476
 8559SOL    HW137313   1.479   1.577   2.952 -0.9279 -1.0486 -1.8457
 8559SOL    HW237314   1.397   1.648   3.049 -1.8274  0.3718  0.1985
 8560SOL     OW37315   2.602   1.564   1.815 -0.3730  0.1217 -0.1623
 8560SOL    HW137316   2.681   1.575   1.867 -1.3157 -1.5153  1.6310
 8560SOL    HW237317   2.603   1.628   1.745 -1.2967 -0.5143 -0.7629
 8561SOL     OW37318   2.470   3.653  12.804  0.6282 -0.4434  0.4594
 8561SOL    HW137319   2.512   3.567  12.807  1.6063  0.0016 -0.5689
 8561SOL    HW237320   2.529   3.703  12.748  1.2418 -3.9477 -1.9802
 8562SOL     OW37321   2.712   2.358   2.619  0.2402 -0.0484 -0.4778
 8562SOL    HW137322   2.779   2.292   2.606 -0.6145 -0.9224 -0.4257
 8562SOL    HW237323   2.755   2.432   2.576  0.4178  1.0770  1.6323
 8563SOL     OW37324   2.607   2.231   9.613 -0.6966 -0.4756 -0.1345
 8563SOL    HW137325   2.611   2.159   9.675  2.8865  0.6756  0.9594
 8563SOL    HW237326   2.633   2.312   9.658 -1.7492  1.7368 -3.5052
 8564SOL     OW37327   0.605   1.407   8.644 -0.0395  0.1279 -0.4036
 8564SOL    HW137328   0.672   1.461   8.600 -0.5914  0.9346 -0.2669
 8564SOL    HW237329   0.523   1.456   8.646  0.3360  0.7098  0.5643
 8565SOL     OW37330   4.447   1.172   9.127  0.0657  0.2732  0.2680
 8565SOL    HW137331   4.473   1.102   9.067 -0.8136 -2.7013  3.3908
 8565SOL    HW237332   4.440   1.123   9.209 -0.0416  1.6733  1.1021
 8566SOL     OW37333   3.681   1.493   6.810  0.2558 -0.4381 -0.3060
 8566SOL    HW137334   3.667   1.438   6.733  0.0790 -2.2023  0.9852
 8566SOL    HW237335   3.638   1.571   6.777 -1.8193 -0.5951  2.0294
 8567SOL     OW37336   4.185   2.243   4.323 -0.0889  0.0998  0.2382
 8567SOL    HW137337   4.110   2.226   4.266  0.4655 -1.9486  0.1010
 8567SOL    HW237338   4.210   2.330   4.293  1.1557 -0.3821 -0.1126
 8568SOL     OW37339   3.367   1.265   3.655 -0.0656 -0.1207  0.0200
 8568SOL    HW137340   3.286   1.247   3.703 -1.5308 -0.4327 -2.5644
 8568SOL    HW237341   3.416   1.183   3.655 -2.0529 -1.2914 -0.0007
 8569SOL     OW37342   0.415   1.210   4.293 -0.0668 -0.2315  0.5807
 8569SOL    HW137343   0.505   1.201   4.325  0.3875  0.8796 -0.3966
 8569SOL    HW237344   0.434   1.244   4.206 -0.6236  1.5268  1.1618
 8570SOL     OW37345   1.299   3.390   6.652  0.3901  0.1865 -0.6655
 8570SOL    HW137346   1.333   3.479   6.658 -0.1915  0.3134  0.8232
 8570SOL    HW237347   1.286   3.391   6.557 -1.8289  4.0754 -0.3269
 8571SOL     OW37348   4.507   4.114   3.584  0.7579 -0.4498 -0.5070
 8571SOL    HW137349   4.418   4.112   3.550  0.6656 -1.0277 -0.2346
 8571SOL    HW237350   4.515   4.207   3.607  0.5978 -0.4660 -0.3881
 8572SOL     OW37351   2.619   2.604   4.556  0.5947 -0.4173 -0.7663
 8572SOL    HW137352   2.549   2.551   4.594  0.2245  0.4228 -0.2760
 8572SOL    HW237353   2.562   2.666   4.511  0.7404 -1.5064 -2.4474
 8573SOL     OW37354   3.936   1.794   5.555 -0.2027  0.4712 -0.5680
 8573SOL    HW137355   3.927   1.868   5.495  4.7518  0.3927 -1.3507
 8573SOL    HW237356   4.012   1.821   5.606 -0.8909  1.0838  0.1385
 8574SOL     OW37357   1.613   0.590  13.157 -0.0766  0.2746  0.0359
 8574SOL    HW137358   1.657   0.665  13.196 -3.1212  1.3994  1.3175
 8574SOL    HW237359   1.523   0.609  13.182  0.0066 -0.0630  0.5755
 8575SOL     OW37360   4.615   2.767   2.483 -0.5082  0.0879  0.1056
 8575SOL    HW137361   4.631   2.749   2.391  4.6515  2.6728  0.5412
 8575SOL    HW237362   4.687   2.828   2.495 -2.1983  2.0062  0.6073
 8576SOL     OW37363   4.692   4.465  10.365 -0.3487 -0.3087 -0.6759
 8576SOL    HW137364   4.610   4.512  10.382  0.3518  0.6023  0.1691
 8576SOL    HW237365   4.672   4.371  10.358  2.3851 -0.8945 -0.6753
 8577SOL     OW37366   2.570   3.943   9.760  0.1240  0.1595 -0.2332
 8577SOL    HW137367   2.568   4.005   9.687  1.3239  1.0339  0.4788
 8577SOL    HW237368   2.647   3.892   9.734  1.4058  1.8136  0.3076
 8578SOL     OW37369   1.280   0.319  14.523  0.4060  0.5675 -0.2750
 8578SOL    HW137370   1.291   0.224  14.517  0.4341  0.3630  2.9111
 8578SOL    HW237371   1.220   0.324  14.449 -1.8921 -0.9592  1.4944
 8579SOL     OW37372   0.603   0.084  16.636 -0.3018  0.6210 -0.7211
 8579SOL    HW137373   0.622   4.731  16.621 -1.6018  0.1876  0.3066
 8579SOL    HW237374   0.626   0.130  16.555 -0.6781  1.5856 -0.2735
 8580SOL     OW37375   4.607   3.917   6.971 -0.2117 -0.4485 -0.0126
 8580SOL    HW137376   4.602   3.891   7.063 -0.5671 -0.7042 -0.1042
 8580SOL    HW237377   4.524   3.960   6.954  0.5337  0.8720 -0.2856
 8581SOL     OW37378   2.332   2.359   6.310 -1.1991 -0.1361 -0.8906
 8581SOL    HW137379   2.410   2.413   6.325  0.4583 -2.5792 -0.7798
 8581SOL    HW237380   2.360   2.311   6.233 -2.3165  0.2391 -1.5292
 8582SOL     OW37381   1.030   3.827   2.805  0.1286  0.5495 -0.2929
 8582SOL    HW137382   1.088   3.882   2.752 -1.7158  1.3237 -1.4842
 8582SOL    HW237383   1.090   3.797   2.874  0.7108  0.0893 -1.0058
 8583SOL     OW37384   1.126   0.167   7.693 -0.4113 -0.0981  0.1676
 8583SOL    HW137385   1.210   0.212   7.700 -2.1188  3.0088  0.5873
 8583SOL    HW237386   1.058   0.233   7.709 -0.8095 -0.2646 -0.8473
 8584SOL     OW37387   0.468   3.193   4.062  0.2808  0.1577 -0.0334
 8584SOL    HW137388   0.421   3.220   3.983 -0.2742 -0.3767  0.1162
 8584SOL    HW237389   0.556   3.230   4.048 -0.4373  1.4767 -0.9949
 8585SOL     OW37390   0.948   3.320   9.495 -0.5984 -0.4086  0.0748
 8585SOL    HW137391   0.901   3.267   9.559  1.0152 -0.6225  1.0714
 8585SOL    HW237392   1.016   3.254   9.480 -2.1473 -1.7385 -1.0604
 8586SOL     OW37393   4.151   0.209  11.142  0.4987 -0.2479 -0.1970
 8586SOL    HW137394   4.109   0.165  11.068  1.7634 -1.2136 -0.3413
 8586SOL    HW237395   4.241   0.187  11.121  1.5323  3.8418 -0.0472
 8587SOL     OW37396   0.799   2.801  17.250 -0.3554 -0.3808 -0.5332
 8587SOL    HW137397   0.788   2.707  17.264 -0.4505 -0.3769 -0.5826
 8587SOL    HW237398   0.892   2.814  17.272 -0.4946  0.4445 -0.4169
 8588SOL     OW37399   3.025   0.143  11.556  0.1323 -0.5855  0.3123
 8588SOL    HW137400   2.991   0.232  11.549 -1.2281 -1.1698 -0.5240
 8588SOL    HW237401   3.099   0.156  11.616 -0.2749 -1.8418  1.0806
 8589SOL     OW37402   3.737   0.513   2.954  0.1854  0.0203  0.7059
 8589SOL    HW137403   3.709   0.438   3.005 -1.2626  0.7304  0.9655
 8589SOL    HW237404   3.757   0.578   3.021 -0.9343  1.7137 -0.5843
 8590SOL     OW37405   3.062   2.595   6.076 -0.2932  0.0274  0.2016
 8590SOL    HW137406   3.101   2.594   6.164 -0.9063 -4.4839  0.3794
 8590SOL    HW237407   3.146   2.581   6.032 -1.3691 -1.1022 -1.4764
 8591SOL     OW37408   4.655   4.216  16.627  0.0184  0.3765  0.3810
 8591SOL    HW137409   4.681   4.307  16.614  0.2221  0.2948  0.2166
 8591SOL    HW237410   4.590   4.210  16.558  0.2018  0.9437  0.1583
 8592SOL     OW37411   4.329   2.804   2.516 -0.6531  0.0081  0.2932
 8592SOL    HW137412   4.325   2.893   2.480  2.0266  0.6884  1.6727
 8592SOL    HW237413   4.423   2.804   2.534 -0.9811 -2.5175  2.0624
 8593SOL     OW37414   1.260   4.066  11.652  0.3899  0.2383  0.5280
 8593SOL    HW137415   1.240   4.080  11.560  2.9900 -0.7274 -0.1835
 8593SOL    HW237416   1.264   3.970  11.659  1.1429  0.2261 -0.0872
 8594SOL     OW37417   4.735   2.594   3.459  0.5479  0.0185 -0.4165
 8594SOL    HW137418   0.027   2.677   3.495 -0.3652 -0.5336  1.6556
 8594SOL    HW237419   0.003   2.623   3.368  0.6994 -0.0198 -0.4166
 8595SOL     OW37420   0.081   1.625   3.514 -0.3471  0.3285  0.0642
 8595SOL    HW137421   0.064   1.699   3.456  2.5661  0.8940 -0.0667
 8595SOL    HW237422   0.088   1.666   3.600  0.2361 -3.5587  1.8717
 8596SOL     OW37423   2.463   3.081   2.656 -0.0607  0.4997  0.5136
 8596SOL    HW137424   2.534   3.142   2.634  1.7042 -2.9042 -3.0310
 8596SOL    HW237425   2.386   3.120   2.614  0.1832  0.5614  0.1174
 8597SOL     OW37426   4.140   0.744   2.235  0.2110 -0.0781  0.3929
 8597SOL    HW137427   4.170   0.835   2.223  0.5094  0.1548  2.8860
 8597SOL    HW237428   4.221   0.693   2.238 -0.1664 -0.6539  0.7516
 8598SOL     OW37429   3.727   2.643   3.071 -1.2052 -0.0187 -0.2930
 8598SOL    HW137430   3.748   2.591   3.148 -0.9114  0.7450  0.1426
 8598SOL    HW237431   3.732   2.574   3.004  0.5887 -0.2343  0.0548
 8599SOL     OW37432   3.332   0.448   2.990 -0.3572  0.4378 -0.1470
 8599SOL    HW137433   3.415   0.465   3.033 -1.2058 -1.4120  2.1845
 8599SOL    HW237434   3.352   0.458   2.896 -1.3853  0.7745 -0.3352
 8600SOL     OW37435   1.123   2.733   5.155  0.4953 -0.4775 -0.4791
 8600SOL    HW137436   1.072   2.797   5.106  0.1079  1.2937  2.2081
 8600SOL    HW237437   1.160   2.686   5.081  1.5561 -0.0503 -0.2164
 8601SOL     OW37438   3.580   1.406   0.380 -0.2048  0.0463  0.4448
 8601SOL    HW137439   3.500   1.366   0.347 -0.8990 -0.8684  3.2673
 8601SOL    HW237440   3.643   1.367   0.320  0.5467 -1.5154  2.2611
 8602SOL     OW37441   3.238   2.800   7.090 -0.6520  0.3301  0.2780
 8602SOL    HW137442   3.163   2.771   7.141 -1.4831 -1.0073 -1.6764
 8602SOL    HW237443   3.263   2.723   7.038 -1.8428 -0.3157  0.6616
 8603SOL     OW37444   2.969   1.286  17.263  0.2996 -0.0805  0.6052
 8603SOL    HW137445   3.052   1.333  17.266  0.1802 -0.0359  2.6596
 8603SOL    HW237446   2.977   1.230  17.185 -0.0541  2.4224 -1.2381
 8604SOL     OW37447   3.339   2.725  15.665 -0.2100  0.1509 -0.1190
 8604SOL    HW137448   3.333   2.630  15.651  2.8845 -0.1473  0.5478
 8604SOL    HW237449   3.268   2.734  15.728  1.4581 -0.2855  1.8337
 8605SOL     OW37450   3.684   3.028   1.658 -0.4299 -0.3002 -0.4786
 8605SOL    HW137451   3.746   3.079   1.710 -0.8124 -0.2057 -0.1171
 8605SOL    HW237452   3.637   3.093   1.606 -0.2047 -0.3849 -0.7861
 8606SOL     OW37453   3.645   0.591   4.183 -0.2069 -0.1022  0.4936
 8606SOL    HW137454   3.621   0.602   4.275 -0.1816  0.6536  0.4096
 8606SOL    HW237455   3.736   0.565   4.196  0.1097  1.1312  0.6847
 8607SOL     OW37456   3.977   0.574   3.873 -0.0472  0.3282  0.0981
 8607SOL    HW137457   3.932   0.517   3.935 -1.0713 -1.1809 -2.0411
 8607SOL    HW237458   4.065   0.583   3.909 -1.0595 -0.2919  2.6609
 8608SOL     OW37459   2.854   2.455  17.533  0.2088  0.1777  0.1598
 8608SOL    HW137460   2.891   2.476  17.618 -2.5794 -0.1258  1.4412
 8608SOL    HW237461   2.935   2.434  17.487 -0.5831 -0.3544 -0.9977
 8609SOL     OW37462   4.512   3.935   7.467  1.2345  0.2207  0.9339
 8609SOL    HW137463   4.596   3.968   7.434  0.7695  0.8086  0.3505
 8609SOL    HW237464   4.536   3.874   7.537 -0.0760 -2.3535 -0.8650
 8610SOL     OW37465   4.515   3.195   7.905  0.3838  0.1443 -0.6274
 8610SOL    HW137466   4.486   3.268   7.850 -2.7169  2.0896  3.5895
 8610SOL    HW237467   4.588   3.156   7.857  0.2276  0.7031 -1.3271
 8611SOL     OW37468   2.461   2.622   3.649 -0.5237  0.1449 -0.1495
 8611SOL    HW137469   2.386   2.681   3.645  0.3851  1.2374 -0.9052
 8611SOL    HW237470   2.471   2.601   3.556 -2.4767 -0.6130 -0.1927
 8612SOL     OW37471   2.224   1.798   2.441  0.1906  0.2388 -0.8753
 8612SOL    HW137472   2.178   1.728   2.394  2.2757 -0.9562 -1.1334
 8612SOL    HW237473   2.282   1.740   2.491  0.8662  1.5069 -0.1989
 8613SOL     OW37474   3.255   1.747  11.452 -0.2060 -0.6147 -0.1485
 8613SOL    HW137475   3.308   1.769  11.375 -0.4801 -1.2587 -0.5235
 8613SOL    HW237476   3.245   1.652  11.441 -1.4474 -0.6663  1.4989
 8614SOL     OW37477   4.220   0.754   1.528 -0.0520 -0.4628 -0.7259
 8614SOL    HW137478   4.303   0.721   1.561  0.0737  0.5301 -0.0602
 8614SOL    HW237479   4.156   0.685   1.546 -0.9933  0.5106 -0.2768
 8615SOL     OW37480   4.513   0.967   9.000 -0.4119  0.0492 -0.1748
 8615SOL    HW137481   4.438   0.938   8.949 -0.4634  0.8139 -0.5357
 8615SOL    HW237482   4.557   0.882   9.005 -1.6254 -0.5497  0.3869
 8616SOL     OW37483   0.572   4.582  12.137 -0.5884 -0.0600 -0.4333
 8616SOL    HW137484   0.624   4.507  12.108  1.4208  0.6572  1.3379
 8616SOL    HW237485   0.506   4.528  12.181  0.2820 -2.5838 -2.2068
 8617SOL     OW37486   1.730   4.311   2.543  0.8311 -0.0002 -0.3036
 8617SOL    HW137487   1.819   4.324   2.575  0.5259  1.8992 -0.2097
 8617SOL    HW237488   1.696   4.400   2.559 -0.3620 -0.4098 -0.5555
 8618SOL     OW37489   2.436   0.589  14.509 -0.0782 -0.3069 -0.0840
 8618SOL    HW137490   2.448   0.642  14.588  0.9363 -1.1539  0.3376
 8618SOL    HW237491   2.527   0.582  14.480  0.1360 -1.8187  0.9327
 8619SOL     OW37492   4.507   4.360   7.891 -0.7010 -0.0651 -0.1302
 8619SOL    HW137493   4.575   4.392   7.831 -0.9508 -0.6928 -0.7457
 8619SOL    HW237494   4.513   4.418   7.967 -1.6365  2.0087 -1.6317
 8620SOL     OW37495   2.789   4.397   5.216 -0.2593 -0.3498 -0.0905
 8620SOL    HW137496   2.708   4.373   5.171  0.3522  0.5111 -1.6340
 8620SOL    HW237497   2.860   4.391   5.152 -0.2079  2.7326 -0.3200
 8621SOL     OW37498   0.771   0.795   9.582 -0.1772 -0.0439  0.4558
 8621SOL    HW137499   0.856   0.820   9.545  0.0239 -0.2341  0.7930
 8621SOL    HW237500   0.793   0.803   9.674  2.5779 -1.4123 -0.0916
 8622SOL     OW37501   2.020   1.510  10.972 -0.2839 -0.5106 -0.6238
 8622SOL    HW137502   2.000   1.425  11.012  0.6278 -0.9672 -1.1376
 8622SOL    HW237503   2.037   1.550  11.057 -0.1564 -2.1769  0.1325
 8623SOL     OW37504   1.674   1.845  16.725  0.5926 -0.1092  0.0837
 8623SOL    HW137505   1.694   1.753  16.709 -2.1012 -0.6860 -0.0187
 8623SOL    HW237506   1.627   1.873  16.646 -0.1260  0.6043  0.7507
 8624SOL     OW37507   0.829   1.965  12.515 -0.2359  0.0527  0.3398
 8624SOL    HW137508   0.840   2.047  12.467  2.9383 -0.0711  0.8762
 8624SOL    HW237509   0.735   1.945  12.513  0.4302 -2.9191 -2.0964
 8625SOL     OW37510   0.534   0.540   9.068  0.5309 -0.5528 -0.1877
 8625SOL    HW137511   0.562   0.508   8.982 -1.4819 -0.8528 -0.7198
 8625SOL    HW237512   0.441   0.519   9.074  0.4666 -0.0368  0.5442
 8626SOL     OW37513   2.845   4.426  16.708  0.1079  0.0913 -0.1392
 8626SOL    HW137514   2.831   4.398  16.618  2.2643 -1.7987  0.1060
 8626SOL    HW237515   2.930   4.386  16.726  0.1874  0.4855  0.3949
 8627SOL     OW37516   4.140   1.795   4.571 -0.2434  0.7647 -0.1980
 8627SOL    HW137517   4.212   1.733   4.561 -0.4692  0.4631  0.0357
 8627SOL    HW237518   4.169   1.870   4.518  2.5148  0.3807  0.7348
 8628SOL     OW37519   2.786   0.169   8.942  0.2062 -0.6999  0.5238
 8628SOL    HW137520   2.828   0.255   8.941  0.9240 -1.0762 -1.8315
 8628SOL    HW237521   2.710   0.190   8.889  0.8102 -0.5880 -0.2965
 8629SOL     OW37522   0.831   0.151   3.036  0.2392 -0.2508  0.4225
 8629SOL    HW137523   0.890   0.204   2.983  3.0210 -0.6115  3.1363
 8629SOL    HW237524   0.778   0.112   2.966 -1.2312  0.0438  1.3706
 8630SOL     OW37525   1.503   1.098   2.599  0.6001 -0.2518  0.1746
 8630SOL    HW137526   1.568   1.125   2.534 -2.8344  1.9111 -2.3905
 8630SOL    HW237527   1.470   1.015   2.565  1.3353 -1.7101  3.0259
 8631SOL     OW37528   3.616   1.703   4.314 -0.4067 -0.7741  0.6468
 8631SOL    HW137529   3.620   1.629   4.375 -2.7720 -2.4058 -1.2071
 8631SOL    HW237530   3.703   1.742   4.323 -1.2687  1.9276 -2.5549
 8632SOL     OW37531   4.433   0.824   5.384  0.0416 -0.3169 -0.3018
 8632SOL    HW137532   4.476   0.909   5.370 -0.5083  0.2833  1.6136
 8632SOL    HW237533   4.492   0.769   5.333 -1.0975 -0.3313 -1.6041
 8633SOL     OW37534   0.854   0.072   1.976  0.2887  0.8693 -0.2204
 8633SOL    HW137535   0.894   4.735   2.017 -2.4772 -0.6319 -0.3255
 8633SOL    HW237536   0.916   0.144   1.987  0.0134  0.8573  1.3745
 8634SOL     OW37537   2.653   3.658  10.865 -0.1014 -0.2999  0.2501
 8634SOL    HW137538   2.592   3.609  10.920 -0.4387  0.4549  0.5454
 8634SOL    HW237539   2.738   3.640  10.904  0.5993 -1.4323 -1.8293
 8635SOL     OW37540   3.852   2.873  13.765 -0.0629  0.3758 -0.1363
 8635SOL    HW137541   3.835   2.806  13.699  1.7426 -0.0152 -0.1982
 8635SOL    HW237542   3.937   2.903  13.733  0.3682  1.3276  1.8330
 8636SOL     OW37543   4.543   4.362  14.519 -0.0317  0.5732  0.5299
 8636SOL    HW137544   4.531   4.274  14.484 -1.7367  0.2691  1.8600
 8636SOL    HW237545   4.599   4.352  14.596 -1.4330 -1.1971  1.3150
 8637SOL     OW37546   1.847   3.675   8.507 -0.4925  0.2054  0.4439
 8637SOL    HW137547   1.783   3.623   8.557 -0.1822  0.8022  1.4567
 8637SOL    HW237548   1.792   3.703   8.433 -0.0528 -0.5867 -0.1838
 8638SOL     OW37549   1.489   1.713   3.176  0.0819  0.2537 -0.4818
 8638SOL    HW137550   1.583   1.732   3.179 -0.0268  0.2635  2.3624
 8638SOL    HW237551   1.458   1.753   3.257 -0.9250 -1.4570 -0.0255
 8639SOL     OW37552   2.976   1.845   3.005 -0.4345  0.2978  0.2057
 8639SOL    HW137553   3.016   1.758   3.004 -0.0181  0.4830  0.5411
 8639SOL    HW237554   3.018   1.879   3.084  2.2716  0.5964 -1.3453
 8640SOL     OW37555   0.130   3.872   3.015  0.3802 -0.6831  0.0393
 8640SOL    HW137556   0.101   3.843   3.102  3.1652  0.2710  1.2997
 8640SOL    HW237557   0.069   3.817   2.968 -1.6993  0.7612  1.0245
 8641SOL     OW37558   1.544   1.366   1.979  0.1158  0.9270  0.0605
 8641SOL    HW137559   1.564   1.445   1.928 -2.5030 -0.5665 -3.2901
 8641SOL    HW237560   1.519   1.309   1.906 -0.4772  0.5221  0.5909
 8642SOL     OW37561   0.344   1.996  11.447 -0.6972 -0.6153 -0.4517
 8642SOL    HW137562   0.415   1.943  11.412 -0.6917  1.0360 -2.9029
 8642SOL    HW237563   0.274   1.973  11.386 -0.3700 -0.9483 -0.7033
 8643SOL     OW37564   4.222   0.357   3.986  0.2041  0.1704 -0.6762
 8643SOL    HW137565   4.195   0.443   4.020  0.9331  0.3775 -0.6168
 8643SOL    HW237566   4.301   0.388   3.942  2.5127 -1.8641  2.0301
 8644SOL     OW37567   3.203   3.371   7.001  0.4998  0.4136 -0.5467
 8644SOL    HW137568   3.213   3.280   7.030 -1.3586  0.2553 -0.3715
 8644SOL    HW237569   3.162   3.362   6.915 -0.2777  0.7969 -0.2198
 8645SOL     OW37570   3.726   2.688  10.345  0.8523  0.1802  0.6578
 8645SOL    HW137571   3.759   2.638  10.419  0.2186  0.0476  0.8532
 8645SOL    HW237572   3.690   2.613  10.297  0.9615  0.4389  0.1673
 8646SOL     OW37573   0.783   3.782  14.796  0.6013  0.2987  0.1336
 8646SOL    HW137574   0.773   3.849  14.728 -0.2163  0.2787  0.2378
 8646SOL    HW237575   0.808   3.703  14.749  0.7039 -0.4541  1.4744
 8647SOL     OW37576   0.922   0.726   8.907 -0.2237  0.0589 -0.5721
 8647SOL    HW137577   0.870   0.786   8.853 -0.1757  1.4326  0.8959
 8647SOL    HW237578   0.890   0.754   8.993  0.3385  2.0555 -1.0103
 8648SOL     OW37579   4.403   0.063   3.415  0.0713  0.3960  0.3667
 8648SOL    HW137580   4.433   0.149   3.385  0.9152 -0.9034 -2.4538
 8648SOL    HW237581   4.392   0.080   3.509 -0.7677 -3.0715  0.8966
 8649SOL     OW37582   0.662   3.424  13.044 -0.6771 -0.0280 -0.4363
 8649SOL    HW137583   0.614   3.488  12.992  1.3237  0.7323 -1.3584
 8649SOL    HW237584   0.682   3.477  13.122  0.2175 -0.7001 -0.2064
 8650SOL     OW37585   4.111   2.970  13.732  0.3788  0.1475  0.0388
 8650SOL    HW137586   4.151   2.994  13.648 -0.1941  0.9177 -0.0072
 8650SOL    HW237587   4.136   3.047  13.783 -0.5927  0.4641  0.0243
 8651SOL     OW37588   0.754   2.344   2.732 -0.2269  0.3460  0.0514
 8651SOL    HW137589   0.812   2.417   2.709 -0.8650  0.5176 -1.0562
 8651SOL    HW237590   0.675   2.398   2.737 -1.6610 -1.6304 -1.0543
 8652SOL     OW37591   2.574   2.601  16.857 -0.0981 -0.5649 -0.1381
 8652SOL    HW137592   2.487   2.636  16.876  0.2060 -1.2611  2.6355
 8652SOL    HW237593   2.624   2.681  16.843 -3.0100  1.2048 -0.3364
 8653SOL     OW37594   3.103   4.068   7.780 -0.2316 -0.2042  0.1550
 8653SOL    HW137595   3.089   4.086   7.873  1.9776 -0.6320  0.5637
 8653SOL    HW237596   3.136   4.145   7.733 -2.0757  0.6626  0.2767
 8654SOL     OW37597   3.293   4.137   5.417 -0.6216 -0.4215  0.3962
 8654SOL    HW137598   3.304   4.065   5.479  0.4653 -0.9959 -0.4592
 8654SOL    HW237599   3.297   4.089   5.334 -0.1962 -2.0128  1.3470
 8655SOL     OW37600   0.974   1.031   5.850  0.0838  0.3872 -0.4133
 8655SOL    HW137601   0.952   1.009   5.941  3.0859  0.3436  0.2962
 8655SOL    HW237602   1.059   0.990   5.837  0.5676  0.8353  1.3262
 8656SOL     OW37603   0.618   4.589  15.313  0.2197 -0.2346  0.3006
 8656SOL    HW137604   0.563   4.665  15.295  0.8849 -0.1568 -1.3971
 8656SOL    HW237605   0.564   4.526  15.265  1.6322  1.2708 -3.2355
 8657SOL     OW37606   2.964   3.688   8.560  0.0598  0.0966  0.3751
 8657SOL    HW137607   2.918   3.727   8.486 -0.9252  1.6365  1.7744
 8657SOL    HW237608   2.888   3.666   8.614 -0.4651  1.4831  0.2129
 8658SOL     OW37609   2.086   2.103  15.324 -1.2608 -0.3147 -0.1887
 8658SOL    HW137610   2.137   2.028  15.355  0.0972 -0.0610 -1.7995
 8658SOL    HW237611   2.082   2.155  15.405 -0.4837 -0.5980  0.0370
 8659SOL     OW37612   3.095   1.774   5.265  0.4537 -0.5405 -0.1693
 8659SOL    HW137613   3.154   1.786   5.191 -0.5149 -2.0781 -1.1904
 8659SOL    HW237614   3.073   1.863   5.293 -1.1008 -1.1585  0.5705
 8660SOL     OW37615   3.262   1.064  15.926  0.5638 -0.0591 -0.1092
 8660SOL    HW137616   3.349   1.063  15.965 -0.8458 -1.7973  2.9905
 8660SOL    HW237617   3.266   1.136  15.862 -1.3033  0.4539  0.3338
 8661SOL     OW37618   0.343   3.648   6.254 -0.2459  0.2681 -0.2709
 8661SOL    HW137619   0.296   3.696   6.186  0.2118 -0.8900 -1.3800
 8661SOL    HW237620   0.329   3.711   6.325 -0.8518  0.8988 -0.9519
 8662SOL     OW37621   1.100   0.260   0.976  0.1120  0.4165  0.1111
 8662SOL    HW137622   1.022   0.266   1.031  0.9920  1.5634  1.2342
 8662SOL    HW237623   1.166   0.246   1.045 -0.0583 -1.6529 -0.1509
 8663SOL     OW37624   3.274   2.849   0.216  0.4847 -0.1084  0.5685
 8663SOL    HW137625   3.266   2.780   0.151  4.4828  0.6446 -0.7061
 8663SOL    HW237626   3.284   2.796   0.296 -0.3899 -1.4284 -0.1984
 8664SOL     OW37627   3.667   2.554  14.917  0.2554 -0.6592  0.1528
 8664SOL    HW137628   3.679   2.461  14.901  0.5183 -0.8486  1.4364
 8664SOL    HW237629   3.592   2.579  14.862 -0.2870  0.4894  1.4138
 8665SOL     OW37630   1.188   0.837   5.804 -0.4850 -0.0282 -0.1806
 8665SOL    HW137631   1.225   0.758   5.842 -0.9209  0.0240  0.3554
 8665SOL    HW237632   1.235   0.909   5.846 -0.5882  0.8919 -1.6255
 8666SOL     OW37633   2.353   2.652  10.647  0.0456  0.0563 -0.5398
 8666SOL    HW137634   2.361   2.558  10.664  0.4812  0.6742  2.7572
 8666SOL    HW237635   2.443   2.671  10.618  1.3906  0.6562  4.0159
 8667SOL     OW37636   3.583   1.878  11.416  0.1071  0.6644  0.1053
 8667SOL    HW137637   3.561   1.787  11.397 -1.4920  1.2707 -1.0070
 8667SOL    HW237638   3.608   1.902  11.327  2.3836 -1.9463  0.0273
 8668SOL     OW37639   4.543   0.520   6.402  0.4128 -0.3434 -0.1483
 8668SOL    HW137640   4.610   0.463   6.364  0.3779  0.9284 -2.0963
 8668SOL    HW237641   4.501   0.538   6.318 -1.9172 -0.8085  0.9243
 8669SOL     OW37642   1.163   2.454  16.114  0.2699  0.4138 -0.1855
 8669SOL    HW137643   1.068   2.448  16.124  0.1528 -0.1728 -1.5265
 8669SOL    HW237644   1.167   2.511  16.037 -1.9315 -0.8789 -1.2781
 8670SOL     OW37645   2.499   3.571   5.864 -0.8481 -0.2377  0.2528
 8670SOL    HW137646   2.457   3.655   5.881  1.2589  0.9931 -0.7525
 8670SOL    HW237647   2.468   3.545   5.778  1.3341  0.5892 -0.7694
 8671SOL     OW37648   0.395   1.285   2.524  0.0081 -0.2051 -0.6958
 8671SOL    HW137649   0.366   1.207   2.476 -4.3133  0.9240  0.0467
 8671SOL    HW237650   0.444   1.325   2.452  0.2459 -1.5128 -1.2640
 8672SOL     OW37651   4.654   1.062   8.585  0.1455 -0.0305  0.3667
 8672SOL    HW137652   4.562   1.086   8.586  0.2608  0.5142 -2.5537
 8672SOL    HW237653   4.667   1.023   8.499 -1.6736  0.8766 -0.3088
 8673SOL     OW37654   1.748   1.791   9.858  0.3412 -0.0913 -0.2264
 8673SOL    HW137655   1.764   1.723   9.923 -1.0172 -1.5874 -1.4366
 8673SOL    HW237656   1.713   1.861   9.912 -0.1845  2.0722 -3.3254
 8674SOL     OW37657   4.089   1.263   4.056  0.3572  0.5899 -0.0984
 8674SOL    HW137658   3.997   1.286   4.041  0.3979  0.9403  0.1807
 8674SOL    HW237659   4.093   1.169   4.075 -0.7380  0.7916  1.1342
 8675SOL     OW37660   2.265   2.777   4.829 -0.1470  0.0661  0.3873
 8675SOL    HW137661   2.264   2.873   4.834 -1.4720 -0.1840  4.3155
 8675SOL    HW237662   2.281   2.758   4.921 -1.3261 -1.3645  0.2846
 8676SOL     OW37663   3.120   3.427   9.828  0.1205 -0.1776 -0.2150
 8676SOL    HW137664   3.152   3.517   9.825 -1.0392  0.1855 -2.1329
 8676SOL    HW237665   3.044   3.438   9.885  2.0593  3.0456  1.7418
 8677SOL     OW37666   0.742   1.650   3.543  0.1933 -0.3337 -0.4283
 8677SOL    HW137667   0.776   1.671   3.456  1.3187 -0.7294 -0.0772
 8677SOL    HW237668   0.824   1.612   3.573 -0.0786  0.4259  1.2637
 8678SOL     OW37669   1.407   1.114   8.367 -0.1745 -0.1972 -0.6757
 8678SOL    HW137670   1.418   1.197   8.320 -0.3942  0.8946  1.1709
 8678SOL    HW237671   1.441   1.131   8.455  1.5744  0.6142 -1.4973
 8679SOL     OW37672   4.091   3.283   5.043 -0.0834 -0.0207 -0.1109
 8679SOL    HW137673   4.046   3.291   5.127 -1.2021 -0.7844 -0.6439
 8679SOL    HW237674   4.019   3.253   4.988 -1.0633 -0.3551  1.3527
 8680SOL     OW37675   1.181   1.722   6.475  0.5989  0.3083  0.1827
 8680SOL    HW137676   1.185   1.801   6.529 -0.5582 -0.7735  1.8578
 8680SOL    HW237677   1.120   1.762   6.414  0.6525 -0.4646 -0.3776
 8681SOL     OW37678   0.536   1.039  12.171 -0.0653  0.2816 -0.3213
 8681SOL    HW137679   0.489   0.956  12.183 -0.4441  0.2484 -2.0098
 8681SOL    HW237680   0.521   1.058  12.079 -0.5754  2.2713  0.1714
 8682SOL     OW37681   2.982   3.114  13.390  0.7327 -0.1307  0.4850
 8682SOL    HW137682   2.890   3.136  13.378  0.4125  0.2810  3.7167
 8682SOL    HW237683   2.973   3.027  13.351  1.2978 -0.3189  0.7659
 8683SOL     OW37684   2.065   3.693   0.937  0.5976  0.1605 -0.5181
 8683SOL    HW137685   2.109   3.652   1.012  0.3527 -1.1661 -1.1139
 8683SOL    HW237686   2.020   3.619   0.897 -0.3973  0.6371 -0.2705
 8684SOL     OW37687   3.873   3.387   0.454 -0.0566 -0.0232  0.4150
 8684SOL    HW137688   3.854   3.303   0.497 -2.1707  1.6535  2.7328
 8684SOL    HW237689   3.798   3.402   0.397 -0.6850  0.1704  1.2817
 8685SOL     OW37690   2.637   0.852   9.662  0.1991  0.3788  0.0952
 8685SOL    HW137691   2.691   0.930   9.650  1.1816 -0.2738  0.2946
 8685SOL    HW237692   2.678   0.803   9.733  0.0436  2.2510  1.4816
 8686SOL     OW37693   4.202   3.058  11.536  0.3835 -0.0331 -0.1163
 8686SOL    HW137694   4.155   3.103  11.465  1.3123  1.2108  0.0590
 8686SOL    HW237695   4.132   2.995  11.548 -1.7060  2.5040  0.9998
 8687SOL     OW37696   2.276   1.904   2.192 -0.2594  0.6987 -0.5526
 8687SOL    HW137697   2.349   1.846   2.169 -1.1154 -0.3745 -0.5638
 8687SOL    HW237698   2.263   1.896   2.287  1.1955 -4.0191 -0.7048
 8688SOL     OW37699   4.344   2.273   6.788  0.4046 -0.0940 -0.1434
 8688SOL    HW137700   4.328   2.213   6.861  0.0940  0.8136  0.5372
 8688SOL    HW237701   4.301   2.348   6.829  0.5051  0.7475 -1.6114
 8689SOL     OW37702   0.527   2.285   7.777 -0.4609 -0.0883 -0.2104
 8689SOL    HW137703   0.556   2.352   7.838 -1.3956  0.8940 -0.8590
 8689SOL    HW237704   0.611   2.274   7.732 -0.8989  0.1109 -1.0801
 8690SOL     OW37705   0.634   0.643   8.121  1.0213 -0.1231  0.1901
 8690SOL    HW137706   0.690   0.653   8.198  2.8564 -0.5214 -1.0932
 8690SOL    HW237707   0.574   0.578   8.158 -0.1742  0.8537 -0.0145
 8691SOL     OW37708   1.907   3.780   9.639  0.2401 -0.0784 -0.3897
 8691SOL    HW137709   1.991   3.774   9.594  0.4438  1.2233 -0.1856
 8691SOL    HW237710   1.917   3.867   9.679  1.9681 -1.4369  2.1059
 8692SOL     OW37711   4.040   0.275   1.881  0.0741 -0.0472  0.0579
 8692SOL    HW137712   4.085   0.199   1.844  1.3482 -0.7917  3.0652
 8692SOL    HW237713   4.033   0.231   1.966 -0.6781 -2.6890 -1.3887
 8693SOL     OW37714   0.735   0.255  10.926  0.0253 -0.2610 -0.3836
 8693SOL    HW137715   0.800   0.311  10.969  1.5416 -1.7730 -0.6839
 8693SOL    HW237716   0.716   0.303  10.845  1.0557 -0.5840 -0.8212
 8694SOL     OW37717   2.597   2.307  16.516 -0.0279 -0.2891  0.6483
 8694SOL    HW137718   2.682   2.262  16.514  0.4396  0.5117  2.0731
 8694SOL    HW237719   2.612   2.399  16.537  0.1890  0.1736 -1.5663
 8695SOL     OW37720   1.950   3.271   3.497 -0.2385  0.1467 -0.4328
 8695SOL    HW137721   1.954   3.243   3.588  0.2223 -2.1155 -1.1526
 8695SOL    HW237722   1.988   3.199   3.448 -0.0550  0.2483 -0.4411
 8696SOL     OW37723   1.280   1.929   5.186  0.0786  0.1317 -0.6399
 8696SOL    HW137724   1.273   1.994   5.115  1.4024 -0.4922 -1.3328
 8696SOL    HW237725   1.374   1.921   5.204 -0.2705  0.7192  1.4644
 8697SOL     OW37726   4.043   2.226   7.025  0.5141 -0.2851  0.0685
 8697SOL    HW137727   4.074   2.298   6.971 -1.5704 -0.1992 -0.9904
 8697SOL    HW237728   4.086   2.145   6.997  0.6208 -0.0306 -0.4991
 8698SOL     OW37729   0.902   4.567  11.320  0.1918 -0.3369 -0.3216
 8698SOL    HW137730   0.976   4.622  11.291  1.9583 -1.5117  1.9835
 8698SOL    HW237731   0.939   4.527  11.398 -1.0539 -0.3807  0.2291
 8699SOL     OW37732   3.836   4.564   8.896 -0.1273  0.4575  0.2025
 8699SOL    HW137733   3.821   4.474   8.867  0.7650  0.3200  0.1430
 8699SOL    HW237734   3.755   4.574   8.945 -0.6584  0.7992 -0.7724
 8700SOL     OW37735   1.462   3.572   7.814 -0.0389  0.4572 -0.0792
 8700SOL    HW137736   1.411   3.550   7.736  2.5527  1.4255 -2.0687
 8700SOL    HW237737   1.522   3.497   7.817  0.5126  0.8814 -0.5370
 8701SOL     OW37738   1.624   0.861  16.909 -0.4988 -1.0923  0.1569
 8701SOL    HW137739   1.558   0.842  16.843  0.4294  1.1561 -1.4555
 8701SOL    HW237740   1.710   0.824  16.886  0.3064  1.6795 -1.3595
 8702SOL     OW37741   3.623   0.763  13.520 -0.2767 -0.3583 -0.2371
 8702SOL    HW137742   3.601   0.687  13.574 -1.9534  0.3525  0.0840
 8702SOL    HW237743   3.706   0.791  13.560 -0.1559 -1.1493  0.0771
 8703SOL     OW37744   3.678   3.024   9.416 -0.3132 -0.4274 -0.6823
 8703SOL    HW137745   3.677   3.119   9.404 -0.5326 -0.2980  0.4057
 8703SOL    HW237746   3.705   3.022   9.507 -0.3466 -2.1593 -0.7122
 8704SOL     OW37747   3.139   4.326   5.302  0.2224  0.0308  0.3794
 8704SOL    HW137748   3.081   4.339   5.377  1.6678  1.2330  1.2935
 8704SOL    HW237749   3.212   4.281   5.345 -0.1135 -0.1678  0.7385
 8705SOL     OW37750   3.093   2.849   5.350  0.2133  0.1793  0.1860
 8705SOL    HW137751   3.083   2.940   5.375  0.0146  0.3806 -0.6138
 8705SOL    HW237752   3.163   2.861   5.285 -0.0458  0.8977  0.0467
 8706SOL     OW37753   2.986   0.994   1.785 -0.3135 -0.1525  0.2618
 8706SOL    HW137754   3.043   0.984   1.861 -0.9078  0.5456  0.7927
 8706SOL    HW237755   3.035   0.982   1.703 -0.8658 -0.3016 -0.0460
 8707SOL     OW37756   4.126   4.458  11.787 -0.0033  0.4813  0.0805
 8707SOL    HW137757   4.101   4.438  11.877  1.8653  0.4179  0.5984
 8707SOL    HW237758   4.073   4.535  11.766  0.8273  0.9713 -0.2401
 8708SOL     OW37759   1.111   3.661  13.819 -0.3038  0.0377  0.0727
 8708SOL    HW137760   1.051   3.599  13.777  1.0496 -1.6244  0.6077
 8708SOL    HW237761   1.173   3.611  13.871 -1.1581  1.6010  2.6151
 8709SOL     OW37762   3.382   3.648   6.571 -0.0059 -0.1726  0.1086
 8709SOL    HW137763   3.451   3.672   6.510  0.8378 -0.7504  0.8349
 8709SOL    HW237764   3.401   3.719   6.633  0.6428  0.1457 -0.4698
 8710SOL     OW37765   1.454   4.378   7.992 -0.0088 -0.2158 -0.1713
 8710SOL    HW137766   1.405   4.433   8.054  1.8781  0.9080  0.3201
 8710SOL    HW237767   1.445   4.430   7.912 -4.0736  1.1166  1.1215
 8711SOL     OW37768   1.365   2.701   9.982  0.3667 -0.5540 -0.4438
 8711SOL    HW137769   1.308   2.638   9.937 -0.3663  1.2032 -1.9991
 8711SOL    HW237770   1.316   2.709  10.064 -0.3360  0.0959 -0.9277
 8712SOL     OW37771   4.699   2.425   2.775 -0.0047  0.2277 -0.4878
 8712SOL    HW137772   4.634   2.355   2.774 -0.2930  0.4896  0.6260
 8712SOL    HW237773   0.032   2.370   2.746  1.4565  2.1768 -0.5060
 8713SOL     OW37774   1.982   4.119  14.856  0.0376  0.1588 -0.0058
 8713SOL    HW137775   1.999   4.193  14.798  2.8799 -2.4017 -2.4262
 8713SOL    HW237776   2.007   4.045  14.801  0.7659  0.5091 -0.1484
 8714SOL     OW37777   4.391   1.044   8.605  0.9294 -0.1428 -0.0157
 8714SOL    HW137778   4.352   1.034   8.692  2.0206 -2.0957  0.2385
 8714SOL    HW237779   4.389   0.953   8.573  1.2600  0.1295 -0.8019
 8715SOL     OW37780   4.208   4.271   4.203 -0.0337 -0.3190 -0.0018
 8715SOL    HW137781   4.138   4.323   4.165  2.8668  2.1923 -1.8916
 8715SOL    HW237782   4.267   4.250   4.130  1.6118  1.5390  0.7970
 8716SOL     OW37783   0.726   1.525  14.651 -0.2301  0.4365 -0.1521
 8716SOL    HW137784   0.715   1.432  14.632  1.0003  0.7978 -2.6404
 8716SOL    HW237785   0.821   1.530  14.663 -0.5461  1.0661  2.1832
 8717SOL     OW37786   2.543   0.482   3.854  0.3288  0.4190 -0.1904
 8717SOL    HW137787   2.573   0.557   3.803  1.0870  0.4618  0.3264
 8717SOL    HW237788   2.472   0.517   3.909  1.7921 -0.5858  2.3359
 8718SOL     OW37789   4.247   3.306  14.731 -0.0696  0.3763 -0.2395
 8718SOL    HW137790   4.326   3.305  14.676 -0.0305  1.1585 -0.1963
 8718SOL    HW237791   4.279   3.354  14.808  1.7498 -0.6955 -0.3246
 8719SOL     OW37792   1.156   2.260   4.079  0.2285  0.1378  0.5876
 8719SOL    HW137793   1.222   2.265   4.147  0.6692  0.9466  0.1064
 8719SOL    HW237794   1.196   2.315   4.011  0.6984  0.9896  1.5499
 8720SOL     OW37795   1.060   2.814   6.611 -0.0421 -0.0120  0.5446
 8720SOL    HW137796   1.124   2.794   6.678  0.3958  2.0248  0.7543
 8720SOL    HW237797   1.061   2.910   6.620 -0.2755  0.0511 -0.0594
 8721SOL     OW37798   4.068   3.102   5.516  0.7278  0.4441 -0.3617
 8721SOL    HW137799   4.122   3.067   5.446 -1.1832 -0.0224 -1.5929
 8721SOL    HW237800   4.135   3.114   5.584 -0.3083  2.0443  0.3795
 8722SOL     OW37801   1.543   3.117   6.030  0.0130 -0.5735  0.0353
 8722SOL    HW137802   1.540   3.024   6.007 -1.5030 -0.3877 -0.5228
 8722SOL    HW237803   1.593   3.121   6.111 -1.8960 -0.3915  1.2030
 8723SOL     OW37804   0.504   3.259   5.465  0.3982  1.0208  0.4610
 8723SOL    HW137805   0.591   3.290   5.489  0.9639 -0.9266  0.9112
 8723SOL    HW237806   0.439   3.326   5.489  0.4254  0.8411  1.0215
 8724SOL     OW37807   1.251   3.509  14.072  0.9043 -0.0882  0.2035
 8724SOL    HW137808   1.324   3.453  14.097  0.9265 -0.4638 -0.7201
 8724SOL    HW237809   1.222   3.513  14.163  2.1301 -0.7311  0.6272
 8725SOL     OW37810   1.159   4.529   5.384 -0.3048 -0.7812 -0.4181
 8725SOL    HW137811   1.235   4.581   5.409 -0.2118 -0.9263 -0.4002
 8725SOL    HW237812   1.126   4.507   5.471 -0.9486 -0.1713 -0.5090
 8726SOL     OW37813   4.358   1.544  17.368 -0.3105 -0.1361  0.2847
 8726SOL    HW137814   4.333   1.463  17.324 -1.5167  0.0727  0.5772
 8726SOL    HW237815   4.366   1.608  17.297  0.5002 -0.1363  0.3840
 8727SOL     OW37816   1.385   0.392  17.454 -0.0692 -0.0147 -0.4953
 8727SOL    HW137817   1.391   0.336  17.377 -4.8500 -1.1627 -0.0290
 8727SOL    HW237818   1.319   0.453  17.421  0.4251 -0.5281 -2.4503
 8728SOL     OW37819   3.396   1.062   0.057  0.0384 -0.1257 -0.3784
 8728SOL    HW137820   3.365   0.980   0.096 -0.9115  1.2804  1.7979
 8728SOL    HW237821   3.376   1.045  17.723  0.5622 -1.0412 -0.3262
 8729SOL     OW37822   2.917   3.000  12.728  0.3215  0.3919 -0.1612
 8729SOL    HW137823   2.974   2.949  12.672  0.6706 -0.3225  0.8455
 8729SOL    HW237824   2.979   3.043  12.787 -0.8281  1.8467 -0.0164
 8730SOL     OW37825   1.209   1.932   6.632 -0.1260  0.1287 -0.2089
 8730SOL    HW137826   1.129   1.976   6.661 -0.5186  1.2516 -2.9169
 8730SOL    HW237827   1.263   1.952   6.708  0.2320 -1.2658 -0.1050
 8731SOL     OW37828   4.599   0.793   8.053 -0.7096  0.0148  0.2790
 8731SOL    HW137829   4.573   0.773   8.143  0.7574  0.9769  0.9214
 8731SOL    HW237830   4.645   0.712   8.033  0.1799  0.3379  1.0079
 8732SOL     OW37831   0.891   0.496  11.609 -0.3168  0.3295  0.1103
 8732SOL    HW137832   0.924   0.448  11.685 -3.0696  1.3585  1.9547
 8732SOL    HW237833   0.908   0.586  11.637 -0.6433  0.4113  0.0408
 8733SOL     OW37834   4.018   0.233  12.694  0.0154  0.2083  0.1142
 8733SOL    HW137835   3.978   0.276  12.619  3.3232  1.6582 -0.8126
 8733SOL    HW237836   3.946   0.181  12.729 -2.1319  2.0282 -1.5739
 8734SOL     OW37837   1.976   1.611  13.257 -0.5679 -0.2707 -0.7696
 8734SOL    HW137838   1.882   1.606  13.240 -1.0119  1.0592  1.2770
 8734SOL    HW237839   1.982   1.565  13.341 -0.4621 -0.1259 -0.6959
 8735SOL     OW37840   4.165   1.603   8.681  0.6097  0.3735 -0.6145
 8735SOL    HW137841   4.189   1.621   8.772 -0.9992 -1.5414  0.1832
 8735SOL    HW237842   4.252   1.623   8.647  0.5874  0.6668 -0.5029
 8736SOL     OW37843   0.706   2.295   4.904  0.1361  0.5011  0.2934
 8736SOL    HW137844   0.714   2.219   4.962  0.2647  1.4027  1.4559
 8736SOL    HW237845   0.763   2.355   4.950  2.2617 -1.7234  0.5752
 8737SOL     OW37846   1.415   1.118   4.355  0.6243  0.1700 -0.3804
 8737SOL    HW137847   1.394   1.135   4.447  0.3253  0.9550 -0.5987
 8737SOL    HW237848   1.507   1.091   4.356  0.3021 -0.7935  2.1410
 8738SOL     OW37849   4.106   0.295   0.238  0.2011 -0.4853 -0.3104
 8738SOL    HW137850   4.190   0.335   0.257 -0.1048  0.0389 -0.0472
 8738SOL    HW237851   4.138   0.205   0.232  0.5460 -0.3817  0.0559
 8739SOL     OW37852   1.915   1.437   2.561 -0.5318 -0.0541  0.5856
 8739SOL    HW137853   1.823   1.417   2.543 -0.7478 -0.0556  1.7449
 8739SOL    HW237854   1.910   1.513   2.618  3.5976  0.1142  0.7256
 8740SOL     OW37855   3.848   0.305   3.169  0.5245  0.6280 -0.4066
 8740SOL    HW137856   3.909   0.285   3.098 -0.4658  0.6858 -1.2772
 8740SOL    HW237857   3.895   0.372   3.218  2.9175  0.3707 -2.3383
 8741SOL     OW37858   3.477   3.416  16.114  0.2443  0.6867  0.0836
 8741SOL    HW137859   3.393   3.369  16.110  0.5824  0.1401 -0.4767
 8741SOL    HW237860   3.512   3.401  16.202  1.2112  2.3835 -0.0164
 8742SOL     OW37861   2.657   4.005   6.504  0.0202  0.2126  0.3391
 8742SOL    HW137862   2.609   3.938   6.456  1.5606  1.9858 -3.6709
 8742SOL    HW237863   2.713   3.956   6.564  0.4558  0.8319  0.4430
 8743SOL     OW37864   1.745   1.604  11.199  0.1342 -0.4149  0.0183
 8743SOL    HW137865   1.825   1.647  11.229 -2.2517  2.4006  2.3877
 8743SOL    HW237866   1.759   1.518  11.239  2.1623  0.7447  1.7886
 8744SOL     OW37867   1.952   0.514  16.198 -0.1255  0.1144  0.8839
 8744SOL    HW137868   2.037   0.471  16.209 -0.8384 -1.3471  0.6745
 8744SOL    HW237869   1.944   0.514  16.102 -1.8937  2.1165  1.0423
 8745SOL     OW37870   1.106   1.126   4.731 -0.3931  0.0388 -0.2407
 8745SOL    HW137871   1.068   1.039   4.739 -0.2084 -0.3064 -2.9309
 8745SOL    HW237872   1.201   1.117   4.722 -0.0087  2.8244  0.9439
 8746SOL     OW37873   4.384   2.966   3.633  0.0402 -0.2928 -0.1169
 8746SOL    HW137874   4.464   2.931   3.673 -1.2721 -1.3845  1.5128
 8746SOL    HW237875   4.368   3.042   3.689  1.1108  0.7244 -1.1723
 8747SOL     OW37876   4.341   1.237   6.569 -0.3980  0.1585 -0.3487
 8747SOL    HW137877   4.387   1.295   6.630  0.1046  0.7531 -1.2921
 8747SOL    HW237878   4.415   1.177   6.564 -1.3479 -1.0682  0.3168
 8748SOL     OW37879   0.919   1.888   3.066 -0.5793  0.3184  0.1072
 8748SOL    HW137880   0.889   1.979   3.060  0.0259  0.7440  3.7324
 8748SOL    HW237881   0.884   1.865   2.980 -0.3171  3.2345 -0.7891
 8749SOL     OW37882   1.560   3.337   4.325 -0.1505 -0.2932 -0.2130
 8749SOL    HW137883   1.517   3.252   4.330 -0.4963 -0.2302 -2.2039
 8749SOL    HW237884   1.614   3.322   4.248 -0.4134 -1.9151 -0.0773
 8750SOL     OW37885   4.347   2.320   4.755 -0.1552  0.2571  0.1209
 8750SOL    HW137886   4.278   2.307   4.690 -0.8126  0.9298  0.6851
 8750SOL    HW237887   4.319   2.401   4.798  0.8633  0.1930  0.8923
 8751SOL     OW37888   4.059   2.688  11.772 -0.0208 -0.0783 -0.2054
 8751SOL    HW137889   4.155   2.681  11.775 -0.2821 -3.4464  0.7789
 8751SOL    HW237890   4.052   2.768  11.720  0.2356  0.7134  0.9719
 8752SOL     OW37891   1.741   3.614   6.293  0.5740  0.2348  0.4436
 8752SOL    HW137892   1.836   3.599   6.293  0.7217  1.2368 -1.4983
 8752SOL    HW237893   1.712   3.542   6.238  1.7437  1.7834 -2.1942
 8753SOL     OW37894   3.358   1.958   3.944  0.8741 -0.0192 -0.5541
 8753SOL    HW137895   3.362   2.052   3.927 -1.3588  0.3464  1.0093
 8753SOL    HW237896   3.422   1.951   4.014  2.4486  0.8968 -1.9000
 8754SOL     OW37897   2.006   3.715   7.833 -0.3173  0.0998 -0.6271
 8754SOL    HW137898   2.087   3.756   7.804 -0.4954  1.4238  0.7768
 8754SOL    HW237899   1.951   3.716   7.754  1.6466 -1.4200 -2.0173
 8755SOL     OW37900   2.011   1.347   3.483  0.1574 -0.4234 -0.4339
 8755SOL    HW137901   2.003   1.254   3.506 -1.0778 -0.3957 -0.7541
 8755SOL    HW237902   2.103   1.368   3.498  0.3838 -1.0805 -0.8914
 8756SOL     OW37903   0.818   3.132  10.622  0.2379  0.4499 -0.1474
 8756SOL    HW137904   0.913   3.126  10.636  0.1824  1.0852  0.5000
 8756SOL    HW237905   0.811   3.224  10.596  0.6394  0.0779 -1.6192
 8757SOL     OW37906   0.210   3.689   3.791  0.0069 -0.0317 -0.3595
 8757SOL    HW137907   0.285   3.662   3.844 -0.7536  0.0317  0.7396
 8757SOL    HW237908   0.252   3.720   3.711 -2.4125  0.9456 -1.2368
 8758SOL     OW37909   3.413   3.330  10.907 -0.0665 -0.7823  0.3893
 8758SOL    HW137910   3.442   3.288  10.827 -0.4789 -3.0644  1.4455
 8758SOL    HW237911   3.318   3.321  10.896 -0.2744  1.5488  0.2071
 8759SOL     OW37912   1.055   0.041   4.409  0.1981  0.2522 -0.4580
 8759SOL    HW137913   1.147   0.019   4.423 -0.0397 -0.3598  0.1770
 8759SOL    HW237914   1.016   4.703   4.448  0.8982  0.5083  0.7510
 8760SOL     OW37915   0.641   3.952   4.316 -0.3048  0.5624 -0.0339
 8760SOL    HW137916   0.575   3.896   4.357  0.2623  0.2750  0.4925
 8760SOL    HW237917   0.691   3.882   4.274 -1.5684 -0.1996 -0.2608
 8761SOL     OW37918   0.397   1.257   3.362 -0.1796 -0.1983 -0.4767
 8761SOL    HW137919   0.320   1.313   3.374  1.1792  1.5259  0.1485
 8761SOL    HW237920   0.363   1.215   3.284 -1.3549 -2.0187  1.0109
 8762SOL     OW37921   2.422   1.505   9.567  0.2870 -0.6389  0.4602
 8762SOL    HW137922   2.439   1.594   9.597  2.1987 -1.5594  2.1548
 8762SOL    HW237923   2.444   1.513   9.474 -1.3848  1.2956  0.2312
 8763SOL     OW37924   1.020   2.338   0.975  0.5170 -0.4496 -0.0467
 8763SOL    HW137925   0.963   2.318   0.901 -1.0888  2.2227  0.4702
 8763SOL    HW237926   1.056   2.422   0.947 -0.7368  0.4178  0.9062
 8764SOL     OW37927   4.211   3.508  11.348  0.2088 -0.3850  0.7672
 8764SOL    HW137928   4.253   3.528  11.264 -0.4363 -1.2381  0.2415
 8764SOL    HW237929   4.240   3.595  11.378 -2.9077  0.2052  2.0283
 8765SOL     OW37930   4.435   0.847   1.125 -0.4589  0.3914  0.3727
 8765SOL    HW137931   4.530   0.844   1.131 -0.5996 -0.7055  1.9366
 8765SOL    HW237932   4.423   0.770   1.069 -2.1134  2.1024 -1.6211
 8766SOL     OW37933   1.638   4.149  13.675 -0.9007 -0.0959  0.0258
 8766SOL    HW137934   1.652   4.144  13.770  1.2704  0.0953 -0.2838
 8766SOL    HW237935   1.557   4.099  13.661 -1.9137  1.2014  1.2058
 8767SOL     OW37936   0.870   3.165   5.178 -0.4268 -0.3311 -0.1954
 8767SOL    HW137937   0.777   3.184   5.168 -0.1921  0.3651 -1.0543
 8767SOL    HW237938   0.871   3.196   5.269 -0.4015  1.3634 -0.7754
 8768SOL     OW37939   1.857   0.976   1.427  0.3257  0.0213  0.3770
 8768SOL    HW137940   1.902   1.005   1.348  0.2922 -1.3636 -0.1442
 8768SOL    HW237941   1.771   0.975   1.385 -0.0577  1.2836  1.1498
 8769SOL     OW37942   2.171   4.633   8.783  0.0719  0.4999  0.2180
 8769SOL    HW137943   2.114   4.635   8.706  0.5961 -1.4182 -0.2216
 8769SOL    HW237944   2.126   4.564   8.831  0.5606  0.3773  0.5079
 8770SOL     OW37945   2.347   2.842   2.967  0.4776  0.0362 -0.0775
 8770SOL    HW137946   2.318   2.805   2.883 -1.4928  1.4285 -0.0007
 8770SOL    HW237947   2.294   2.922   2.963 -0.8920 -0.9574 -1.4309
 8771SOL     OW37948   2.579   4.058   2.972  0.0449 -0.1875  0.2409
 8771SOL    HW137949   2.545   3.996   3.035 -2.1693  0.0100 -0.7503
 8771SOL    HW237950   2.668   4.030   2.948  0.2438  1.2747 -0.8112
 8772SOL     OW37951   3.618   2.279   7.862 -0.5954  1.0526  0.0496
 8772SOL    HW137952   3.603   2.358   7.914  1.5494  1.6358 -0.2139
 8772SOL    HW237953   3.704   2.250   7.892 -0.1929 -1.5006 -3.7088
 8773SOL     OW37954   0.649   3.360   4.862  0.2076  0.3125 -0.7872
 8773SOL    HW137955   0.576   3.309   4.825  1.4382 -0.1109 -2.5992
 8773SOL    HW237956   0.614   3.386   4.947  2.1750  2.4627 -0.6482
 8774SOL     OW37957   0.193   1.296  15.451 -0.1636  0.0346  0.0336
 8774SOL    HW137958   0.268   1.326  15.502 -0.5099 -0.6402  0.9365
 8774SOL    HW237959   0.163   1.219  15.499 -0.2271  0.2231  0.2937
 8775SOL     OW37960   1.588   2.228   8.928  0.4320 -0.1520 -0.2412
 8775SOL    HW137961   1.538   2.308   8.943  0.0770 -0.5258  0.5761
 8775SOL    HW237962   1.637   2.250   8.849 -0.4192  0.8182 -0.4943
 8776SOL     OW37963   1.990   0.339   5.319  0.1694  0.1072 -0.3463
 8776SOL    HW137964   2.055   0.335   5.249  0.1670 -2.9689 -0.1933
 8776SOL    HW237965   2.006   0.422   5.364  1.4465  0.6434 -1.7914
 8777SOL     OW37966   4.350   0.038   1.193 -0.5383  0.5323 -0.2526
 8777SOL    HW137967   4.378   0.022   1.283  0.4129 -0.7393 -0.7705
 8777SOL    HW237968   4.265   4.733   1.186 -0.0214 -0.4647 -0.1560
 8778SOL     OW37969   1.215   2.792  10.242 -0.0799 -0.2731 -0.8136
 8778SOL    HW137970   1.134   2.742  10.253 -1.5201  2.7682  2.3289
 8778SOL    HW237971   1.268   2.761  10.315  1.9294  0.9802 -1.7362
 8779SOL     OW37972   3.861   4.270   5.137 -0.2839 -0.1832 -0.0582
 8779SOL    HW137973   3.782   4.238   5.181 -0.7761  3.6887  1.8574
 8779SOL    HW237974   3.819   4.326   5.071  1.1545  0.3191 -0.5396
 8780SOL     OW37975   1.100   1.200   7.733  0.0878 -0.0502 -0.1199
 8780SOL    HW137976   1.102   1.238   7.821 -0.3315  0.5853 -0.3884
 8780SOL    HW237977   1.186   1.157   7.729 -1.3676 -2.9647 -0.1448
 8781SOL     OW37978   0.660   0.251   4.903  0.1476  0.3163 -0.2995
 8781SOL    HW137979   0.575   0.294   4.904  0.4757  0.9781 -0.2860
 8781SOL    HW237980   0.705   0.336   4.903 -0.7543  0.7869  0.9316
 8782SOL     OW37981   3.258   2.919   8.985  0.2774 -0.1252 -0.3223
 8782SOL    HW137982   3.237   3.011   8.998 -1.2151 -0.2871 -1.5813
 8782SOL    HW237983   3.178   2.873   9.010  1.1780 -0.9499  1.0316
 8783SOL     OW37984   0.018   4.110   4.598  0.3397  0.2617  0.1296
 8783SOL    HW137985   0.014   4.079   4.689 -3.3460 -2.3627 -0.9531
 8783SOL    HW237986   4.708   4.035   4.567 -0.0363  0.6776 -0.2637
 8784SOL     OW37987   4.575   4.253  17.167 -0.0935  0.0463 -0.2046
 8784SOL    HW137988   4.588   4.237  17.074  3.3671 -1.3491  0.5219
 8784SOL    HW237989   4.582   4.348  17.179 -0.6647 -0.1004  1.4103
 8785SOL     OW37990   3.411   3.648   2.420  0.0265 -0.3621  0.6319
 8785SOL    HW137991   3.452   3.707   2.356 -0.8033 -0.4828 -0.0138
 8785SOL    HW237992   3.337   3.610   2.373 -2.4169  2.6159  2.1492
 8786SOL     OW37993   4.069   2.975   4.228 -0.2969  0.3837  0.3214
 8786SOL    HW137994   4.111   3.033   4.165  1.9382 -1.5792  0.0076
 8786SOL    HW237995   4.065   3.030   4.306 -1.3551 -0.9303  1.1985
 8787SOL     OW37996   2.767   1.966   4.229  0.2695  0.0590 -0.5464
 8787SOL    HW137997   2.781   2.020   4.308  1.6167 -0.5336 -0.3815
 8787SOL    HW237998   2.676   1.988   4.210 -0.0468  0.2957  1.1829
 8788SOL     OW37999   4.630   1.652   2.213 -0.2264 -0.1593  0.1355
 8788SOL    HW138000   4.578   1.579   2.246  0.5613 -0.6579  0.2755
 8788SOL    HW238001   4.632   1.719   2.281 -0.4984  0.2610 -0.2650
 8789SOL     OW38002   3.068   1.623  14.766 -0.3271  0.4482 -0.4211
 8789SOL    HW138003   2.999   1.687  14.786 -1.3905 -0.8474  0.1021
 8789SOL    HW238004   3.038   1.587  14.683  1.1657 -1.8911  0.0605
 8790SOL     OW38005   0.290   0.832  14.796 -0.5744 -0.1875 -0.2847
 8790SOL    HW138006   0.209   0.788  14.821  0.7489 -2.4163  0.0997
 8790SOL    HW238007   0.279   0.844  14.701  4.3843 -2.1590 -1.1234
 8791SOL     OW38008   1.719   1.155   5.270 -0.7678 -0.0274 -0.0848
 8791SOL    HW138009   1.787   1.091   5.289  0.5130  0.8235 -1.8068
 8791SOL    HW238010   1.760   1.235   5.302  0.8386 -0.7152 -0.4529
 8792SOL     OW38011   1.663   0.854  17.176  0.6638 -0.2597 -0.0273
 8792SOL    HW138012   1.646   0.883  17.087  0.8115 -1.1077 -0.3228
 8792SOL    HW238013   1.751   0.890  17.189  0.5808  0.2687 -0.9439
 8793SOL     OW38014   0.678   3.096  17.691  0.0182  0.0530 -0.5609
 8793SOL    HW138015   0.594   3.066  17.658 -0.1656 -2.0927  1.8415
 8793SOL    HW238016   0.689   3.182  17.652  1.2394 -0.5372 -1.5446
 8794SOL     OW38017   3.707   0.185   4.297 -0.6895 -0.5514  0.6731
 8794SOL    HW138018   3.767   0.259   4.290  1.7436 -2.7814 -1.7642
 8794SOL    HW238019   3.750   0.119   4.243 -0.1637 -0.1861  0.6468
 8795SOL     OW38020   2.794   0.063   9.200 -0.0007 -0.3379  0.6201
 8795SOL    HW138021   2.881   0.102   9.213  0.9618 -1.9804 -0.8244
 8795SOL    HW238022   2.762   0.106   9.121  1.7603 -1.0812 -0.5074
 8796SOL     OW38023   3.089   2.519  16.461  0.0819 -0.0482 -0.7994
 8796SOL    HW138024   3.016   2.468  16.425  1.7653 -1.7959 -1.7392
 8796SOL    HW238025   3.048   2.558  16.538  1.5058  0.4848 -0.3110
 8797SOL     OW38026   4.087   0.450  17.178 -0.2661  0.2813  0.2008
 8797SOL    HW138027   4.055   0.490  17.259 -1.2543  0.5538 -0.3230
 8797SOL    HW238028   4.030   0.374  17.171 -0.6572  0.6149 -0.2438
 8798SOL     OW38029   2.712   1.833   8.822  0.0634  0.2357  0.2904
 8798SOL    HW138030   2.623   1.833   8.857  0.2675  2.5040  0.8544
 8798SOL    HW238031   2.755   1.889   8.887 -0.5456  1.7423 -0.6035
 8799SOL     OW38032   0.274   0.102   2.448 -0.1166 -0.2664 -0.7334
 8799SOL    HW138033   0.271   0.196   2.428  0.4006  0.4754  2.6274
 8799SOL    HW238034   0.221   0.096   2.528 -1.6960  0.3154 -1.7581
 8800SOL     OW38035   2.740   1.706   2.291  0.0848  0.3322 -0.1048
 8800SOL    HW138036   2.711   1.631   2.240 -0.9432  1.2765 -0.9270
 8800SOL    HW238037   2.791   1.667   2.362 -0.2052  1.6975  0.8677
 8801SOL     OW38038   0.528   3.015   6.387  0.1879 -0.5283 -0.5203
 8801SOL    HW138039   0.618   2.997   6.362 -0.2906 -1.9044 -1.2590
 8801SOL    HW238040   0.493   2.955   6.321 -0.4625 -0.1551 -0.5229
 8802SOL     OW38041   0.495   0.460   6.372  0.3658  0.0520  0.4404
 8802SOL    HW138042   0.440   0.436   6.447 -0.4015 -0.0717 -0.1585
 8802SOL    HW238043   0.489   0.555   6.374  1.0582  0.1157 -0.5166
 8803SOL     OW38044   3.769   2.689   7.516 -0.1341 -0.6864  0.8093
 8803SOL    HW138045   3.844   2.629   7.516 -0.6250 -1.2977  1.0355
 8803SOL    HW238046   3.723   2.654   7.592  2.2411 -0.6034  2.2734
 8804SOL     OW38047   3.628   3.577   8.772  0.0770 -0.3862 -0.3198
 8804SOL    HW138048   3.710   3.529   8.783  0.6612  0.2993 -1.6904
 8804SOL    HW238049   3.578   3.507   8.730 -1.1524  0.0162  0.4729
 8805SOL     OW38050   2.555   1.243   3.245 -0.2851 -0.1759 -0.7465
 8805SOL    HW138051   2.577   1.274   3.157 -0.5132  0.9301 -0.4019
 8805SOL    HW238052   2.580   1.151   3.232  0.4272 -0.3106  1.5800
 8806SOL     OW38053   2.281   1.425   9.984  0.8194 -0.4059 -0.4636
 8806SOL    HW138054   2.243   1.505  10.021 -0.9008 -1.1370 -0.6657
 8806SOL    HW238055   2.232   1.355  10.026  1.4027 -0.9400 -0.6829
 8807SOL     OW38056   4.070   0.566   3.603  0.1288  0.5625  0.2687
 8807SOL    HW138057   4.034   0.572   3.692 -0.4123 -2.7928  0.2893
 8807SOL    HW238058   4.118   0.648   3.593 -0.6991  1.0469  0.2579
 8808SOL     OW38059   2.902   1.575   5.239 -0.6000  0.0001 -0.1967
 8808SOL    HW138060   2.965   1.643   5.259 -0.5514 -0.7358  2.2244
 8808SOL    HW238061   2.905   1.565   5.144 -0.2096 -0.0363 -0.1817
 8809SOL     OW38062   0.965   2.775  14.723  0.4433  0.1086  0.2628
 8809SOL    HW138063   0.909   2.849  14.700  0.3997 -0.1612 -0.4760
 8809SOL    HW238064   0.991   2.806  14.810  0.2589  0.6640  0.1170
 8810SOL     OW38065   1.683   0.166  16.300 -0.2186  0.6231  0.2831
 8810SOL    HW138066   1.664   0.078  16.332  4.5504 -0.3201  0.4020
 8810SOL    HW238067   1.761   0.197  16.345  0.0908 -0.6753  0.6118
 8811SOL     OW38068   2.550   0.965   0.293 -0.8044 -0.3586 -0.0952
 8811SOL    HW138069   2.636   0.978   0.254 -0.5464  0.8917  0.8831
 8811SOL    HW238070   2.545   1.046   0.344  3.2668 -0.1964  0.0508
 8812SOL     OW38071   4.426   0.031   5.319 -0.1807 -0.3835 -0.3647
 8812SOL    HW138072   4.487   0.039   5.392  0.2696 -0.8220 -0.6963
 8812SOL    HW238073   4.372   0.110   5.320 -1.7213 -1.4491  0.6730
 8813SOL     OW38074   0.321   4.674  17.121  0.2186  0.1250 -0.7926
 8813SOL    HW138075   0.324   4.598  17.063 -0.1187 -0.7724  0.3829
 8813SOL    HW238076   0.295   4.642  17.208 -0.0331  0.0594 -0.8919
 8814SOL     OW38077   3.659   4.564   7.499 -0.1299 -0.2536  0.6798
 8814SOL    HW138078   3.750   4.537   7.510 -0.1382 -0.4275  0.3066
 8814SOL    HW238079   3.635   4.530   7.413  1.4726 -1.3855  0.6848
 8815SOL     OW38080   2.795   4.541   8.438  0.4465 -0.3568  0.1675
 8815SOL    HW138081   2.785   4.575   8.349 -2.6504  2.3710  1.5528
 8815SOL    HW238082   2.872   4.583   8.476 -0.7100  0.0200  2.1030
 8816SOL     OW38083   2.854   2.339   9.535 -0.5136  0.6722  0.5171
 8816SOL    HW138084   2.781   2.299   9.581 -0.2517 -0.4678 -0.0627
 8816SOL    HW238085   2.914   2.348   9.609  0.2430 -0.1584  0.0111
 8817SOL     OW38086   1.102   3.797   3.590 -0.0471  0.0944  0.4808
 8817SOL    HW138087   1.032   3.738   3.561 -0.7045  1.2769 -0.3334
 8817SOL    HW238088   1.159   3.798   3.514  0.7281  1.5254  1.0749
 8818SOL     OW38089   1.395   3.702   6.009 -0.1601 -0.4992 -0.0110
 8818SOL    HW138090   1.368   3.630   5.953 -0.3683 -0.5303  0.1278
 8818SOL    HW238091   1.471   3.737   5.964  0.6825 -2.0591  0.1828
 8819SOL     OW38092   2.567   1.212  10.250  0.0961  0.5908 -0.0883
 8819SOL    HW138093   2.592   1.284  10.193 -0.3370  0.5756 -0.2953
 8819SOL    HW238094   2.617   1.138  10.215 -0.4653 -1.2565  2.8948
 8820SOL     OW38095   0.252   4.577   7.390 -0.3365 -0.1133  0.8002
 8820SOL    HW138096   0.328   4.599   7.445  0.5469  0.5812 -0.6982
 8820SOL    HW238097   0.284   4.604   7.304 -1.9000  0.8731  0.5295
 8821SOL     OW38098   1.228   2.878   6.281 -0.2510  0.0808 -0.2063
 8821SOL    HW138099   1.221   2.784   6.299 -2.1302  0.0524 -1.0217
 8821SOL    HW238100   1.152   2.905   6.333  0.6736  1.6016  0.3371
 8822SOL     OW38101   4.461   4.137   6.429  0.3422 -0.4309  0.2527
 8822SOL    HW138102   4.441   4.125   6.336 -1.5773  1.0535  0.4778
 8822SOL    HW238103   4.445   4.231   6.439 -1.7798 -0.7786 -0.0005
 8823SOL     OW38104   2.480   0.958   5.366 -0.1317 -0.0694 -0.2051
 8823SOL    HW138105   2.515   1.037   5.325  1.2520 -1.4478 -1.6962
 8823SOL    HW238106   2.507   0.978   5.455 -0.7844 -1.1217  0.2292
 8824SOL     OW38107   3.411   0.350   2.088  0.2978  0.2140 -0.1711
 8824SOL    HW138108   3.396   0.257   2.103  2.7968 -0.2154 -0.1951
 8824SOL    HW238109   3.473   0.335   2.017 -0.4640  0.2565 -0.8425
 8825SOL     OW38110   1.686   1.462   9.030  0.4255 -0.0516  0.4509
 8825SOL    HW138111   1.693   1.550   8.991 -0.1758 -0.2039 -0.0088
 8825SOL    HW238112   1.623   1.436   8.963  0.2767 -0.2686  0.6749
 8826SOL     OW38113   0.768   2.457   8.095 -0.1539 -0.2455  0.2152
 8826SOL    HW138114   0.735   2.491   8.012 -0.1903  0.6248  0.5791
 8826SOL    HW238115   0.802   2.377   8.055  2.1823  1.6410 -1.5942
 8827SOL     OW38116   4.438   2.353  13.852  0.1127 -0.2586 -0.3067
 8827SOL    HW138117   4.406   2.280  13.800 -1.8559 -0.6556  1.4804
 8827SOL    HW238118   4.351   2.372  13.887  0.3017 -0.5890  0.3403
 8828SOL     OW38119   3.730   0.158   3.365 -0.3311 -0.2137  0.1199
 8828SOL    HW138120   3.770   0.205   3.293 -0.3000  2.9820  2.2554
 8828SOL    HW238121   3.642   0.151   3.328 -0.9819  0.7557  1.4909
 8829SOL     OW38122   4.199   1.312  10.628 -0.0907  0.1904  0.5646
 8829SOL    HW138123   4.171   1.279  10.713 -0.6038  0.3349  0.4507
 8829SOL    HW238124   4.155   1.249  10.571 -0.0514  1.6290 -1.0718
 8830SOL     OW38125   1.982   1.462   5.932  0.3493 -0.2125 -0.3769
 8830SOL    HW138126   2.006   1.373   5.907  0.5119 -0.1256 -0.5304
 8830SOL    HW238127   2.065   1.509   5.937  0.7711 -0.9777 -0.2907
 8831SOL     OW38128   1.134   4.209  17.172  0.1835  0.1792 -0.5542
 8831SOL    HW138129   1.228   4.222  17.161  0.5747 -0.4941  2.0482
 8831SOL    HW238130   1.115   4.238  17.261 -0.8821  1.0718 -1.0668
 8832SOL     OW38131   3.114   3.664   4.705  0.0861  0.0386  0.1328
 8832SOL    HW138132   3.094   3.654   4.612 -1.4875  0.6779  0.3959
 8832SOL    HW238133   3.203   3.698   4.708  0.5537 -1.1234 -0.6256
 8833SOL     OW38134   2.586   3.522   8.850  0.4709  0.8789 -0.4511
 8833SOL    HW138135   2.597   3.499   8.942 -1.0543  1.7057 -0.0518
 8833SOL    HW238136   2.492   3.542   8.845  0.7909  2.3136 -0.8283
 8834SOL     OW38137   2.290   1.394   7.261  0.1610 -0.6397 -0.3285
 8834SOL    HW138138   2.356   1.428   7.321 -1.4385 -0.1802  1.1864
 8834SOL    HW238139   2.214   1.394   7.319 -0.4418 -0.6379 -1.1134
 8835SOL     OW38140   3.354   1.723   3.638 -0.6635 -0.0359 -0.6049
 8835SOL    HW138141   3.423   1.658   3.622  0.0956  0.7257 -0.4580
 8835SOL    HW238142   3.301   1.677   3.703  0.6794  0.8728  1.1448
 8836SOL     OW38143   2.865   2.867   5.108  0.2876 -0.5803  0.7299
 8836SOL    HW138144   2.826   2.954   5.103 -3.6154 -2.3452  0.8051
 8836SOL    HW238145   2.957   2.886   5.128  0.1471 -1.2483  1.9612
 8837SOL     OW38146   1.324   0.324   1.618 -0.2570 -0.6663 -0.3899
 8837SOL    HW138147   1.402   0.273   1.600  1.1772  1.3743  0.0418
 8837SOL    HW238148   1.333   0.333   1.713 -1.5966 -1.5524 -0.1756
 8838SOL     OW38149   3.088   1.500   6.602 -0.2834  0.4746 -0.4439
 8838SOL    HW138150   2.997   1.530   6.603  0.0394  1.4673 -0.7220
 8838SOL    HW238151   3.134   1.575   6.640  0.7510 -1.3253  1.8551
 8839SOL     OW38152   2.221   1.432   4.675 -0.3381 -0.0501 -0.0230
 8839SOL    HW138153   2.303   1.436   4.624 -0.8201 -1.4027 -0.9198
 8839SOL    HW238154   2.262   1.445   4.760 -2.0111  0.2339  0.7279
 8840SOL     OW38155   1.585   1.142  12.789 -0.5008  0.2571  0.0054
 8840SOL    HW138156   1.569   1.114  12.699  0.2882  0.5501 -0.2300
 8840SOL    HW238157   1.680   1.130  12.789 -0.5421 -0.1180 -2.4378
 8841SOL     OW38158   3.371   2.551   9.091  0.2377 -0.0620 -0.3332
 8841SOL    HW138159   3.323   2.516   9.166 -1.3001 -0.4564 -1.5084
 8841SOL    HW238160   3.460   2.525   9.116  0.3418 -0.5197 -1.2072
 8842SOL     OW38161   0.245   0.327   4.582 -0.5037  0.4612  0.4379
 8842SOL    HW138162   0.324   0.274   4.594 -0.3279  0.1322 -2.2030
 8842SOL    HW238163   0.191   0.270   4.527 -0.0426 -0.3784  0.8642
 8843SOL     OW38164   4.300   1.990   7.301 -0.0382  0.0313  0.0691
 8843SOL    HW138165   4.360   2.060   7.327 -0.7504  0.0750  1.5684
 8843SOL    HW238166   4.346   1.939   7.234  0.1699 -0.3732  0.5233
 8844SOL     OW38167   4.126   3.602   7.898  0.9114  0.1160 -0.0599
 8844SOL    HW138168   4.110   3.530   7.838 -2.6791  0.1911  0.8299
 8844SOL    HW238169   4.152   3.675   7.842  0.3167  1.0770  0.9065
 8845SOL     OW38170   2.715   1.004   4.819 -0.0140 -0.4307  0.0617
 8845SOL    HW138171   2.757   0.918   4.824 -1.0784 -1.0292 -1.5774
 8845SOL    HW238172   2.791   1.061   4.834  1.0372 -1.8947  0.3286
 8846SOL     OW38173   1.158   4.085   5.442  0.2543  0.3717  0.2540
 8846SOL    HW138174   1.222   4.018   5.419 -0.5075  0.3881 -1.9114
 8846SOL    HW238175   1.105   4.093   5.363  0.7882 -0.0463 -0.1473
 8847SOL     OW38176   4.302   0.558   7.915  0.1089 -0.0077 -0.7248
 8847SOL    HW138177   4.380   0.529   7.963  1.0736  0.4169 -2.0477
 8847SOL    HW238178   4.333   0.646   7.892  0.4976 -0.2775 -1.2303
 8848SOL     OW38179   3.472   3.406   8.666  0.2030 -0.0294 -0.0514
 8848SOL    HW138180   3.519   3.326   8.642  1.1930  0.6144 -0.2769
 8848SOL    HW238181   3.422   3.364   8.736 -0.0115  0.3499  0.0221
 8849SOL     OW38182   2.324   0.104   9.536  0.1293  0.4928 -0.2612
 8849SOL    HW138183   2.376   0.146   9.467 -1.8714  2.2442 -0.7085
 8849SOL    HW238184   2.313   0.168   9.606  3.6929  0.8659 -0.0416
 8850SOL     OW38185   1.005   0.486   2.406 -0.2261  0.6918  0.0269
 8850SOL    HW138186   0.996   0.535   2.324 -2.3507  3.0474  1.6714
 8850SOL    HW238187   0.918   0.499   2.442 -0.9460  0.1781 -1.5148
 8851SOL     OW38188   0.696   4.653   4.848  0.1400 -0.2326 -0.3477
 8851SOL    HW138189   0.751   4.723   4.814  2.3879 -0.7511  2.2483
 8851SOL    HW238190   0.614   4.651   4.798  0.2014 -0.1517 -0.4516
 8852SOL     OW38191   1.470   1.252   2.944 -0.2641 -0.3533  0.0131
 8852SOL    HW138192   1.481   1.272   2.851  0.4302  0.8864  0.3627
 8852SOL    HW238193   1.510   1.334   2.974  0.7032 -0.8512  0.0515
 8853SOL     OW38194   2.478   0.478   6.093  0.1915  0.3199 -0.1079
 8853SOL    HW138195   2.574   0.479   6.102  0.0904 -0.5951  1.0502
 8853SOL    HW238196   2.456   0.539   6.164  2.1158 -0.1030  0.8716
 8854SOL     OW38197   3.748   3.998   9.048  0.3379 -0.2406 -0.0897
 8854SOL    HW138198   3.702   4.023   8.967 -0.6080 -0.3377  0.4195
 8854SOL    HW238199   3.780   3.912   9.021 -0.1885 -0.3703 -0.2955
 8855SOL     OW38200   4.678   2.690   0.992 -0.3088 -0.2427  0.4155
 8855SOL    HW138201   4.649   2.694   0.901  0.3037 -1.6187  0.1712
 8855SOL    HW238202   0.032   2.694   0.973  0.6016 -0.0801  4.8922
 8856SOL     OW38203   1.407   2.497  17.001 -0.1065 -0.2116  0.3027
 8856SOL    HW138204   1.474   2.461  17.060 -1.3104 -0.3568  1.5700
 8856SOL    HW238205   1.427   2.453  16.918  1.7799  0.5393  0.3519
 8857SOL     OW38206   4.734   4.056   9.549 -0.0879  0.1097 -0.1065
 8857SOL    HW138207   0.067   4.054   9.611 -1.1082  2.2033  1.1717
 8857SOL    HW238208   0.021   4.138   9.507 -0.4687  0.7412  0.8749
 8858SOL     OW38209   0.036   1.342   5.886 -0.2286  0.0351 -0.5747
 8858SOL    HW138210   4.703   1.320   5.944  0.1396 -0.3691 -0.2662
 8858SOL    HW238211   0.109   1.340   5.947 -2.7422  0.4558  2.4460
 8859SOL     OW38212   0.586   2.891   8.408  0.4762 -0.4853 -0.1915
 8859SOL    HW138213   0.677   2.899   8.381  0.5170 -0.5763 -0.0792
 8859SOL    HW238214   0.578   2.800   8.436  0.0235 -0.8116 -1.3965
 8860SOL     OW38215   1.424   1.753   8.140 -0.6072  0.0727  0.0403
 8860SOL    HW138216   1.474   1.680   8.177 -2.7412 -0.1651  2.4725
 8860SOL    HW238217   1.340   1.710   8.126 -1.2642  0.9823  1.1893
 8861SOL     OW38218   2.709   2.842   2.251  0.0531  0.0486  0.2438
 8861SOL    HW138219   2.791   2.828   2.300  0.5667  0.4871 -0.4927
 8861SOL    HW238220   2.655   2.812   2.324  1.6501 -0.1413  1.3727
 8862SOL     OW38221   2.595   2.177   5.001  0.3014 -0.1623  0.3473
 8862SOL    HW138222   2.616   2.241   4.933 -0.0261 -0.6554 -0.2118
 8862SOL    HW238223   2.499   2.180   5.004  0.2777 -0.4242 -0.1905
 8863SOL     OW38224   1.664   2.248   6.164 -0.4771 -0.3763  0.2562
 8863SOL    HW138225   1.657   2.320   6.226  1.7703 -0.7014  0.8800
 8863SOL    HW238226   1.695   2.181   6.225 -0.3658 -0.1948  0.3999
 8864SOL     OW38227   2.086   4.533   2.583  0.0722 -0.2625 -0.0097
 8864SOL    HW138228   2.142   4.514   2.658 -0.6916  1.8110  1.0842
 8864SOL    HW238229   2.023   4.599   2.612 -0.9700 -0.6321 -1.3852
 8865SOL     OW38230   4.538   2.207   1.083 -0.3015 -0.0460 -0.0988
 8865SOL    HW138231   4.512   2.250   1.164  1.0691 -1.6349  1.1841
 8865SOL    HW238232   4.626   2.240   1.065 -0.5707  1.1807  0.8488
 8866SOL     OW38233   3.533   0.318   4.790  0.4411 -0.2994  0.1820
 8866SOL    HW138234   3.564   0.398   4.748  0.6235 -0.4741 -0.0191
 8866SOL    HW238235   3.611   0.264   4.779  0.6242  0.1093 -0.5119
 8867SOL     OW38236   1.699   0.236   4.633 -0.5884 -0.4456  0.2699
 8867SOL    HW138237   1.793   0.227   4.614 -0.8581 -2.1016 -0.2322
 8867SOL    HW238238   1.718   0.272   4.720 -3.1154 -1.2875  1.1437
 8868SOL     OW38239   3.085   1.342   4.770  0.6222 -0.2797 -0.0122
 8868SOL    HW138240   3.027   1.378   4.703  1.1698 -0.8372 -0.7870
 8868SOL    HW238241   3.014   1.312   4.826  2.3390 -2.3816  1.0123
 8869SOL     OW38242   1.590   1.648   7.578  0.4547 -0.1428  0.6058
 8869SOL    HW138243   1.535   1.723   7.601 -1.3051 -0.9277 -0.9737
 8869SOL    HW238244   1.605   1.655   7.484  1.5714 -1.5713  0.6803
 8870SOL     OW38245   2.087   4.672   7.902 -0.2334  0.3476  0.1393
 8870SOL    HW138246   2.054   4.619   7.975  1.1207  1.8040  1.8288
 8870SOL    HW238247   2.179   4.645   7.910 -0.2391  0.7943  1.6970
 8871SOL     OW38248   2.379   2.484  15.559  0.0899  0.0952 -0.1701
 8871SOL    HW138249   2.468   2.515  15.539 -0.9790  1.6855 -2.4542
 8871SOL    HW238250   2.339   2.555  15.608 -0.9878 -0.4413 -0.2763
 8872SOL     OW38251   1.661   0.127   6.848  0.2348  0.2187 -0.5416
 8872SOL    HW138252   1.657   0.166   6.761  1.4547 -1.0325 -1.1594
 8872SOL    HW238253   1.754   0.122   6.866  0.2032 -1.8187 -0.9701
 8873SOL     OW38254   3.536   1.602  11.384  0.1467 -0.4929 -0.1436
 8873SOL    HW138255   3.590   1.523  11.378 -1.1524 -1.5148  1.4203
 8873SOL    HW238256   3.518   1.607  11.291  0.5282 -0.4276 -0.2142
 8874SOL     OW38257   2.308   0.252   3.225 -0.3737 -0.2147 -0.4549
 8874SOL    HW138258   2.270   0.276   3.140 -0.6809 -0.4989 -0.3961
 8874SOL    HW238259   2.233   0.266   3.283 -0.2429 -0.7021 -0.1707
 8875SOL     OW38260   0.992   3.556   6.076 -0.1369 -0.3561  0.0276
 8875SOL    HW138261   1.029   3.475   6.041  0.8714  0.2246 -0.2495
 8875SOL    HW238262   0.995   3.520   6.165  3.6788  2.1152  0.9334
 8876SOL     OW38263   0.906   3.416  10.620 -0.9272 -0.2367 -0.4258
 8876SOL    HW138264   1.001   3.429  10.627 -1.0846  0.1547  0.9906
 8876SOL    HW238265   0.895   3.451  10.531  1.6446 -1.2967 -1.1515
 8877SOL     OW38266   0.473   3.993   7.459 -0.0549  0.1428 -0.4930
 8877SOL    HW138267   0.472   4.072   7.405 -1.1102  0.9156  0.6444
 8877SOL    HW238268   0.566   3.998   7.481 -0.1388  0.4463 -0.2125
 8878SOL     OW38269   4.591   2.906   1.949  0.0958  0.0656  0.1923
 8878SOL    HW138270   4.531   2.882   2.020 -1.6842  2.0606 -0.6212
 8878SOL    HW238271   4.661   2.841   1.952  1.0638  1.0585 -0.6573
 8879SOL     OW38272   1.730   3.701   1.086 -0.2008 -0.0775 -0.6876
 8879SOL    HW138273   1.730   3.681   1.180 -0.8624 -0.8818 -0.8584
 8879SOL    HW238274   1.812   3.751   1.082  0.9156 -1.9959 -1.5686
 8880SOL     OW38275   4.402   1.928   3.264  0.1071  0.2089  0.0484
 8880SOL    HW138276   4.314   1.958   3.241  0.4374  0.0035 -1.4742
 8880SOL    HW238277   4.378   1.908   3.355 -4.2486  0.4006 -1.0771
 8881SOL     OW38278   4.219   0.416  10.545 -0.4428 -0.0982 -0.1724
 8881SOL    HW138279   4.182   0.496  10.508  0.7015  0.5925  0.1950
 8881SOL    HW238280   4.182   0.426  10.633  0.1814  2.9000 -0.2582
 8882SOL     OW38281   0.318   4.672   4.957 -0.7612 -0.1175  0.2394
 8882SOL    HW138282   0.307   4.619   5.036  1.4515 -1.3191 -0.2800
 8882SOL    HW238283   0.256   4.626   4.901  1.0448 -0.7420 -1.2247
 8883SOL     OW38284   2.301   4.604   5.645 -0.0669  0.0104 -0.0335
 8883SOL    HW138285   2.269   4.563   5.725 -2.8152  2.7978  0.2912
 8883SOL    HW238286   2.240   4.590   5.573 -0.7402  0.1114  0.5142
 8884SOL     OW38287   3.419   1.529   0.839 -0.2373  0.0832  0.4468
 8884SOL    HW138288   3.379   1.574   0.913  0.0806  0.1876  0.5530
 8884SOL    HW238289   3.350   1.526   0.772 -0.7782  1.0260  0.9692
 8885SOL     OW38290   2.938   3.418  13.651  0.2666 -0.0153  0.2567
 8885SOL    HW138291   2.859   3.467  13.631  1.4822  0.3565 -3.5877
 8885SOL    HW238292   3.009   3.461  13.603 -0.3288  0.7455  0.0658
 8886SOL     OW38293   4.666   0.108   3.915 -0.1686  0.4550  0.1977
 8886SOL    HW138294   4.686   0.202   3.918 -1.5662  0.7349  0.7304
 8886SOL    HW238295   4.678   0.099   3.821  1.8694 -3.2624  0.8170
 8887SOL     OW38296   0.454   4.202  13.080 -0.4046 -0.3247  0.1567
 8887SOL    HW138297   0.546   4.177  13.090 -0.2270  0.5477  0.7803
 8887SOL    HW238298   0.455   4.298  13.084 -1.2706 -0.2846 -0.7373
 8888SOL     OW38299   0.480   0.968  16.577 -0.6530 -0.1125 -0.1067
 8888SOL    HW138300   0.416   0.917  16.529  1.4811 -1.4380 -1.5118
 8888SOL    HW238301   0.549   0.907  16.604 -0.0612  0.5655 -0.0938
 8889SOL     OW38302   3.940   1.293   7.762 -0.1038  0.0237  0.1795
 8889SOL    HW138303   3.845   1.296   7.757 -0.0428  0.7321 -0.4577
 8889SOL    HW238304   3.958   1.213   7.812 -1.4510 -0.1562  0.3684
 8890SOL     OW38305   4.090   3.289   2.677  0.3073 -0.4770 -0.1417
 8890SOL    HW138306   4.066   3.221   2.740 -0.7115  1.0478  1.1184
 8890SOL    HW238307   4.032   3.361   2.703  0.8157 -0.6763  1.5760
 8891SOL     OW38308   2.177   4.211   6.863 -0.4930  0.3267  0.3526
 8891SOL    HW138309   2.163   4.117   6.850 -1.6129  0.3787  1.1721
 8891SOL    HW238310   2.184   4.227   6.957 -2.0698 -1.2509  0.7364
 8892SOL     OW38311   3.570   0.842   8.010 -0.7388 -0.2458  0.2981
 8892SOL    HW138312   3.644   0.781   8.017  0.8944  1.8639  1.5031
 8892SOL    HW238313   3.566   0.839   7.915  1.6777 -1.8042  0.2329
 8893SOL     OW38314   0.988   2.429   4.525  0.2952 -0.6923 -0.1098
 8893SOL    HW138315   0.926   2.450   4.595  0.6093 -2.0592  0.5691
 8893SOL    HW238316   0.991   2.494   4.455 -1.5496  0.4023  0.8235
 8894SOL     OW38317   3.700   4.447   0.184 -0.4253  0.2257  0.4008
 8894SOL    HW138318   3.711   4.541   0.199 -2.1852  0.6857 -1.1477
 8894SOL    HW238319   3.749   4.438   0.102 -0.2715  0.2299  0.4930
 8895SOL     OW38320   3.273   0.759   6.050  0.1755 -0.0403  0.0865
 8895SOL    HW138321   3.347   0.797   6.099 -0.1016 -2.4409  2.3484
 8895SOL    HW238322   3.319   0.714   5.980 -3.0862 -2.3626 -0.5545
 8896SOL     OW38323   1.661   2.404   5.591 -0.1204  0.5090  0.5404
 8896SOL    HW138324   1.658   2.453   5.509  0.5659 -0.2722  0.0466
 8896SOL    HW238325   1.577   2.425   5.632 -1.6048 -1.2241 -1.6246
 8897SOL     OW38326   0.650   1.918  14.797 -0.0046 -0.2756  0.1213
 8897SOL    HW138327   0.588   1.885  14.863  1.3831 -2.6835  0.1870
 8897SOL    HW238328   0.594   1.923  14.720 -0.6762  1.1311  0.6877
 8898SOL     OW38329   0.643   2.438   4.292  0.5887  0.1554 -0.2031
 8898SOL    HW138330   0.719   2.496   4.286  1.5314 -1.0539  0.0419
 8898SOL    HW238331   0.675   2.352   4.320 -4.3378 -1.9363 -1.0363
 8899SOL     OW38332   2.657   3.694   6.456  0.0510 -0.1811  0.3037
 8899SOL    HW138333   2.687   3.662   6.371 -1.0732  1.2703 -0.6346
 8899SOL    HW238334   2.626   3.619   6.507  1.0453 -0.4758  0.4730
 8900SOL     OW38335   1.806   4.075   0.088  0.8260  0.3950  0.1105
 8900SOL    HW138336   1.877   4.122   0.045  2.1247 -0.9964  0.7641
 8900SOL    HW238337   1.790   4.013   0.018 -1.2314  1.1772 -0.1169
 8901SOL     OW38338   4.222   2.297   6.021 -0.0542  0.2534 -0.0488
 8901SOL    HW138339   4.179   2.248   6.091 -0.6324 -1.1615 -1.4117
 8901SOL    HW238340   4.273   2.354   6.078  2.7075 -1.8744 -0.4272
 8902SOL     OW38341   3.534   1.981   6.268 -0.2173  0.0276 -0.1383
 8902SOL    HW138342   3.572   1.920   6.332 -0.7294 -2.5481 -2.2954
 8902SOL    HW238343   3.464   2.019   6.321 -0.7616 -0.6628 -0.3668
 8903SOL     OW38344   1.830   3.854   3.135 -0.6762  0.2607 -0.4457
 8903SOL    HW138345   1.889   3.900   3.076  2.6042 -0.7835  1.9935
 8903SOL    HW238346   1.893   3.816   3.197 -1.1832  0.0380 -0.0739
 8904SOL     OW38347   3.444   0.145   9.881  0.2775  0.4284  0.4791
 8904SOL    HW138348   3.467   0.055   9.857 -3.2775 -0.3859  0.1108
 8904SOL    HW238349   3.382   0.171   9.813 -0.4432  0.4798  1.1594
 8905SOL     OW38350   0.379   1.161  15.651 -0.4206 -0.0597 -0.0198
 8905SOL    HW138351   0.384   1.181  15.745 -1.6689  2.6989 -0.5491
 8905SOL    HW238352   0.433   1.234  15.621 -2.8656  2.6891  2.2739
 8906SOL     OW38353   3.559   0.451  17.522  0.1700  0.2403  0.1303
 8906SOL    HW138354   3.601   0.465  17.607  1.2460  1.6240 -0.6232
 8906SOL    HW238355   3.525   0.537  17.499  1.8550  0.2411 -2.3664
 8907SOL     OW38356   3.469   3.270   4.736 -0.0356  0.3054  0.1114
 8907SOL    HW138357   3.413   3.192   4.732 -0.8311  0.8912 -0.2710
 8907SOL    HW238358   3.414   3.338   4.776  3.5195  1.9859  2.1007
 8908SOL     OW38359   3.315   2.493   4.069  0.1704 -0.1712 -0.7340
 8908SOL    HW138360   3.378   2.565   4.080  1.8583 -1.5234 -1.6636
 8908SOL    HW238361   3.260   2.517   3.994  0.4302  2.8399  0.0216
 8909SOL     OW38362   2.234   3.225   7.902 -0.3356  0.0699  0.4076
 8909SOL    HW138363   2.183   3.149   7.931 -0.7007 -0.1113 -0.7185
 8909SOL    HW238364   2.162   3.288   7.906  1.2094  1.9781 -2.0142
 8910SOL     OW38365   0.306   2.294   4.422 -0.9748 -0.6045 -0.3663
 8910SOL    HW138366   0.364   2.255   4.487  2.8762  2.6291 -1.8751
 8910SOL    HW238367   0.227   2.275   4.473 -1.0917 -0.6626 -0.5697
 8911SOL     OW38368   4.511   0.058   7.559  0.3564 -0.4174 -0.3286
 8911SOL    HW138369   4.532   0.150   7.571 -0.6705 -0.2541  0.2605
 8911SOL    HW238370   4.578   0.032   7.495 -0.0786 -0.5164 -0.7441
 8912SOL     OW38371   3.251   2.525   4.839  0.5830  0.0175  0.5474
 8912SOL    HW138372   3.320   2.485   4.892  1.0409 -0.4685 -0.4187
 8912SOL    HW238373   3.214   2.442   4.810  1.0729 -0.0801  0.2036
 8913SOL     OW38374   1.844   0.426  13.145  0.3547  0.3974  0.1376
 8913SOL    HW138375   1.757   0.464  13.157  0.5682  0.9691 -0.1272
 8913SOL    HW238376   1.862   0.395  13.234  0.9020 -0.2838 -0.1997
 8914SOL     OW38377   0.649   3.712  11.576  0.6370 -0.3713 -0.8688
 8914SOL    HW138378   0.596   3.644  11.533 -2.0886  0.2857  1.4284
 8914SOL    HW238379   0.636   3.790  11.522 -3.6867 -0.5470 -0.1028
 8915SOL     OW38380   1.773   2.217   3.754  0.2566  0.2312 -0.1087
 8915SOL    HW138381   1.857   2.246   3.718  0.0446  1.0774  0.0760
 8915SOL    HW238382   1.798   2.126   3.769 -0.8465  0.0128  0.4535
 8916SOL     OW38383   4.246   2.407   0.591 -0.3049 -0.5057 -0.5660
 8916SOL    HW138384   4.221   2.467   0.662  1.3584 -0.4406 -0.0320
 8916SOL    HW238385   4.320   2.357   0.627  0.2819 -0.0156 -1.0949
 8917SOL     OW38386   1.618   3.688   3.938 -0.1411 -0.0312  0.5217
 8917SOL    HW138387   1.561   3.642   3.876  1.7460  1.3866 -2.2713
 8917SOL    HW238388   1.545   3.723   3.989 -0.3218  3.9197 -2.4986
 8918SOL     OW38389   0.335   1.016  14.990 -0.4246  0.0946 -0.0744
 8918SOL    HW138390   0.346   0.970  14.906 -0.1687 -1.8278  1.0033
 8918SOL    HW238391   0.425   1.003  15.020  0.0998  2.2171 -0.7454
 8919SOL     OW38392   3.481   2.398  15.339  0.2644  0.4942  0.3004
 8919SOL    HW138393   3.532   2.360  15.410  0.9022 -0.0652 -0.4679
 8919SOL    HW238394   3.544   2.383  15.269  0.5717 -0.4057  0.7774
 8920SOL     OW38395   2.582   0.513   9.019 -0.3090 -0.2136  0.2191
 8920SOL    HW138396   2.524   0.531   8.945 -0.9168  0.6741  0.9090
 8920SOL    HW238397   2.535   0.436   9.052 -0.9596  0.6090  1.2371
 8921SOL     OW38398   4.379   4.077   1.342  0.2580 -0.2636  0.0412
 8921SOL    HW138399   4.359   4.020   1.416 -0.3765 -3.8976 -2.8902
 8921SOL    HW238400   4.473   4.058   1.341 -0.1272 -2.1836 -0.3884
 8922SOL     OW38401   1.452   0.490   2.499 -0.0640  0.0151 -0.2048
 8922SOL    HW138402   1.403   0.417   2.460 -0.4699  0.1544  0.0362
 8922SOL    HW238403   1.543   0.461   2.505 -0.5984 -1.4648  0.8779
 8923SOL     OW38404   1.970   4.098   7.200 -0.2022  0.0829  0.2919
 8923SOL    HW138405   1.923   4.091   7.117 -0.0334 -0.4494  0.2395
 8923SOL    HW238406   2.041   4.152   7.166 -0.4829  2.2066  3.0598
 8924SOL     OW38407   0.453   2.041   7.043 -0.2978  0.7135 -0.4507
 8924SOL    HW138408   0.491   1.954   7.053 -2.0352  0.2549  2.2901
 8924SOL    HW238409   0.484   2.068   6.957  0.9524  0.3669 -0.1059
 8925SOL     OW38410   3.842   4.067   4.916 -0.3648 -0.4153 -0.2326
 8925SOL    HW138411   3.862   4.115   4.997  1.4592  0.3313 -1.1324
 8925SOL    HW238412   3.807   3.986   4.954 -1.8603 -0.0379 -0.7965
 8926SOL     OW38413   2.574   3.892   8.121 -0.4565  0.2822  0.1775
 8926SOL    HW138414   2.654   3.933   8.155 -1.1847  1.4875  0.4310
 8926SOL    HW238415   2.526   3.887   8.203 -0.6715  1.3922  0.1269
 8927SOL     OW38416   4.282   1.320   0.635 -0.2796 -0.5509  0.0185
 8927SOL    HW138417   4.351   1.284   0.690  2.6492  3.4346 -0.9630
 8927SOL    HW238418   4.215   1.350   0.696 -0.1324  1.8541 -0.9700
 8928SOL     OW38419   2.134   0.391   4.279  0.8265  0.1139 -0.0084
 8928SOL    HW138420   2.160   0.423   4.366  0.4622  2.7358 -0.8779
 8928SOL    HW238421   2.039   0.396   4.285  1.0459  0.8373  2.8394
 8929SOL     OW38422   0.063   2.761   6.188  0.6765  0.2367 -0.0229
 8929SOL    HW138423   4.711   2.778   6.209  0.1407 -0.5763 -1.7076
 8929SOL    HW238424   0.058   2.682   6.135  0.9152  0.8429 -0.9624
 8930SOL     OW38425   1.066   0.392   5.352  0.6279 -0.8331 -0.2806
 8930SOL    HW138426   1.069   0.486   5.369  0.4614 -0.7695 -0.5957
 8930SOL    HW238427   0.978   0.374   5.319  0.3709 -0.2914  0.0962
 8931SOL     OW38428   2.424   1.812   9.234 -0.2648  0.7376 -0.2812
 8931SOL    HW138429   2.501   1.807   9.290  0.3904 -2.8948 -1.5095
 8931SOL    HW238430   2.384   1.726   9.248 -1.0657  0.7878 -2.3503
 8932SOL     OW38431   0.310   1.455   0.514 -0.1923 -0.0368  0.1515
 8932SOL    HW138432   0.401   1.475   0.534 -0.6924  2.0399  0.3805
 8932SOL    HW238433   0.311   1.363   0.488 -0.5585  0.1675 -0.6173
 8933SOL     OW38434   0.379   4.218  13.967  0.2776 -0.1954 -0.1491
 8933SOL    HW138435   0.305   4.221  13.906  0.6195  1.0658 -0.5092
 8933SOL    HW238436   0.364   4.142  14.022  1.3772  0.4558  1.0462
 8934SOL     OW38437   3.223   3.572   5.720  0.3886 -0.4064  0.2624
 8934SOL    HW138438   3.290   3.509   5.747  0.8775 -0.0630 -0.1648
 8934SOL    HW238439   3.268   3.607   5.643 -3.3863  2.3373 -0.7036
 8935SOL     OW38440   2.933   1.330  14.524 -0.3069 -0.1368  0.4877
 8935SOL    HW138441   3.020   1.335  14.566  0.2602 -1.7147 -0.5106
 8935SOL    HW238442   2.917   1.423  14.511 -1.1564 -0.2528  0.7116
 8936SOL     OW38443   0.413   3.168   5.853 -0.2994  0.4768 -0.4713
 8936SOL    HW138444   0.481   3.176   5.920  1.4686  0.6894 -2.2597
 8936SOL    HW238445   0.441   3.089   5.806 -3.6984  0.8142 -3.0743
 8937SOL     OW38446   0.029   2.312   4.421  0.0879 -0.1753  0.1710
 8937SOL    HW138447   4.719   2.299   4.502  0.3918 -1.2267  0.1848
 8937SOL    HW238448   0.015   2.406   4.410  0.5288 -0.2314 -0.8431
 8938SOL     OW38449   2.846   3.558   0.020  0.2515  0.1702 -0.4858
 8938SOL    HW138450   2.804   3.481  17.739 -2.7200  0.9387  1.2352
 8938SOL    HW238451   2.886   3.514   0.096  0.5233  0.3898 -0.5002
 8939SOL     OW38452   3.473   4.325   5.436 -0.2441  0.1413 -0.5351
 8939SOL    HW138453   3.400   4.265   5.422  0.1893 -0.5527  0.2070
 8939SOL    HW238454   3.433   4.411   5.420  0.0136  1.2740  4.6777
 8940SOL     OW38455   2.191   3.977   7.430 -0.8084 -0.4575 -0.2580
 8940SOL    HW138456   2.252   3.914   7.391  1.0110 -0.0894  2.0551
 8940SOL    HW238457   2.207   4.039   7.359  0.3265  1.0831  1.3527
 8941SOL     OW38458   2.606   0.212  10.275  0.3824 -0.4630  0.2544
 8941SOL    HW138459   2.556   0.259  10.208 -0.1881 -2.5263 -0.7605
 8941SOL    HW238460   2.641   0.287  10.322 -0.0613  0.8845 -1.5276
 8942SOL     OW38461   0.382   2.158  13.789 -0.0179 -0.4462 -0.0037
 8942SOL    HW138462   0.333   2.161  13.871 -1.0740  1.8797 -0.7124
 8942SOL    HW238463   0.331   2.093  13.741  0.2534 -0.9379  0.3741
 8943SOL     OW38464   0.617   3.569  16.642 -0.1319  0.6022 -0.8158
 8943SOL    HW138465   0.694   3.514  16.625 -0.0312  0.8940 -1.3023
 8943SOL    HW238466   0.572   3.499  16.688  1.0710 -1.4229 -2.7298
 8944SOL     OW38467   2.401   1.249   7.623  0.2555  1.0070  0.2417
 8944SOL    HW138468   2.364   1.206   7.700 -1.0235 -0.5708 -1.2597
 8944SOL    HW238469   2.425   1.174   7.570 -1.6995 -0.0556  0.8788
 8945SOL     OW38470   4.498   4.254  10.528  0.1731 -0.0145 -0.1414
 8945SOL    HW138471   4.582   4.216  10.503  1.1648  2.1800 -0.1295
 8945SOL    HW238472   4.444   4.242  10.450  0.3688 -0.8882 -0.1430
 8946SOL     OW38473   0.637   1.661  16.104 -0.1633  0.8973  0.1675
 8946SOL    HW138474   0.673   1.645  16.017  1.7364 -0.9836  1.3039
 8946SOL    HW238475   0.560   1.715  16.086 -0.9520  0.2097  1.4834
 8947SOL     OW38476   2.885   0.124   2.712  0.3559  0.0348 -0.9452
 8947SOL    HW138477   2.894   0.090   2.801  0.1427  2.2359 -0.0882
 8947SOL    HW238478   2.893   0.219   2.725 -0.7557  0.2883 -2.0842
 8948SOL     OW38479   4.651   1.535  12.688 -0.1406  0.3749  0.3197
 8948SOL    HW138480   4.708   1.508  12.759  2.0549 -2.2807 -2.4353
 8948SOL    HW238481   4.612   1.619  12.712  0.2109  0.3792  0.8677
 8949SOL     OW38482   3.976   4.698   7.070 -0.2996  0.2369 -0.6399
 8949SOL    HW138483   3.938   0.040   7.102 -0.6533  0.2314 -1.0448
 8949SOL    HW238484   4.017   4.649   7.142  0.4201  0.9121 -0.5848
 8950SOL     OW38485   2.175   1.865   7.077  0.1721  0.5832  0.3359
 8950SOL    HW138486   2.174   1.908   7.162 -0.1868 -0.1217  0.6951
 8950SOL    HW238487   2.268   1.873   7.057  0.4521 -2.2465  0.4992
 8951SOL     OW38488   4.642   0.117   5.498  0.6573 -0.6532 -0.0582
 8951SOL    HW138489   4.732   0.149   5.491  0.6909 -0.0864  3.2684
 8951SOL    HW238490   4.652   0.037   5.548 -1.2393 -0.7891  0.1062
 8952SOL     OW38491   0.221   1.747  14.739  0.0593 -0.0682  0.1647
 8952SOL    HW138492   0.301   1.713  14.699 -0.5526  0.7142 -1.6917
 8952SOL    HW238493   0.262   1.815  14.793  1.2167  0.2657 -1.1222
 8953SOL     OW38494   0.197   0.296   3.434 -0.1219  0.2380 -0.0709
 8953SOL    HW138495   0.270   0.331   3.382 -1.6886  0.6987 -1.9625
 8953SOL    HW238496   0.228   0.330   3.518 -0.6510 -2.4121  1.1984
 8954SOL     OW38497   1.528   1.108  13.543  0.2599  0.0804  0.0049
 8954SOL    HW138498   1.587   1.164  13.493  0.3234  0.5880  0.6480
 8954SOL    HW238499   1.445   1.146  13.515  0.0491 -0.9127 -0.7122
 8955SOL     OW38500   0.715   0.133   0.258 -0.2798  0.0734 -0.1857
 8955SOL    HW138501   0.787   0.158   0.316 -2.6043  2.4999  1.6563
 8955SOL    HW238502   0.720   0.205   0.196 -2.4029 -0.9007 -1.4580
 8956SOL     OW38503   3.933   0.538  10.284  0.3654 -0.2490 -0.1671
 8956SOL    HW138504   4.011   0.531  10.339  0.5769 -0.6778 -0.5224
 8956SOL    HW238505   3.967   0.598  10.217 -0.2012 -0.5456 -0.7200
 8957SOL     OW38506   0.018   1.454   9.522 -0.2275  0.4430  0.2053
 8957SOL    HW138507   4.729   1.518   9.587 -1.2559 -0.7453  0.9187
 8957SOL    HW238508   4.677   1.427   9.480  0.4155 -1.7744  0.3889
 8958SOL     OW38509   2.529   3.965   6.244 -0.2822 -0.0974 -0.2143
 8958SOL    HW138510   2.611   4.010   6.265  0.8432 -1.0149 -2.6254
 8958SOL    HW238511   2.559   3.887   6.197  2.0955 -0.6689  2.2681
 8959SOL     OW38512   4.190   0.192  11.699 -0.4782  0.0049  0.2368
 8959SOL    HW138513   4.269   0.183  11.646 -0.4422 -0.5954  0.3926
 8959SOL    HW238514   4.130   0.230  11.635  2.7739  2.2161 -1.5101
 8960SOL     OW38515   0.322   3.522   7.920 -0.6540 -0.0528  0.0519
 8960SOL    HW138516   0.341   3.530   7.827 -0.8139  0.0648  0.0275
 8960SOL    HW238517   0.380   3.590   7.953 -0.7174  0.9523 -1.9483
 8961SOL     OW38518   4.062   1.050   4.673 -0.2162  0.3150 -0.1998
 8961SOL    HW138519   3.979   1.063   4.718 -0.6679  0.6109 -1.1110
 8961SOL    HW238520   4.044   1.111   4.602  0.3526 -0.4448 -0.9990
 8962SOL     OW38521   1.699   3.125   5.221  0.0897  0.0909  0.0636
 8962SOL    HW138522   1.769   3.189   5.207  1.0908 -1.4676 -1.9425
 8962SOL    HW238523   1.740   3.050   5.179 -1.5221 -0.0105 -1.3338
 8963SOL     OW38524   2.620   0.337   6.874  0.3166 -0.0448 -0.7105
 8963SOL    HW138525   2.577   0.419   6.900 -0.0237 -0.9903  1.6501
 8963SOL    HW238526   2.546   0.279   6.890  1.9012 -1.9134 -0.1466
 8964SOL     OW38527   0.898   3.068   6.050  0.2579 -0.2961  0.1615
 8964SOL    HW138528   0.989   3.047   6.030  0.2204  0.6407 -0.9712
 8964SOL    HW238529   0.860   3.081   5.963  1.5390  0.0279 -0.3633
 8965SOL     OW38530   0.515   3.505   3.227 -0.5821 -0.4609 -0.4834
 8965SOL    HW138531   0.475   3.586   3.196 -0.9144 -0.8749 -1.1297
 8965SOL    HW238532   0.471   3.491   3.310  1.0076  2.8298  0.9145
 8966SOL     OW38533   0.755   0.702  14.708  0.2094 -0.3968  0.6756
 8966SOL    HW138534   0.678   0.732  14.757  1.0091  2.0741  0.3982
 8966SOL    HW238535   0.826   0.735  14.763  1.2237  2.3787 -2.3576
 8967SOL     OW38536   0.115   0.940   5.175 -0.2940  0.4532 -0.3920
 8967SOL    HW138537   0.076   1.019   5.214  1.7023  1.1417  0.2005
 8967SOL    HW238538   0.195   0.970   5.133  0.3657 -1.1825 -0.2965
 8968SOL     OW38539   2.164   3.421   8.687 -0.1819  0.1713 -0.3293
 8968SOL    HW138540   2.070   3.407   8.696  0.0044 -0.6322  0.3430
 8968SOL    HW238541   2.160   3.456   8.598  1.7007  0.5074 -0.2852
 8969SOL     OW38542   1.343   3.925   5.311 -0.2224 -0.1198 -0.5349
 8969SOL    HW138543   1.413   3.990   5.307 -0.4061  0.0256 -1.5310
 8969SOL    HW238544   1.385   3.863   5.370  0.5738  0.1418 -0.8338
 8970SOL     OW38545   1.668   3.367  13.416  0.0874 -0.0132 -0.4220
 8970SOL    HW138546   1.581   3.371  13.455  0.6437  0.1934  0.7987
 8970SOL    HW238547   1.724   3.428  13.465 -1.2117 -0.2488  1.3407
 8971SOL     OW38548   0.121   2.855   5.078 -0.0874  0.1860 -0.2157
 8971SOL    HW138549   0.145   2.888   4.991 -1.0356  1.8222  0.1369
 8971SOL    HW238550   0.181   2.782   5.090 -2.5146 -1.7165  0.1634
 8972SOL     OW38551   0.965   1.473   8.305  0.3802  0.0809 -0.0952
 8972SOL    HW138552   1.039   1.472   8.365  2.1878  1.0260 -2.3205
 8972SOL    HW238553   0.968   1.390   8.257  1.9006  1.2571 -2.0157
 8973SOL     OW38554   3.736   0.760   2.330 -0.1548 -0.8550 -0.0298
 8973SOL    HW138555   3.684   0.837   2.350  1.0444 -0.5138  1.8085
 8973SOL    HW238556   3.727   0.723   2.418 -1.5977 -0.3189  0.0443
 8974SOL     OW38557   4.506   3.383   3.971  0.3819 -0.2496  0.3871
 8974SOL    HW138558   4.500   3.420   3.882  1.2951  0.5574  0.6655
 8974SOL    HW238559   4.520   3.468   4.013 -1.1211  1.3797 -2.3716
 8975SOL     OW38560   0.430   2.886   1.735  0.1790  0.3260 -0.6712
 8975SOL    HW138561   0.483   2.807   1.726  2.5457  2.0771 -1.9152
 8975SOL    HW238562   0.409   2.866   1.826 -0.1435  3.4016 -0.0533
 8976SOL     OW38563   2.047   2.599  17.569  0.3199 -0.2289 -0.1528
 8976SOL    HW138564   2.025   2.692  17.560 -2.2440 -0.7505  0.6385
 8976SOL    HW238565   2.135   2.583  17.537  0.1968 -1.2170  0.0078
 8977SOL     OW38566   2.348   2.874   6.279  0.4898  0.2146  0.2597
 8977SOL    HW138567   2.427   2.897   6.231  1.3842  1.4924  2.3790
 8977SOL    HW238568   2.372   2.796   6.329  1.5712 -0.0167 -0.6087
 8978SOL     OW38569   3.647   1.453  17.543  0.0691 -0.4088 -0.3907
 8978SOL    HW138570   3.738   1.432  17.520  0.3088 -2.9749  3.0395
 8978SOL    HW238571   3.605   1.417  17.465 -0.2665 -2.6604  0.8367
 8979SOL     OW38572   0.063   0.779   7.065  0.1033 -0.0419  0.1398
 8979SOL    HW138573   0.052   0.712   7.132 -1.0158 -1.1660 -1.1482
 8979SOL    HW238574   0.108   0.845   7.117  1.2423 -0.7364  0.0425
 8980SOL     OW38575   0.667   0.002   2.861 -0.2025 -0.1259 -0.2755
 8980SOL    HW138576   0.581   0.035   2.838 -1.2786 -2.6599  0.0784
 8980SOL    HW238577   0.697   0.004   2.770 -1.1245 -1.2957 -0.6021
 8981SOL     OW38578   3.219   3.450  16.630 -0.7678  0.3968  0.9177
 8981SOL    HW138579   3.146   3.483  16.577 -1.8508 -1.2314  1.4069
 8981SOL    HW238580   3.289   3.481  16.573 -1.3951  1.1135  0.5306
 8982SOL     OW38581   3.220   1.449   8.319 -0.2550 -0.1452  0.1954
 8982SOL    HW138582   3.291   1.449   8.383  0.9646  3.3045 -1.1237
 8982SOL    HW238583   3.153   1.503   8.361  0.6159 -0.4589  1.9865
 8983SOL     OW38584   0.393   4.584   3.497 -0.7713  1.1462  0.4046
 8983SOL    HW138585   0.377   4.667   3.452 -1.2978  0.3509 -0.8732
 8983SOL    HW238586   0.327   4.588   3.565 -0.8199 -3.5839  0.6678
 8984SOL     OW38587   2.850   0.292  13.425 -0.5708 -0.1952 -0.3251
 8984SOL    HW138588   2.924   0.246  13.465 -0.9138 -0.7363 -0.3126
 8984SOL    HW238589   2.899   0.356  13.374  1.1298 -2.8966 -2.1270
 8985SOL     OW38590   4.657   0.120   0.785  0.1989 -0.6529 -0.1087
 8985SOL    HW138591   4.638   0.098   0.877  2.3053  0.2971  0.5437
 8985SOL    HW238592   4.607   0.200   0.771  0.5573 -0.9510 -2.9770
 8986SOL     OW38593   3.546   1.595   9.174 -0.3370  0.1897  0.5394
 8986SOL    HW138594   3.495   1.643   9.239 -2.7796 -1.8367  0.1383
 8986SOL    HW238595   3.634   1.578   9.209 -0.5148  0.9695  1.3699
 8987SOL     OW38596   0.139   2.421   3.584 -0.2658 -0.3269 -0.0180
 8987SOL    HW138597   0.222   2.450   3.545 -1.1176 -1.0746 -2.3794
 8987SOL    HW238598   0.077   2.485   3.551  1.1067 -0.0076 -1.9456
 8988SOL     OW38599   0.920   0.910  15.067  0.4575  0.5702  0.3387
 8988SOL    HW138600   0.985   0.980  15.063  0.7049  0.3452  0.3941
 8988SOL    HW238601   0.852   0.941  15.126 -0.8454 -1.5131 -0.0812
 8989SOL     OW38602   2.648   1.470   6.242  0.7385  0.2243  1.2987
 8989SOL    HW138603   2.705   1.417   6.298  1.5594 -0.7056 -0.4149
 8989SOL    HW238604   2.563   1.430   6.263  0.7023 -0.6561 -0.5110
 8990SOL     OW38605   1.902   4.475  11.179 -0.0013  0.1296 -0.0886
 8990SOL    HW138606   1.900   4.522  11.261  1.1378  0.6687 -0.3700
 8990SOL    HW238607   1.833   4.515  11.126  0.8116  1.1719 -0.3432
 8991SOL     OW38608   2.942   4.646   1.139  0.0672  0.7120  0.4506
 8991SOL    HW138609   2.868   4.706   1.151 -1.8932 -1.5813 -0.1771
 8991SOL    HW238610   2.988   4.695   1.071 -0.3933  1.5226  0.7225
 8992SOL     OW38611   3.901   2.648   6.735  0.0844 -0.3151 -0.0186
 8992SOL    HW138612   3.885   2.732   6.693 -1.3554 -1.9307 -2.7508
 8992SOL    HW238613   3.846   2.646   6.813  0.0783  2.9811  0.0443
 8993SOL     OW38614   2.329   0.933   6.640  0.6577  0.2604  0.3940
 8993SOL    HW138615   2.397   1.001   6.645  0.9018  0.2704 -2.6772
 8993SOL    HW238616   2.319   0.919   6.545 -0.0299  4.1098 -0.0964
 8994SOL     OW38617   4.345   4.413   9.189 -0.4476 -0.2061 -0.0426
 8994SOL    HW138618   4.358   4.363   9.270 -0.3790  0.9088  0.6257
 8994SOL    HW238619   4.256   4.389   9.161  0.0210  1.8552 -3.2768
 8995SOL     OW38620   1.459   3.272   5.192 -0.5510 -0.7932  0.2986
 8995SOL    HW138621   1.535   3.213   5.198 -0.8435 -1.0298  1.7367
 8995SOL    HW238622   1.406   3.224   5.129  2.2808 -2.3066 -0.9204
 8996SOL     OW38623   1.779   4.668   4.066  0.1436  0.2480  0.4657
 8996SOL    HW138624   1.729   4.722   4.127  1.8208  0.2421  1.8333
 8996SOL    HW238625   1.799   4.730   3.995  2.4100 -0.4812  0.4735
 8997SOL     OW38626   3.734   3.648  15.374 -0.1452  0.4800 -0.0203
 8997SOL    HW138627   3.770   3.594  15.304  0.1432 -1.6936  1.7902
 8997SOL    HW238628   3.658   3.685  15.330  0.6956  2.2095 -0.0493
 8998SOL     OW38629   0.697   4.683   9.183  0.5357  0.2020  0.6085
 8998SOL    HW138630   0.612   4.727   9.178  1.9988  2.9354 -0.4397
 8998SOL    HW238631   0.749   4.734   9.121 -0.1300  1.4216  1.0617
 8999SOL     OW38632   0.145   1.482   8.761  0.0664 -0.1151  0.5789
 8999SOL    HW138633   0.196   1.495   8.841  2.6599  1.1582 -1.2977
 8999SOL    HW238634   0.091   1.409   8.792  0.7284 -0.5313  0.7412
 9000SOL     OW38635   2.666   0.337   2.122 -0.1072  0.5587  0.0144
 9000SOL    HW138636   2.732   0.333   2.191 -0.5424 -1.1424  0.3442
 9000SOL    HW238637   2.719   0.292   2.056 -0.5238  0.4240 -0.2289
 9001SOL     OW38638   1.796   1.061   5.991 -0.2405  0.1157 -0.2672
 9001SOL    HW138639   1.805   0.969   6.017 -0.3572  0.1565 -0.0842
 9001SOL    HW238640   1.747   1.055   5.909 -1.3559  0.0380  0.4048
 9002SOL     OW38641   2.896   3.589   9.954  0.1101 -0.3750  0.2538
 9002SOL    HW138642   2.870   3.554   9.869  1.9502  0.6409 -0.7367
 9002SOL    HW238643   2.874   3.517  10.013 -0.9311 -0.1407  0.1531
 9003SOL     OW38644   4.019   3.647  11.514  0.3171 -0.0976  0.2622
 9003SOL    HW138645   4.030   3.704  11.437  0.2770 -0.6536 -0.1543
 9003SOL    HW238646   4.080   3.578  11.488 -1.7595 -1.3971 -1.1638
 9004SOL     OW38647   0.870   4.373   9.203  0.2018 -0.1938  0.2458
 9004SOL    HW138648   0.807   4.307   9.173  2.9063 -1.5581 -2.4079
 9004SOL    HW238649   0.922   4.338   9.275  1.5141 -0.3553 -0.7749
 9005SOL     OW38650   0.090   2.464   5.049  0.8327  0.0121 -0.2259
 9005SOL    HW138651   0.147   2.536   5.076 -0.4394  0.3564  1.5153
 9005SOL    HW238652   0.001   2.499   5.049  1.8047  2.4751 -3.5430
 9006SOL     OW38653   1.814   1.170  15.290  0.4978 -0.0406 -0.8137
 9006SOL    HW138654   1.868   1.249  15.281  0.9149 -0.3162 -0.7745
 9006SOL    HW238655   1.886   1.107  15.291  1.5622  1.1508 -2.3242
 9007SOL     OW38656   0.759   2.354  13.802 -0.3081  0.5854 -0.1181
 9007SOL    HW138657   0.714   2.274  13.773 -1.2899  0.6794  1.1729
 9007SOL    HW238658   0.740   2.415  13.731 -2.5307 -3.6005 -3.1371
 9008SOL     OW38659   1.410   3.889   7.468 -0.7546 -0.4564 -0.2966
 9008SOL    HW138660   1.441   3.919   7.382 -0.2511  0.8969  0.3525
 9008SOL    HW238661   1.448   3.957   7.525  0.3703 -0.2746 -1.2531
 9009SOL     OW38662   2.429   0.285   9.356  0.3080 -0.3439 -0.4822
 9009SOL    HW138663   2.487   0.361   9.356  0.2762 -0.3266  0.2931
 9009SOL    HW238664   2.462   0.243   9.276 -0.4321 -3.5262  0.8825
 9010SOL     OW38665   0.567   4.290  16.882 -0.0171 -0.1119  0.2053
 9010SOL    HW138666   0.660   4.302  16.860 -0.2759  1.7445  0.1246
 9010SOL    HW238667   0.558   4.195  16.891  1.6189 -0.0946  2.2489
 9011SOL     OW38668   3.290   4.154   3.542 -0.3838 -0.3802  0.5056
 9011SOL    HW138669   3.329   4.202   3.614 -1.4407 -1.0223  1.5068
 9011SOL    HW238670   3.366   4.105   3.512  0.3467  0.8853  0.2650
 9012SOL     OW38671   1.094   1.647   2.318  0.0124 -0.1670  0.7664
 9012SOL    HW138672   1.065   1.674   2.231  3.5963 -1.3973 -0.8165
 9012SOL    HW238673   1.086   1.726   2.370  1.8536 -0.6672  1.8447
 9013SOL     OW38674   3.346   4.270   4.805 -0.1993  0.1472  0.0365
 9013SOL    HW138675   3.310   4.292   4.892 -1.3759  0.5055 -0.5381
 9013SOL    HW238676   3.423   4.215   4.821  0.3348  1.2206  1.1574
 9014SOL     OW38677   2.639   1.710   9.932 -0.3569  0.4684 -0.4157
 9014SOL    HW138678   2.592   1.692  10.013  1.0908  0.1580  0.3471
 9014SOL    HW238679   2.585   1.766   9.875 -2.2760  0.3272  1.2836
 9015SOL     OW38680   3.047   4.425   5.796 -0.0653 -0.4755  0.1488
 9015SOL    HW138681   3.068   4.354   5.856 -0.9642 -2.6022 -2.0668
 9015SOL    HW238682   2.952   4.416   5.798 -0.0464 -0.4902  1.1816
 9016SOL     OW38683   0.921   3.837   3.854 -0.2845 -0.5634 -0.0905
 9016SOL    HW138684   0.959   3.859   3.769 -0.7043 -0.2426 -0.1886
 9016SOL    HW238685   0.989   3.874   3.911  0.1447  0.1231 -1.0484
 9017SOL     OW38686   3.268   2.556  17.426 -0.7597 -0.0526  0.2884
 9017SOL    HW138687   3.327   2.630  17.441 -0.8187  0.7981 -3.4984
 9017SOL    HW238688   3.290   2.550  17.333 -0.0676  3.3747  0.2437
 9018SOL     OW38689   1.314   2.197   8.246 -0.3686  0.4094 -0.2271
 9018SOL    HW138690   1.223   2.182   8.221 -0.0607  1.2655 -1.8562
 9018SOL    HW238691   1.368   2.186   8.167 -0.4413 -0.4936 -0.1550
 9019SOL     OW38692   4.130   1.948   3.288  0.1247 -0.1067 -0.1141
 9019SOL    HW138693   4.060   1.981   3.344  1.0576 -0.1309  1.0580
 9019SOL    HW238694   4.084   1.910   3.213  0.8806 -0.4497 -0.4105
 9020SOL     OW38695   4.215   0.352  17.723  0.7506 -0.2838  0.1700
 9020SOL    HW138696   4.222   0.447  17.727  2.6286 -0.4729  1.6179
 9020SOL    HW238697   4.176   0.332   0.051 -1.2900  0.7317 -0.5317
 9021SOL     OW38698   2.176   1.373   6.158  0.1811  0.0832 -0.7174
 9021SOL    HW138699   2.152   1.434   6.228 -1.1842 -0.6780 -0.5281
 9021SOL    HW238700   2.220   1.436   6.101 -0.7293  1.1008 -0.3009
 9022SOL     OW38701   0.967   1.902   8.630  0.2574 -0.0314 -0.3720
 9022SOL    HW138702   1.055   1.902   8.592  1.5655 -1.4674  2.6846
 9022SOL    HW238703   0.923   1.951   8.561  1.5342  0.9227 -0.5212
 9023SOL     OW38704   2.433   3.954   6.790 -0.1486 -0.1293 -0.4421
 9023SOL    HW138705   2.368   3.980   6.854 -0.4822  0.4638 -1.0200
 9023SOL    HW238706   2.507   4.015   6.793 -1.7175  1.7726 -0.7294
 9024SOL     OW38707   0.115   3.293  14.303 -0.7774  0.3012  0.3186
 9024SOL    HW138708   0.020   3.283  14.311 -1.0903  3.4704  0.5938
 9024SOL    HW238709   0.149   3.206  14.327  1.9905  0.9693 -1.1635
 9025SOL     OW38710   2.661   1.857   4.914 -0.2786  0.6163 -0.3845
 9025SOL    HW138711   2.617   1.902   4.842 -0.1553 -0.0764 -0.8903
 9025SOL    HW238712   2.732   1.920   4.923  0.4661 -0.0809 -1.4771
 9026SOL     OW38713   1.198   0.849  17.332  0.2060 -0.3075 -0.2825
 9026SOL    HW138714   1.284   0.890  17.321 -0.4562  0.9708 -0.7713
 9026SOL    HW238715   1.168   0.853  17.241  2.2859 -0.3601 -0.9736
 9027SOL     OW38716   4.199   1.344  14.871 -0.0704  0.3347  0.4419
 9027SOL    HW138717   4.131   1.367  14.934  1.3142  1.9478  1.3469
 9027SOL    HW238718   4.209   1.419  14.812  0.9046  0.5930  0.9320
 9028SOL     OW38719   3.165   0.123   4.698  0.2822  0.1012  0.1416
 9028SOL    HW138720   3.173   0.136   4.603 -0.0803 -0.0528  0.0906
 9028SOL    HW238721   3.238   0.063   4.711  0.5131  0.3754  0.1261
 9029SOL     OW38722   1.934   4.173   1.132 -0.1578  0.2748  0.1358
 9029SOL    HW138723   1.945   4.096   1.075  1.7695  0.3803  0.3658
 9029SOL    HW238724   1.933   4.140   1.222  1.0283 -1.0142 -0.3238
 9030SOL     OW38725   4.613   1.896   3.918  0.0039  0.3010 -0.3579
 9030SOL    HW138726   4.703   1.929   3.920  0.4455 -1.0106  1.0625
 9030SOL    HW238727   4.570   1.975   3.885 -0.6675  0.2812  0.4610
 9031SOL     OW38728   3.265   3.094   3.032 -0.6111 -0.7734  0.1100
 9031SOL    HW138729   3.322   3.075   3.106  1.3595  1.5811 -0.8294
 9031SOL    HW238730   3.193   3.033   3.051 -0.6790 -0.6970  0.0953
 9032SOL     OW38731   1.235   3.008  15.023  0.3354  0.4406 -0.4814
 9032SOL    HW138732   1.291   3.040  14.952 -0.5112 -1.9488 -2.2116
 9032SOL    HW238733   1.215   3.089  15.070  2.3820  1.2575 -0.9756
 9033SOL     OW38734   1.667   0.629  14.981  0.4166  0.3020  0.2119
 9033SOL    HW138735   1.687   0.648  15.073  3.0686 -1.5386  0.0349
 9033SOL    HW238736   1.688   0.711  14.938  2.6330 -0.3588 -0.0051
 9034SOL     OW38737   3.266   2.066   7.073 -0.2223  0.0784 -0.7723
 9034SOL    HW138738   3.274   1.971   7.062  0.5638  0.0532  0.0352
 9034SOL    HW238739   3.289   2.069   7.166 -0.2413 -1.6635 -0.7000
 9035SOL     OW38740   2.679   4.421  11.268 -0.4883 -0.7038 -0.0449
 9035SOL    HW138741   2.644   4.350  11.215 -1.4120  1.1625 -1.9541
 9035SOL    HW238742   2.749   4.458  11.214 -0.3952 -0.9106 -0.0655
 9036SOL     OW38743   1.787   0.716   6.543  0.0801 -0.6617 -0.4698
 9036SOL    HW138744   1.836   0.799   6.548  0.8848 -1.2653  1.5340
 9036SOL    HW238745   1.817   0.695   6.454 -0.2653  0.2478 -0.8041
 9037SOL     OW38746   0.626   0.958   7.225 -0.2433  0.1609 -0.0500
 9037SOL    HW138747   0.598   0.877   7.268  1.0412 -0.0516  0.4004
 9037SOL    HW238748   0.648   1.016   7.298 -1.6899  0.9390 -0.2410
 9038SOL     OW38749   4.082   4.557   9.026 -0.1248 -0.1335  0.2187
 9038SOL    HW138750   4.084   4.465   9.052  2.0454  0.0243  0.5877
 9038SOL    HW238751   3.996   4.567   8.986 -0.4175  0.1823  0.9158
 9039SOL     OW38752   3.309   4.432   2.899  0.1891 -0.2715  0.0404
 9039SOL    HW138753   3.385   4.404   2.950 -1.2675 -1.6589  1.4554
 9039SOL    HW238754   3.286   4.518   2.933  0.4125 -0.2970  0.2587
 9040SOL     OW38755   0.335   1.907   2.721  0.2188  0.0453  0.2126
 9040SOL    HW138756   0.341   1.824   2.769 -2.3828  0.1419  0.6616
 9040SOL    HW238757   0.243   1.913   2.697  0.3137  2.1864  0.3808
 9041SOL     OW38758   4.134   1.691  12.626 -0.1715  0.2865  0.0728
 9041SOL    HW138759   4.089   1.647  12.554 -0.7924  0.5184  0.3145
 9041SOL    HW238760   4.137   1.616  12.685 -1.0459  0.0001 -0.2391
 9042SOL     OW38761   2.080   2.895   6.235 -0.2807  0.2269 -0.6165
 9042SOL    HW138762   2.081   2.800   6.231 -0.5454  0.2573 -1.3171
 9042SOL    HW238763   2.175   2.910   6.239 -0.2349 -1.0941  3.1567
 9043SOL     OW38764   3.048   0.550   0.434  0.2708  0.1529  0.1495
 9043SOL    HW138765   2.952   0.556   0.436  0.2413  0.5899 -2.0200
 9043SOL    HW238766   3.078   0.534   0.523  0.0784  0.5597  0.2861
 9044SOL     OW38767   4.433   2.118   4.214 -0.9056 -0.0460  0.6017
 9044SOL    HW138768   4.385   2.196   4.240 -0.3893  0.1258  1.0567
 9044SOL    HW238769   4.474   2.148   4.133 -0.2078 -0.7804  0.6811
 9045SOL     OW38770   4.497   3.701   3.457 -0.1442  0.1663 -0.3777
 9045SOL    HW138771   4.503   3.677   3.364 -3.1808  0.0904 -0.5634
 9045SOL    HW238772   4.564   3.768   3.469  0.3491 -0.5945  1.1297
 9046SOL     OW38773   0.647   2.538   7.838 -0.4708 -0.3185 -0.2080
 9046SOL    HW138774   0.713   2.549   7.769 -1.4492 -3.4418 -1.6371
 9046SOL    HW238775   0.572   2.585   7.800 -0.9051 -1.9406 -1.3690
 9047SOL     OW38776   2.014   2.088   5.705  0.2159 -0.1717  0.1253
 9047SOL    HW138777   2.098   2.058   5.669  1.5673  0.9117  2.3618
 9047SOL    HW238778   2.031   2.178   5.733 -1.4675  0.5466 -1.1771
 9048SOL     OW38779   4.269   4.514   0.788  0.4782  0.6479  0.3090
 9048SOL    HW138780   4.322   4.504   0.708  1.0160  0.9019  0.6307
 9048SOL    HW238781   4.340   4.526   0.851  0.9044  1.4352 -0.3224
 9049SOL     OW38782   3.829   1.037   6.864  0.3504  0.1453  0.3940
 9049SOL    HW138783   3.799   1.072   6.780 -0.2994  1.3865  1.1416
 9049SOL    HW238784   3.924   1.034   6.855  0.2981 -1.5814  0.3090
 9050SOL     OW38785   3.554   1.778   0.190  0.1577 -0.3756 -0.0124
 9050SOL    HW138786   3.631   1.812   0.144  2.3404 -3.5326  1.3497
 9050SOL    HW238787   3.516   1.727   0.119 -1.8347  4.7898 -2.6599
 9051SOL     OW38788   0.241   4.190   2.409 -0.5495  0.0924 -0.0981
 9051SOL    HW138789   0.284   4.122   2.358 -0.3398 -0.6431  1.0642
 9051SOL    HW238790   0.230   4.149   2.495  0.6926  0.4398  0.2182
 9052SOL     OW38791   1.940   0.677   7.185  0.0039 -0.1370  0.3716
 9052SOL    HW138792   2.016   0.667   7.128  0.7678 -0.8114  1.5127
 9052SOL    HW238793   1.894   0.596   7.165 -0.0434  0.1242 -0.5822
 9053SOL     OW38794   2.815   4.424   6.594  0.0551 -0.4505  0.2412
 9053SOL    HW138795   2.805   4.441   6.687  0.3904 -2.2712  0.6048
 9053SOL    HW238796   2.723   4.412   6.571 -0.0323  0.3470  0.1624
 9054SOL     OW38797   4.287   1.176   1.293  0.5874 -0.0346  0.2040
 9054SOL    HW138798   4.224   1.236   1.252  0.0203  0.4496  1.7663
 9054SOL    HW238799   4.214   1.138   1.343 -2.5427  2.0303 -2.8127
 9055SOL     OW38800   0.940   1.194  15.296  0.4382 -0.2430  0.2982
 9055SOL    HW138801   0.956   1.205  15.390  1.2214  0.6699  0.0547
 9055SOL    HW238802   0.875   1.264  15.288  1.6128  0.5423 -2.2653
 9056SOL     OW38803   0.772   0.310   5.680  0.8322 -0.0242 -0.6140
 9056SOL    HW138804   0.744   0.370   5.612  0.3203  0.7740  0.2961
 9056SOL    HW238805   0.690   0.270   5.711  1.4725 -0.7453  0.1722
 9057SOL     OW38806   0.689   0.174   7.037 -0.8878  0.4881  0.0380
 9057SOL    HW138807   0.775   0.156   7.000 -1.4231  1.7984 -1.8223
 9057SOL    HW238808   0.707   0.207   7.125 -0.8900  0.6809 -0.0357
 9058SOL     OW38809   2.196   0.761   2.266 -0.0593  0.0612  0.2123
 9058SOL    HW138810   2.253   0.707   2.321 -0.3744 -0.1849  0.2954
 9058SOL    HW238811   2.215   0.729   2.178  1.4320  0.0901  0.5224
 9059SOL     OW38812   3.313   1.198  14.534 -1.0507  0.5890 -0.1348
 9059SOL    HW138813   3.313   1.121  14.476  0.2355 -1.6161  2.8198
 9059SOL    HW238814   3.391   1.245  14.506  0.9476 -1.7568  1.4804
 9060SOL     OW38815   2.972   3.818   6.416  0.5208 -0.9620 -0.1053
 9060SOL    HW138816   2.931   3.737   6.445 -0.8529 -0.3160 -0.2643
 9060SOL    HW238817   2.903   3.858   6.363  0.1742 -1.3531  0.0474
 9061SOL     OW38818   2.908   2.634   8.808 -0.0578  0.1715 -0.5166
 9061SOL    HW138819   2.994   2.636   8.851 -0.5394 -1.1815  0.4956
 9061SOL    HW238820   2.872   2.548   8.832 -2.9194  1.5672  0.1800
 9062SOL     OW38821   0.170   0.178   5.483 -0.3752  0.0368 -0.0480
 9062SOL    HW138822   0.245   0.134   5.522  0.6662  0.8764 -1.0840
 9062SOL    HW238823   0.213   0.230   5.415  0.3840  0.4833  0.7616
 9063SOL     OW38824   0.578   4.156   6.921  0.3790  1.0131  0.3093
 9063SOL    HW138825   0.672   4.168   6.912  0.6213 -1.9136 -1.0438
 9063SOL    HW238826   0.557   4.249   6.921  1.0322  1.1604  0.7246
 9064SOL     OW38827   0.180   2.242   4.702  0.3450  0.3803  0.0259
 9064SOL    HW138828   0.256   2.197   4.740 -1.0750 -1.8380  0.2810
 9064SOL    HW238829   0.105   2.193   4.736 -0.1795  1.9973  1.1735
 9065SOL     OW38830   0.174   0.968   8.367  0.2954 -0.7768  0.0536
 9065SOL    HW138831   0.079   0.976   8.375  0.1888 -2.8104  0.9310
 9065SOL    HW238832   0.188   1.049   8.319  2.3016 -1.0651  0.1098
 9066SOL     OW38833   1.150   2.411  12.779  0.5541  0.3367  0.3178
 9066SOL    HW138834   1.142   2.338  12.718 -0.9060  1.4840 -0.8813
 9066SOL    HW238835   1.170   2.478  12.713  1.3432  1.7982  2.0531
 9067SOL     OW38836   2.754   3.571  15.939  0.4271  0.1551 -0.2368
 9067SOL    HW138837   2.746   3.627  16.016 -0.1345 -1.4626  0.8908
 9067SOL    HW238838   2.813   3.504  15.975 -1.3570 -1.1730  0.2143
 9068SOL     OW38839   2.707   2.202   5.495  0.1598 -0.3836  0.0479
 9068SOL    HW138840   2.765   2.126   5.500 -1.5568 -1.6439  0.7899
 9068SOL    HW238841   2.633   2.169   5.443 -0.7666  0.8418  0.6087
 9069SOL     OW38842   0.734   2.371  10.820  0.3401 -0.2739  0.5171
 9069SOL    HW138843   0.732   2.385  10.915  0.3849  1.6283  0.2496
 9069SOL    HW238844   0.644   2.386  10.791  1.4567  2.3358 -1.6412
 9070SOL     OW38845   4.362   2.602  12.437  0.8998  1.0101 -0.2995
 9070SOL    HW138846   4.348   2.687  12.395 -0.0874 -0.0742 -2.1527
 9070SOL    HW238847   4.430   2.555  12.389  0.8911 -0.9539  1.6058
 9071SOL     OW38848   1.236   1.898   5.959 -0.2226 -0.0608  0.2990
 9071SOL    HW138849   1.184   1.866   5.885 -0.1579  0.7605 -0.0974
 9071SOL    HW238850   1.171   1.944   6.012  0.0510 -0.0222  0.6039
 9072SOL     OW38851   2.851   3.972   3.002 -0.1173 -0.6231  0.5232
 9072SOL    HW138852   2.923   4.002   3.057 -0.5992  3.3088 -0.9503
 9072SOL    HW238853   2.850   3.881   3.030 -2.0740 -1.5011 -2.3754
 9073SOL     OW38854   1.829   2.351   6.750  0.2271 -0.2601  0.0090
 9073SOL    HW138855   1.860   2.330   6.662 -2.6907  1.6643 -1.4691
 9073SOL    HW238856   1.796   2.440   6.740  0.8852 -0.0224 -0.0700
 9074SOL     OW38857   2.765   2.112   6.866 -0.0751 -0.3496  0.1371
 9074SOL    HW138858   2.720   2.160   6.795  0.8229 -2.5899 -1.9392
 9074SOL    HW238859   2.849   2.158   6.869 -0.1906 -0.0323 -1.3682
 9075SOL     OW38860   0.837   1.588  11.415  0.4453 -0.7000 -0.0523
 9075SOL    HW138861   0.849   1.494  11.430 -1.9285 -0.8975  0.5778
 9075SOL    HW238862   0.819   1.619  11.504 -0.3385 -1.3532  0.0204
 9076SOL     OW38863   3.090   3.407  11.029 -0.0868  0.0279  0.0426
 9076SOL    HW138864   3.017   3.469  11.029 -1.2326 -1.3249 -0.6410
 9076SOL    HW238865   3.115   3.431  10.940 -1.6445  1.3401 -0.0480
 9077SOL     OW38866   0.847   0.676   3.395 -0.5407  0.1734  0.2255
 9077SOL    HW138867   0.791   0.745   3.428 -0.5939 -0.0954  0.6925
 9077SOL    HW238868   0.816   0.670   3.305 -0.1415 -0.4593  0.1265
 9078SOL     OW38869   3.727   3.582  11.950  0.0090  0.1188  0.5078
 9078SOL    HW138870   3.741   3.513  11.886 -2.3975 -0.5045  0.6582
 9078SOL    HW238871   3.816   3.592  11.983  0.3982 -0.9814 -0.2240
 9079SOL     OW38872   1.078   3.388   8.205  0.0555  0.2323 -0.1327
 9079SOL    HW138873   1.064   3.425   8.293 -0.2757 -0.7704  0.2322
 9079SOL    HW238874   1.103   3.471   8.163 -0.2565 -0.0649 -0.8972
 9080SOL     OW38875   2.558   3.975   7.146  0.1771 -0.6030  0.4770
 9080SOL    HW138876   2.627   3.967   7.081  0.3836  0.6655  0.5459
 9080SOL    HW238877   2.585   4.052   7.196 -1.7222  1.9153 -2.3642
 9081SOL     OW38878   0.267   4.439   6.691 -0.2226  0.5687  0.1100
 9081SOL    HW138879   0.245   4.385   6.615  2.6973 -0.0746 -0.3000
 9081SOL    HW238880   0.210   4.399   6.757 -2.5717  0.9646 -1.6735
 9082SOL     OW38881   0.543   2.430   7.114  0.2562 -0.0981 -0.3451
 9082SOL    HW138882   0.522   2.446   7.022  0.7570 -0.8973 -0.5946
 9082SOL    HW238883   0.607   2.359   7.118 -1.0076 -1.2331 -0.3768
 9083SOL     OW38884   1.114   0.973   2.407 -0.2632 -0.4128  0.1735
 9083SOL    HW138885   1.185   0.946   2.465  0.0405  0.4123  0.1907
 9083SOL    HW238886   1.097   1.049   2.464  0.1898  0.0335 -0.2907
 9084SOL     OW38887   0.935   2.646   8.590  1.0379  0.0313 -0.2507
 9084SOL    HW138888   0.877   2.614   8.521 -2.0700  1.1351  1.8763
 9084SOL    HW238889   0.891   2.615   8.669  2.5565 -1.2256  0.1082
 9085SOL     OW38890   3.949   0.212   2.324  0.0051 -0.2825 -0.9232
 9085SOL    HW138891   3.887   0.159   2.374  1.5066 -2.3394 -1.2913
 9085SOL    HW238892   3.893   0.259   2.262 -0.3001 -1.5015 -1.5714
 9086SOL     OW38893   0.772   3.808   9.521 -0.2174  0.1600  0.3001
 9086SOL    HW138894   0.819   3.874   9.470  1.0885 -0.2063  1.0464
 9086SOL    HW238895   0.843   3.773   9.574 -1.9981 -2.7251  0.7608
 9087SOL     OW38896   0.901   4.084   9.081  0.0968  0.0835  0.4879
 9087SOL    HW138897   0.814   4.082   9.041  1.2032  1.4877 -2.0045
 9087SOL    HW238898   0.959   4.102   9.006 -2.2735 -0.1995 -1.4075
 9088SOL     OW38899   3.109   4.526   4.663  0.3761  0.4511  0.3400
 9088SOL    HW138900   3.030   4.554   4.616 -0.0524 -0.9930  0.1982
 9088SOL    HW238901   3.173   4.520   4.592 -1.6409 -0.5487 -1.4117
 9089SOL     OW38902   0.661   1.670  16.366 -1.0806 -0.1672 -0.1453
 9089SOL    HW138903   0.662   1.666  16.270  0.5954 -0.9530 -0.0951
 9089SOL    HW238904   0.615   1.588  16.381 -2.1900  0.1245 -1.9733
 9090SOL     OW38905   1.051   2.065   8.923 -0.5150 -0.0934  0.1557
 9090SOL    HW138906   1.022   2.029   8.839  3.4491 -1.4478 -0.6198
 9090SOL    HW238907   1.036   2.156   8.898 -1.1150 -0.8999 -2.3916
 9091SOL     OW38908   4.185   1.948   8.555 -0.6847 -0.4498 -0.2944
 9091SOL    HW138909   4.097   1.982   8.564 -0.0965  0.9139  0.2688
 9091SOL    HW238910   4.170   1.899   8.475  1.4331 -1.9066  0.1817
 9092SOL     OW38911   4.067   1.465   5.031 -0.0740  0.1397 -0.0263
 9092SOL    HW138912   3.992   1.514   4.997  0.8607  1.7675  0.2374
 9092SOL    HW238913   4.125   1.536   5.058 -0.7642  0.8059 -0.3070
 9093SOL     OW38914   1.267   1.668  10.287  0.2033 -0.2348  0.1092
 9093SOL    HW138915   1.303   1.632  10.368 -1.0525 -1.6416  0.0421
 9093SOL    HW238916   1.174   1.658  10.303  0.0308 -1.9354 -1.9162
 9094SOL     OW38917   1.212   0.584  17.374 -0.7707 -0.1663  0.3138
 9094SOL    HW138918   1.129   0.566  17.329 -0.9562  2.8093 -0.5547
 9094SOL    HW238919   1.203   0.679  17.371 -1.0685 -0.1160  2.9778
 9095SOL     OW38920   1.144   2.628   8.386 -0.1050  0.0057 -0.2940
 9095SOL    HW138921   1.086   2.628   8.462 -0.7006 -0.6950 -0.7455
 9095SOL    HW238922   1.230   2.649   8.422 -0.9828  2.0569  0.5882
 9096SOL     OW38923   3.500   1.565   2.474  0.1818 -1.1480 -0.2052
 9096SOL    HW138924   3.591   1.582   2.499  0.6945  0.3037 -3.0680
 9096SOL    HW238925   3.480   1.501   2.542  1.5580  0.5280  1.7806
 9097SOL     OW38926   4.345   2.027   3.540 -0.4116  0.3104  0.2262
 9097SOL    HW138927   4.298   2.110   3.552  2.3750  2.0279 -0.7166
 9097SOL    HW238928   4.287   1.962   3.580 -0.3422  0.5215  0.6695
 9098SOL     OW38929   3.967   1.522  12.517 -0.0494 -0.1920  0.5027
 9098SOL    HW138930   3.968   1.427  12.524 -1.2878 -0.2285  0.2777
 9098SOL    HW238931   3.901   1.552  12.581  0.7730  0.2459  1.1445
 9099SOL     OW38932   2.785   1.336   6.442 -0.0770  0.2475  0.6163
 9099SOL    HW138933   2.786   1.392   6.519 -1.8616  0.5206  0.4362
 9099SOL    HW238934   2.779   1.246   6.474  0.1592 -0.2009 -0.5963
 9100SOL     OW38935   3.065   1.992   6.529  0.3649  0.2880  0.3104
 9100SOL    HW138936   2.993   2.049   6.506  0.1112 -0.5787 -1.0142
 9100SOL    HW238937   3.075   1.944   6.447 -0.7930 -0.8999  0.8716
 9101SOL     OW38938   2.521   2.522   6.486 -0.3308 -0.5009  0.2950
 9101SOL    HW138939   2.480   2.605   6.511  0.2365  0.9433 -3.5202
 9101SOL    HW238940   2.577   2.501   6.561  0.3640 -0.6240 -0.2526
 9102SOL     OW38941   3.377   0.176   3.492 -0.5240 -0.5202 -0.5277
 9102SOL    HW138942   3.303   0.196   3.549  1.7677 -2.1122  3.0091
 9102SOL    HW238943   3.435   0.237   3.538 -0.2318 -2.2319  1.3901
 9103SOL     OW38944   3.270   2.618  15.193  0.1673 -0.5091 -0.1739
 9103SOL    HW138945   3.238   2.683  15.255 -0.8155 -0.5683 -0.6160
 9103SOL    HW238946   3.330   2.569  15.249 -0.9822 -1.9146 -0.1838
 9104SOL     OW38947   2.828   1.253   3.730  0.3695 -0.2489 -0.1438
 9104SOL    HW138948   2.775   1.199   3.789 -2.1239 -0.5920 -2.7395
 9104SOL    HW238949   2.890   1.191   3.691  2.3444  1.8386 -0.3650
 9105SOL     OW38950   1.727   3.501   5.823  0.5790 -0.6282  0.4334
 9105SOL    HW138951   1.637   3.504   5.855  0.6526  0.8428  0.5075
 9105SOL    HW238952   1.773   3.449   5.888  1.0815  0.7177  1.1592
 9106SOL     OW38953   0.510   3.255   3.068  0.3288  0.0338  0.1588
 9106SOL    HW138954   0.418   3.250   3.043  0.8684  0.0150 -1.7958
 9106SOL    HW238955   0.509   3.338   3.114  0.4852  0.3782 -0.4564
 9107SOL     OW38956   3.174   3.902   2.360  0.0298 -0.2800 -0.4208
 9107SOL    HW138957   3.210   3.845   2.292 -1.2617  0.0319 -1.3662
 9107SOL    HW238958   3.129   3.841   2.419 -0.3800  1.3212  0.9359
 9108SOL     OW38959   4.080   3.298   3.587 -0.6094  0.3640  0.4434
 9108SOL    HW138960   4.128   3.346   3.520 -0.6423 -0.1533  0.0445
 9108SOL    HW238961   4.019   3.364   3.620 -2.3805 -1.0728  0.0503
 9109SOL     OW38962   1.742   1.357  10.039  0.4186 -0.0870  1.0871
 9109SOL    HW138963   1.759   1.451  10.042 -2.5482  0.4555  0.6928
 9109SOL    HW238964   1.676   1.345  10.107 -0.8839  0.8752 -0.0058
 9110SOL     OW38965   1.942   3.711  17.027  0.3014  0.3039  0.1707
 9110SOL    HW138966   2.019   3.761  17.000  0.2184  0.0441 -0.5456
 9110SOL    HW238967   1.873   3.778  17.018  0.7569  0.3350 -3.2361
 9111SOL     OW38968   4.170   3.524   6.432 -0.3443 -0.8539  0.3642
 9111SOL    HW138969   4.128   3.583   6.369 -1.2824 -2.0482 -0.1146
 9111SOL    HW238970   4.265   3.537   6.423 -0.7832  1.3073 -1.1803
 9112SOL     OW38971   4.003   3.624   0.390  0.1218 -0.1880 -0.0180
 9112SOL    HW138972   3.959   3.541   0.374 -0.2193  0.5468 -2.8326
 9112SOL    HW238973   3.931   3.686   0.375  0.8196  0.3107 -1.3141
 9113SOL     OW38974   0.675   2.147   9.661  0.4715  0.2985 -0.8034
 9113SOL    HW138975   0.733   2.224   9.657  1.0464 -0.1575 -1.2506
 9113SOL    HW238976   0.741   2.078   9.664 -1.4605 -1.6812 -3.9000
 9114SOL     OW38977   1.360   2.128   9.322 -0.4132  0.0132 -0.8904
 9114SOL    HW138978   1.396   2.112   9.410  1.0669 -0.3538 -1.5481
 9114SOL    HW238979   1.443   2.132   9.274 -0.5318 -1.2797 -1.2230
 9115SOL     OW38980   0.172   4.627   3.701 -0.0165 -0.3714 -0.3426
 9115SOL    HW138981   0.158   4.604   3.793 -0.5733  0.6386 -0.1761
 9115SOL    HW238982   0.107   4.566   3.667 -0.5814 -0.5082  0.9919
 9116SOL     OW38983   2.667   2.845   0.600 -0.4447  0.0140  0.4532
 9116SOL    HW138984   2.730   2.908   0.564 -0.9239  1.3070  1.8566
 9116SOL    HW238985   2.634   2.819   0.514 -2.0103 -0.4060  1.1868
 9117SOL     OW38986   3.803   2.839  10.090  0.1278 -0.4657 -0.7175
 9117SOL    HW138987   3.884   2.849  10.039  1.9205 -4.9445  1.2874
 9117SOL    HW238988   3.832   2.776  10.155  0.7005 -1.0660 -1.5513
 9118SOL     OW38989   3.904   4.470   7.504 -0.2832 -0.0621  0.1276
 9118SOL    HW138990   3.941   4.556   7.484 -0.7418  0.3796  1.1731
 9118SOL    HW238991   3.962   4.417   7.450  0.4254 -1.4406  2.2518
 9119SOL     OW38992   3.882   3.117   6.417 -0.0546  0.1045 -0.4466
 9119SOL    HW138993   3.890   3.100   6.323 -0.3612 -1.1630 -0.2398
 9119SOL    HW238994   3.973   3.134   6.439 -0.1306 -0.2435  0.1403
 9120SOL     OW38995   3.537   0.927   7.504 -0.0059  0.8910 -0.2644
 9120SOL    HW138996   3.462   0.871   7.525 -1.4900  2.4757 -1.3661
 9120SOL    HW238997   3.532   0.936   7.409 -0.0802  0.1701 -0.3310
 9121SOL     OW38998   2.040   3.414  11.447  0.0583  0.2810  0.2641
 9121SOL    HW138999   2.067   3.416  11.538 -0.5848  2.0110  0.4207
 9121SOL    HW239000   2.001   3.501  11.435  1.0449  0.3115 -2.9053
 9122SOL     OW39001   1.166   4.381   6.336 -1.0890 -0.2840  0.1240
 9122SOL    HW139002   1.247   4.389   6.386  0.8717 -1.4729 -2.8725
 9122SOL    HW239003   1.107   4.413   6.405 -2.5478 -1.5476 -0.5408
 9123SOL     OW39004   1.587   0.008   8.823 -0.0441 -0.0806 -0.6766
 9123SOL    HW139005   1.557   0.063   8.896 -0.8711 -0.7865 -0.4734
 9123SOL    HW239006   1.671   0.047   8.800 -0.4767  0.2554 -1.6852
 9124SOL     OW39007   0.491   1.097   1.747 -0.1517 -0.5277 -0.0293
 9124SOL    HW139008   0.463   1.188   1.734  0.8767 -0.4793 -1.9244
 9124SOL    HW239009   0.405   1.058   1.733  0.8892 -2.4427 -1.0284
 9125SOL     OW39010   3.196   0.438   3.921  0.3762  0.0871  0.4943
 9125SOL    HW139011   3.198   0.370   3.989  2.6053  1.6258  1.9526
 9125SOL    HW239012   3.285   0.470   3.933  0.3556  0.0777  0.6757
 9126SOL     OW39013   2.147   3.305   2.597 -0.3372 -0.2076 -0.9404
 9126SOL    HW139014   2.230   3.351   2.609 -0.1805 -0.3775 -1.3946
 9126SOL    HW239015   2.098   3.383   2.625 -1.9593 -1.0896 -1.2894
 9127SOL     OW39016   4.337   2.362  16.345  0.8811 -0.1325 -0.1421
 9127SOL    HW139017   4.247   2.333  16.331  0.7606  0.6345 -0.9285
 9127SOL    HW239018   4.333   2.457  16.339 -1.0701  0.0282  3.8906
 9128SOL     OW39019   2.612   3.417   8.068 -0.5281 -0.3170  0.4055
 9128SOL    HW139020   2.634   3.345   8.009 -0.6288 -0.5887  0.6956
 9128SOL    HW239021   2.537   3.446   8.016 -1.4189  0.2040  1.9672
 9129SOL     OW39022   3.743   2.755   9.673  0.3954  0.2439  0.1195
 9129SOL    HW139023   3.687   2.819   9.716 -1.2140 -0.1594 -1.3732
 9129SOL    HW239024   3.727   2.670   9.714  0.3131 -0.0238 -0.4671
 9130SOL     OW39025   1.581   4.233   0.063  0.0893 -0.2451 -0.0332
 9130SOL    HW139026   1.538   4.153   0.032  0.6708  0.5276 -2.7976
 9130SOL    HW239027   1.647   4.203   0.126  1.1385  0.7784 -0.6431
 9131SOL     OW39028   4.251   1.029   1.616 -0.4629  0.2806 -0.0098
 9131SOL    HW139029   4.257   0.935   1.599 -2.7465  0.5777 -2.3897
 9131SOL    HW239030   4.156   1.031   1.622 -0.4032 -1.1201  1.5601
 9132SOL     OW39031   1.935   2.427   7.374  0.0341 -0.3780 -0.3167
 9132SOL    HW139032   1.896   2.472   7.449 -0.2265 -0.6823 -0.2662
 9132SOL    HW239033   1.979   2.356   7.420  0.7012 -0.5540 -1.2303
 9133SOL     OW39034   0.409   1.403   7.638 -0.1124  0.2382  0.4838
 9133SOL    HW139035   0.474   1.471   7.659 -1.0893  0.9102  1.3400
 9133SOL    HW239036   0.437   1.385   7.548  0.7255 -1.3650  1.0784
 9134SOL     OW39037   2.460   1.722   2.137  0.3922  0.4252  0.0261
 9134SOL    HW139038   2.550   1.694   2.119  0.1703 -0.6850  0.6311
 9134SOL    HW239039   2.433   1.649   2.193  0.9833 -0.4427 -0.8273
 9135SOL     OW39040   4.004   4.489   8.524  0.7089 -0.4845 -0.5751
 9135SOL    HW139041   4.083   4.543   8.519  2.4059 -2.8535  0.6081
 9135SOL    HW239042   3.938   4.558   8.532  1.9292  0.6625 -0.3218
 9136SOL     OW39043   3.873   3.334   3.984  0.3226  0.0081  0.1662
 9136SOL    HW139044   3.882   3.274   3.911 -2.3251 -0.7483  0.4468
 9136SOL    HW239045   3.780   3.357   3.981  0.2010 -0.4569  0.4928
 9137SOL     OW39046   0.935   0.444   3.170  0.1794  0.6442  0.6127
 9137SOL    HW139047   1.011   0.401   3.209 -0.9361 -2.2316 -0.4423
 9137SOL    HW239048   0.965   0.535   3.175 -1.2735  1.0838  1.2412
 9138SOL     OW39049   3.319   3.180   2.668  0.2639 -0.2770 -0.1450
 9138SOL    HW139050   3.309   3.210   2.758 -1.2512 -2.2766  0.3462
 9138SOL    HW239051   3.250   3.237   2.634  1.1836  0.5369 -0.6766
 9139SOL     OW39052   0.194   1.465   4.176  0.0476 -0.2234 -0.1410
 9139SOL    HW139053   0.274   1.418   4.200 -0.0042  0.9604  2.2761
 9139SOL    HW239054   0.190   1.455   4.080  0.3356 -0.0097 -0.1775
 9140SOL     OW39055   3.662   1.895  13.214  0.0555  0.4609  0.1521
 9140SOL    HW139056   3.610   1.829  13.260  2.3166 -1.2880  0.1759
 9140SOL    HW239057   3.665   1.955  13.288  0.1766 -0.9244  1.2725
 9141SOL     OW39058   0.770   2.525   8.399  0.0827  0.0584 -0.2712
 9141SOL    HW139059   0.729   2.509   8.314 -1.5024 -0.1765  0.5464
 9141SOL    HW239060   0.707   2.592   8.426 -0.2964 -1.5688  2.9212
 9142SOL     OW39061   3.402   0.003  13.838  0.0855 -0.7708 -0.0731
 9142SOL    HW139062   3.477   4.730  13.780 -1.1754 -3.6543 -1.0469
 9142SOL    HW239063   3.446   0.063  13.898 -2.5937  1.5963 -0.4988
 9143SOL     OW39064   3.806   4.403  12.674 -0.3908 -0.1243  0.1658
 9143SOL    HW139065   3.814   4.422  12.580 -1.7455  2.4918  0.6016
 9143SOL    HW239066   3.762   4.483  12.702 -1.1643 -0.5238  0.0963
 9144SOL     OW39067   1.533   0.827   5.546  0.2566 -0.2685 -0.1040
 9144SOL    HW139068   1.528   0.921   5.562 -0.2591 -0.3589  0.2430
 9144SOL    HW239069   1.457   0.814   5.489 -1.0091  3.8004  0.6969
 9145SOL     OW39070   0.957   0.822   7.853  0.0546  0.9797  1.4313
 9145SOL    HW139071   0.870   0.784   7.839  1.0026 -1.1617  1.3674
 9145SOL    HW239072   0.970   0.818   7.948 -1.1022 -0.2629  1.5429
 9146SOL     OW39073   3.216   0.763   0.336  0.3148  0.2407 -0.4016
 9146SOL    HW139074   3.189   0.681   0.379 -0.1651  0.0086 -1.1397
 9146SOL    HW239075   3.141   0.820   0.351 -0.0082  0.2321 -1.9776
 9147SOL     OW39076   2.458   1.112   4.308 -0.2980 -0.2335 -0.3675
 9147SOL    HW139077   2.526   1.089   4.372 -0.6030 -0.9809 -0.3056
 9147SOL    HW239078   2.510   1.130   4.230  1.1984  2.9796  1.4033
 9148SOL     OW39079   0.887   4.244   2.345  0.1673 -0.0915  0.0918
 9148SOL    HW139080   0.925   4.332   2.349  1.0061 -0.4829  0.8076
 9148SOL    HW239081   0.796   4.270   2.331 -0.1429 -1.0794  0.3308
 9149SOL     OW39082   1.103   1.335   7.971 -0.3121  0.1472 -0.1910
 9149SOL    HW139083   1.187   1.291   7.984  0.1356  0.8695 -0.6170
 9149SOL    HW239084   1.062   1.309   8.053  1.1066 -2.0606 -0.1724
 9150SOL     OW39085   3.229   4.408   6.098 -0.1993 -0.0517  0.6137
 9150SOL    HW139086   3.225   4.482   6.038 -1.7466 -0.7995 -0.1971
 9150SOL    HW239087   3.158   4.430   6.158  0.7424  1.8152  1.0494
 9151SOL     OW39088   2.509   4.007   5.752 -0.8242  0.2965  0.8503
 9151SOL    HW139089   2.573   3.946   5.717 -0.4584  0.7357  0.7471
 9151SOL    HW239090   2.481   4.064   5.680  1.6593  0.3765 -0.0388
 9152SOL     OW39091   2.560   4.125   2.045  0.2061  0.3096  0.1444
 9152SOL    HW139092   2.521   4.111   1.958  0.1075 -2.5370  0.6467
 9152SOL    HW239093   2.482   4.174   2.074  1.1185  0.3738  2.4743
 9153SOL     OW39094   4.383   1.157  14.908  0.3229  0.0779  0.4106
 9153SOL    HW139095   4.331   1.076  14.909  0.7778 -0.1874  1.5815
 9153SOL    HW239096   4.318   1.227  14.909 -0.7158 -0.8559 -0.8913
 9154SOL     OW39097   2.018   0.211  12.396 -0.0347  0.1830 -0.7337
 9154SOL    HW139098   2.063   0.276  12.452 -1.0085  0.6257 -0.4638
 9154SOL    HW239099   1.964   0.159  12.454  0.7950 -2.5264 -2.4251
 9155SOL     OW39100   2.332   4.635   6.032 -0.2253 -0.5224 -0.9074
 9155SOL    HW139101   2.413   4.628   5.982  0.3421 -0.5158  0.0154
 9155SOL    HW239102   2.361   4.657   6.120  0.7902 -0.0457 -1.3581
 9156SOL     OW39103   1.423   3.990  13.642 -0.6349  0.2852 -0.0772
 9156SOL    HW139104   1.360   4.035  13.699  0.7906  1.2507  0.7213
 9156SOL    HW239105   1.382   3.904  13.636  2.0409 -0.9655  0.0566
 9157SOL     OW39106   0.593   3.158  15.449  0.3161 -0.3527 -0.0535
 9157SOL    HW139107   0.609   3.194  15.536 -0.3344  2.5363 -1.1403
 9157SOL    HW239108   0.553   3.232  15.403  0.2552  0.7041  1.6944
 9158SOL     OW39109   1.320   4.085   5.895 -0.4742  0.5102  0.3701
 9158SOL    HW139110   1.394   4.065   5.837 -0.6319 -0.5748  0.5344
 9158SOL    HW239111   1.248   4.045   5.846 -0.3935  0.6030  0.1745
 9159SOL     OW39112   2.387   1.616  12.585 -0.1543 -0.4617  0.0347
 9159SOL    HW139113   2.357   1.674  12.655 -0.0584 -0.7597  0.3209
 9159SOL    HW239114   2.336   1.644  12.509  2.2262  2.8898 -0.3524
 9160SOL     OW39115   0.219   0.792   1.765 -0.5380  0.5678  0.6482
 9160SOL    HW139116   0.253   0.876   1.734  1.2381 -0.9678 -1.5908
 9160SOL    HW239117   0.266   0.739   1.701 -1.0068  1.4114 -0.3887
 9161SOL     OW39118   0.376   3.885   6.456 -0.1886  1.0552 -0.1831
 9161SOL    HW139119   0.396   3.956   6.517  1.7602 -0.7289  1.2369
 9161SOL    HW239120   0.430   3.909   6.380 -0.0680 -0.1507 -0.4677
 9162SOL     OW39121   0.580   0.587   9.586 -0.0911  0.3286  0.3202
 9162SOL    HW139122   0.576   0.545   9.500  0.0162  0.5621  0.2017
 9162SOL    HW239123   0.660   0.638   9.579  0.5171 -0.6043  0.5754
 9163SOL     OW39124   0.982   1.323   5.776 -0.1091 -0.2978 -0.5467
 9163SOL    HW139125   1.023   1.323   5.689 -1.7748  0.8613 -1.3436
 9163SOL    HW239126   0.990   1.232   5.803  2.2637 -0.1841 -0.8998
 9164SOL     OW39127   4.093   1.044   6.838 -0.3984 -0.4602  0.0033
 9164SOL    HW139128   4.114   0.978   6.772  1.7599  0.1638  0.0736
 9164SOL    HW239129   4.185   1.058   6.860 -0.0631 -1.8747 -0.5175
 9165SOL     OW39130   2.568   3.414   1.922 -0.2782  0.0351  0.5620
 9165SOL    HW139131   2.657   3.433   1.892 -0.7742 -0.5206 -1.2298
 9165SOL    HW239132   2.571   3.449   2.012  1.4254 -0.7216  0.8088
 9166SOL     OW39133   2.082   1.939   2.611 -0.3998 -0.0364  0.2651
 9166SOL    HW139134   2.104   1.892   2.692  1.9128 -0.9631 -0.9205
 9166SOL    HW239135   2.138   1.900   2.543 -1.0876  0.2477 -0.4531
 9167SOL     OW39136   1.279   3.992   0.210  0.2417 -0.1990 -0.3772
 9167SOL    HW139137   1.271   4.002   0.115  2.7633  0.0264 -0.5725
 9167SOL    HW239138   1.374   4.000   0.209  0.4229 -2.3037 -0.2211
 9168SOL     OW39139   3.256   3.159   4.994  0.3146  0.0730 -0.3389
 9168SOL    HW139140   3.194   3.217   4.949 -0.7814 -0.5645  0.3406
 9168SOL    HW239141   3.288   3.114   4.916 -0.4347  0.9302 -1.1433
 9169SOL     OW39142   1.189   1.857   2.184 -0.0306  0.1663 -0.3002
 9169SOL    HW139143   1.223   1.848   2.273 -2.1008 -1.0933  0.3710
 9169SOL    HW239144   1.119   1.919   2.207 -0.2616 -0.3230  0.3344
 9170SOL     OW39145   1.992   1.565   3.320 -0.2648 -0.3148  0.1328
 9170SOL    HW139146   1.993   1.498   3.388 -1.2040  1.7035  2.1291
 9170SOL    HW239147   1.974   1.514   3.241  1.7625 -0.7115 -0.0803
 9171SOL     OW39148   0.553   2.448   4.711  0.9160 -0.0350  0.0252
 9171SOL    HW139149   0.523   2.375   4.657  1.1845 -1.0070  1.1930
 9171SOL    HW239150   0.620   2.409   4.767  2.3788  0.3868 -1.4253
 9172SOL     OW39151   1.340   0.103   2.555 -0.0783  0.5221  0.8092
 9172SOL    HW139152   1.399   0.068   2.621 -1.1217  1.6200  2.3374
 9172SOL    HW239153   1.264   0.118   2.611 -0.2541 -2.5299  1.3895
 9173SOL     OW39154   2.960   0.547  11.382 -0.6175 -0.1672 -0.3728
 9173SOL    HW139155   2.950   0.496  11.463 -0.0999  3.1275  1.7944
 9173SOL    HW239156   3.024   0.607  11.421 -0.6964 -1.3792  1.6297
 9174SOL     OW39157   4.392   3.243   4.529  0.1666  0.3743 -0.4750
 9174SOL    HW139158   4.320   3.291   4.568  0.3523 -0.2791  0.6780
 9174SOL    HW239159   4.435   3.311   4.477  0.7754  2.4589  2.7417
 9175SOL     OW39160   3.627   3.605   3.750  0.0478  0.3520  0.2576
 9175SOL    HW139161   3.653   3.645   3.667  2.0016  0.0043  0.7180
 9175SOL    HW239162   3.531   3.606   3.746  0.0762  0.7993 -0.3514
 9176SOL     OW39163   0.987   1.437  14.703  0.6004  0.2616  0.0341
 9176SOL    HW139164   1.070   1.465  14.740 -0.8413  2.2621  1.7643
 9176SOL    HW239165   1.015   1.446  14.612 -1.2319  2.6458 -0.2832
 9177SOL     OW39166   0.054   2.726  13.259 -1.0351  0.1803 -0.4528
 9177SOL    HW139167   0.114   2.693  13.192  1.1067 -2.2676  2.7091
 9177SOL    HW239168   0.064   2.819  13.238 -0.8857  0.4800  0.9500
 9178SOL     OW39169   1.751   3.848   6.435  0.4272 -0.5617  0.5376
 9178SOL    HW139170   1.845   3.864   6.441  0.2355  0.6289  0.4403
 9178SOL    HW239171   1.755   3.752   6.434  0.1263 -0.5777  0.9968
 9179SOL     OW39172   2.009   2.103   7.781  0.2728 -0.0462  0.2578
 9179SOL    HW139173   2.062   2.024   7.791  0.2357 -0.1541 -0.4125
 9179SOL    HW239174   2.024   2.155   7.860  1.4812 -0.2951  0.1891
 9180SOL     OW39175   4.032   0.146   5.760  0.3001  0.3070 -0.4973
 9180SOL    HW139176   3.982   0.148   5.678  1.2008  1.5156 -1.0217
 9180SOL    HW239177   4.121   0.170   5.733  0.2716  0.3184 -0.5810
 9181SOL     OW39178   4.490   0.637  14.869 -0.4411 -0.4166  0.5180
 9181SOL    HW139179   4.403   0.675  14.875 -0.9579 -1.8068  1.8052
 9181SOL    HW239180   4.472   0.604  14.781  0.8462 -3.7217  1.4807
 9182SOL     OW39181   1.004   1.025  12.362  0.0439  0.5134  0.3002
 9182SOL    HW139182   0.957   0.978  12.293  1.3026  1.3481 -1.1503
 9182SOL    HW239183   0.995   1.117  12.338  0.1873  0.0948 -1.3870
 9183SOL     OW39184   1.955   2.842  12.029  0.0067  0.6322  0.2855
 9183SOL    HW139185   1.870   2.825  11.989  0.1179 -1.1514  0.8051
 9183SOL    HW239186   2.000   2.908  11.975 -2.5175  0.9996 -1.3905
 9184SOL     OW39187   2.199   2.528   4.011 -0.5979  0.2421  0.0027
 9184SOL    HW139188   2.276   2.473   3.995 -0.6728  1.4817 -4.5562
 9184SOL    HW239189   2.156   2.531   3.925 -0.0213 -1.4173 -0.3312
 9185SOL     OW39190   0.275   4.196   8.655  0.2088 -0.0120 -0.4140
 9185SOL    HW139191   0.281   4.222   8.747 -0.4583  1.3003 -0.7515
 9185SOL    HW239192   0.182   4.196   8.629  0.2269 -2.6191 -0.5555
 9186SOL     OW39193   3.851   0.097   2.608 -0.2824 -0.0348 -0.3085
 9186SOL    HW139194   3.884   0.009   2.629  3.5223  1.5742  0.4117
 9186SOL    HW239195   3.761   0.067   2.592 -0.1344 -1.4515  1.4632
 9187SOL     OW39196   1.494   2.229  10.305  0.1724 -0.4436 -0.0159
 9187SOL    HW139197   1.426   2.285  10.342 -0.0449  1.2180 -2.9079
 9187SOL    HW239198   1.454   2.146  10.331 -0.0726 -0.5313 -0.6757
 9188SOL     OW39199   2.935   2.664   0.944 -0.1672 -0.2269  1.0270
 9188SOL    HW139200   2.847   2.698   0.931 -0.2241 -0.3853  0.9995
 9188SOL    HW239201   2.990   2.731   0.903  0.9083 -1.6168  0.1654
 9189SOL     OW39202   3.470   1.557   8.182 -0.1915  0.0562 -0.7317
 9189SOL    HW139203   3.483   1.635   8.235 -1.2693  0.6333 -1.3019
 9189SOL    HW239204   3.382   1.530   8.207 -0.9378  1.8891 -1.3141
 9190SOL     OW39205   2.211   1.467   8.510 -0.8773  0.5135 -0.2689
 9190SOL    HW139206   2.124   1.504   8.526 -1.1819  0.0675 -0.9056
 9190SOL    HW239207   2.260   1.534   8.464  1.5227 -0.8607  0.2679
 9191SOL     OW39208   1.654   3.618   1.362  0.1627  0.1064 -0.1683
 9191SOL    HW139209   1.718   3.650   1.425  0.5003 -0.7467 -0.0759
 9191SOL    HW239210   1.572   3.638   1.408 -0.1174 -0.1638 -0.5472
 9192SOL     OW39211   0.566   3.870   3.493 -0.2421  0.5378  0.3939
 9192SOL    HW139212   0.526   3.957   3.489  0.9497  0.9779 -1.9299
 9192SOL    HW239213   0.646   3.899   3.450 -0.2035 -1.0379 -0.5847
 9193SOL     OW39214   0.741   3.268   5.675 -0.1111 -0.0133  0.1184
 9193SOL    HW139215   0.754   3.176   5.698 -1.8805  0.3456  2.5453
 9193SOL    HW239216   0.695   3.286   5.756 -1.6558 -0.6593 -0.6154
 9194SOL     OW39217   1.593   0.001   3.512 -0.0658  0.5009 -0.0227
 9194SOL    HW139218   1.667   0.032   3.460 -0.8567  2.1998 -0.1618
 9194SOL    HW239219   1.539   0.080   3.523 -0.6026 -0.2645  2.9349
 9195SOL     OW39220   2.944   1.524   3.190  0.7954 -0.4359  0.3957
 9195SOL    HW139221   2.874   1.587   3.210  0.7945 -0.8511  1.7289
 9195SOL    HW239222   3.019   1.564   3.233  0.1632  2.0063 -0.7983
 9196SOL     OW39223   0.014   1.712  15.079 -0.0013 -0.1240 -0.4272
 9196SOL    HW139224   4.668   1.742  15.106  0.6355  1.5944 -0.2761
 9196SOL    HW239225   0.024   1.627  15.122 -1.3506  0.6004  1.3101
 9197SOL     OW39226   1.738   3.695   4.627 -0.2103  0.1665  0.3127
 9197SOL    HW139227   1.730   3.789   4.612 -2.1013 -0.0257  0.1822
 9197SOL    HW239228   1.745   3.670   4.535 -0.0342  1.7583 -0.1103
 9198SOL     OW39229   3.448   4.593   8.085 -0.3828  0.4097  0.5734
 9198SOL    HW139230   3.429   4.509   8.128 -3.2558 -0.1707 -1.8197
 9198SOL    HW239231   3.417   4.647   8.158 -0.5677 -0.1082  0.8777
 9199SOL     OW39232   0.309   1.656   8.394 -0.3459  0.5878  0.2027
 9199SOL    HW139233   0.215   1.644   8.378 -0.2392 -0.6821  0.4713
 9199SOL    HW239234   0.317   1.595   8.468 -0.5702  0.0526 -0.2172
 9200SOL     OW39235   1.027   3.970   7.868  0.1099 -0.2164  0.2195
 9200SOL    HW139236   1.117   3.951   7.841  0.8177  0.3995  2.1742
 9200SOL    HW239237   1.028   4.061   7.896 -1.5742 -0.5348  1.2846
 9201SOL     OW39238   3.811   0.876   1.173  0.6968  0.0631 -0.1737
 9201SOL    HW139239   3.821   0.971   1.181  0.1989 -0.1256  2.4257
 9201SOL    HW239240   3.748   0.864   1.101  0.5962 -0.6871  0.0384
 9202SOL     OW39241   3.226   3.395   3.278  0.0436 -0.4739  0.0910
 9202SOL    HW139242   3.260   3.458   3.215  2.4190 -2.5106 -0.6953
 9202SOL    HW239243   3.134   3.415   3.293  0.9379  1.5504  2.8853
 9203SOL     OW39244   4.439   1.633   8.092  0.3783  0.5240  0.0434
 9203SOL    HW139245   4.374   1.665   8.029  0.0588 -0.6067 -0.2058
 9203SOL    HW239246   4.509   1.699   8.091 -0.7407  1.6991 -0.2742
 9204SOL     OW39247   2.537   0.408   2.832  0.2795  0.3642 -0.1196
 9204SOL    HW139248   2.455   0.371   2.797  1.4694 -1.4341 -1.0058
 9204SOL    HW239249   2.553   0.483   2.775 -3.0801  0.4385 -0.9816
 9205SOL     OW39250   1.684   1.608  10.392 -0.0389 -0.3730  0.3328
 9205SOL    HW139251   1.695   1.651  10.477 -0.5206 -1.6196  1.0241
 9205SOL    HW239252   1.651   1.524  10.424 -0.2262 -0.6151 -0.4952
 9206SOL     OW39253   1.720   0.626   3.865 -0.1154 -0.6707 -0.3178
 9206SOL    HW139254   1.809   0.632   3.902  0.3472 -0.7104 -1.4247
 9206SOL    HW239255   1.720   0.549   3.808 -2.3071 -0.3818 -0.6945
 9207SOL     OW39256   1.789   3.585   7.235 -0.2461  0.0763  0.2520
 9207SOL    HW139257   1.776   3.490   7.232 -0.8886  0.1919 -0.6066
 9207SOL    HW239258   1.721   3.610   7.297  0.3391 -0.0917  0.9604
 9208SOL     OW39259   0.042   4.010   7.472  0.1828 -0.5678 -0.9445
 9208SOL    HW139260   0.085   4.095   7.479  0.4104 -0.6486 -1.4005
 9208SOL    HW239261   0.110   3.952   7.505  1.1074  1.2054  0.2429
 9209SOL     OW39262   3.100   0.741   5.364  0.1825  0.3193 -0.4413
 9209SOL    HW139263   3.159   0.790   5.308 -0.8363  0.7394 -1.1451
 9209SOL    HW239264   3.015   0.772   5.334 -0.9089 -2.4941 -0.3008
 9210SOL     OW39265   3.914   0.676  17.641 -0.5082 -0.1034  0.2517
 9210SOL    HW139266   3.873   0.593  17.665  0.6781 -1.6122 -2.8673
 9210SOL    HW239267   3.997   0.682  17.689  0.1754 -1.0213 -0.7979
 9211SOL     OW39268   2.942   1.319   4.198  0.0776  0.4790  0.1672
 9211SOL    HW139269   3.020   1.358   4.238 -0.8361  0.8875  1.5333
 9211SOL    HW239270   2.951   1.224   4.205 -1.0664  0.2773 -1.0887
 9212SOL     OW39271   4.117   4.028  11.132 -0.0569  0.4400 -0.0818
 9212SOL    HW139272   4.110   4.100  11.068 -1.3033 -0.4927 -1.0028
 9212SOL    HW239273   4.081   3.955  11.083 -0.3157  0.1916  0.4835
 9213SOL     OW39274   2.895   3.165   2.859  0.3256  0.3399 -0.7680
 9213SOL    HW139275   2.818   3.185   2.911  0.9102  0.0634  0.1938
 9213SOL    HW239276   2.951   3.129   2.928 -0.5096 -1.5994 -1.1085
 9214SOL     OW39277   4.349   1.128  17.676  0.3077  0.2146  0.2704
 9214SOL    HW139278   4.429   1.124  17.623 -0.1212 -0.3935 -0.3361
 9214SOL    HW239279   4.318   1.218  17.674 -0.2391  0.0515  1.8863
 9215SOL     OW39280   1.126   0.394   3.654 -0.1859 -0.2324  0.0850
 9215SOL    HW139281   1.109   0.442   3.573  1.0081 -1.5878 -0.9448
 9215SOL    HW239282   1.191   0.453   3.693 -1.5329  2.2355 -1.3355
 9216SOL     OW39283   1.811   0.884  15.045  0.5434 -0.3414 -0.0484
 9216SOL    HW139284   1.741   0.871  15.109 -0.0914 -1.2988 -0.9446
 9216SOL    HW239285   1.783   0.951  14.984 -0.8121 -0.1220  0.8036
 9217SOL     OW39286   2.018   3.373   2.317  0.4249 -0.5170  0.2897
 9217SOL    HW139287   2.098   3.345   2.362 -0.2861 -0.1602  1.7795
 9217SOL    HW239288   1.960   3.370   2.393 -0.9134  1.4144 -0.6554
 9218SOL     OW39289   4.174   3.592   2.703 -0.0435  0.1178  0.1229
 9218SOL    HW139290   4.143   3.608   2.614 -1.9811 -2.3652  0.3258
 9218SOL    HW239291   4.155   3.675   2.748 -1.0734 -0.2941  0.4489
 9219SOL     OW39292   0.409   2.223   2.803  0.5179 -0.1474 -0.2447
 9219SOL    HW139293   0.449   2.290   2.748 -0.4216 -0.0214 -0.7874
 9219SOL    HW239294   0.316   2.238   2.786  1.0452  4.4269  0.9610
 9220SOL     OW39295   2.432   1.740  14.438  0.0974 -0.2755 -0.4511
 9220SOL    HW139296   2.356   1.705  14.485  0.9964 -2.0813 -0.3442
 9220SOL    HW239297   2.510   1.690  14.461 -1.5618 -1.7902  1.9146
 9221SOL     OW39298   3.896   2.655  15.719  0.2992  0.2163 -0.1060
 9221SOL    HW139299   3.818   2.709  15.729  0.3995  0.6822 -1.7750
 9221SOL    HW239300   3.907   2.626  15.810 -1.7084 -0.0166  0.0600
 9222SOL     OW39301   1.522   4.494   3.544 -0.0690  0.2681  0.2429
 9222SOL    HW139302   1.533   4.587   3.524  1.5588 -0.0155 -0.1735
 9222SOL    HW239303   1.616   4.475   3.542 -0.0912  0.0146  1.2796
 9223SOL     OW39304   1.824   2.232   2.464 -0.3610  0.4115 -0.2773
 9223SOL    HW139305   1.849   2.143   2.485  1.0206  0.8680  0.0355
 9223SOL    HW239306   1.778   2.222   2.380 -0.5281  2.1085 -0.4017
 9224SOL     OW39307   4.158   0.433  14.467  0.2299 -0.0422  0.2231
 9224SOL    HW139308   4.119   0.376  14.401  1.2904  1.0466 -1.3328
 9224SOL    HW239309   4.251   0.415  14.458  0.5607  0.8708  1.9057
 9225SOL     OW39310   1.344   0.203  12.552  0.5533  0.0109 -0.1930
 9225SOL    HW139311   1.256   0.216  12.516  0.8102  2.9841  0.2996
 9225SOL    HW239312   1.320   0.124  12.602  0.9280  0.1036  0.1307
 9226SOL     OW39313   3.613   3.073   8.208  0.4344 -0.3145  0.8136
 9226SOL    HW139314   3.648   3.153   8.169  1.3083 -0.9358  0.3304
 9226SOL    HW239315   3.522   3.099   8.226  0.8205  1.5070  0.2167
 9227SOL     OW39316   3.192   3.893   0.058  0.2963  0.1777 -0.0066
 9227SOL    HW139317   3.259   3.886   0.125  0.5987  0.9183 -0.2288
 9227SOL    HW239318   3.119   3.854   0.105  0.6379 -0.4628  0.0000
 9228SOL     OW39319   0.583   0.662  17.034  0.0880  0.4421 -0.4730
 9228SOL    HW139320   0.557   0.741  16.986 -1.6376  0.3437  0.2795
 9228SOL    HW239321   0.504   0.610  17.020 -0.0683 -0.0662  2.3091
 9229SOL     OW39322   4.051   1.243   4.479  0.0017 -0.4617  0.4830
 9229SOL    HW139323   4.132   1.219   4.433  0.4647 -2.0368  2.1165
 9229SOL    HW239324   3.999   1.270   4.404 -1.4094 -0.4368  1.4846
 9230SOL     OW39325   2.500   0.928   4.973 -0.8851 -0.2912 -0.7358
 9230SOL    HW139326   2.581   0.978   4.957 -0.1787 -1.5192 -0.9559
 9230SOL    HW239327   2.448   0.954   4.897  0.3430  0.1093 -1.4491
 9231SOL     OW39328   0.243   2.323   6.992 -0.2702 -0.3200 -0.1113
 9231SOL    HW139329   0.311   2.388   6.977  0.9951 -1.5231  0.4461
 9231SOL    HW239330   0.276   2.248   6.943 -0.1423 -0.7230  0.5816
 9232SOL     OW39331   1.234   2.823   3.051  0.3477 -0.3621  0.1176
 9232SOL    HW139332   1.324   2.793   3.065  0.5086  0.4291  0.7034
 9232SOL    HW239333   1.208   2.772   2.974  1.0144 -0.2367 -0.1936
 9233SOL     OW39334   3.884   1.208   8.512  0.5807  0.5882 -0.2280
 9233SOL    HW139335   3.899   1.284   8.569  0.3932  0.0727  0.5047
 9233SOL    HW239336   3.977   1.185   8.503  0.6896  0.6028  0.8811
 9234SOL     OW39337   1.459   2.953   2.637  0.0240 -1.2819 -0.1628
 9234SOL    HW139338   1.521   2.927   2.569 -0.5847 -0.5690 -0.9903
 9234SOL    HW239339   1.520   2.960   2.711  0.1400  2.8019 -0.6545
 9235SOL     OW39340   3.689   2.396   6.355 -0.0444  0.0738  0.2760
 9235SOL    HW139341   3.706   2.350   6.437 -2.0526 -0.2635  0.5200
 9235SOL    HW239342   3.623   2.457   6.388  1.9352  1.4770  1.5842
 9236SOL     OW39343   3.400   3.275   8.901 -0.0524 -0.5763 -0.6699
 9236SOL    HW139344   3.396   3.316   8.988 -1.7332 -1.3061 -0.4005
 9236SOL    HW239345   3.466   3.208   8.920  0.0008 -0.2801  0.2106
 9237SOL     OW39346   1.729   1.253   6.196 -0.0885  0.2027 -0.0453
 9237SOL    HW139347   1.793   1.205   6.143 -1.4241 -2.5335  0.8374
 9237SOL    HW239348   1.666   1.187   6.224 -0.8337  0.7322 -0.4595
 9238SOL     OW39349   1.141   2.578  16.968 -0.2679 -0.4297 -0.0195
 9238SOL    HW139350   1.148   2.655  16.911  1.3324 -0.7745 -0.2690
 9238SOL    HW239351   1.231   2.547  16.979 -0.7047 -1.9995 -0.8570
 9239SOL     OW39352   3.238   3.525   1.630 -1.0622 -0.0162  0.2655
 9239SOL    HW139353   3.304   3.475   1.678 -1.5184 -1.4883 -0.6397
 9239SOL    HW239354   3.168   3.465   1.605  1.1490 -2.0644 -1.0811
 9240SOL     OW39355   1.208   1.696   3.454 -0.2148  0.4717 -0.0558
 9240SOL    HW139356   1.279   1.745   3.412 -1.5329  1.5847 -0.9483
 9240SOL    HW239357   1.176   1.759   3.519  2.1320 -0.8281  2.3932
 9241SOL     OW39358   4.442   3.855   8.025 -0.5111 -0.0425  0.0225
 9241SOL    HW139359   4.444   3.950   8.034  0.2393  0.0208 -0.7483
 9241SOL    HW239360   4.534   3.833   8.040 -0.3514  0.2480 -0.5069
 9242SOL     OW39361   4.016   1.515   5.590 -0.5607 -0.3002  0.3603
 9242SOL    HW139362   3.988   1.592   5.541 -1.0028 -0.0970  0.9431
 9242SOL    HW239363   3.988   1.534   5.679 -2.7703 -0.1929 -0.3588
 9243SOL     OW39364   2.240   1.275   9.318 -0.0221  0.2183  0.1703
 9243SOL    HW139365   2.163   1.225   9.291  0.9967 -1.1943 -0.1435
 9243SOL    HW239366   2.257   1.234   9.403 -1.7219  2.7364  1.7071
 9244SOL     OW39367   1.852   3.205  17.301 -0.4560  0.6972 -0.0104
 9244SOL    HW139368   1.896   3.249  17.228 -0.0998  0.2844 -0.0444
 9244SOL    HW239369   1.908   3.232  17.374 -0.0675  3.8486 -1.4738
 9245SOL     OW39370   0.748   3.650   5.960 -0.1287 -0.8326 -0.0814
 9245SOL    HW139371   0.829   3.651   6.010 -0.5662  2.0446  0.5444
 9245SOL    HW239372   0.687   3.623   6.030  2.0679 -0.1634  2.0869
 9246SOL     OW39373   0.117   1.149   4.210  0.7086 -0.0713 -0.3642
 9246SOL    HW139374   0.182   1.166   4.142  0.6732  0.7436 -0.2007
 9246SOL    HW239375   0.165   1.151   4.293 -2.4016 -0.7459  1.4424
 9247SOL     OW39376   2.628   1.961   5.205 -0.3426  0.1959 -0.1609
 9247SOL    HW139377   2.609   2.025   5.137  0.2431  1.8336  1.2148
 9247SOL    HW239378   2.620   1.874   5.166  2.9019  0.8303 -2.1600
 9248SOL     OW39379   4.395   1.675  12.814  0.6790 -0.1637 -0.3310
 9248SOL    HW139380   4.449   1.659  12.891 -0.5335 -0.6526  0.4039
 9248SOL    HW239381   4.317   1.623  12.834  0.4945 -0.0701 -0.8150
 9249SOL     OW39382   0.579   3.325  15.005  0.6167 -0.1440 -0.1217
 9249SOL    HW139383   0.493   3.368  15.012  0.0869 -1.3362  0.7095
 9249SOL    HW239384   0.616   3.396  14.954  2.4358 -1.1974 -0.2729
 9250SOL     OW39385   1.549   2.426   3.556  0.2666 -0.0615  0.2335
 9250SOL    HW139386   1.524   2.426   3.464  0.6080 -0.3751  0.1443
 9250SOL    HW239387   1.583   2.338   3.573  0.2056 -0.0117  0.6187
 9251SOL     OW39388   2.552   3.888  10.697 -0.5553 -0.5502  0.0827
 9251SOL    HW139389   2.584   3.802  10.724 -0.5344 -0.3184  0.7883
 9251SOL    HW239390   2.557   3.942  10.776 -1.3331 -1.2768  0.6193
 9252SOL     OW39391   3.207   2.276   7.699 -0.2449  0.3545  0.7666
 9252SOL    HW139392   3.192   2.318   7.783 -0.9820 -0.3216  0.9679
 9252SOL    HW239393   3.159   2.331   7.637 -0.3794 -0.7687 -0.1191
 9253SOL     OW39394   3.391   1.172   7.536  0.0428 -0.2318  0.1499
 9253SOL    HW139395   3.373   1.199   7.446  1.4938  0.4594  0.0688
 9253SOL    HW239396   3.436   1.091   7.510  1.2819  0.7017 -0.6458
 9254SOL     OW39397   4.668   0.032  15.112 -0.5001 -0.5605  0.0811
 9254SOL    HW139398   0.011   0.077  15.129 -0.4649 -0.4553 -0.3747
 9254SOL    HW239399   4.641   0.009  15.201 -1.7350  0.7982  0.0600
 9255SOL     OW39400   3.241   4.716  15.288 -0.1805  0.4942 -0.2660
 9255SOL    HW139401   3.301   4.653  15.330 -1.7575  0.8869  2.5795
 9255SOL    HW239402   3.226   0.050  15.346 -1.2405  2.1236 -2.6232
 9256SOL     OW39403   0.826   1.178   3.598  0.3050  0.3258 -0.2370
 9256SOL    HW139404   0.858   1.264   3.622  0.1306  0.3763 -0.1850
 9256SOL    HW239405   0.892   1.150   3.535 -0.5729 -1.7435 -0.2458
 9257SOL     OW39406   4.543   0.123  14.876 -0.0650  0.0129  0.3724
 9257SOL    HW139407   4.602   0.091  14.945  1.8559 -0.4849 -1.5077
 9257SOL    HW239408   4.594   0.197  14.843 -0.9926  0.2656 -0.4683
 9258SOL     OW39409   2.835   3.072   9.804  0.3006  0.1595 -0.0087
 9258SOL    HW139410   2.824   3.090   9.898 -2.7953  0.2193 -0.3694
 9258SOL    HW239411   2.849   3.154   9.757  1.4147  0.9596  1.7278
 9259SOL     OW39412   0.179   2.768  11.921 -0.4131  0.0429 -0.1858
 9259SOL    HW139413   0.114   2.800  11.983 -1.3841 -0.0764 -1.1383
 9259SOL    HW239414   0.132   2.772  11.837 -0.3261  1.8626 -0.1629
 9260SOL     OW39415   2.873   1.342  16.692 -0.2344 -0.3120  0.4242
 9260SOL    HW139416   2.822   1.414  16.728  1.1087 -0.3841  2.4929
 9260SOL    HW239417   2.804   1.290  16.652  0.3394 -0.3225 -0.5702
 9261SOL     OW39418   1.721   1.560  13.169  0.1106  0.8560  0.4441
 9261SOL    HW139419   1.686   1.621  13.104 -0.2473 -0.8166 -0.9123
 9261SOL    HW239420   1.643   1.547  13.223 -0.4458  0.6034 -0.4332
 9262SOL     OW39421   3.359   4.733   0.177 -0.3348 -0.5425  0.0910
 9262SOL    HW139422   3.422   4.722   0.248  0.5053  1.0696 -0.4017
 9262SOL    HW239423   3.380   0.080   0.141 -1.9734 -0.4445 -0.6636
 9263SOL     OW39424   4.115   0.660  10.488  0.4506 -0.0028  0.6701
 9263SOL    HW139425   4.150   0.745  10.460 -2.3252  1.4938  1.6417
 9263SOL    HW239426   4.051   0.693  10.552  1.8077  3.4314  0.2440
 9264SOL     OW39427   4.233   0.702  14.891  0.2119  0.0978 -0.5162
 9264SOL    HW139428   4.192   0.776  14.847  2.5418  0.5613 -1.8864
 9264SOL    HW239429   4.187   0.630  14.847 -2.2892 -0.2080  2.6378
 9265SOL     OW39430   1.577   0.963   2.888  0.0143 -0.1109  0.4185
 9265SOL    HW139431   1.664   0.971   2.848 -0.5317 -0.5176 -0.8485
 9265SOL    HW239432   1.539   1.048   2.868  1.8745  0.5053 -0.4828
 9266SOL     OW39433   0.960   0.379   7.719 -0.0824  0.1002 -0.0719
 9266SOL    HW139434   0.875   0.416   7.696 -0.7685 -1.0830  0.5924
 9266SOL    HW239435   1.016   0.415   7.650  0.4582 -0.3275  0.1426
 9267SOL     OW39436   3.779   2.049  17.594 -0.1240  0.1431 -0.9631
 9267SOL    HW139437   3.843   1.978  17.588 -1.8327 -1.5997  1.4528
 9267SOL    HW239438   3.728   2.017  17.668 -1.7414  4.3677 -0.2766
 9268SOL     OW39439   1.179   3.345   9.741  0.1401 -0.7764  0.1861
 9268SOL    HW139440   1.171   3.269   9.684 -0.9566  0.4571 -1.3143
 9268SOL    HW239441   1.109   3.324   9.803  0.0006 -0.3415  0.1792
 9269SOL     OW39442   3.213   4.209   7.372 -0.2343  0.1004  0.3677
 9269SOL    HW139443   3.265   4.218   7.292 -1.3769  1.1644 -0.2514
 9269SOL    HW239444   3.177   4.123   7.352  0.5076 -0.2941  0.7671
 9270SOL     OW39445   0.465   0.314  15.784  0.6259 -0.2442 -0.5170
 9270SOL    HW139446   0.535   0.254  15.758  0.8049  0.1622 -0.9837
 9270SOL    HW239447   0.489   0.400  15.749 -1.6315  0.6857  0.2106
 9271SOL     OW39448   2.699   3.170   4.773 -0.0342  0.3278  0.5210
 9271SOL    HW139449   2.706   3.264   4.758 -0.5057  0.3981  0.7290
 9271SOL    HW239450   2.605   3.156   4.785 -0.3563  0.5719 -1.6697
 9272SOL     OW39451   0.968   2.377  15.752 -0.4960  0.2886 -0.2176
 9272SOL    HW139452   1.007   2.386  15.665  1.1141 -0.3249  0.4335
 9272SOL    HW239453   0.915   2.299  15.736  1.9981 -1.3761 -0.3280
 9273SOL     OW39454   0.154   3.309   7.088  0.1942 -0.0547 -0.3528
 9273SOL    HW139455   0.104   3.286   7.166 -1.1262  3.9169 -0.0513
 9273SOL    HW239456   0.207   3.386   7.111 -0.3824 -0.2830  1.7457
 9274SOL     OW39457   0.707   1.413   8.974 -0.2304 -0.3801 -0.1715
 9274SOL    HW139458   0.660   1.339   9.013  0.1118 -0.7353 -0.4369
 9274SOL    HW239459   0.663   1.407   8.890 -0.8361  0.1237  0.1140
 9275SOL     OW39460   1.507   0.616   5.289  0.3584  0.0072 -0.6330
 9275SOL    HW139461   1.438   0.680   5.305 -0.7511 -1.8155  1.7741
 9275SOL    HW239462   1.489   0.584   5.201  2.0787 -2.6259 -0.0278
 9276SOL     OW39463   0.661   2.710   7.439  0.0417  0.3119  0.3033
 9276SOL    HW139464   0.609   2.733   7.516 -0.3241  1.7769 -0.3758
 9276SOL    HW239465   0.749   2.744   7.451  1.6557 -2.5238 -3.7335
 9277SOL     OW39466   2.752   0.797  10.970  0.2609  0.0199  0.2485
 9277SOL    HW139467   2.802   0.720  10.997  0.6947  0.6495  1.2436
 9277SOL    HW239468   2.747   0.842  11.054 -0.8064 -0.2620  0.3422
 9278SOL     OW39469   4.223   1.700  14.686  0.4202 -0.0670 -0.1231
 9278SOL    HW139470   4.299   1.718  14.631  0.6365  1.3172  0.6448
 9278SOL    HW239471   4.195   1.612  14.659 -1.2184  0.4026  0.0088
 9279SOL     OW39472   2.748   1.374   8.742 -0.1799  0.0282  0.1565
 9279SOL    HW139473   2.725   1.360   8.650  0.5428 -0.0502 -0.0106
 9279SOL    HW239474   2.670   1.340   8.787  0.6581 -0.6953  1.0625
 9280SOL     OW39475   1.005   3.183  14.963  0.0348  0.2038 -0.5936
 9280SOL    HW139476   0.946   3.207  15.035  0.9659 -3.0718  1.2861
 9280SOL    HW239477   1.038   3.264  14.926 -2.5409  1.7595  0.4920
 9281SOL     OW39478   0.322   0.586   9.509  0.2548  0.4011  0.3356
 9281SOL    HW139479   0.405   0.596   9.556  0.3788 -0.8630  0.3930
 9281SOL    HW239480   0.258   0.620   9.571  1.9213  0.9879  1.7657
 9282SOL     OW39481   0.901   0.925   7.058 -0.1213 -0.5011 -0.8259
 9282SOL    HW139482   0.985   0.970   7.046  0.2530 -0.5370  1.7684
 9282SOL    HW239483   0.844   0.987   7.102  0.8123  1.1405 -1.9302
 9283SOL     OW39484   1.553   0.164  12.363 -0.0157 -0.3046  0.9091
 9283SOL    HW139485   1.477   0.185  12.417 -0.6683  2.7011 -1.2139
 9283SOL    HW239486   1.593   0.251  12.361 -1.9087  0.4567 -3.0678
 9284SOL     OW39487   2.694   3.369  16.286 -0.3475 -0.1999  0.4879
 9284SOL    HW139488   2.771   3.343  16.337  0.7965 -0.3328 -1.3175
 9284SOL    HW239489   2.746   3.383  16.207  0.1448  0.7991  0.9965
 9285SOL     OW39490   4.560   1.570  16.727 -0.1979 -0.6190 -0.2307
 9285SOL    HW139491   4.605   1.614  16.655  1.9410 -0.4695  1.2056
 9285SOL    HW239492   4.494   1.525  16.673 -0.5285 -1.2832  0.7253
 9286SOL     OW39493   3.483   1.466   6.029 -0.1405 -0.2396 -0.2632
 9286SOL    HW139494   3.506   1.381   5.991  2.3791 -0.0748  0.8537
 9286SOL    HW239495   3.409   1.488   5.973 -1.5851  0.0410  1.7378
 9287SOL     OW39496   2.220   0.970   7.755 -0.1088 -0.3271  0.5868
 9287SOL    HW139497   2.253   1.040   7.811 -0.4064  0.7660 -0.6155
 9287SOL    HW239498   2.302   0.922   7.767 -1.0581 -1.7570  1.4413
 9288SOL     OW39499   2.172   0.590   5.736 -0.6751  0.2909  0.3286
 9288SOL    HW139500   2.151   0.497   5.732 -0.6634  0.3480 -1.1925
 9288SOL    HW239501   2.093   0.628   5.696 -0.3395 -1.1457 -1.6917
 9289SOL     OW39502   0.870   3.329   7.662  0.4909 -0.2578  0.0384
 9289SOL    HW139503   0.904   3.392   7.725  1.6018  0.6853 -1.4965
 9289SOL    HW239504   0.927   3.340   7.586  0.0669 -0.5078 -0.3148
 9290SOL     OW39505   0.306   4.380   4.920  0.3843  0.2428 -0.8407
 9290SOL    HW139506   0.385   4.433   4.922 -0.7647  1.9071  0.1755
 9290SOL    HW239507   0.266   4.398   5.005 -0.7932 -3.0351 -0.7154
 9291SOL     OW39508   2.839   1.908  10.496  0.1887  0.4100 -0.3069
 9291SOL    HW139509   2.899   1.842  10.530 -1.3030 -1.8172 -2.0295
 9291SOL    HW239510   2.824   1.880  10.406 -2.4434 -0.7273  0.4741
 9292SOL     OW39511   2.560   2.728   4.070 -0.2030  0.1357 -0.3934
 9292SOL    HW139512   2.639   2.701   4.117  1.1608  0.4703 -2.4933
 9292SOL    HW239513   2.575   2.714   3.977 -1.4802 -0.4810 -0.5088
 9293SOL     OW39514   3.756   1.637   4.697 -0.4136  0.1285 -0.2846
 9293SOL    HW139515   3.690   1.689   4.742  0.9702  1.4476  0.2478
 9293SOL    HW239516   3.817   1.711   4.697 -0.5532  0.2436 -0.5297
 9294SOL     OW39517   1.564   2.607   2.381  0.8957 -0.8734 -0.0949
 9294SOL    HW139518   1.601   2.535   2.431 -1.1746 -0.6523  1.7431
 9294SOL    HW239519   1.482   2.612   2.429  0.7097  1.9857 -0.6708
 9295SOL     OW39520   1.771   2.633   5.097  0.1978  0.4917 -0.3981
 9295SOL    HW139521   1.730   2.547   5.096  0.7045  0.2464 -0.0065
 9295SOL    HW239522   1.752   2.666   5.009  1.5758 -0.3773 -1.0173
 9296SOL     OW39523   2.987   4.270   6.017  0.0294 -0.1009  0.0846
 9296SOL    HW139524   2.946   4.346   6.059  0.0586  0.3649 -0.7296
 9296SOL    HW239525   3.002   4.221   6.098  0.1922 -0.7085 -0.3179
 9297SOL     OW39526   3.439   4.267  10.480 -0.0131 -0.4380  0.4941
 9297SOL    HW139527   3.391   4.348  10.501  1.3134  0.8319 -1.3442
 9297SOL    HW239528   3.377   4.220  10.423 -1.3528 -0.0301  1.6007
 9298SOL     OW39529   1.371   2.464   7.834 -0.0332  0.1761  0.0141
 9298SOL    HW139530   1.293   2.432   7.880  0.8674 -0.8593  0.8393
 9298SOL    HW239531   1.373   2.401   7.762  1.1366 -0.0088  0.2154
 9299SOL     OW39532   3.169   1.181   9.198  0.0410 -0.0852 -0.4039
 9299SOL    HW139533   3.101   1.140   9.146  0.7336 -3.7644  1.5426
 9299SOL    HW239534   3.247   1.171   9.142  1.8118  0.1340  2.0046
 9300SOL     OW39535   3.763   2.299   6.653 -0.6246 -0.5997 -0.2940
 9300SOL    HW139536   3.767   2.356   6.730  2.2199  0.5747 -1.3418
 9300SOL    HW239537   3.687   2.335   6.607 -0.3083  0.1076 -0.2655
 9301SOL     OW39538   0.496   4.459   1.564  0.1216  0.6692 -0.0461
 9301SOL    HW139539   0.591   4.467   1.553  0.3210 -1.2026  0.1999
 9301SOL    HW239540   0.495   4.424   1.653  1.0180 -0.5666 -0.5097
 9302SOL     OW39541   1.971   1.605   1.407  0.3661  0.2489 -0.1907
 9302SOL    HW139542   1.975   1.691   1.366 -0.0643  0.4545  0.2001
 9302SOL    HW239543   2.060   1.605   1.440 -0.2414 -3.3149  1.4950
 9303SOL     OW39544   0.512   1.804   3.056  0.0499 -0.2036 -0.0783
 9303SOL    HW139545   0.525   1.768   3.144  0.2012 -0.6314 -0.2753
 9303SOL    HW239546   0.433   1.755   3.032  0.6124 -1.4413  0.5787
 9304SOL     OW39547   2.150   0.777   6.741  0.0456 -0.3440  0.3487
 9304SOL    HW139548   2.074   0.804   6.689  0.3774 -1.6296 -0.7928
 9304SOL    HW239549   2.209   0.842   6.702  1.1348 -0.4719  1.7682
 9305SOL     OW39550   4.488   1.277   2.022  0.4683 -0.1334  0.6111
 9305SOL    HW139551   4.567   1.282   2.077  0.7633  1.7769  0.0237
 9305SOL    HW239552   4.419   1.289   2.087  0.2338  1.9935 -0.0512
 9306SOL     OW39553   2.903   3.841   8.077 -0.0490 -0.0237  0.0716
 9306SOL    HW139554   2.914   3.782   8.002  1.6841  1.7384 -1.0491
 9306SOL    HW239555   2.960   3.912   8.049 -0.3217  1.4762  3.2538
 9307SOL     OW39556   0.389   2.921   4.099 -0.4443 -0.6828  0.1820
 9307SOL    HW139557   0.420   3.009   4.081 -0.8843 -0.5444  0.1071
 9307SOL    HW239558   0.458   2.883   4.154  0.6260  1.3626  0.2491
 9308SOL     OW39559   3.279   1.258   8.738 -0.1098  0.2369 -0.3651
 9308SOL    HW139560   3.359   1.276   8.787  0.1495 -2.7506  0.3000
 9308SOL    HW239561   3.301   1.203   8.663  1.0357  0.9553 -0.5553
 9309SOL     OW39562   2.738   3.764   2.671 -0.1711 -0.5984 -0.1135
 9309SOL    HW139563   2.830   3.761   2.698 -0.2919 -1.4155  0.2184
 9309SOL    HW239564   2.747   3.840   2.614  0.5652 -1.0907 -0.6537
 9310SOL     OW39565   2.225   3.678  12.705  0.4328 -0.1463 -0.5191
 9310SOL    HW139566   2.313   3.655  12.736  1.1397  0.6100 -1.9518
 9310SOL    HW239567   2.197   3.734  12.778 -0.3276  0.7867 -1.5245
 9311SOL     OW39568   2.355   2.068   4.873 -0.1321 -0.1540  0.1850
 9311SOL    HW139569   2.289   2.116   4.823 -0.4053  0.0815  0.7813
 9311SOL    HW239570   2.395   2.017   4.802  1.2451  0.6161  0.4032
 9312SOL     OW39571   4.270   0.213   8.535  0.7914  0.1264  0.2885
 9312SOL    HW139572   4.176   0.226   8.520  1.1782  1.7298 -0.7506
 9312SOL    HW239573   4.265   0.191   8.628  0.1686 -0.9532  0.0110
 9313SOL     OW39574   0.873   3.691   8.778 -0.1291  0.0242  0.4712
 9313SOL    HW139575   0.890   3.777   8.741 -1.8276  0.6320  1.1191
 9313SOL    HW239576   0.825   3.706   8.859  1.6273  0.1088  1.4799
 9314SOL     OW39577   2.409   3.272   8.723  0.4686 -0.0821  0.0165
 9314SOL    HW139578   2.327   3.311   8.693 -0.5705 -0.7158  2.0779
 9314SOL    HW239579   2.462   3.324   8.663  1.3034 -2.2458 -1.1273
 9315SOL     OW39580   3.810   4.161  11.046 -0.0020  0.2186 -0.0222
 9315SOL    HW139581   3.826   4.209  11.128 -0.7313 -0.0716  0.2867
 9315SOL    HW239582   3.895   4.181  11.005  0.3497 -1.1425  0.0555
 9316SOL     OW39583   2.349   4.563   2.383  0.2363 -0.4805  0.2471
 9316SOL    HW139584   2.258   4.540   2.404 -0.1162  2.7459  2.2351
 9316SOL    HW239585   2.384   4.580   2.470  0.6060 -0.5987  0.1225
 9317SOL     OW39586   3.368   2.482  13.739  0.3307 -0.0049 -0.2839
 9317SOL    HW139587   3.328   2.546  13.680  2.7160  1.3848 -0.3578
 9317SOL    HW239588   3.290   2.457  13.789 -0.3888 -0.0258 -1.4067
 9318SOL     OW39589   2.915   2.339  16.312  0.0780  0.2050 -0.7417
 9318SOL    HW139590   2.867   2.330  16.230 -0.9844  1.7439 -0.2871
 9318SOL    HW239591   2.892   2.263  16.366  2.0059 -2.2773 -3.4228
 9319SOL     OW39592   0.769   1.586   5.621 -0.3442 -0.1400  0.0718
 9319SOL    HW139593   0.728   1.582   5.535 -0.6207  0.7519  0.1595
 9319SOL    HW239594   0.852   1.539   5.612  1.0943  2.0706  1.7159
 9320SOL     OW39595   1.703   2.675  13.304 -0.7923 -0.5972  0.1140
 9320SOL    HW139596   1.703   2.632  13.219 -2.8366 -0.0102 -0.1931
 9320SOL    HW239597   1.716   2.592  13.349  0.3600 -0.5188 -0.0819
 9321SOL     OW39598   4.494   0.559   7.131 -0.1786 -0.0332 -0.7279
 9321SOL    HW139599   4.563   0.514   7.180 -1.4684  0.6097  1.6907
 9321SOL    HW239600   4.427   0.495   7.157  1.2135 -0.5076  1.7296
 9322SOL     OW39601   3.929   1.268   5.659  0.5835 -0.2949  0.9042
 9322SOL    HW139602   3.976   1.347   5.631  3.8749 -2.1898  1.0518
 9322SOL    HW239603   3.894   1.236   5.576 -0.6019 -2.5171  2.2520
 9323SOL     OW39604   3.272   1.979   9.439  0.3188  0.2127  0.7121
 9323SOL    HW139605   3.187   2.022   9.443 -0.0763 -0.7401  2.3802
 9323SOL    HW239606   3.286   1.976   9.344 -1.4050 -1.8608  0.5305
 9324SOL     OW39607   2.462   3.726   5.437 -0.1454  0.0020 -0.3571
 9324SOL    HW139608   2.484   3.748   5.346 -3.2303  0.6783 -0.9283
 9324SOL    HW239609   2.384   3.778   5.453 -1.3609 -1.1423 -2.5208
 9325SOL     OW39610   3.612   0.390   3.945  0.6497 -0.7355  0.6627
 9325SOL    HW139611   3.572   0.451   4.006  1.2587  0.0632  0.2616
 9325SOL    HW239612   3.704   0.390   3.971  0.9848  0.6651 -0.5191
 9326SOL     OW39613   1.128   2.420   2.617  0.4791  0.3190 -0.0032
 9326SOL    HW139614   1.203   2.449   2.566 -0.6048 -0.6541 -2.1817
 9326SOL    HW239615   1.167   2.345   2.661  0.1038 -0.3158 -0.7348
 9327SOL     OW39616   3.954   1.135   6.471  0.7961  0.2735 -0.2414
 9327SOL    HW139617   3.869   1.160   6.435  0.6950 -2.6296 -2.0423
 9327SOL    HW239618   3.965   1.200   6.541 -0.6965  2.1915 -1.8013
 9328SOL     OW39619   3.346   2.097   8.259  0.1361 -0.2082 -0.2279
 9328SOL    HW139620   3.342   2.004   8.240 -1.5801 -0.3129  0.6114
 9328SOL    HW239621   3.270   2.131   8.212  0.5730  1.8368  0.5441
 9329SOL     OW39622   2.258   0.616   2.047 -0.5200 -0.3400 -0.0900
 9329SOL    HW139623   2.235   0.693   1.995  0.4434  0.3588  0.5224
 9329SOL    HW239624   2.226   0.549   1.987  0.7615  0.7160 -1.9394
 9330SOL     OW39625   3.576   3.841   7.161 -0.3222 -0.2352  0.2091
 9330SOL    HW139626   3.490   3.819   7.125 -1.1928  0.0234  2.0831
 9330SOL    HW239627   3.629   3.856   7.083 -0.2529 -0.8983  0.1332
 9331SOL     OW39628   4.547   2.191   2.781  0.6564 -0.6388 -0.0558
 9331SOL    HW139629   4.495   2.171   2.859  1.7575  2.3117  1.4409
 9331SOL    HW239630   4.487   2.161   2.712 -1.1447 -1.0227  1.6901
 9332SOL     OW39631   0.008   0.419   4.155  0.6209 -0.1692 -0.5574
 9332SOL    HW139632   0.007   0.382   4.066 -0.9351  0.6172 -0.8583
 9332SOL    HW239633   4.720   0.507   4.130  0.6016 -0.3450 -1.1665
 9333SOL     OW39634   0.198   0.118   4.770 -0.4425  0.1216 -0.5578
 9333SOL    HW139635   0.225   0.056   4.702 -0.5268  0.0392 -0.5173
 9333SOL    HW239636   0.246   0.082   4.845 -1.8881  0.1940  0.4050
 9334SOL     OW39637   4.674   4.479   7.215  0.1415  0.0806 -0.1227
 9334SOL    HW139638   0.002   4.444   7.158  0.1589  1.5975 -1.0295
 9334SOL    HW239639   4.608   4.489   7.146  0.3375 -0.3166 -0.3675
 9335SOL     OW39640   0.658   2.142   6.189 -0.4413 -0.2034 -0.1132
 9335SOL    HW139641   0.635   2.053   6.214 -3.7844  0.5942 -0.4323
 9335SOL    HW239642   0.717   2.166   6.260  0.0316 -0.6939 -0.3375
 9336SOL     OW39643   4.716   2.078   4.798 -0.0209  0.8344  0.3999
 9336SOL    HW139644   4.641   2.132   4.821 -0.1924  0.7102  0.1339
 9336SOL    HW239645   4.669   1.995   4.785  0.1642  0.8159 -0.1575
 9337SOL     OW39646   4.702   1.787   2.429  0.4778 -0.5960  0.0764
 9337SOL    HW139647   0.008   1.866   2.399  0.0529 -1.2256 -2.2567
 9337SOL    HW239648   4.655   1.819   2.505  1.4170  1.5854 -0.2535
 9338SOL     OW39649   0.304   1.686   6.055  0.0353  0.1176  0.0707
 9338SOL    HW139650   0.216   1.678   6.019 -0.4541 -1.0048  1.5594
 9338SOL    HW239651   0.355   1.679   5.974 -1.5809 -1.5615 -0.7859
 9339SOL     OW39652   3.305   0.845   2.439  0.1082  0.2257 -0.2919
 9339SOL    HW139653   3.319   0.829   2.533 -1.9978  1.3891  0.2005
 9339SOL    HW239654   3.358   0.773   2.405 -1.0783  0.1679 -1.9764
 9340SOL     OW39655   4.618   0.558   0.880 -0.7044  0.2237  0.2677
 9340SOL    HW139656   4.675   0.499   0.929 -1.0819  0.1713  0.6473
 9340SOL    HW239657   4.591   0.498   0.811  0.9095  1.2556 -1.2777
 9341SOL     OW39658   4.152   4.444   4.425 -0.0642 -0.9620 -0.4550
 9341SOL    HW139659   4.126   4.376   4.488  2.5640 -1.0909  0.4910
 9341SOL    HW239660   4.160   4.389   4.347 -0.1675  0.3743 -1.3870
 9342SOL     OW39661   2.075   3.188  16.590 -0.1093  0.2943 -0.7674
 9342SOL    HW139662   2.129   3.147  16.523  1.3554 -0.1617  0.6777
 9342SOL    HW239663   2.087   3.279  16.563 -0.1821  1.0271  1.6453
 9343SOL     OW39664   2.642   2.714   5.535  0.0240  0.0696 -0.5535
 9343SOL    HW139665   2.644   2.758   5.450 -0.0452  1.3882  0.1296
 9343SOL    HW239666   2.553   2.682   5.523  0.4047 -1.0369 -0.4656
 9344SOL     OW39667   2.106   1.392   7.764  0.3923  0.1157  0.4045
 9344SOL    HW139668   2.039   1.450   7.801 -0.3224 -0.5282  0.1167
 9344SOL    HW239669   2.157   1.463   7.725 -2.6363  1.5692 -0.9765
 9345SOL     OW39670   2.433   1.550  12.990  0.7489  0.4627  0.0172
 9345SOL    HW139671   2.371   1.477  12.993  0.2735  0.8872  0.4739
 9345SOL    HW239672   2.505   1.502  13.032 -0.1220 -1.1302 -0.3279
 9346SOL     OW39673   0.670   3.149   2.524 -0.2725 -0.5851 -0.2284
 9346SOL    HW139674   0.623   3.231   2.541  1.7753  0.1819  1.7240
 9346SOL    HW239675   0.699   3.136   2.614 -0.5050 -1.6448 -0.3045
 9347SOL     OW39676   4.447   1.920  14.845 -0.6994 -0.6225  0.0434
 9347SOL    HW139677   4.491   1.986  14.792 -0.6640  0.1044  0.9813
 9347SOL    HW239678   4.502   1.842  14.833 -1.0686 -0.9934  0.7129
 9348SOL     OW39679   2.877   0.750   4.348 -0.2080  0.0356  0.2127
 9348SOL    HW139680   2.872   0.662   4.386 -1.9310 -0.7423 -1.8426
 9348SOL    HW239681   2.972   0.763   4.355 -0.1803  0.7354 -1.5587
 9349SOL     OW39682   0.723   3.697   9.008  0.2735  0.0297  0.4915
 9349SOL    HW139683   0.643   3.743   8.981  0.7717  2.0192  2.3444
 9349SOL    HW239684   0.722   3.710   9.103  0.2394  1.3093  0.3115
 9350SOL     OW39685   1.295   2.331   6.864 -0.7273  0.4594  0.2736
 9350SOL    HW139686   1.286   2.338   6.769 -0.3037 -1.1574  0.0993
 9350SOL    HW239687   1.324   2.240   6.878  0.0098  0.5472 -0.7404
 9351SOL     OW39688   0.833   2.369   1.339 -0.2566  0.5254  0.2824
 9351SOL    HW139689   0.870   2.455   1.361 -1.4918  0.7261  1.5557
 9351SOL    HW239690   0.876   2.328   1.414 -1.3537 -2.8078 -0.8963
 9352SOL     OW39691   4.391   3.600   0.141  0.2189 -0.1181 -0.5204
 9352SOL    HW139692   4.396   3.603   0.046 -0.6154  2.0628 -0.4969
 9352SOL    HW239693   4.483   3.622   0.154  0.5334 -0.6624 -1.8634
 9353SOL     OW39694   3.082   0.964   4.169 -0.0166 -0.0399  0.9623
 9353SOL    HW139695   3.086   0.874   4.203  3.0126 -0.3382 -0.1448
 9353SOL    HW239696   3.123   1.020   4.235  1.7842 -1.2884  0.9325
 9354SOL     OW39697   0.455   0.480  14.853  0.1931  1.0404  0.6554
 9354SOL    HW139698   0.439   0.428  14.931  1.2852 -0.6328 -0.2455
 9354SOL    HW239699   0.496   0.560  14.887 -2.4723  2.6358  0.1151
 9355SOL     OW39700   2.505   1.431   2.937 -0.5123  0.4514  0.0902
 9355SOL    HW139701   2.522   1.523   2.914  0.0741  0.0241 -1.1583
 9355SOL    HW239702   2.596   1.407   2.954 -1.2070 -1.7832  0.6045
 9356SOL     OW39703   1.363   3.359   3.365 -0.3358  0.3986 -0.2945
 9356SOL    HW139704   1.340   3.280   3.315  0.6047  0.1359 -0.3166
 9356SOL    HW239705   1.354   3.432   3.304  0.2104 -0.0201 -0.8821
 9357SOL     OW39706   1.977   1.743  16.391  0.2758  0.4147 -0.3237
 9357SOL    HW139707   1.933   1.673  16.439 -0.1325  1.5807  0.9754
 9357SOL    HW239708   1.964   1.818  16.449  1.4003  0.2006  0.2116
 9358SOL     OW39709   0.028   3.493   9.914 -0.5227  0.2980 -0.7398
 9358SOL    HW139710   0.057   3.584   9.908 -0.4913  0.4294  1.3674
 9358SOL    HW239711   4.684   3.510   9.957  1.0178  0.8951  2.0116
 9359SOL     OW39712   3.899   0.019  16.383  0.8501 -0.4677 -0.1884
 9359SOL    HW139713   3.874   0.060  16.466 -0.0874 -0.0138 -0.6934
 9359SOL    HW239714   3.872   0.090  16.324  1.0853 -0.3038 -0.1011
 9360SOL     OW39715   1.477   0.225   8.549 -0.1430  0.0428 -0.9397
 9360SOL    HW139716   1.454   0.270   8.630 -0.0790 -1.8393  0.1264
 9360SOL    HW239717   1.386   0.201   8.531  0.5235 -4.0521  1.2471
 9361SOL     OW39718   1.343   0.612   3.766 -0.0553  0.8320  0.3489
 9361SOL    HW139719   1.423   0.609   3.715 -0.5951 -0.6495 -0.3983
 9361SOL    HW239720   1.312   0.700   3.742  0.4312  0.5177 -1.3638
 9362SOL     OW39721   0.408   3.309  15.328 -0.3200 -0.3552 -0.2037
 9362SOL    HW139722   0.368   3.365  15.395  1.7741  4.1231 -2.6844
 9362SOL    HW239723   0.435   3.368  15.258 -0.3086  0.8861  0.8470
 9363SOL     OW39724   0.648   4.719   1.161 -0.6580 -0.2179 -0.4241
 9363SOL    HW139725   0.687   0.047   1.215 -0.4935 -1.6672  1.2640
 9363SOL    HW239726   0.575   4.692   1.216 -1.7652  0.7986 -1.3907
 9364SOL     OW39727   1.212   4.410  17.738 -0.3490 -0.2599 -0.1957
 9364SOL    HW139728   1.273   4.428   0.051 -0.2788  1.3549 -0.6792
 9364SOL    HW239729   1.135   4.372   0.023  1.1565  0.7965  3.4087
 9365SOL     OW39730   3.364   2.898  11.224 -0.1952  0.0447  0.5075
 9365SOL    HW139731   3.388   2.979  11.269 -1.6330  0.5558  0.3513
 9365SOL    HW239732   3.342   2.931  11.137  1.6353  1.9264  0.7609
 9366SOL     OW39733   2.486   3.639  16.763 -0.3915 -0.6041  0.2014
 9366SOL    HW139734   2.420   3.658  16.697 -0.0334  1.5534  0.4536
 9366SOL    HW239735   2.452   3.685  16.840  1.3465  1.3745 -0.2029
 9367SOL     OW39736   3.347   0.890   3.108  0.0947 -0.0721  0.0103
 9367SOL    HW139737   3.297   0.853   3.181 -1.2734 -1.0435 -1.4161
 9367SOL    HW239738   3.431   0.847   3.128 -0.8800 -1.5522  0.9628
 9368SOL     OW39739   3.431   1.304  17.439 -0.3933  0.1371  0.4731
 9368SOL    HW139740   3.402   1.247  17.510  0.7642 -1.5631 -0.4315
 9368SOL    HW239741   3.512   1.264  17.407  0.6845  2.8073 -0.1622
 9369SOL     OW39742   2.362   0.638   4.018 -0.9115  0.5141 -0.1514
 9369SOL    HW139743   2.309   0.698   3.965 -1.2098  0.3133 -0.0851
 9369SOL    HW239744   2.415   0.697   4.071 -2.1131  0.2222  1.3719
 9370SOL     OW39745   3.573   0.951   6.933 -0.2056 -0.3801  0.2030
 9370SOL    HW139746   3.518   0.989   6.865  0.9388 -0.3153 -0.6811
 9370SOL    HW239747   3.661   0.957   6.894  0.4776  0.5760  1.8813
 9371SOL     OW39748   3.704   0.829  17.621 -0.3488  0.2573  0.1537
 9371SOL    HW139749   3.788   0.783  17.627 -0.9797 -0.8431  0.4554
 9371SOL    HW239750   3.711   0.886  17.697  1.7058 -1.1958  1.0502
 9372SOL     OW39751   2.075   1.808   6.084  0.1887  0.2979 -0.7746
 9372SOL    HW139752   2.063   1.891   6.130  1.0400  1.0663 -1.9412
 9372SOL    HW239753   2.090   1.751   6.159  1.6308  1.8865  0.1314
 9373SOL     OW39754   3.265   1.603   7.811  0.2041  0.7362  0.1870
 9373SOL    HW139755   3.239   1.577   7.899 -0.8998  2.0837  0.2444
 9373SOL    HW239756   3.305   1.527   7.767 -0.0211  3.1042 -4.1144
 9374SOL     OW39757   1.722   2.546   3.275  0.6686 -0.3387 -0.2508
 9374SOL    HW139758   1.666   2.585   3.342 -0.1456 -1.5788 -0.2025
 9374SOL    HW239759   1.711   2.609   3.205  1.4563 -0.4475 -0.4724
 9375SOL     OW39760   3.371   4.389   4.567 -0.3955  0.0284  0.5402
 9375SOL    HW139761   3.358   4.368   4.660  2.4418  1.9270  1.3658
 9375SOL    HW239762   3.378   4.300   4.531  0.3670  0.0233  0.7022
 9376SOL     OW39763   3.946   2.323   0.809  0.4183 -0.5889 -0.1764
 9376SOL    HW139764   3.863   2.278   0.792  0.6182 -1.6350  1.5533
 9376SOL    HW239765   3.970   2.363   0.726  2.3352 -0.2322  0.5303
 9377SOL     OW39766   1.194   2.134  10.565 -0.2365  1.4109 -0.1174
 9377SOL    HW139767   1.263   2.198  10.584  0.5826  0.4376  0.2324
 9377SOL    HW239768   1.197   2.145  10.470 -0.6412 -0.1311 -0.3039
 9378SOL     OW39769   0.161   3.487   5.100 -0.1101  0.2020  0.2621
 9378SOL    HW139770   0.246   3.517   5.067  1.2094 -1.8031  1.8700
 9378SOL    HW239771   0.138   3.571   5.141 -0.7937  0.0603  0.1644
 9379SOL     OW39772   1.721   3.825   5.358  0.0138 -0.0626  0.1320
 9379SOL    HW139773   1.806   3.788   5.380  0.7394  0.3505 -1.9542
 9379SOL    HW239774   1.668   3.807   5.436 -1.1037 -0.7040 -0.7705
 9380SOL     OW39775   2.994   3.517  10.548 -0.6163  0.9020 -0.3414
 9380SOL    HW139776   3.027   3.605  10.567 -1.1179  1.2833 -1.2658
 9380SOL    HW239777   2.916   3.532  10.495 -1.6927  2.4250  1.6735
 9381SOL     OW39778   2.750   3.632   3.443 -0.6882  0.1404 -0.2569
 9381SOL    HW139779   2.833   3.584   3.451 -1.2693 -0.7518  0.4754
 9381SOL    HW239780   2.706   3.588   3.516  0.5517 -0.2088  0.2865
 9382SOL     OW39781   2.710   1.868   9.602  0.2058 -0.6382 -0.0013
 9382SOL    HW139782   2.619   1.847   9.584 -0.2242 -0.5641  2.0426
 9382SOL    HW239783   2.752   1.782   9.601  0.1301 -0.7148  2.3758
 9383SOL     OW39784   1.479   0.790   7.168 -0.4187  0.3008  0.6146
 9383SOL    HW139785   1.501   0.860   7.229 -0.4291 -0.0618  1.0290
 9383SOL    HW239786   1.524   0.714   7.205 -0.4841 -0.0450  0.0016
 9384SOL     OW39787   1.686   2.959   1.426 -0.1355 -0.3884 -0.1612
 9384SOL    HW139788   1.771   2.942   1.385  0.9424 -0.8885  2.3027
 9384SOL    HW239789   1.692   3.054   1.439  1.1913 -0.6080  0.7891
 9385SOL     OW39790   0.815   2.284   4.000  0.2761  0.0655  0.9051
 9385SOL    HW139791   0.879   2.316   4.064  1.3526 -0.4124  0.0762
 9385SOL    HW239792   0.829   2.190   3.989 -0.7913  0.0684 -0.5412
 9386SOL     OW39793   0.347   2.747  16.281 -0.0096 -0.0028  0.6768
 9386SOL    HW139794   0.255   2.771  16.292  0.6738  2.6235  0.7518
 9386SOL    HW239795   0.390   2.819  16.235  0.0832 -1.6813 -1.8735
 9387SOL     OW39796   3.357   4.671   4.628 -0.5012 -0.1207 -0.1591
 9387SOL    HW139797   3.371   4.578   4.614 -1.1002 -0.1123 -0.8575
 9387SOL    HW239798   3.440   4.718   4.639 -0.3531 -0.9256  2.1221
 9388SOL     OW39799   0.703   2.963   5.303  0.2295  0.1471 -0.0237
 9388SOL    HW139800   0.634   3.027   5.318  0.8736  1.0070 -0.7832
 9388SOL    HW239801   0.682   2.935   5.214  2.2103  4.2940 -1.7726
 9389SOL     OW39802   4.559   4.498   8.135 -0.0707  0.4684 -0.7497
 9389SOL    HW139803   4.647   4.533   8.124  0.0706  0.3798  0.1378
 9389SOL    HW239804   4.561   4.482   8.229  2.6651  1.1029 -0.6967
 9390SOL     OW39805   0.314   0.954   4.987  0.5868  0.2781  0.2989
 9390SOL    HW139806   0.369   1.029   5.011  0.6201  0.9763 -1.9420
 9390SOL    HW239807   0.346   0.931   4.900  0.6256  1.4054  0.0112
 9391SOL     OW39808   3.341   3.825   4.741  0.0653 -0.2455 -0.1417
 9391SOL    HW139809   3.299   3.910   4.744 -1.3745 -0.9415 -0.7363
 9391SOL    HW239810   3.371   3.814   4.650  2.8188  0.4401  0.6608
 9392SOL     OW39811   3.171   0.013   7.158 -0.0930 -0.4943  0.1481
 9392SOL    HW139812   3.225   0.059   7.222  0.1464  0.2757 -0.6084
 9392SOL    HW239813   3.174   0.075   7.085  0.2707 -1.1362 -0.3795
 9393SOL     OW39814   0.839   2.495   1.683 -0.3849 -0.4720 -0.0581
 9393SOL    HW139815   0.904   2.484   1.753 -2.0687 -1.7032  1.3062
 9393SOL    HW239816   0.767   2.435   1.700 -0.5419 -1.0994 -2.8932
 9394SOL     OW39817   0.716   3.553  13.282  0.0172 -0.4529 -0.2313
 9394SOL    HW139818   0.662   3.632  13.282 -1.3928 -1.4114 -0.1204
 9394SOL    HW239819   0.799   3.581  13.244 -0.4773  0.9420 -0.2902
 9395SOL     OW39820   3.787   0.463   3.667  0.2995  0.8050 -0.8010
 9395SOL    HW139821   3.838   0.482   3.745  0.9544 -1.5413 -0.6625
 9395SOL    HW239822   3.742   0.547   3.652 -0.4223  0.3426 -1.2016
 9396SOL     OW39823   4.036   2.511  15.530 -0.2814  0.1131 -0.5360
 9396SOL    HW139824   4.002   2.587  15.577 -0.1101 -0.1756  0.0595
 9396SOL    HW239825   4.130   2.527  15.523 -0.7566  2.9410 -0.4439
 9397SOL     OW39826   2.340   0.960   4.754 -0.4260  0.3794  0.0528
 9397SOL    HW139827   2.257   0.931   4.717 -0.0395  1.7641 -1.8786
 9397SOL    HW239828   2.396   0.898   4.706 -0.1364  1.0832 -0.5149
 9398SOL     OW39829   1.775   3.835   8.837  0.2746  0.1149 -0.3587
 9398SOL    HW139830   1.725   3.889   8.898 -2.3975 -1.9051 -0.7654
 9398SOL    HW239831   1.742   3.869   8.754 -1.3336 -1.0049 -0.1686
 9399SOL     OW39832   4.109   3.408   8.603 -0.2604  0.2517 -0.1007
 9399SOL    HW139833   4.154   3.335   8.562  1.4334  0.2868  1.6880
 9399SOL    HW239834   4.177   3.464   8.640  2.4558 -1.7945 -2.0305
 9400SOL     OW39835   1.947   1.434   6.868  0.0617  0.6852 -0.1930
 9400SOL    HW139836   1.898   1.466   6.943  0.2996  0.4363  0.0664
 9400SOL    HW239837   1.997   1.505   6.827 -1.2669  0.6993 -1.7869
 9401SOL     OW39838   4.500   1.824  13.291 -0.2241  0.3062  0.5111
 9401SOL    HW139839   4.556   1.800  13.216 -1.4554 -1.0046 -0.0061
 9401SOL    HW239840   4.550   1.899  13.321 -0.4598  2.1057 -3.5606
 9402SOL     OW39841   1.471   1.864   7.697  0.2521 -0.0490  0.4447
 9402SOL    HW139842   1.514   1.950   7.699  1.0293 -0.4074 -1.5559
 9402SOL    HW239843   1.425   1.874   7.781  0.9046 -0.7365  0.8780
 9403SOL     OW39844   0.653   0.997   4.208 -0.3230 -0.4362 -0.4975
 9403SOL    HW139845   0.608   1.009   4.124  1.9667 -1.7657 -1.9131
 9403SOL    HW239846   0.677   1.082   4.245  0.1676 -0.2933 -1.1525
 9404SOL     OW39847   1.493   2.882  16.786  0.5287  0.4545 -0.0890
 9404SOL    HW139848   1.509   2.921  16.700 -0.9927 -0.5744 -0.8465
 9404SOL    HW239849   1.569   2.830  16.811  1.6986  1.1337 -2.2633
 9405SOL     OW39850   4.347   3.196  15.377  0.0822 -0.4307  0.7672
 9405SOL    HW139851   4.308   3.121  15.332  1.2025 -0.2290 -0.5492
 9405SOL    HW239852   4.408   3.218  15.306 -0.7754  0.3663  0.2807
 9406SOL     OW39853   3.132   4.583   0.255 -0.3421  0.0018 -0.0544
 9406SOL    HW139854   3.218   4.620   0.234  0.0857 -0.4352  0.9229
 9406SOL    HW239855   3.069   4.655   0.251  1.1302  1.3941  1.4316
 9407SOL     OW39856   4.732   1.144   1.542  0.6286  0.0538 -0.1939
 9407SOL    HW139857   0.058   1.157   1.473  0.8759 -0.4046 -0.0408
 9407SOL    HW239858   4.655   1.126   1.487  1.5999  0.2162 -1.6219
 9408SOL     OW39859   3.470   3.590  17.456 -0.2492  0.0330  0.0782
 9408SOL    HW139860   3.505   3.502  17.441  2.4043  1.0211  0.3504
 9408SOL    HW239861   3.557   3.630  17.453  0.6112 -1.7553  0.8131
 9409SOL     OW39862   3.690   2.341  15.161 -0.2696  0.0607 -0.1788
 9409SOL    HW139863   3.717   2.335  15.070  0.2372  1.5589 -0.1110
 9409SOL    HW239864   3.776   2.347  15.201 -0.5956  0.4676  0.4624
 9410SOL     OW39865   0.167   0.241  11.001  0.0230 -0.0877 -0.2659
 9410SOL    HW139866   0.207   0.176  11.058  1.1818  1.3105  0.5213
 9410SOL    HW239867   0.245   0.287  10.971  1.4953  0.2728  4.0730
 9411SOL     OW39868   0.513   1.590   1.568  0.0714 -0.1949  0.2905
 9411SOL    HW139869   0.422   1.560   1.577 -0.1440 -0.3557 -2.2799
 9411SOL    HW239870   0.541   1.522   1.506 -1.0437  0.3238 -0.7945
 9412SOL     OW39871   4.006   2.194   6.655 -0.8036  0.1172  0.5457
 9412SOL    HW139872   3.914   2.206   6.630 -0.7508  1.1291  0.8573
 9412SOL    HW239873   4.032   2.284   6.636  0.4419 -0.2844  0.3408
 9413SOL     OW39874   3.912   1.330  17.553  0.1005  0.3903  0.1873
 9413SOL    HW139875   3.958   1.409  17.583  0.4897 -1.2452  3.9818
 9413SOL    HW239876   3.890   1.300  17.641  1.5287 -2.1156 -0.3063
 9414SOL     OW39877   3.792   0.610  13.102  0.0644  0.6615 -0.0521
 9414SOL    HW139878   3.698   0.618  13.113 -0.2209  0.0161 -2.0105
 9414SOL    HW239879   3.804   0.567  13.017  2.6401  0.4567  0.4100
 9415SOL     OW39880   4.586   2.314   6.706 -0.3751  0.8969  0.0848
 9415SOL    HW139881   4.498   2.305   6.743  0.0444 -1.6178  0.5042
 9415SOL    HW239882   4.633   2.317   6.790  0.5111  0.7321 -0.4131
 9416SOL     OW39883   1.540   0.829   6.893 -0.4804 -0.0209  0.2928
 9416SOL    HW139884   1.458   0.879   6.894  0.0494  0.8775 -0.6010
 9416SOL    HW239885   1.538   0.784   6.978 -2.0935  0.4110  0.4867
 9417SOL     OW39886   2.265   3.436  17.081  0.4182 -0.1549  0.2153
 9417SOL    HW139887   2.286   3.438  17.174 -0.8588  1.8842  0.4558
 9417SOL    HW239888   2.302   3.352  17.053  0.2986 -0.0053 -0.3942
 9418SOL     OW39889   1.606   1.877  10.867  0.0189  0.0278 -0.3226
 9418SOL    HW139890   1.626   1.969  10.887 -1.4338  0.6097 -1.5356
 9418SOL    HW239891   1.664   1.825  10.922 -1.2434 -0.4393  0.5778
 9419SOL     OW39892   0.856   4.413   8.141  0.5144 -0.0425 -0.2625
 9419SOL    HW139893   0.794   4.461   8.086  0.0578  1.6863  1.7116
 9419SOL    HW239894   0.796   4.347   8.177 -0.8276  0.9143 -0.7245
 9420SOL     OW39895   3.094   1.940   3.234 -0.2076  0.5059  0.5404
 9420SOL    HW139896   3.112   2.012   3.295  1.6068 -0.7674  1.5112
 9420SOL    HW239897   3.086   1.868   3.297 -0.0896  1.8636  2.1114
 9421SOL     OW39898   1.947   1.101   2.556 -0.1769 -0.2701  0.2177
 9421SOL    HW139899   1.913   1.169   2.498  1.9740  0.4890 -0.1691
 9421SOL    HW239900   1.970   1.036   2.491 -1.7791 -0.5621 -0.0606
 9422SOL     OW39901   3.287   2.640   8.267 -1.0238  0.0012 -0.0476
 9422SOL    HW139902   3.306   2.729   8.298 -1.9469 -0.2739  1.3541
 9422SOL    HW239903   3.291   2.651   8.172 -1.7591  0.3162 -0.0441
 9423SOL     OW39904   3.791   3.396   6.178 -0.2193  0.3138 -0.3657
 9423SOL    HW139905   3.813   3.319   6.126 -0.8006  1.1183 -1.8171
 9423SOL    HW239906   3.730   3.446   6.123 -1.2888 -1.3393 -0.6737
 9424SOL     OW39907   1.843   0.791   2.928  0.1588 -0.4838  0.0330
 9424SOL    HW139908   1.866   0.881   2.908  0.8241 -0.8590 -0.9076
 9424SOL    HW239909   1.830   0.799   3.023 -0.9605 -0.4353 -0.1252
 9425SOL     OW39910   2.520   4.479   8.742 -0.1495  0.5625  0.6502
 9425SOL    HW139911   2.482   4.439   8.821 -1.1414  1.1933  0.4988
 9425SOL    HW239912   2.588   4.415   8.722 -0.9489  0.0149 -0.2431
 9426SOL     OW39913   4.330   1.497   9.290  0.1530  0.3840  0.6296
 9426SOL    HW139914   4.383   1.469   9.364  0.1931  0.8925  0.7980
 9426SOL    HW239915   4.400   1.523   9.229 -0.3730  2.0072  0.7012
 9427SOL     OW39916   4.256   4.452  10.490 -0.3996 -0.2900  0.2478
 9427SOL    HW139917   4.217   4.495  10.565 -1.0387  0.0599 -0.2823
 9427SOL    HW239918   4.289   4.531  10.448 -1.3951 -0.9313 -1.7558
 9428SOL     OW39919   4.107   2.512   7.390  0.1910 -0.5809 -0.0758
 9428SOL    HW139920   4.035   2.487   7.449  0.8072 -1.9684  0.0834
 9428SOL    HW239921   4.074   2.471   7.310 -1.4167  0.1345  0.2106
 9429SOL     OW39922   1.859   3.880  11.422 -0.4622 -0.1925 -0.2362
 9429SOL    HW139923   1.794   3.945  11.449 -0.9116 -0.6019 -0.3176
 9429SOL    HW239924   1.841   3.884  11.328 -0.0417  1.1863 -0.2592
 9430SOL     OW39925   3.571   2.456   8.063  0.8428  0.2907  0.6141
 9430SOL    HW139926   3.563   2.404   8.142 -1.9984  0.5775  0.5204
 9430SOL    HW239927   3.615   2.537   8.089 -0.0007  0.6281  1.0030
 9431SOL     OW39928   3.936   2.924   4.730  0.3321  0.2844 -0.8824
 9431SOL    HW139929   3.913   2.856   4.794  1.3207  1.0729  0.3060
 9431SOL    HW239930   3.974   2.870   4.661  0.2729  0.9851 -1.4572
 9432SOL     OW39931   0.121   3.713   1.316 -0.2834  0.3089 -0.1596
 9432SOL    HW139932   0.178   3.787   1.336 -0.5218  0.7851 -1.2570
 9432SOL    HW239933   0.181   3.638   1.314 -0.3582  0.2771 -1.7919
 9433SOL     OW39934   4.205   1.838   7.535 -0.2579  0.2218  0.0720
 9433SOL    HW139935   4.235   1.889   7.460  0.7786 -0.8710 -0.2420
 9433SOL    HW239936   4.184   1.912   7.593 -0.2149  0.9297 -0.8210
 9434SOL     OW39937   1.425   2.973  10.183  0.2845 -0.3822  0.0058
 9434SOL    HW139938   1.438   2.973  10.088 -0.9100  0.2024 -0.1591
 9434SOL    HW239939   1.362   2.902  10.189  0.1956 -0.1011  2.5763
 9435SOL     OW39940   4.256   1.653   7.150 -0.8442  0.3100  0.6156
 9435SOL    HW139941   4.249   1.705   7.070 -1.0272  1.5907  1.4486
 9435SOL    HW239942   4.352   1.653   7.158 -0.5275 -0.5297 -3.4917
 9436SOL     OW39943   3.485   1.963   2.621  0.6274  0.4868  0.6576
 9436SOL    HW139944   3.401   1.971   2.577  0.9032  0.5760  0.1511
 9436SOL    HW239945   3.493   2.046   2.669 -0.0217  1.4271 -0.8462
 9437SOL     OW39946   4.322   1.248   5.806  0.3809 -0.2052  0.3771
 9437SOL    HW139947   4.351   1.336   5.827 -1.2157  0.0893  1.3180
 9437SOL    HW239948   4.316   1.200   5.889 -0.2435  0.5039  0.7375
 9438SOL     OW39949   4.106   3.668   4.348  0.4477 -0.4221  0.0321
 9438SOL    HW139950   4.196   3.659   4.317  0.8114  1.4815  0.5381
 9438SOL    HW239951   4.126   3.701   4.436  0.5885 -2.9650  0.9549
 9439SOL     OW39952   1.406   0.261   8.159  0.1921 -0.3262 -0.6092
 9439SOL    HW139953   1.424   0.177   8.116  3.1341 -0.4258  0.7923
 9439SOL    HW239954   1.327   0.290   8.113 -1.0102  0.3134  1.8680
 9440SOL     OW39955   0.269   1.100   3.965 -0.2446  0.7937  0.1192
 9440SOL    HW139956   0.233   1.171   3.912 -1.1025  0.0926 -0.2319
 9440SOL    HW239957   0.357   1.116   3.929 -0.9820  3.1087 -0.6847
 9441SOL     OW39958   3.386   0.469   1.373 -0.2547 -0.3595 -0.7129
 9441SOL    HW139959   3.381   0.490   1.466 -2.1996  0.6793 -1.0608
 9441SOL    HW239960   3.425   0.382   1.376 -2.9671 -1.5664 -0.9958
 9442SOL     OW39961   1.933   2.962   6.814 -0.5141  0.2690 -0.6973
 9442SOL    HW139962   1.932   2.879   6.862  1.3867 -0.8617 -2.6510
 9442SOL    HW239963   2.026   2.976   6.834 -1.6745  1.4319  3.8426
 9443SOL     OW39964   1.875   1.478   3.838  0.4778 -0.3881 -0.2779
 9443SOL    HW139965   1.820   1.439   3.906 -0.2025  1.8166  0.4363
 9443SOL    HW239966   1.856   1.408   3.776 -1.1597 -0.6197  0.4673
 9444SOL     OW39967   2.265   1.047   5.220 -0.4598 -0.6237  0.3402
 9444SOL    HW139968   2.337   0.990   5.248 -0.4668 -1.1427 -0.6783
 9444SOL    HW239969   2.235   0.996   5.145  3.4899 -0.8563 -1.0886
 9445SOL     OW39970   1.452   0.323   1.879  0.0929 -0.2646 -0.0602
 9445SOL    HW139971   1.399   0.270   1.938 -0.4656  0.0746 -0.2570
 9445SOL    HW239972   1.518   0.353   1.942  0.1248 -0.4082 -0.0252
 9446SOL     OW39973   0.199   0.405   8.579  0.7475 -0.3269  0.6002
 9446SOL    HW139974   0.108   0.382   8.599 -0.0301 -0.1841 -2.8406
 9446SOL    HW239975   0.203   0.498   8.555 -1.2552 -0.9486 -2.1920
 9447SOL     OW39976   0.104   3.444   2.231 -0.4841 -1.1050 -0.1837
 9447SOL    HW139977   0.154   3.431   2.151  1.6172  1.1262  0.7674
 9447SOL    HW239978   0.115   3.366   2.286 -0.6944 -2.6217 -2.3089
 9448SOL     OW39979   1.615   0.115   4.221 -0.1826 -0.0134  0.1293
 9448SOL    HW139980   1.584   0.115   4.312  0.4203  0.9549  0.3410
 9448SOL    HW239981   1.541   0.138   4.165  0.6135 -1.2855 -1.4386
 9449SOL     OW39982   3.652   3.000   7.885  0.1481 -0.3635 -0.1766
 9449SOL    HW139983   3.646   2.968   7.975 -0.1004 -1.4939 -0.5874
 9449SOL    HW239984   3.735   3.047   7.885  0.3334 -0.6648 -1.7883
 9450SOL     OW39985   0.535   2.103   3.001  0.1635 -0.3219 -0.8407
 9450SOL    HW139986   0.504   2.154   2.926  0.0565 -0.6667 -1.0334
 9450SOL    HW239987   0.577   2.035   2.948  2.1476  1.0924 -1.0604
 9451SOL     OW39988   3.180   3.414   6.035 -0.0899  0.1269  0.7237
 9451SOL    HW139989   3.146   3.327   6.016  1.0818 -0.2120  0.1498
 9451SOL    HW239990   3.238   3.417   5.959 -0.7622 -0.5606  0.1796
 9452SOL     OW39991   4.520   0.259  15.281 -0.1717 -0.0522 -0.1346
 9452SOL    HW139992   4.452   0.215  15.230 -0.9151  1.2827 -0.2717
 9452SOL    HW239993   4.559   0.179  15.316  3.6835  2.6225  1.7089
 9453SOL     OW39994   1.383   2.269   4.235  0.1580  0.1373  0.0865
 9453SOL    HW139995   1.407   2.318   4.314  0.2759  0.5380 -0.1968
 9453SOL    HW239996   1.439   2.314   4.171  1.2328 -0.3163  0.7094
 9454SOL     OW39997   1.152   2.203  10.045  0.0113 -0.5177 -0.4600
 9454SOL    HW139998   1.152   2.161   9.959 -1.2544 -1.3913 -0.0277
 9454SOL    HW239999   1.063   2.200  10.080  0.9659 -0.0604  1.9890
 9455SOL     OW40000   0.789   2.549   7.254 -0.2417  0.0194 -0.3682
 9455SOL    HW140001   0.788   2.592   7.168  2.0183  1.0112  0.0896
 9455SOL    HW240002   0.753   2.617   7.311  0.1320  1.3837 -1.7618
 9456SOL     OW40003   4.648   0.837   7.315  0.0481 -0.3411 -0.1389
 9456SOL    HW140004   4.571   0.873   7.360  1.1575  0.7312  0.9080
 9456SOL    HW240005   4.664   0.763   7.373  0.5192 -0.0711  0.0722
 9457SOL     OW40006   4.149   3.982  14.138 -0.0962  0.1813  0.4166
 9457SOL    HW140007   4.196   3.973  14.221  0.4211 -0.3555  0.0612
 9457SOL    HW240008   4.212   4.036  14.090 -0.5381  1.3603  1.1661
 9458SOL     OW40009   3.141   4.181  13.261 -0.1118  0.1268 -0.2888
 9458SOL    HW140010   3.163   4.093  13.231 -1.5384 -0.1106 -0.6493
 9458SOL    HW240011   3.046   4.189  13.274  0.4725  1.9373  2.9920
 9459SOL     OW40012   1.040   4.485  15.033 -0.0254 -0.0545 -0.0466
 9459SOL    HW140013   1.014   4.473  15.124 -0.6313  1.5738 -0.0093
 9459SOL    HW240014   0.975   4.431  14.986 -0.1926 -0.8576  1.1025
 9460SOL     OW40015   3.641   3.080   6.124  0.9163  0.5289 -0.1459
 9460SOL    HW140016   3.722   3.091   6.075  1.4087 -2.1142  0.0604
 9460SOL    HW240017   3.575   3.120   6.068  0.5543 -0.5691 -0.4979
 9461SOL     OW40018   1.620   4.213   6.244 -0.1949  0.7044 -0.3905
 9461SOL    HW140019   1.593   4.204   6.335  0.6560  2.3357  0.0352
 9461SOL    HW240020   1.713   4.231   6.258 -0.2101 -0.2095  0.8985
 9462SOL     OW40021   3.791   0.331   7.818 -0.6983 -0.7672  0.3472
 9462SOL    HW140022   3.781   0.284   7.735 -1.8223  2.7509 -1.4861
 9462SOL    HW240023   3.881   0.361   7.808 -0.7069 -0.8509  0.0179
 9463SOL     OW40024   2.648   0.013   2.620  0.4735 -0.3313 -0.1771
 9463SOL    HW140025   2.724   0.065   2.646 -0.8362  1.2101  0.5475
 9463SOL    HW240026   2.697   4.677   2.587  1.5882 -0.6482  2.1911
 9464SOL     OW40027   4.473   2.895   8.800 -0.0489 -0.1032  0.3207
 9464SOL    HW140028   4.474   2.972   8.857 -0.3935 -0.2394  0.5120
 9464SOL    HW240029   4.383   2.863   8.804 -0.1539  0.0221 -1.3283
 9465SOL     OW40030   2.816   0.248   1.875 -0.1726 -0.6576 -0.2277
 9465SOL    HW140031   2.779   0.165   1.846  0.1225 -0.1852 -1.9108
 9465SOL    HW240032   2.903   0.240   1.836  1.0176  2.4367  1.7930
 9466SOL     OW40033   1.284   0.857   2.987 -0.3570  0.0500 -0.1250
 9466SOL    HW140034   1.376   0.876   3.009 -0.2687 -1.9078  1.1388
 9466SOL    HW240035   1.241   0.894   3.064  0.3570  1.2852 -0.3164
 9467SOL     OW40036   2.442   1.756   5.174 -0.1472  0.6594  0.0528
 9467SOL    HW140037   2.509   1.695   5.203 -1.0340 -0.7001 -0.7926
 9467SOL    HW240038   2.361   1.711   5.197 -0.6345  1.8482  0.6677
 9468SOL     OW40039   4.269   1.908   4.135 -0.9514  0.2479 -0.5933
 9468SOL    HW140040   4.283   1.935   4.044 -1.8560  0.9185 -0.5340
 9468SOL    HW240041   4.331   1.970   4.174 -0.0039 -0.2313 -1.3632
 9469SOL     OW40042   2.851   1.623   8.707  0.2316 -0.1681 -0.4806
 9469SOL    HW140043   2.804   1.697   8.744 -1.4030 -1.4457  0.0169
 9469SOL    HW240044   2.784   1.554   8.706  0.2266 -0.1228 -2.7535
 9470SOL     OW40045   1.644   3.867   4.301  0.1622 -0.4409  0.2540
 9470SOL    HW140046   1.671   3.905   4.218  2.0703  0.2435  1.1984
 9470SOL    HW240047   1.568   3.826   4.258 -0.3711  1.5136 -0.6430
 9471SOL     OW40048   3.642   1.492   4.498 -0.0649  0.2086  0.0629
 9471SOL    HW140049   3.686   1.542   4.566  1.6573 -1.0306 -0.1540
 9471SOL    HW240050   3.722   1.456   4.462  0.0707  0.7147 -0.1432
 9472SOL     OW40051   4.554   1.177   1.340 -0.5004 -0.1677  0.0490
 9472SOL    HW140052   4.459   1.169   1.330 -0.5073  1.3930 -1.1147
 9472SOL    HW240053   4.582   1.132   1.260  0.9530 -1.7419  1.4240
 9473SOL     OW40054   1.804   0.810   8.433 -0.8720 -0.6930  0.3946
 9473SOL    HW140055   1.826   0.900   8.406 -3.0335 -0.5009 -0.7350
 9473SOL    HW240056   1.732   0.805   8.370 -0.2393  3.4837 -0.7004
 9474SOL     OW40057   2.327   1.797   9.901 -0.3521  0.1531 -0.0527
 9474SOL    HW140058   2.272   1.743   9.959  0.1322 -0.1767  0.0965
 9474SOL    HW240059   2.315   1.884   9.939 -1.4319 -0.2030  0.4311
 9475SOL     OW40060   0.707   0.724   7.868  0.6480 -0.0506  0.4371
 9475SOL    HW140061   0.679   0.706   7.958 -2.0748  0.0315 -0.3853
 9475SOL    HW240062   0.626   0.697   7.825  0.8035 -2.9840  1.9221
 9476SOL     OW40063   3.106   2.423   6.523  0.7329  0.0034 -0.1272
 9476SOL    HW140064   3.120   2.348   6.581 -1.6952 -1.2741 -1.2117
 9476SOL    HW240065   3.069   2.488   6.583 -1.4690 -2.5754  1.3016
 9477SOL     OW40066   0.111   1.982   2.953 -0.2461 -0.4871  0.0002
 9477SOL    HW140067   0.036   2.006   3.008 -1.2388 -2.7207 -0.3935
 9477SOL    HW240068   0.180   2.013   3.012 -0.3719  0.1981 -0.2087
 9478SOL     OW40069   1.656   3.945   4.588  0.0251 -0.0914  0.7193
 9478SOL    HW140070   1.702   4.013   4.540  0.8092 -0.3909  1.0571
 9478SOL    HW240071   1.596   3.904   4.525 -0.4670  1.1492  0.3812
 9479SOL     OW40072   3.918   3.427   4.739  0.1792 -0.1979 -0.1707
 9479SOL    HW140073   3.908   3.396   4.649  2.0017 -0.4286 -0.2901
 9479SOL    HW240074   3.828   3.421   4.772 -0.4289 -1.1012 -2.0117
 9480SOL     OW40075   3.638   2.435   5.745 -0.4482  0.4317  0.1724
 9480SOL    HW140076   3.702   2.373   5.711 -1.0878  0.1889 -0.5913
 9480SOL    HW240077   3.667   2.508   5.690  1.2099 -1.3906 -1.4056
 9481SOL     OW40078   0.592   0.930   8.118  0.4863 -0.1042 -0.3972
 9481SOL    HW140079   0.499   0.930   8.143  0.6662  3.0485  0.2231
 9481SOL    HW240080   0.627   0.846   8.146 -0.3988  0.0118  1.0628
 9482SOL     OW40081   2.083   2.131   2.976  0.8032  0.2844  0.5727
 9482SOL    HW140082   2.075   2.225   2.961  0.7420  0.2884  0.6312
 9482SOL    HW240083   2.007   2.106   3.029 -0.3364  1.7231 -0.3712
 9483SOL     OW40084   0.432   0.462   6.012 -0.0264 -0.3556  0.2560
 9483SOL    HW140085   0.425   0.555   5.991 -0.3955 -0.3655  0.3418
 9483SOL    HW240086   0.522   0.453   6.043  1.0015 -0.8017 -2.8889
 9484SOL     OW40087   0.660   3.617  11.015 -0.5325 -0.2804  0.1055
 9484SOL    HW140088   0.718   3.690  10.992  1.5239 -1.2550  2.1174
 9484SOL    HW240089   0.699   3.550  10.959  1.1622 -0.7745  1.8559
 9485SOL     OW40090   2.904   2.135   4.433 -0.0240  0.4088  0.0628
 9485SOL    HW140091   2.993   2.121   4.466  0.3783  0.5077 -0.9738
 9485SOL    HW240092   2.851   2.135   4.513 -1.0879  2.6528 -0.6602
 9486SOL     OW40093   1.059   3.591   6.369 -0.0773  0.6308  0.3902
 9486SOL    HW140094   1.045   3.587   6.463 -1.1289 -1.6331  0.1409
 9486SOL    HW240095   1.039   3.682   6.350 -3.0697 -0.1651 -0.3490
 9487SOL     OW40096   3.236   0.579   1.983  0.3202 -0.3004  0.2650
 9487SOL    HW140097   3.314   0.620   2.020 -0.9218  3.6505 -1.4680
 9487SOL    HW240098   3.266   0.488   1.985 -0.5796 -0.6050  0.1545
 9488SOL     OW40099   0.778   2.777  12.954 -0.0333  0.5950  0.4120
 9488SOL    HW140100   0.848   2.803  13.014  0.0634 -1.9426  1.4422
 9488SOL    HW240101   0.789   2.682  12.963  2.1036  0.9267  1.2692
 9489SOL     OW40102   4.659   1.873  12.483  0.0550 -0.3333 -0.4975
 9489SOL    HW140103   4.573   1.849  12.517  0.0579 -0.3331 -0.4899
 9489SOL    HW240104   4.707   1.864  12.566  2.5557 -0.9469 -1.9951
 9490SOL     OW40105   4.707   0.279   3.222  0.8650  0.0972  0.5386
 9490SOL    HW140106   4.637   0.287   3.286 -0.0771  1.1036 -0.6201
 9490SOL    HW240107   0.033   0.290   3.291  0.5396 -3.0360  1.3261
 9491SOL     OW40108   4.119   2.832   8.221 -0.1080  0.1944 -0.4163
 9491SOL    HW140109   4.119   2.743   8.256  1.1846  0.2467 -0.2849
 9491SOL    HW240110   4.170   2.893   8.275  0.9025 -0.1778 -0.9402
 9492SOL     OW40111   2.672   3.216   2.294  0.2576 -0.3808 -0.8388
 9492SOL    HW140112   2.612   3.142   2.289  1.5483 -1.4481 -0.6117
 9492SOL    HW240113   2.617   3.279   2.248  0.3462  0.5635  0.3439
 9493SOL     OW40114   2.704   4.364   2.771  1.1179  0.0005 -0.1403
 9493SOL    HW140115   2.725   4.418   2.695  2.1577  1.2443  1.0102
 9493SOL    HW240116   2.710   4.427   2.844 -1.4727 -1.2507  1.1348
 9494SOL     OW40117   3.260   2.777   3.555  0.2491  0.9287 -0.4497
 9494SOL    HW140118   3.166   2.791   3.557  0.3204  1.4416 -0.8654
 9494SOL    HW240119   3.266   2.742   3.466  2.0382  0.9147 -0.3289
 9495SOL     OW40120   2.788   4.563  10.930 -0.6903 -0.3053  0.0967
 9495SOL    HW140121   2.855   4.495  10.936 -0.2238  0.1910  0.5727
 9495SOL    HW240122   2.822   4.607  11.008  0.1196 -0.3745 -0.2146
 9496SOL     OW40123   0.107   3.796  14.925 -0.0289 -0.4090  0.5666
 9496SOL    HW140124   0.071   3.883  14.905 -0.8915 -0.6364  1.0907
 9496SOL    HW240125   0.183   3.784  14.869 -0.0150  4.2974 -0.4299
 9497SOL     OW40126   2.990   3.843  16.648 -0.5863  0.3150  0.0652
 9497SOL    HW140127   2.946   3.901  16.710 -3.0201 -1.5265  0.0382
 9497SOL    HW240128   2.946   3.866  16.566 -1.7668  2.5290  1.3169
 9498SOL     OW40129   2.008   1.278   1.385 -0.9880 -0.1247 -0.1384
 9498SOL    HW140130   1.921   1.315   1.372 -1.0649 -0.9941 -2.0764
 9498SOL    HW240131   2.052   1.347   1.436 -2.0265  1.8663 -1.9241
 9499SOL     OW40132   1.845   0.747   7.689 -0.1898 -0.2638  0.1017
 9499SOL    HW140133   1.833   0.675   7.628 -0.6795 -1.1912  1.2936
 9499SOL    HW240134   1.820   0.824   7.638 -0.5027  0.1765  0.9104
 9500SOL     OW40135   1.599   0.880  12.896 -0.1867  0.2224 -0.4914
 9500SOL    HW140136   1.568   0.959  12.852  1.6971  1.6758  0.8337
 9500SOL    HW240137   1.519   0.836  12.925  1.1843 -1.5636  0.5710
 9501SOL     OW40138   1.051   3.085   1.967 -0.0429  0.6263  1.0414
 9501SOL    HW140139   1.037   3.048   2.054 -1.3728 -0.7358  0.2397
 9501SOL    HW240140   0.970   3.074   1.917  0.8171 -0.4038 -0.1013
 9502SOL     OW40141   0.818   0.005   4.230  0.2953  0.5814 -0.1453
 9502SOL    HW140142   0.880   0.013   4.303 -1.9803 -0.9406  1.9874
 9502SOL    HW240143   0.742   4.716   4.281  1.3177  0.2853  1.2298
 9503SOL     OW40144   1.290   4.694  16.820  0.0712 -0.3677  0.6609
 9503SOL    HW140145   1.370   4.660  16.780 -0.7997 -1.2673 -0.3529
 9503SOL    HW240146   1.291   0.048  16.805  1.0379 -1.0036 -3.2681
 9504SOL     OW40147   0.713   0.358   0.075  0.5538 -0.3731  0.1907
 9504SOL    HW140148   0.752   0.438   0.040  0.2817 -0.0943  0.5196
 9504SOL    HW240149   0.657   0.403   0.138  1.2078  0.3650  0.2462
 9505SOL     OW40150   0.337   0.034   4.184  0.1441 -0.0463 -0.1447
 9505SOL    HW140151   0.280   0.037   4.107  0.9364 -1.7126 -0.7713
 9505SOL    HW240152   0.295   4.719   4.250  0.6443 -1.0000 -0.6338
 9506SOL     OW40153   3.319   3.785   5.135  0.2049 -0.4854 -0.1094
 9506SOL    HW140154   3.331   3.880   5.131 -1.5530 -0.2003  1.0188
 9506SOL    HW240155   3.228   3.774   5.107 -1.1664  1.1124  3.6526
 9507SOL     OW40156   2.487   1.090  17.239 -0.5151  0.8401 -0.0565
 9507SOL    HW140157   2.454   1.168  17.283 -0.4400  1.5683 -1.3043
 9507SOL    HW240158   2.572   1.083  17.281 -1.3759 -0.6541  1.4147
 9508SOL     OW40159   2.709   0.662   2.270 -0.1001 -0.3800 -0.1690
 9508SOL    HW140160   2.657   0.703   2.338 -1.4169 -0.5636 -1.0740
 9508SOL    HW240161   2.652   0.588   2.248  0.0143 -0.3910 -0.4258
 9509SOL     OW40162   4.402   2.593   5.360  0.2455  0.2461  0.4746
 9509SOL    HW140163   4.429   2.603   5.451  2.0137  0.4468 -0.0703
 9509SOL    HW240164   4.342   2.519   5.357  1.1981 -0.5161  0.0631
 9510SOL     OW40165   2.148   3.816  16.896  0.4283 -0.0312 -0.2345
 9510SOL    HW140166   2.243   3.827  16.904  0.4494 -0.5006  0.1827
 9510SOL    HW240167   2.122   3.860  16.816 -0.5088 -2.3364 -1.2046
 9511SOL     OW40168   4.014   4.651   2.711 -0.1183  0.5932  0.0146
 9511SOL    HW140169   4.099   4.632   2.672  0.8807  1.4378  1.7667
 9511SOL    HW240170   4.043   4.642   2.802  2.3505  4.4465 -0.4101
 9512SOL     OW40171   1.306   0.298   5.183  0.2436 -0.6934  0.0833
 9512SOL    HW140172   1.239   0.270   5.121  0.4094 -0.6661 -0.1098
 9512SOL    HW240173   1.250   0.334   5.251 -1.1576  0.1474 -1.5369
 9513SOL     OW40174   1.227   0.235   0.543  0.0149  0.1332 -0.0440
 9513SOL    HW140175   1.249   0.233   0.637 -0.1841  1.0432  0.0274
 9513SOL    HW240176   1.186   0.321   0.553 -3.1463 -1.5057  0.9450
 9514SOL     OW40177   4.647   2.227   4.057 -0.0114  0.4664 -0.5963
 9514SOL    HW140178   4.701   2.186   4.126 -0.1385 -1.0778 -1.4264
 9514SOL    HW240179   4.639   2.317   4.088  1.1219 -0.2037  1.6899
 9515SOL     OW40180   1.784   0.227   2.099  0.2906  0.1634 -0.2071
 9515SOL    HW140181   1.861   0.269   2.060 -0.4392  2.2290  0.6150
 9515SOL    HW240182   1.801   0.133   2.091 -1.6552 -0.0388 -1.7928
 9516SOL     OW40183   0.434   3.349  11.843  0.1210 -0.2982  0.2877
 9516SOL    HW140184   0.383   3.381  11.769 -0.3368 -0.2113  0.6450
 9516SOL    HW240185   0.377   3.383  11.912  0.6556  0.2943  0.4403
 9517SOL     OW40186   2.852   3.289   5.954 -0.1769  0.7201  0.2829
 9517SOL    HW140187   2.898   3.358   5.906 -0.6766  1.8703  1.4350
 9517SOL    HW240188   2.779   3.334   5.997 -0.6486  0.2572 -0.0382
 9518SOL     OW40189   3.269   4.672   7.661  0.1080  0.2317 -0.7137
 9518SOL    HW140190   3.223   4.714   7.734 -0.7776 -2.6722  0.4129
 9518SOL    HW240191   3.345   4.624   7.694  0.9031  0.2128 -2.5872
 9519SOL     OW40192   4.456   2.610   3.076 -0.2377  0.0799 -0.2787
 9519SOL    HW140193   4.465   2.515   3.074  0.4167  0.1672 -1.4179
 9519SOL    HW240194   4.367   2.616   3.042 -1.0798  1.3329  2.1224
 9520SOL     OW40195   1.154   1.118  12.105  0.0224 -0.6144 -0.3607
 9520SOL    HW140196   1.176   1.105  12.013  0.3135  2.1714 -0.6916
 9520SOL    HW240197   1.148   1.033  12.149  3.3698 -0.7833 -0.2718
 9521SOL     OW40198   3.750   4.269   8.116 -0.4400 -0.5254 -0.5673
 9521SOL    HW140199   3.781   4.234   8.032 -0.5149  2.9586 -2.0517
 9521SOL    HW240200   3.833   4.310   8.142 -0.7760 -0.3077  0.1469
 9522SOL     OW40201   1.552   1.345   7.893  0.7167  0.2814 -0.2951
 9522SOL    HW140202   1.634   1.300   7.915  2.1526  2.2927 -1.6142
 9522SOL    HW240203   1.583   1.403   7.824  0.1950 -0.3810 -1.0984
 9523SOL     OW40204   0.724   4.409   2.629 -0.5888  0.1258 -0.5072
 9523SOL    HW140205   0.694   4.489   2.586 -2.6525 -0.7626 -0.7278
 9523SOL    HW240206   0.808   4.437   2.665 -1.1369 -0.5565  1.2969
 9524SOL     OW40207   4.543   1.632   4.936 -0.1990 -0.2429 -0.4915
 9524SOL    HW140208   4.607   1.606   4.870 -0.8985  0.1870 -1.3315
 9524SOL    HW240209   4.476   1.566   4.921 -0.5314  0.3993 -1.7553
 9525SOL     OW40210   1.607   1.288   6.722 -0.3821 -0.5053  0.1376
 9525SOL    HW140211   1.552   1.303   6.645 -0.0837 -0.2741 -0.0325
 9525SOL    HW240212   1.691   1.269   6.680 -1.0980 -0.6520 -1.2339
 9526SOL     OW40213   3.010   2.766   9.637 -0.2100  0.2935  0.1828
 9526SOL    HW140214   2.956   2.741   9.711  0.6725 -0.6544  0.5062
 9526SOL    HW240215   3.078   2.699   9.639 -0.0785  0.4105 -0.2863
 9527SOL     OW40216   3.290   0.008  13.565 -0.1231 -0.2057  0.2427
 9527SOL    HW140217   3.319   4.731  13.655  0.9467 -0.3630 -0.1290
 9527SOL    HW240218   3.375   0.029  13.526 -0.3521 -1.9623 -1.1719
 9528SOL     OW40219   1.533   0.487   5.023 -0.1760  0.6445  0.0180
 9528SOL    HW140220   1.510   0.573   4.988  0.8610  0.2665 -1.5578
 9528SOL    HW240221   1.463   0.426   5.001  0.8378 -0.3735 -0.3834
 9529SOL     OW40222   1.826   0.624  11.395 -0.9501 -0.1982  0.4444
 9529SOL    HW140223   1.738   0.585  11.391 -0.6468 -0.5429 -3.0529
 9529SOL    HW240224   1.875   0.545  11.419  0.2366  0.5730  0.5314
 9530SOL     OW40225   1.556   0.889   8.315  0.2588  1.0916 -0.2091
 9530SOL    HW140226   1.508   0.968   8.336 -1.1153  0.4499 -0.9182
 9530SOL    HW240227   1.490   0.827   8.346  0.6611  0.8273  0.1190
 9531SOL     OW40228   3.242   1.534   3.846  0.3320 -0.5042  0.4671
 9531SOL    HW140229   3.240   1.446   3.882  1.3807 -0.7064  0.0258
 9531SOL    HW240230   3.323   1.572   3.879 -0.1460  1.5129 -0.6013
 9532SOL     OW40231   3.098   3.694  10.246 -0.4865  0.1446  0.1559
 9532SOL    HW140232   3.096   3.742  10.163 -2.2564  1.8196  1.1696
 9532SOL    HW240233   3.008   3.663  10.253 -0.8464  1.7198  2.2727
 9533SOL     OW40234   0.641   1.686   7.793 -0.5455 -0.0842 -0.0605
 9533SOL    HW140235   0.546   1.688   7.780 -0.6639  1.9447  1.2606
 9533SOL    HW240236   0.642   1.682   7.889 -0.0607  0.6141 -0.0406
 9534SOL     OW40237   3.066   2.729   9.287  0.9099 -0.0608  0.3835
 9534SOL    HW140238   3.034   2.765   9.204  0.7220 -3.1034 -0.8854
 9534SOL    HW240239   2.988   2.684   9.321  1.4780  0.3523  2.2358
 9535SOL     OW40240   3.925   1.480   6.028 -0.5916  0.3594  0.2965
 9535SOL    HW140241   3.975   1.511   5.952 -0.6453 -1.1128 -0.3455
 9535SOL    HW240242   3.989   1.421   6.068  1.4961  2.6692  0.3471
 9536SOL     OW40243   1.042   1.867   0.659  0.1541  0.2665 -0.0865
 9536SOL    HW140244   0.957   1.910   0.656 -0.5813 -1.1619  0.6953
 9536SOL    HW240245   1.095   1.947   0.669  2.5537 -1.4307  0.7951
 9537SOL     OW40246   0.330   4.179  14.373  0.5008  0.0163  0.1552
 9537SOL    HW140247   0.357   4.263  14.337  2.1772 -0.5865 -0.0202
 9537SOL    HW240248   0.313   4.126  14.295  0.8200  3.2547 -2.1211
 9538SOL     OW40249   2.208   0.418   5.123 -0.3468  0.4163 -0.6502
 9538SOL    HW140250   2.301   0.419   5.098 -0.4601  3.8122 -0.9987
 9538SOL    HW240251   2.218   0.489   5.186  1.6362 -0.4317 -0.0114
 9539SOL     OW40252   4.385   3.399   3.138 -0.2688 -0.6447  0.2441
 9539SOL    HW140253   4.479   3.384   3.153 -0.0102 -0.0692 -0.7896
 9539SOL    HW240254   4.375   3.364   3.049  0.7110  0.0072 -0.1148
 9540SOL     OW40255   0.658   4.145   7.342  0.2685  0.1379 -0.2898
 9540SOL    HW140256   0.586   4.123   7.283 -0.6414  0.0936  0.8350
 9540SOL    HW240257   0.720   4.179   7.277  2.7239 -0.3755  1.7614
 9541SOL     OW40258   2.794   1.467   0.438 -0.3825  0.0220 -0.1727
 9541SOL    HW140259   2.884   1.460   0.408 -0.5637 -2.5599 -0.1060
 9541SOL    HW240260   2.750   1.497   0.358 -0.7984  2.5558  0.9994
 9542SOL     OW40261   3.471   0.321   4.332  0.5039 -0.4392 -0.1130
 9542SOL    HW140262   3.537   0.253   4.348  0.5508 -0.7942 -1.8793
 9542SOL    HW240263   3.511   0.399   4.371  1.1768 -0.9660  0.2561
 9543SOL     OW40264   2.629   3.806  12.624 -0.0207 -0.0323 -0.0570
 9543SOL    HW140265   2.617   3.741  12.555 -1.5127 -0.9453  1.0815
 9543SOL    HW240266   2.719   3.784  12.647 -0.0458  0.4112  0.4586
 9544SOL     OW40267   1.001   2.646   8.161 -0.0204  0.5994 -0.0797
 9544SOL    HW140268   0.939   2.574   8.173 -0.6980  0.6236 -3.4169
 9544SOL    HW240269   1.033   2.653   8.251 -0.8416  1.0464  0.1741
 9545SOL     OW40270   0.774   0.679   5.580 -0.1845  0.1128  0.1540
 9545SOL    HW140271   0.853   0.730   5.566 -2.1874  3.3654  0.6747
 9545SOL    HW240272   0.728   0.731   5.646  0.7980  1.4875 -0.2602
 9546SOL     OW40273   2.110   2.597  16.762  0.3004  1.0026 -0.0222
 9546SOL    HW140274   2.083   2.682  16.726 -0.1231  1.2121  0.7855
 9546SOL    HW240275   2.089   2.540  16.688  3.1130 -0.8179  0.5775
 9547SOL     OW40276   0.803   0.858   3.164  0.0961 -0.3846  0.1019
 9547SOL    HW140277   0.737   0.927   3.164 -0.3933 -0.8517  1.6540
 9547SOL    HW240278   0.790   0.841   3.070  0.6453  1.3923 -0.2821
 9548SOL     OW40279   3.075   2.349   8.551 -0.4995  0.0026 -0.8206
 9548SOL    HW140280   3.107   2.375   8.638 -0.3830  0.4541 -0.9982
 9548SOL    HW240281   3.115   2.262   8.550 -0.1459  0.1602 -0.0472
 9549SOL     OW40282   2.243   0.853   3.914 -0.4604 -0.3467  0.3576
 9549SOL    HW140283   2.246   0.867   3.819  0.3907 -1.0668  0.2738
 9549SOL    HW240284   2.272   0.940   3.942  2.4991 -1.8233  1.9453
 9550SOL     OW40285   0.553   2.017   8.571  0.1375  0.1011 -0.0905
 9550SOL    HW140286   0.466   2.013   8.532 -0.2883 -1.1782  1.0091
 9550SOL    HW240287   0.555   2.097   8.623 -1.5052  0.1186 -0.0610
 9551SOL     OW40288   2.921   2.499   5.719 -0.4665  0.2202 -0.0060
 9551SOL    HW140289   2.959   2.420   5.756 -0.0205 -0.2786 -1.5562
 9551SOL    HW240290   2.998   2.554   5.705 -0.2365 -0.8289 -2.8505
 9552SOL     OW40291   4.572   3.815   7.223 -0.9975 -0.0082  0.0550
 9552SOL    HW140292   4.545   3.874   7.293 -0.8197 -0.7328  0.7267
 9552SOL    HW240293   4.513   3.739   7.227  0.0152 -0.8208 -0.4624
 9553SOL     OW40294   1.505   0.132   2.251 -0.0286 -0.0529  0.0946
 9553SOL    HW140295   1.574   0.169   2.196 -1.9224 -0.5628 -2.5925
 9553SOL    HW240296   1.505   0.046   2.208 -1.5928 -0.2461  0.5157
 9554SOL     OW40297   3.662   1.740  17.657 -0.5454  0.1328  0.0061
 9554SOL    HW140298   3.743   1.748  17.708  0.6361  1.8477 -2.1417
 9554SOL    HW240299   3.674   1.661  17.604  2.1764  0.3241  0.3305
 9555SOL     OW40300   0.005   3.531   4.045  0.5835  0.2681  0.2836
 9555SOL    HW140301   4.727   3.596   3.977  1.3667  1.7015  1.4752
 9555SOL    HW240302   0.097   3.554   4.054  0.0346  1.5030  2.7463
 9556SOL     OW40303   2.168   3.574   1.152 -0.1295  0.6766 -0.0613
 9556SOL    HW140304   2.250   3.623   1.158  2.3948 -3.2196 -2.8884
 9556SOL    HW240305   2.200   3.485   1.142 -1.9537  0.1987 -1.5625
 9557SOL     OW40306   1.173   1.715   9.731 -0.0210 -0.5395 -0.2575
 9557SOL    HW140307   1.244   1.673   9.780 -1.2309  1.0776  2.8850
 9557SOL    HW240308   1.227   1.779   9.684 -2.6913  3.2261  1.7557
 9558SOL     OW40309   4.214   2.289   5.097  0.7654 -1.1218  0.2222
 9558SOL    HW140310   4.265   2.215   5.065  1.1629 -0.4711 -0.6481
 9558SOL    HW240311   4.130   2.242   5.104 -0.0750  0.3301 -0.0080
 9559SOL     OW40312   4.406   4.643   5.088  0.0889  0.1662 -0.2780
 9559SOL    HW140313   4.399   4.700   5.165  1.2456 -0.7314  0.4794
 9559SOL    HW240314   4.497   4.616   5.097  0.2441  0.4960 -0.8976
 9560SOL     OW40315   1.966   3.663   6.524  0.2569 -0.5457 -0.2662
 9560SOL    HW140316   2.025   3.735   6.544 -0.0338 -1.1632  2.7389
 9560SOL    HW240317   1.961   3.617   6.608  2.6516  0.6963  0.5352
 9561SOL     OW40318   3.242   0.481   1.661  0.1747 -0.3195  1.0439
 9561SOL    HW140319   3.290   0.398   1.663  0.1049 -0.3704  0.1895
 9561SOL    HW240320   3.150   0.459   1.647  0.4948  0.6044 -2.5339
 9562SOL     OW40321   1.239   2.783   2.516 -0.3199 -0.0654 -0.5155
 9562SOL    HW140322   1.296   2.847   2.559  1.5895 -1.8416 -0.3930
 9562SOL    HW240323   1.276   2.704   2.555  2.2783  0.8766 -1.0498
 9563SOL     OW40324   4.696   2.336  16.725 -0.0620 -0.3010  0.2027
 9563SOL    HW140325   4.608   2.361  16.753  0.7038  2.4431  0.2123
 9563SOL    HW240326   0.012   2.361  16.798 -0.0773 -1.1113  0.4927
 9564SOL     OW40327   0.613   0.846  15.541  0.2984  0.6261  0.1038
 9564SOL    HW140328   0.707   0.860  15.534  0.5049 -0.5701  0.5660
 9564SOL    HW240329   0.612   0.761  15.584  2.1413 -0.8498 -2.7318
 9565SOL     OW40330   3.066   4.068  17.625  0.7221  0.0663  0.4117
 9565SOL    HW140331   3.058   4.152  17.670 -1.9417  0.2639 -0.4198
 9565SOL    HW240332   3.107   4.006  17.686  0.7871 -0.7785 -0.4827
 9566SOL     OW40333   2.854   0.897   3.476  0.5594 -0.7942 -0.4730
 9566SOL    HW140334   2.876   0.805   3.473 -1.0784 -1.1872 -0.5798
 9566SOL    HW240335   2.828   0.919   3.387  3.1247  1.4984 -0.6577
 9567SOL     OW40336   1.541   1.552  10.742  0.2429 -0.1599  0.0741
 9567SOL    HW140337   1.632   1.563  10.769 -0.7156 -0.6237  3.4635
 9567SOL    HW240338   1.534   1.457  10.737 -2.7663 -0.0060  1.1123
 9568SOL     OW40339   1.706   0.313   4.889 -0.1670  0.0826 -0.0354
 9568SOL    HW140340   1.674   0.386   4.942  0.7195  0.2326  0.3011
 9568SOL    HW240341   1.797   0.306   4.917 -0.8866  1.9101  2.7604
 9569SOL     OW40342   2.080   1.709   4.844 -0.2410  0.4230 -0.0531
 9569SOL    HW140343   2.068   1.744   4.933 -0.0428  2.2244 -0.7346
 9569SOL    HW240344   2.150   1.645   4.850  1.6698  2.5355  0.1031
   4.74003   4.74003  17.75773
