Membrane in water
40344
    1TMC1    C1    1   1.300   0.285  11.784 -0.4662 -0.1507  0.7913
    1TMC1    C2    2   1.281   0.380  11.883  0.0824  0.0250  0.7434
    1TMC1    C3    3   1.325   0.505  11.858  0.3542  0.0198  0.0743
    1TMC1    C4    4   1.366   0.313  11.671  0.0405  0.3672  0.2095
    1TMC1    C5    5   1.411   0.441  11.653  0.3106 -0.2401  0.5801
    1TMC1    C6    6   1.389   0.541  11.744  0.1382  0.1202  0.2721
    1TMC1     C    7   1.214   0.165  11.785 -1.0264  0.0833  0.0700
    1TMC1     O    8   1.099   0.186  11.828 -0.9034  0.5783  0.5966
    1TMC1     H    9   1.224   0.349  11.970 -2.2266 -1.0158 -1.1520
    1TMC1    H1   10   1.386   0.237  11.596 -0.7845 -0.3927  0.7503
    1TMC1    H2   11   1.426   0.643  11.735  0.1146  0.0490 -0.6705
    1TMC1    C7   12   1.509   0.457  11.550  0.6371 -1.0407 -0.9076
    1TMC1    C8   13   1.295   0.618  11.946  0.1089 -0.6140  0.6620
    1TMC1    O1   14   1.571   0.357  11.523  0.1977  0.0690 -0.0291
    1TMC1    O2   15   1.313   0.735  11.910  0.6200  0.2490  0.2132
    1TMC1    O3   16   1.551   0.584  11.555  0.1573  0.7589  0.8906
    1TMC1    H3   17   1.477   0.648  11.559  2.0156  3.0104 -0.5871
    1TMC1    O5   18   1.272   0.576  12.070 -0.0430  0.2235  0.1280
    1TMC1    H5   19   1.289   0.485  12.102 -1.2668 -0.0906 -0.1183
    2MPD2     C   20   1.064   4.438  11.633 -0.3389  0.2671 -0.6091
    2MPD2    C1   21   0.990   4.539  11.688  0.2563  0.1646  0.4989
    2MPD2    C2   22   1.056   4.657  11.724 -0.1666  0.3852 -0.7987
    2MPD2    C3   23   1.191   4.675  11.694  0.3371  0.2178  0.1506
    2MPD2    C4   24   1.257   4.568  11.643  0.3789 -0.7096  0.0671
    2MPD2    C5   25   1.199   4.454  11.622 -1.1707 -0.1449  0.0407
    2MPD2     H   26   0.990   4.735  11.760  1.0403  0.0666  2.0836
    2MPD2    H1   27   1.357   4.579  11.601 -0.0559  0.2305 -0.7281
    2MPD2    H2   28   1.024   4.346  11.591 -0.5704  0.2576 -0.3656
    2MPD2    H3   29   1.259   4.375  11.578  0.0923  0.7070  0.2224
    2MPD2     N   30   1.262   0.054  11.725 -0.4191  0.1901  0.3411
    2MPD2    H5   31   1.361   0.052  11.701 -0.4915 -0.4052  0.1067
    2MPD2    N1   32   0.857   4.523  11.715 -0.7844 -0.0265  0.5055
    2MPD2    H7   33   0.797   4.601  11.742  0.7075  1.3292 -0.1124
    3TMC1    C1   34   0.102   1.023  10.753 -0.0406  0.3493 -0.0958
    3TMC1    C2   35   0.058   1.072  10.633 -0.1405  0.5582 -0.4040
    3TMC1    C3   36   0.142   1.075  10.529  0.5605 -0.0800 -0.0480
    3TMC1    C4   37   0.223   0.965  10.765  0.0552  0.7297  0.7613
    3TMC1    C5   38   0.311   0.972  10.661  0.0317  0.4915  0.3405
    3TMC1    C6   39   0.273   1.023  10.538 -0.5867 -0.2829  0.1145
    3TMC1     C   40   4.733   0.984  10.839  0.7065  0.0240 -0.3713
    3TMC1     O   41   4.725   0.863  10.863  0.0346 -0.2227  0.4820
    3TMC1     H   42   4.694   1.101  10.618  1.4914  5.3559 -2.5480
    3TMC1    H1   43   0.251   0.919  10.859 -0.8459 -1.8465 -0.2245
    3TMC1    H2   44   0.352   1.035  10.465 -1.6892 -0.4637 -1.1301
    3TMC1    C7   45   0.456   0.948  10.677  0.2481 -0.1213 -0.4318
    3TMC1    C8   46   0.098   1.141  10.406  0.5830 -0.3294  0.6562
    3TMC1    O1   47   0.527   0.913  10.585  0.2590  0.3606  0.7175
    3TMC1    O2   48   4.721   1.170  10.383 -0.4728  0.3301  0.1633
    3TMC1    O3   49   0.476   0.956  10.809  0.2674 -0.0041 -0.0936
    3TMC1    H3   50   0.410   1.003  10.865  0.7270  0.3326  0.1773
    3TMC1    O5   51   0.177   1.086  10.311  0.0303 -0.4031  0.2511
    3TMC1    H5   52   0.272   1.071  10.331  0.3264  0.8700 -0.2201
    4MPD2     C   53   4.368   1.095  11.202 -0.3554  0.4289  0.7750
    4MPD2    C1   54   4.396   1.209  11.120 -0.0483  0.1559  0.7399
    4MPD2    C2   55   4.479   1.198  11.014  0.1715  0.1938 -0.0393
    4MPD2    C3   56   4.545   1.084  10.977 -0.8902  0.4881  0.9364
    4MPD2    C4   57   4.512   0.974  11.059  0.3607  0.0606  0.1577
    4MPD2    C5   58   4.431   0.978  11.166  0.0025  0.2025 -0.1297
    4MPD2     H   59   4.492   1.290  10.958  0.9076  0.0126 -0.1611
    4MPD2    H1   60   4.558   0.878  11.036  1.6194  0.4497  1.0633
    4MPD2    H2   61   4.308   1.105  11.292  1.0358 -0.0225  1.7663
    4MPD2    H3   62   4.417   0.892  11.231  1.2329 -0.7838 -1.1684
    4MPD2     N   63   4.650   1.088  10.882 -0.7850  0.0805  0.3136
    4MPD2    H5   64   4.668   1.179  10.840  0.3678 -1.0292 -1.5584
    4MPD2    N1   65   4.342   1.335  11.150 -0.2732  0.3189 -0.0953
    4MPD2    H7   66   4.346   1.405  11.077 -0.3839 -0.1329 -0.5337
    5TCq1    O1   67   0.979   2.951  12.091  0.3427 -0.0567 -0.0056
    5TCq1    C1   68   0.886   2.976  11.993 -0.5053 -0.0809 -0.4268
    5TCq1    O2   69   0.921   3.024  11.887 -0.4478  0.3803 -0.2727
    5TCq1    C2   70   0.782   2.880  12.003  0.2959 -0.2478 -0.2872
    5TCq1    C3   71   0.759   2.789  12.108 -0.4960  0.0057 -0.0778
    5TCq1    C4   72   0.634   2.723  12.109  0.2063 -0.0755  0.2036
    5TCq1    C5   73   0.555   2.713  11.997  0.0044 -0.7184  0.4668
    5TCq1    C6   74   0.595   2.786  11.890  0.6080 -0.6455 -0.3335
    5TCq1    C7   75   0.699   2.874  11.890  0.5402 -0.2661  0.2940
    5TCq1    C8   76   0.511   2.794  11.774  0.0928  0.3100 -0.6234
    5TCq1    O4   77   0.563   2.822  11.668  0.2375  0.2165  0.2615
    5TCq1    C9   78   0.606   2.629  12.216  0.0456  0.5335 -0.7649
    5TCq1    O5   79   0.496   2.565  12.212  0.2571 -0.0901 -0.3669
    5TCq1    O6   80   0.708   2.609  12.290  0.2056 -0.4187 -0.3028
    5TCq1    H1   81   0.933   2.925  12.173 -1.0791  0.1015 -0.7649
    5TCq1    H2   82   0.832   2.768  12.186  0.0272 -0.5994 -0.7291
    5TCq1    H3   83   0.473   2.642  11.996  1.0741 -1.9469 -1.5493
    5TCq1    H4   84   0.726   2.933  11.803  0.8433  1.2328  1.4224
    6MPD2     C   85   0.173   2.632  11.758 -0.3066  0.0364  0.0514
    6MPD2    C1   86   0.293   2.690  11.705  0.3157 -0.1298 -0.6982
    6MPD2    C2   87   0.302   2.698  11.563  0.3264  0.0400 -0.8215
    6MPD2    C3   88   0.213   2.637  11.487  0.2818  0.3378 -0.1058
    6MPD2    C4   89   0.113   2.558  11.543 -0.5263 -0.1009 -0.3268
    6MPD2    C5   90   0.093   2.559  11.675  0.1341  0.1948  0.6661
    6MPD2     H   91   0.388   2.749  11.520 -0.5477  1.1400 -1.2793
    6MPD2    H1   92   0.042   2.494  11.492 -0.0499 -1.2761  0.4762
    6MPD2    H2   93   0.151   2.629  11.864  0.9716  2.1643  0.3745
    6MPD2    H3   94   0.009   2.503  11.713 -1.3053  1.8765  0.0065
    6MPD2     N   95   0.229   2.648  11.344 -0.3017  0.4661  0.8520
    6MPD2    H5   96   0.313   2.700  11.320 -0.4133 -0.2619 -1.0625
    6MPD2    N1   97   0.389   2.739  11.799 -0.1503 -0.4406 -0.3496
    6MPD2    H7   98   0.358   2.716  11.893  0.4285  0.0203 -0.0504
    7TCq1    O1   99   2.108   1.589  14.341 -0.3079 -0.1839  0.3743
    7TCq1    C1  100   2.165   1.471  14.296  0.1494  0.2318 -0.9221
    7TCq1    O2  101   2.260   1.412  14.348 -0.5895 -1.0519 -0.6335
    7TCq1    C2  102   2.157   1.483  14.153 -0.4079 -0.1037 -0.2645
    7TCq1    C3  103   2.039   1.515  14.099 -0.1167  1.1278 -0.4802
    7TCq1    C4  104   2.029   1.489  13.966 -0.0496 -0.2958 -0.4797
    7TCq1    C5  105   2.139   1.474  13.885 -0.2431 -0.9268  0.5736
    7TCq1    C6  106   2.254   1.448  13.946  1.2628  0.0265  0.1080
    7TCq1    C7  107   2.266   1.451  14.081  0.0312  0.2531  0.2740
    7TCq1    C8  108   2.374   1.400  13.872  0.3417  1.0408 -0.1381
    7TCq1    O4  109   2.459   1.354  13.944  0.5959 -0.1895  0.1951
    7TCq1    C9  110   1.902   1.475  13.903 -0.3760 -0.0693 -0.9025
    7TCq1    O5  111   1.803   1.463  13.984  0.1946  0.4625  0.2431
    7TCq1    O6  112   1.892   1.440  13.782 -0.8266  0.2964  0.2603
    7TCq1    H1  113   2.055   1.634  14.271  0.6293  0.5241  0.1217
    7TCq1    H2  114   1.948   1.538  14.154 -0.5461 -1.0512 -0.2928
    7TCq1    H3  115   2.116   1.464  13.779  1.2729  1.6110  0.0095
    7TCq1    H4  116   2.354   1.436  14.142  0.9647  0.5681 -0.9888
    8MPD2     C  117   2.540   1.167  13.452 -0.0444 -0.2042 -0.7199
    8MPD2    C1  118   2.603   1.181  13.572 -0.6392 -0.3646  1.4094
    8MPD2    C2  119   2.534   1.248  13.675  0.1609  0.3383  0.5551
    8MPD2    C3  120   2.414   1.309  13.646 -0.6855 -0.6165 -0.3060
    8MPD2    C4  121   2.357   1.302  13.523 -0.0730 -0.0221 -0.9430
    8MPD2    C5  122   2.423   1.231  13.425 -0.5043 -0.0522 -0.9385
    8MPD2     H  123   2.569   1.240  13.777 -0.2552  1.3768  0.7860
    8MPD2    H1  124   2.268   1.356  13.494  0.0514  1.9611  2.3535
    8MPD2    H2  125   2.595   1.116  13.373  1.3201 -1.6480  1.1732
    8MPD2    H3  126   2.385   1.230  13.323  2.1715 -0.7968 -1.9326
    8MPD2     N  127   2.346   1.389  13.741  0.2733  0.3003  0.5396
    8MPD2    H5  128   2.265   1.443  13.711 -0.0667 -1.4166 -1.6854
    8MPD2    N1  129   2.725   1.122  13.589 -0.3132  0.4092 -0.2589
    8MPD2    H7  130   2.765   1.077  13.507 -0.6791  0.2363 -0.3445
    9TMC1    C1  131   0.239   1.754  11.232 -0.0044  0.4351 -0.2296
    9TMC1    C2  132   0.269   1.647  11.152  0.0912  0.3110  0.1370
    9TMC1    C3  133   0.305   1.685  11.029 -0.0464 -0.9020  1.2928
    9TMC1    C4  134   0.236   1.882  11.197  0.6381  0.4285 -0.2145
    9TMC1    C5  135   0.285   1.914  11.078 -0.7496 -0.6533  0.1540
    9TMC1    C6  136   0.322   1.818  10.987  0.2035 -0.0496  0.4516
    9TMC1     C  137   0.208   1.721  11.376 -0.3504 -0.5832  0.1919
    9TMC1     O  138   0.184   1.827  11.438  0.1934  0.6217  0.1006
    9TMC1     H  139   0.253   1.543  11.180  0.5366 -0.0506 -0.9702
    9TMC1    H1  140   0.186   1.957  11.258 -1.2548 -1.2085  0.2233
    9TMC1    H2  141   0.355   1.846  10.887  0.2203 -1.1563  0.1389
    9TMC1    C7  142   0.213   2.023  11.020 -0.3649  0.0151 -0.2667
    9TMC1    C8  143   0.327   1.573  10.935  0.1530 -0.2318 -0.3247
    9TMC1    O1  144   0.092   2.028  11.030  0.4001 -0.4901 -0.1317
    9TMC1    O2  145   0.261   1.468  10.935  0.2348 -0.5889 -0.1238
    9TMC1    O3  146   0.305   2.121  11.031  0.3182  0.3304 -0.1088
    9TMC1    H3  147   0.395   2.088  11.010  1.2435  2.1521  1.0019
    9TMC1    O5  148   0.419   1.605  10.843 -0.0197 -0.0990  0.4654
    9TMC1    H5  149   0.476   1.674  10.883  1.4311  1.1371 -3.7605
   10MPD2     C  150   0.155   1.600  11.647 -0.7660  0.6470  0.1123
   10MPD2    C1  151   0.213   1.536  11.543  0.6913 -0.1002 -0.0243
   10MPD2    C2  152   0.249   1.406  11.548  0.4694  0.5730  0.1070
   10MPD2    C3  153   0.231   1.341  11.669  0.6050  0.3963 -0.7060
   10MPD2    C4  154   0.169   1.399  11.777 -0.3071  0.2720 -0.3435
   10MPD2    C5  155   0.123   1.530  11.761 -0.4293  0.1018  1.1280
   10MPD2     H  156   0.276   1.355  11.456 -0.2226  1.2072 -0.4429
   10MPD2    H1  157   0.147   1.353  11.872  0.1180  3.0772  1.1082
   10MPD2    H2  158   0.123   1.704  11.650 -0.8160  0.6673 -1.0543
   10MPD2    H3  159   0.061   1.585  11.831 -1.2086  0.0434  0.4814
   10MPD2     N  160   0.276   1.208  11.674  0.1374 -0.1432  0.3352
   10MPD2    H5  161   0.341   1.180  11.601  0.4914 -1.4826  1.1779
   10MPD2    N1  162   0.225   1.595  11.413  0.2792 -0.1381  0.0274
   10MPD2    H7  163   0.262   1.532  11.343  0.9628 -1.4386  1.5618
   11TCq1    O1  164   0.999   0.986  14.546  0.1389 -0.3232  0.5345
   11TCq1    C1  165   0.905   0.986  14.448  0.1102 -0.6387 -0.0692
   11TCq1    O2  166   0.786   1.002  14.469  0.4992 -0.3156 -0.1930
   11TCq1    C2  167   0.947   0.881  14.356  0.2509  0.1413 -1.2205
   11TCq1    C3  168   1.086   0.871  14.334  0.6155 -0.2547  0.0342
   11TCq1    C4  169   1.140   0.750  14.297 -0.3367  0.2948 -0.2301
   11TCq1    C5  170   1.053   0.649  14.266  0.4057 -0.0239 -0.2677
   11TCq1    C6  171   0.917   0.673  14.275  0.4911 -0.8742  0.3948
   11TCq1    C7  172   0.856   0.786  14.332 -0.0016  0.0522  0.1166
   11TCq1    C8  173   0.828   0.556  14.285 -0.5733  0.3732 -0.5509
   11TCq1    O4  174   0.718   0.569  14.335  0.2900 -0.1699 -0.3731
   11TCq1    C9  175   1.284   0.735  14.290 -0.7616 -1.0452  0.7606
   11TCq1    O5  176   1.332   0.620  14.259 -0.1439 -0.0616  0.1369
   11TCq1    O6  177   1.358   0.834  14.309 -0.0731  0.4499  0.2433
   11TCq1    H1  178   1.086   0.948  14.521 -0.4882  0.2229 -2.4152
   11TCq1    H2  179   1.152   0.957  14.337 -0.7928  0.8310  0.2518
   11TCq1    H3  180   1.091   0.550  14.241  2.0426  0.5276  0.0252
   11TCq1    H4  181   0.755   0.801  14.367  0.6493  1.2529  1.4874
   12MPD2     C  182   0.772   0.290  14.371  0.5256  0.3826  0.0361
   12MPD2    C1  183   0.835   0.316  14.245 -0.0921 -0.3411 -0.4206
   12MPD2    C2  184   0.863   0.208  14.164  0.1043 -0.6873  0.5976
   12MPD2    C3  185   0.822   0.078  14.200  0.3569  0.0105 -0.0995
   12MPD2    C4  186   0.767   0.042  14.324  0.0098 -0.1137 -0.3092
   12MPD2    C5  187   0.745   0.154  14.407 -0.0884 -0.1257 -0.0586
   12MPD2     H  188   0.913   0.226  14.069 -2.9544  0.2502 -0.8481
   12MPD2    H1  189   0.732   4.680  14.344  0.5895 -0.4180 -0.8230
   12MPD2    H2  190   0.757   0.372  14.440 -1.3302  0.5585 -0.5807
   12MPD2    H3  191   0.685   0.137  14.496  1.7679 -0.6126  1.0955
   12MPD2     N  192   0.832   4.712  14.103  0.1549  0.0664  0.6224
   12MPD2    H5  193   0.808   4.620  14.137 -2.9574  1.8249  3.1169
   12MPD2    N1  194   0.877   0.449  14.220 -0.3927 -0.1034  0.2210
   12MPD2    H7  195   0.939   0.471  14.143  1.5796  0.3047  1.9380
   13TCq1    O1  196   1.012   1.305  10.704  0.2085 -0.2440  0.1131
   13TCq1    C1  197   1.053   1.409  10.780  0.5968  0.0277 -0.2280
   13TCq1    O2  198   1.137   1.489  10.750 -0.3126 -0.2962  0.6584
   13TCq1    C2  199   0.939   1.449  10.858 -0.2175 -0.0075 -0.6589
   13TCq1    C3  200   0.892   1.576  10.849  0.3085 -0.3393 -0.2626
   13TCq1    C4  201   0.765   1.599  10.898  0.1427 -0.3650  0.2713
   13TCq1    C5  202   0.691   1.494  10.955  0.2617  0.7269 -0.1554
   13TCq1    C6  203   0.748   1.378  10.972  0.1851 -0.2511  0.0027
   13TCq1    C7  204   0.871   1.343  10.919 -0.1860  0.3113 -0.0403
   13TCq1    C8  205   0.677   1.266  11.039  0.3571  0.2397  0.2913
   13TCq1    O4  206   0.553   1.267  11.040  0.2764  0.7943 -0.2672
   13TCq1    C9  207   0.707   1.725  10.859 -0.0822  0.0028  0.5679
   13TCq1    O5  208   0.772   1.806  10.786  0.0492 -0.2033  0.7760
   13TCq1    O6  209   0.602   1.758  10.929 -0.1912 -0.0720  0.5663
   13TCq1    H1  210   0.930   1.274  10.748 -0.5863  0.2879 -0.9809
   13TCq1    H2  211   0.951   1.650  10.796 -0.8531  0.1630 -0.8590
   13TCq1    H3  212   0.590   1.504  10.994  0.4779  0.1506  0.5437
   13TCq1    H4  213   0.924   1.249  10.927  0.7882  1.0474  2.0652
   14MPD2     C  214   0.811   0.961  11.203  0.1024  0.0368  0.0712
   14MPD2    C1  215   0.714   1.057  11.177  0.5776  0.2042 -0.3566
   14MPD2    C2  216   0.582   1.036  11.202  0.4711 -0.2094 -0.8502
   14MPD2    C3  217   0.543   0.928  11.274  1.2327 -0.2072 -0.3660
   14MPD2    C4  218   0.639   0.843  11.312 -0.2147  0.0708  0.4234
   14MPD2    C5  219   0.767   0.856  11.272  0.0473  0.1762 -0.0015
   14MPD2     H  220   0.504   1.104  11.171 -1.2186 -1.2672  1.0744
   14MPD2    H1  221   0.625   0.752  11.368  0.5118 -0.6642 -0.5842
   14MPD2    H2  222   0.916   0.977  11.185 -0.2197  0.9479 -1.0048
   14MPD2    H3  223   0.837   0.784  11.313 -2.8943 -3.2238 -0.9424
   14MPD2     N  224   0.403   0.920  11.312  0.7711 -0.0743 -0.3696
   14MPD2    H5  225   0.344   0.992  11.273 -0.2383 -0.9153 -0.4050
   14MPD2    N1  226   0.755   1.172  11.103 -0.3648 -0.5741  0.2118
   14MPD2    H7  227   0.854   1.187  11.094 -0.4191 -1.2454 -1.6037
   15TCq1    O1  228   2.705   0.019   2.078 -0.0671  0.4395  0.1042
   15TCq1    C1  229   2.727   0.133   2.016  0.1689 -0.3103  0.4068
   15TCq1    O2  230   2.785   0.237   2.053 -0.7133  0.0009  0.0287
   15TCq1    C2  231   2.623   0.145   1.921 -0.2888 -0.4228 -0.2316
   15TCq1    C3  232   2.577   0.268   1.885 -0.1967  0.1272 -0.0773
   15TCq1    C4  233   2.476   0.287   1.792  0.2805  0.3842  0.2892
   15TCq1    C5  234   2.424   0.179   1.731 -0.1460 -0.1792 -0.0807
   15TCq1    C6  235   2.469   0.059   1.763 -0.3853 -0.7705 -0.0115
   15TCq1    C7  236   2.565   0.037   1.854  0.6103  0.0287 -0.1358
   15TCq1    C8  237   2.447   4.692   1.669 -0.2523 -0.4344  0.2653
   15TCq1    O4  238   2.507   4.586   1.688  0.4774  0.4444  0.4262
   15TCq1    C9  239   2.438   0.417   1.754  0.3851  0.6342  0.4974
   15TCq1    O5  240   2.364   0.433   1.660  0.3719 -0.8036  0.5284
   15TCq1    O6  241   2.513   0.514   1.790 -0.3621  0.1054  0.6094
   15TCq1    H1  242   2.652   4.701   2.018 -3.0607  0.3760  2.7884
   15TCq1    H2  243   2.624   0.357   1.926  0.8557  0.3525 -1.7940
   15TCq1    H3  244   2.353   0.204   1.653 -1.7278 -0.3793  1.3048
   15TCq1    H4  245   2.607   4.678   1.874  0.4373 -0.2746 -1.2438
   16MPD2     C  246   2.207   4.719   1.382 -0.4823 -0.5335  0.6104
   16MPD2    C1  247   2.302   4.654   1.455  0.3900  0.1673 -0.5840
   16MPD2    C2  248   2.337   4.523   1.424 -0.6603  0.1678 -0.4636
   16MPD2    C3  249   2.279   4.458   1.317  0.7361  0.3484 -0.4079
   16MPD2    C4  250   2.186   4.527   1.245 -0.3821  0.2333  0.2674
   16MPD2    C5  251   2.161   4.656   1.273  0.3752 -0.2377  0.4390
   16MPD2     H  252   2.400   4.474   1.498  1.1777 -0.7375 -2.6443
   16MPD2    H1  253   2.132   4.472   1.169 -0.4742 -0.4513  0.8337
   16MPD2    H2  254   2.168   0.078   1.408 -0.3342 -0.1492 -0.6190
   16MPD2    H3  255   2.085   4.709   1.215  2.4582  0.7365 -1.4266
   16MPD2     N  256   2.329   4.331   1.292 -0.3135 -0.0069 -0.3596
   16MPD2    H5  257   2.391   4.293   1.363 -0.8010 -3.2567 -1.6706
   16MPD2    N1  258   2.349   4.729   1.573 -0.7606  0.1221  0.4361
   16MPD2    H7  259   2.326   0.088   1.570 -1.1275  0.0971  2.0930
   17TMC1    C1  260   4.562   4.129  11.565  0.6393  0.1897 -0.0397
   17TMC1    C2  261   4.652   4.039  11.518 -0.0417 -0.2338 -0.0010
   17TMC1    C3  262   4.641   3.908  11.562 -0.0887 -0.0588 -0.3343
   17TMC1    C4  263   4.457   4.093  11.642 -0.4960  0.0661 -0.3678
   17TMC1    C5  264   4.437   3.956  11.674  0.3920 -1.2019  0.0226
   17TMC1    C6  265   4.538   3.865  11.646 -0.0087  0.4999  0.4474
   17TMC1     C  266   4.591   4.271  11.555 -0.3442  0.4890 -0.4052
   17TMC1     O  267   4.506   4.342  11.609 -0.1383  0.1790  0.4052
   17TMC1     H  268   4.718   4.058  11.434 -0.6924 -3.0727 -1.1476
   17TMC1    H1  269   4.389   4.170  11.677  0.2721 -0.8750  3.1972
   17TMC1    H2  270   4.537   3.763  11.683 -0.0319  0.3194 -0.0463
   17TMC1    C7  271   4.315   3.918  11.732  0.3206  0.1489  0.4898
   17TMC1    C8  272   4.716   3.802  11.502 -0.0240  0.3630  0.2338
   17TMC1    O1  273   4.224   3.994  11.772  0.3717  0.1829 -0.1591
   17TMC1    O2  274   0.036   3.713  11.564 -1.2294 -0.5137 -0.3611
   17TMC1    O3  275   4.293   3.783  11.714  0.1577 -0.0361 -0.0370
   17TMC1    H3  276   4.366   3.732  11.672  0.9216  1.5721 -0.6467
   17TMC1    O5  277   4.637   3.776  11.389  0.1717  0.0541 -0.0170
   17TMC1    H5  278   4.580   3.852  11.364 -0.3784 -0.6874 -1.0198
   18MPD2     C  279   4.697   4.542  11.485 -0.4817 -0.0108  0.4226
   18MPD2    C1  280   0.032   4.424  11.496  0.0674 -0.8257 -0.2888
   18MPD2    C2  281   0.176   4.437  11.476 -0.5679  0.0136  0.6911
   18MPD2    C3  282   0.240   4.556  11.447  0.0854  0.2905 -0.0038
   18MPD2    C4  283   0.163   4.668  11.448  0.3515  0.8146 -0.3881
   18MPD2    C5  284   0.023   4.661  11.461  0.6246 -1.0080  0.1502
   18MPD2     H  285   0.234   4.346  11.467  0.4551  0.7979 -0.6408
   18MPD2    H1  286   0.214   0.025  11.442  2.3764 -0.3264 -1.3054
   18MPD2    H2  287   4.589   4.538  11.494 -0.4073 -2.7752  0.0596
   18MPD2    H3  288   4.701   0.011  11.455  1.5311 -0.4659 -1.0021
   18MPD2     N  289   0.382   4.572  11.432 -0.4335  0.0354  0.0979
   18MPD2    H5  290   0.398   4.666  11.399  0.0001  0.1498  0.6371
   18MPD2    N1  291   4.721   4.294  11.520  0.0733 -0.4817  0.3973
   18MPD2    H7  292   0.041   4.214  11.502  1.3077  0.1767  1.6051
   19TMC2    C1  293   2.152   0.428  13.948  0.8091 -0.0591 -0.0568
   19TMC2    C2  294   2.087   0.542  13.981 -0.4504  0.0723  0.0462
   19TMC2    C3  295   1.969   0.522  14.048  0.0299  0.1847 -0.2300
   19TMC2    C4  296   2.122   0.303  13.985 -0.4498  0.2591 -0.3024
   19TMC2    C5  297   2.004   0.286  14.047  0.1539 -0.3295 -0.4579
   19TMC2    C6  298   1.926   0.392  14.079 -0.2457 -0.4871  0.2215
   19TMC2     C  299   2.297   0.455  13.908 -0.5253 -0.2258 -0.4429
   19TMC2     O  300   2.318   0.557  13.844  0.4742 -0.1102  0.2495
   19TMC2     H  301   2.121   0.642  13.956 -0.9719  0.1634 -0.3074
   19TMC2    H1  302   2.173   0.215  13.946  1.1580 -0.2579  3.0143
   19TMC2    H2  303   1.828   0.395  14.125  1.3051 -1.4406  3.5730
   19TMC2    C7  304   1.939   0.161  14.043 -0.3581 -0.4903 -0.0030
   19TMC2    C8  305   1.930   0.629  14.140  0.0356 -0.1102  0.2399
   19TMC2    O1  306   2.003   0.059  14.055 -0.0678  0.0389  0.1305
   19TMC2    O2  307   1.874   0.602  14.243 -0.0966 -0.1230  0.2666
   19TMC2    O5  308   1.896   0.734  14.067  0.0144 -0.0517 -0.2681
   19TMC2    H5  309   1.945   0.728  13.982  0.9571 -3.7125  0.5095
   20MPD2     C  310   2.586   0.479  13.902 -0.2361  0.3415 -0.1710
   20MPD2    C1  311   2.523   0.366  13.955 -0.4898  0.0543 -0.3344
   20MPD2    C2  312   2.597   0.251  13.990  0.6390 -0.3499 -0.1534
   20MPD2    C3  313   2.733   0.251  13.980  0.2612 -0.3935 -0.2415
   20MPD2    C4  314   2.797   0.363  13.939 -0.2659  0.1261  0.4963
   20MPD2    C5  315   2.725   0.469  13.896 -0.0484  0.5246  0.3895
   20MPD2     H  316   2.548   0.158  14.017  2.0007 -0.8681  0.5504
   20MPD2    H1  317   2.905   0.368  13.933 -0.2068  0.6158  2.0656
   20MPD2    H2  318   2.544   0.578  13.889  0.6408  1.1579  3.4411
   20MPD2    H3  319   2.781   0.557  13.870  1.1168 -0.1208  0.7264
   20MPD2     N  320   2.817   0.137  14.016 -0.5501 -0.0089 -0.4886
   20MPD2    H5  321   2.913   0.163  13.993 -0.2766 -1.5112 -1.0295
   20MPD2    N1  322   2.384   0.361  13.960  0.3800  0.2643 -0.0150
   20MPD2    H7  323   2.347   0.282  14.013  0.1553  0.8672  0.7265
   21TMC2    C1  324   4.454   0.024  14.263  0.2124 -0.4650 -0.1737
   21TMC2    C2  325   4.470   4.630  14.295  0.1435 -0.5981  0.1700
   21TMC2    C3  326   4.393   4.579  14.396 -0.1491 -0.4695 -0.4533
   21TMC2    C4  327   4.377   0.113  14.333  0.3339 -0.0158  0.2131
   21TMC2    C5  328   4.313   0.061  14.443 -0.1007  0.7238 -0.4119
   21TMC2    C6  329   4.314   4.668  14.471 -0.2301 -0.2326 -0.2217
   21TMC2     C  330   4.528   0.084  14.146  0.3537 -0.2536  0.4583
   21TMC2     O  331   4.621   0.014  14.110  0.2273 -0.1732  0.5733
   21TMC2     H  332   4.532   4.567  14.233 -0.7613  0.2436 -1.5798
   21TMC2    H1  333   4.388   0.219  14.312  0.3426 -0.3058 -1.2330
   21TMC2    H2  334   4.268   4.630  14.562 -2.3297  1.4490 -0.6072
   21TMC2    C7  335   4.253   0.142  14.543  0.0482  0.1240  0.4223
   21TMC2    C8  336   4.424   4.447  14.437 -0.2774  0.1079  0.0161
   21TMC2    O1  337   4.222   0.084  14.647 -0.2343  0.4443 -0.1432
   21TMC2    O2  338   4.523   4.392  14.388  0.1635  0.1319  0.4614
   21TMC2    O5  339   4.310   4.402  14.487 -0.1988  0.0709 -0.2931
   21TMC2    H5  340   4.240   4.468  14.505  1.3716  1.8476 -0.6380
   22MPD2     C  341   4.649   0.482  13.845  0.5891  0.5553 -0.2068
   22MPD2    C1  342   4.731   0.394  13.915 -0.3766  0.2245 -0.5381
   22MPD2    C2  343   4.673   0.292  13.982 -0.0408 -0.0929  0.7600
   22MPD2    C3  344   4.538   0.285  14.003 -0.2811  0.2893  0.1792
   22MPD2    C4  345   4.458   0.389  13.952 -0.4746 -0.5719 -0.3942
   22MPD2    C5  346   4.511   0.484  13.872  0.6777 -0.5588 -0.0335
   22MPD2     H  347   4.729   0.217  14.036  2.2452  2.2196  1.6257
   22MPD2    H1  348   4.354   0.391  13.981  0.2770 -1.4127  2.3578
   22MPD2    H2  349   4.693   0.553  13.775  0.5400  0.2198 -0.5770
   22MPD2    H3  350   4.445   0.562  13.835  1.4897 -0.2033 -0.7516
   22MPD2     N  351   4.476   0.193  14.092 -0.5067 -0.1600  0.2266
   22MPD2    H5  352   4.384   0.218  14.126  0.5143  0.1308  2.7547
   22MPD2    N1  353   0.130   0.409  13.928  0.3974 -0.1092  0.2762
   22MPD2    H7  354   0.174   0.338  13.984  2.3924 -0.6609 -1.9899
   23TMC2    C1  355   1.037   1.987  14.361  0.1878  0.3303 -0.2936
   23TMC2    C2  356   1.133   2.012  14.267 -0.1286  0.1671 -0.3251
   23TMC2    C3  357   1.114   1.950  14.141  0.3408  0.2816  0.0709
   23TMC2    C4  358   0.924   1.913  14.326 -0.8856  0.8117  0.8038
   23TMC2    C5  359   0.908   1.863  14.202 -0.3971 -0.4641  0.1810
   23TMC2    C6  360   1.006   1.879  14.111 -0.2508 -0.0200 -0.1388
   23TMC2     C  361   1.071   2.000  14.501 -0.9856  0.5801 -0.6043
   23TMC2     O  362   0.982   1.971  14.580 -0.1013 -0.8916  0.4790
   23TMC2     H  363   1.218   2.079  14.279  1.3870 -1.7876 -0.1446
   23TMC2    H1  364   0.848   1.895  14.401 -0.2615  1.3689  1.5730
   23TMC2    H2  365   0.996   1.834  14.013 -2.5880  2.6012 -1.1235
   23TMC2    C7  366   0.825   1.746  14.199  0.4445  0.1675 -0.1046
   23TMC2    C8  367   1.181   2.016  14.030 -0.0446 -0.9305 -0.4778
   23TMC2    O1  368   0.874   1.652  14.143 -0.4904  0.2869  0.3955
   23TMC2    O2  369   1.283   2.078  14.053 -0.1696 -0.4854  0.1453
   23TMC2    O5  370   1.094   2.025  13.928 -0.6039 -0.1222 -0.1792
   23TMC2    H5  371   1.020   1.962  13.923  0.1370 -0.9155 -1.0323
   24MPD2     C  372   1.430   2.031  14.871 -0.0628 -0.8723 -0.1104
   24MPD2    C1  373   1.307   1.971  14.869  0.3990  0.6147  0.2485
   24MPD2    C2  374   1.226   1.977  14.754 -0.0799 -0.3458 -0.1525
   24MPD2    C3  375   1.273   2.036  14.641 -0.5997 -0.0234 -0.5892
   24MPD2    C4  376   1.404   2.083  14.640 -0.4843  0.7085 -0.1282
   24MPD2    C5  377   1.475   2.089  14.755 -0.5681 -0.0234  0.7229
   24MPD2     H  378   1.131   1.924  14.762 -0.2273  0.0097  0.4454
   24MPD2    H1  379   1.451   2.129  14.554 -1.6952  1.5747 -0.3273
   24MPD2    H2  380   1.503   2.015  14.950  0.2767  0.2589 -0.1995
   24MPD2    H3  381   1.575   2.130  14.750 -0.2569 -1.0153 -1.1028
   24MPD2     N  382   1.202   2.043  14.521  0.2836 -0.3567 -0.1555
   24MPD2    H5  383   1.239   2.086  14.437  0.9410 -1.3626 -0.3686
   24MPD2    N1  384   1.258   1.896  14.982 -0.3369  0.5615  0.0239
   24MPD2    H7  385   1.175   1.839  14.968 -0.1004  0.2342 -0.0330
   25TMC2    C1  386   0.470   3.725  11.588 -0.5379 -0.4452 -0.2691
   25TMC2    C2  387   0.579   3.807  11.606  0.5997 -0.0474  0.2922
   25TMC2    C3  388   0.567   3.911  11.690  0.0779  0.2132 -0.4158
   25TMC2    C4  389   0.356   3.738  11.672  0.0841  0.6136  0.5028
   25TMC2    C5  390   0.358   3.844  11.760 -0.3927  0.3756 -0.1266
   25TMC2    C6  391   0.458   3.937  11.768 -0.3132 -0.1547  0.2241
   25TMC2     C  392   0.459   3.631  11.479 -0.2590 -0.3576 -0.1535
   25TMC2     O  393   0.566   3.605  11.417  0.2836 -0.0766 -0.3854
   25TMC2     H  394   0.669   3.784  11.550 -0.3359  0.6472 -1.4914
   25TMC2    H1  395   0.264   3.680  11.668  0.4866 -0.2355  3.7836
   25TMC2    H2  396   0.458   4.020  11.838  1.9923  0.6983 -0.8146
   25TMC2    C7  397   0.242   3.863  11.847 -0.0482 -0.1696 -0.2804
   25TMC2    C8  398   0.685   3.967  11.742 -0.3783 -0.3377 -0.3231
   25TMC2    O1  399   0.193   3.763  11.891 -0.2432 -0.5018  0.6680
   25TMC2    O2  400   0.707   3.972  11.863 -0.2511  0.0332 -0.0327
   25TMC2    O5  401   0.785   3.961  11.648  0.4188 -0.1845 -0.0345
   25TMC2    H5  402   0.761   3.976  11.554 -1.9757 -0.2754  0.5574
   26MPD2     C  403   0.170   3.308  11.196 -0.4961 -0.3506  0.0181
   26MPD2    C1  404   0.093   3.364  11.293  0.4211 -0.5456 -1.2283
   26MPD2    C2  405   0.151   3.446  11.391  0.0696  0.2089  0.0701
   26MPD2    C3  406   0.287   3.489  11.376 -0.4556  0.1712  0.1378
   26MPD2    C4  407   0.359   3.438  11.272 -0.1187 -0.0004  0.3450
   26MPD2    C5  408   0.298   3.348  11.186 -0.7144  0.4305 -0.3352
   26MPD2     H  409   0.091   3.478  11.476 -0.1329 -1.0071  0.3835
   26MPD2    H1  410   0.466   3.453  11.258 -0.1577 -1.8158 -1.8179
   26MPD2    H2  411   0.130   3.243  11.119 -0.3272  0.1644 -0.5019
   26MPD2    H3  412   0.363   3.310  11.108 -2.6265  1.7679 -2.5714
   26MPD2     N  413   0.332   3.589  11.464  0.2365  0.7716  0.4139
   26MPD2    H5  414   0.264   3.634  11.525  0.0876  0.0768  0.7555
   26MPD2    N1  415   4.691   3.339  11.295 -0.4322 -0.1563  0.3534
   26MPD2    H7  416   4.656   3.284  11.217 -2.4724  0.7303  0.6535
   27TMC2    C1  417   3.061   2.243  12.508  0.8649  0.1195  0.3328
   27TMC2    C2  418   3.166   2.322  12.508 -0.1753  0.0488 -0.7741
   27TMC2    C3  419   3.293   2.267  12.519  0.2134 -0.5833 -0.5207
   27TMC2    C4  420   3.065   2.114  12.548 -0.3815  0.0113 -0.3106
   27TMC2    C5  421   3.189   2.060  12.572  0.2816  0.2041  0.4997
   27TMC2    C6  422   3.304   2.139  12.561 -0.3453 -0.3400 -0.4037
   27TMC2     C  423   2.941   2.307  12.461 -0.0721  0.2452 -0.2697
   27TMC2     O  424   2.960   2.412  12.404  0.2957 -0.3029 -0.3409
   27TMC2     H  425   3.170   2.425  12.475  2.8852  0.1637 -0.0295
   27TMC2    H1  426   2.983   2.044  12.542 -0.5204  0.0158  1.6055
   27TMC2    H2  427   3.405   2.103  12.580 -0.3034 -0.4485 -0.8377
   27TMC2    C7  428   3.201   1.919  12.592  0.2464 -0.3763  0.0067
   27TMC2    C8  429   3.394   2.370  12.525  0.6530  0.1535 -0.2880
   27TMC2    O1  430   3.098   1.856  12.620  0.4001  0.4427  0.5514
   27TMC2    O2  431   3.408   2.426  12.635 -0.3775  0.3009  0.0215
   27TMC2    O5  432   3.394   2.439  12.408 -0.2976 -0.7879  0.0456
   27TMC2    H5  433   3.380   2.382  12.329 -0.6160  0.7920 -1.0432
   28MPD2     C  434   2.447   2.442  12.556 -0.0678 -0.2795  0.5167
   28MPD2    C1  435   2.491   2.354  12.653  0.3168 -0.2847 -0.5155
   28MPD2    C2  436   2.619   2.295  12.648  1.0074 -0.2210 -0.7613
   28MPD2    C3  437   2.706   2.329  12.547  0.4905  0.1718  0.0885
   28MPD2    C4  438   2.669   2.429  12.458 -0.4167 -0.0741  0.2650
   28MPD2    C5  439   2.538   2.476  12.461  0.6784  0.9629 -0.2248
   28MPD2     H  440   2.646   2.227  12.729 -0.5224  0.7631  0.5661
   28MPD2    H1  441   2.734   2.450  12.374  0.1614  0.0303  0.7406
   28MPD2    H2  442   2.351   2.492  12.564 -0.6340 -1.3934  0.7168
   28MPD2    H3  443   2.511   2.554  12.390 -0.2063 -0.5481 -1.5362
   28MPD2     N  444   2.836   2.268  12.540 -0.0857 -0.3024 -0.0741
   28MPD2    H5  445   2.852   2.197  12.612 -1.3006  0.1249  0.6144
   28MPD2    N1  446   2.398   2.311  12.746  0.6842 -0.4120 -0.0396
   28MPD2    H7  447   2.300   2.310  12.719  0.5890  1.5078  0.2914
   29TMC2    C1  448   3.238   3.531  14.340  0.1745  0.1517  0.8020
   29TMC2    C2  449   3.306   3.539  14.459 -0.1182 -0.0977  0.6304
   29TMC2    C3  450   3.351   3.658  14.502  0.8546 -0.7439 -0.8835
   29TMC2    C4  451   3.208   3.648  14.276 -0.4827  0.0516 -0.3677
   29TMC2    C5  452   3.248   3.771  14.325 -0.1706  0.8636 -0.9827
   29TMC2    C6  453   3.326   3.777  14.442 -0.6669 -0.0850  0.3801
   29TMC2     C  454   3.179   3.398  14.303 -0.0167 -0.5536 -0.0091
   29TMC2     O  455   3.204   3.314  14.388 -0.3811 -0.7327  0.5890
   29TMC2     H  456   3.314   3.454  14.526  1.3814 -1.3587 -1.1485
   29TMC2    H1  457   3.156   3.648  14.181  2.7524  0.1263 -2.1494
   29TMC2    H2  458   3.373   3.865  14.484  1.7689 -1.8621  1.3437
   29TMC2    C7  459   3.230   3.882  14.233 -0.4052  0.2672  0.1291
   29TMC2    C8  460   3.471   3.660  14.577 -0.0085  0.4233 -0.6883
   29TMC2    O1  461   3.129   3.879  14.159 -0.8837 -0.1222 -0.3974
   29TMC2    O2  462   3.493   3.727  14.676  0.5161 -0.0240  0.2067
   29TMC2    O5  463   3.568   3.617  14.495 -0.6494  0.1719  0.1385
   29TMC2    H5  464   3.529   3.580  14.413 -2.0379 -1.0190  1.3330
   30MPD2     C  465   2.958   3.054  13.983 -0.4838  0.5539  0.4741
   30MPD2    C1  466   3.015   3.039  14.112 -0.1931  0.1244 -0.0174
   30MPD2    C2  467   3.063   3.149  14.185  0.0542 -0.5239  0.1089
   30MPD2    C3  468   3.057   3.274  14.129  0.2896 -0.1703 -0.0748
   30MPD2    C4  469   2.997   3.289  14.005  0.0613  0.0213 -0.2774
   30MPD2    C5  470   2.956   3.179  13.942 -0.3957  0.8441 -0.2991
   30MPD2     H  471   3.120   3.140  14.276  0.7547 -1.7573 -0.4556
   30MPD2    H1  472   2.983   3.387  13.960 -1.3098 -0.3652 -0.6939
   30MPD2    H2  473   2.931   2.967  13.925 -1.6010 -0.6780  2.8479
   30MPD2    H3  474   2.923   3.192  13.840 -2.3477  1.4829  0.4227
   30MPD2     N  475   3.109   3.389  14.185  0.2600 -0.2368  0.4744
   30MPD2    H5  476   3.111   3.470  14.124 -0.2126  0.7740  1.8005
   30MPD2    N1  477   3.033   2.913  14.169 -0.4605 -0.5097 -0.0323
   30MPD2    H7  478   3.059   2.903  14.267 -0.3441  1.2530  0.1175
   31TMC2    C1  479   1.192   2.302  14.900 -0.2528  0.4869  0.5579
   31TMC2    C2  480   1.081   2.295  14.816 -0.4339  0.6569 -0.0910
   31TMC2    C3  481   0.968   2.250  14.872  0.3208 -0.4959  0.2810
   31TMC2    C4  482   1.187   2.247  15.028 -0.8384  0.5435 -0.4530
   31TMC2    C5  483   1.066   2.210  15.082  0.3633  0.1881  0.5501
   31TMC2    C6  484   0.957   2.205  15.000  0.3866 -0.9024  0.3863
   31TMC2     C  485   1.305   2.371  14.871  0.1017  0.5759  0.4633
   31TMC2     O  486   1.410   2.350  14.939  0.2313 -0.0641  0.3097
   31TMC2     H  487   1.093   2.319  14.710  0.4977  2.5075  0.4302
   31TMC2    H1  488   1.275   2.251  15.091  0.3134  0.0843 -2.0411
   31TMC2    H2  489   0.871   2.151  15.039 -0.2182  0.9046  1.5564
   31TMC2    C7  490   1.055   2.166  15.222 -0.5543 -1.0615  0.5160
   31TMC2    C8  491   0.866   2.191  14.789 -0.5254  0.0106 -0.6145
   31TMC2    O1  492   1.159   2.126  15.278 -0.3337 -0.5266  0.0457
   31TMC2    O2  493   0.781   2.110  14.828 -0.1437  0.1997  0.3017
   31TMC2    O5  494   0.841   2.295  14.707  0.4375  0.0392 -0.5902
   31TMC2    H5  495   0.914   2.359  14.722  0.7196  0.1550 -2.4576
   32MPD2     C  496   1.522   2.764  14.645  0.3209  0.1561 -0.2505
   32MPD2    C1  497   1.388   2.764  14.614  0.5510 -0.4458 -0.4765
   32MPD2    C2  498   1.313   2.664  14.665 -0.3052  0.9841  0.6106
   32MPD2    C3  499   1.367   2.557  14.731 -0.3030 -0.5731  0.2947
   32MPD2    C4  500   1.506   2.554  14.747 -0.3714 -0.2445  0.4442
   32MPD2    C5  501   1.581   2.655  14.696  0.0405 -0.4751 -0.3577
   32MPD2     H  502   1.205   2.665  14.658 -0.5321 -3.4412  3.9743
   32MPD2    H1  503   1.552   2.471  14.798  0.2304 -0.9661 -1.2685
   32MPD2    H2  504   1.582   2.849  14.615  0.2006 -0.3778 -2.0371
   32MPD2    H3  505   1.686   2.657  14.720 -0.4442  1.5437  1.6702
   32MPD2     N  506   1.279   2.467  14.779  0.3308 -0.3406  0.0605
   32MPD2    H5  507   1.181   2.486  14.759  0.5341 -0.0219 -0.6260
   32MPD2    N1  508   1.333   2.871  14.540  0.1700  0.5372  0.0775
   32MPD2    H7  509   1.392   2.946  14.504  0.1189  0.2369 -0.6376
   33TMC2    C1  510   0.839   4.665  10.491  0.3515  0.9013  0.3794
   33TMC2    C2  511   0.806   4.541  10.444 -0.1078 -0.3511  0.0228
   33TMC2    C3  512   0.728   4.536  10.332  0.1501 -0.1161  0.2575
   33TMC2    C4  513   0.776   0.035  10.445  0.3789  0.9669  0.3969
   33TMC2    C5  514   0.702   0.029  10.332  0.5960  0.2575  0.8735
   33TMC2    C6  515   0.674   4.649  10.270 -0.6568 -1.0803  0.6431
   33TMC2     C  516   0.884   4.666  10.629  0.1986 -0.1989 -0.1642
   33TMC2     O  517   0.877   4.574  10.701 -0.3769 -0.1858  0.2209
   33TMC2     H  518   0.848   4.452  10.489  2.9813  1.0563 -0.0638
   33TMC2    H1  519   0.778   0.131  10.496 -0.0883  1.4470 -0.4944
   33TMC2    H2  520   0.610   4.648  10.182 -0.2890  0.0450  0.3548
   33TMC2    C7  521   0.652   0.150  10.276  0.1486  0.3361  0.2962
   33TMC2    C8  522   0.664   4.412  10.293 -0.0925 -0.9371 -0.8384
   33TMC2    O1  523   0.704   0.252  10.321  0.1074 -0.0443  0.5219
   33TMC2    O2  524   0.641   4.384  10.176 -0.5817 -0.2015 -0.6098
   33TMC2    O5  525   0.616   4.353  10.401  0.1923 -0.0142  0.2243
   33TMC2    H5  526   0.635   4.396  10.487  2.9406  1.0127 -0.8779
   34MPD2     C  527   0.982   0.230  11.016 -0.5089  0.1039  0.2744
   34MPD2    C1  528   0.891   0.130  11.001 -0.2484 -0.0907  0.3714
   34MPD2    C2  529   0.880   0.070  10.879 -0.2953  0.8647 -0.0852
   34MPD2    C3  530   0.961   0.109  10.774  0.1689  0.1813 -0.2696
   34MPD2    C4  531   1.049   0.210  10.787  0.3608  0.0814  0.2104
   34MPD2    C5  532   1.061   0.266  10.910  0.4611  0.0119  0.9527
   34MPD2     H  533   0.807   4.730  10.860 -0.4875  0.9292  0.3860
   34MPD2    H1  534   1.111   0.244  10.704  0.1679 -0.5190 -0.1797
   34MPD2    H2  535   1.001   0.280  11.110 -0.3259  1.0584 -0.2689
   34MPD2    H3  536   1.125   0.353  10.923 -2.3137  2.4324 -1.6188
   34MPD2     N  537   0.951   0.047  10.648 -0.0033 -0.1177 -0.3238
   34MPD2    H5  538   0.983   0.096  10.565 -1.7602 -3.0605 -2.7447
   34MPD2    N1  539   0.829   0.082  11.117 -0.2162 -0.0030 -0.0508
   34MPD2    H7  540   0.849   0.124  11.207  0.9327  1.4852 -0.9994
   35TMC2    C1  541   1.915   1.785  11.477  0.9317 -0.6017  0.0075
   35TMC2    C2  542   1.809   1.791  11.387 -0.3096  0.7166 -0.1703
   35TMC2    C3  543   1.717   1.694  11.389 -0.1272  0.1964 -1.1406
   35TMC2    C4  544   1.920   1.690  11.573  0.2737  0.1525 -0.6680
   35TMC2    C5  545   1.824   1.593  11.570 -0.2089  0.0298  0.4736
   35TMC2    C6  546   1.720   1.590  11.478 -0.3650  0.5682 -0.2402
   35TMC2     C  547   2.031   1.861  11.437  0.0388 -0.0699 -0.5313
   35TMC2     O  548   2.041   1.886  11.321 -0.4674 -0.4555  0.2984
   35TMC2     H  549   1.801   1.874  11.319 -0.8362  1.7770  1.1793
   35TMC2    H1  550   2.012   1.684  11.629  0.6065  0.8131 -1.1339
   35TMC2    H2  551   1.655   1.504  11.482 -0.3928  0.7553  3.2665
   35TMC2    C7  552   1.876   1.466  11.620 -0.0116 -1.3445  0.2772
   35TMC2    C8  553   1.617   1.711  11.292  0.4296  0.1472 -0.6461
   35TMC2    O1  554   1.843   1.374  11.543  0.6082  0.2296  0.3520
   35TMC2    O2  555   1.628   1.788  11.200  0.1899 -0.1356  0.6727
   35TMC2    O5  556   1.528   1.617  11.304 -0.1028  0.3231 -0.4797
   35TMC2    H5  557   1.500   1.579  11.390 -0.4641  0.3755 -0.5717
   36MPD2     C  558   2.449   2.159  11.558  0.1497 -0.1558 -0.3718
   36MPD2    C1  559   2.378   2.132  11.676  0.1692 -0.2040 -0.1457
   36MPD2    C2  560   2.268   2.047  11.668  0.2809 -0.0947 -0.3452
   36MPD2    C3  561   2.219   1.992  11.548  0.4260 -0.3780 -0.2736
   36MPD2    C4  562   2.294   2.015  11.432  0.6065  0.5824 -0.3204
   36MPD2    C5  563   2.402   2.105  11.441 -0.3488  0.3476 -0.0432
   36MPD2     H  564   2.224   2.019  11.763  2.4705 -0.8655  0.4403
   36MPD2    H1  565   2.269   1.976  11.334 -2.6343  1.2772  0.2306
   36MPD2    H2  566   2.541   2.215  11.557  0.5532 -0.7980  0.6016
   36MPD2    H3  567   2.461   2.122  11.352  0.1482  0.6856  0.3476
   36MPD2     N  568   2.099   1.915  11.547  0.5556  0.0135  0.3471
   36MPD2    H5  569   2.059   1.897  11.638 -4.1506  1.0803 -1.4797
   36MPD2    N1  570   2.405   2.203  11.800  0.4886 -0.3207  0.1983
   36MPD2    H7  571   2.344   2.195  11.880 -1.9905 -1.4266 -1.8105
   37TMC2    C1  572   4.243   1.545  11.931  0.0083  0.0548  0.4147
   37TMC2    C2  573   4.146   1.491  11.857  0.4247 -0.2026  0.2991
   37TMC2    C3  574   4.153   1.516  11.720 -0.1120 -0.0539 -0.0582
   37TMC2    C4  575   4.341   1.630  11.876  0.2915 -0.2775 -0.3243
   37TMC2    C5  576   4.340   1.650  11.739  0.4707  0.0118 -0.2503
   37TMC2    C6  577   4.238   1.600  11.658 -0.1986  0.2180 -0.1587
   37TMC2     C  578   4.221   1.541  12.071  0.3404  0.4368 -0.5259
   37TMC2     O  579   4.099   1.539  12.101 -0.1549 -0.1789 -0.6839
   37TMC2     H  580   4.057   1.443  11.896  0.0476 -0.1794 -0.5510
   37TMC2    H1  581   4.420   1.675  11.935  2.3013 -1.6279 -1.9926
   37TMC2    H2  582   4.228   1.611  11.551 -2.1965  0.3548  0.0310
   37TMC2    C7  583   4.452   1.726  11.682  0.1307  0.9227 -0.0269
   37TMC2    C8  584   4.034   1.481  11.643  0.2442 -0.1917 -0.0945
   37TMC2    O1  585   4.548   1.751  11.752  0.7309  0.1631 -0.2083
   37TMC2    O2  586   4.000   1.552  11.549  0.2402  0.2863 -0.3713
   37TMC2    O5  587   3.974   1.368  11.684  0.4376 -0.0776  0.1085
   37TMC2    H5  588   4.031   1.321  11.749  0.1759 -0.8920 -0.2498
   38MPD2     C  589   4.377   1.384  12.532 -0.1778  0.8199  0.5840
   38MPD2    C1  590   4.487   1.378  12.442  0.4284 -0.0863  0.1869
   38MPD2    C2  591   4.464   1.422  12.316  0.7779 -0.8509 -0.4634
   38MPD2    C3  592   4.341   1.470  12.273 -0.0073  0.8362  0.3206
   38MPD2    C4  593   4.233   1.476  12.362  0.5150  0.5444  0.4207
   38MPD2    C5  594   4.252   1.430  12.490 -0.2958 -0.2116  0.6663
   38MPD2     H  595   4.546   1.406  12.248 -0.9569  2.1337 -3.2653
   38MPD2    H1  596   4.131   1.505  12.337  0.4010 -0.6421 -0.4683
   38MPD2    H2  597   4.392   1.334  12.627 -2.2370  1.0726  1.0407
   38MPD2    H3  598   4.167   1.423  12.557 -0.0629  1.9147  1.1720
   38MPD2     N  599   4.337   1.498  12.134 -0.1825  0.2370  0.4681
   38MPD2    H5  600   4.423   1.496  12.082  0.0365  1.9214  0.7663
   38MPD2    N1  601   4.616   1.324  12.469  0.4174 -0.0191 -0.2975
   38MPD2    H7  602   4.688   1.327  12.398 -1.1192  1.0766 -1.8377
   39TMC2    C1  603   2.987   3.327   1.278 -0.5343  0.8634  0.8521
   39TMC2    C2  604   3.064   3.266   1.180 -1.5117  0.3005  0.0225
   39TMC2    C3  605   3.199   3.273   1.194  1.0093 -0.2498  0.4793
   39TMC2    C4  606   3.040   3.403   1.377  1.0461 -0.4765  1.0637
   39TMC2    C5  607   3.175   3.389   1.389 -0.3578 -0.4009 -0.4330
   39TMC2    C6  608   3.256   3.335   1.295 -0.0080 -0.5471 -1.0262
   39TMC2     C  609   2.854   3.298   1.292 -0.2303  0.2783 -0.2395
   39TMC2     O  610   2.783   3.362   1.371  0.6978  0.5841  0.2139
   39TMC2     H  611   3.023   3.215   1.094  0.6556 -0.5753 -0.5127
   39TMC2    H1  612   2.978   3.447   1.454 -1.2481 -0.6854 -0.6761
   39TMC2    H2  613   3.364   3.333   1.307  0.2138  0.7185 -2.8430
   39TMC2    C7  614   3.239   3.473   1.491  0.1309  0.1936 -0.8725
   39TMC2    C8  615   3.268   3.248   1.071 -0.3276  0.2904 -0.1081
   39TMC2    O1  616   3.351   3.446   1.517 -0.4250 -0.0048  0.1056
   39TMC2    O2  617   3.224   3.161   0.997  0.4689 -0.5932 -0.0422
   39TMC2    O5  618   3.402   3.285   1.073 -0.0857  0.0386  0.0709
   39TMC2    H5  619   3.413   3.366   1.126  3.5846 -1.3916  1.4372
   40MPD2     C  620   2.657   2.999   1.201  0.4869  0.4009  0.0098
   40MPD2    C1  621   2.678   3.137   1.222 -0.2250 -0.0154 -0.3754
   40MPD2    C2  622   2.571   3.221   1.232 -0.0718 -0.1454  0.7423
   40MPD2    C3  623   2.441   3.164   1.214 -0.4549 -0.6509  0.5181
   40MPD2    C4  624   2.421   3.022   1.202 -0.5274 -0.1408 -0.0380
   40MPD2    C5  625   2.528   2.943   1.186  0.1101 -0.0120 -0.2804
   40MPD2     H  626   2.588   3.325   1.258  0.3131 -0.1447  0.4731
   40MPD2    H1  627   2.325   2.972   1.207 -0.2108 -0.6326  0.9283
   40MPD2    H2  628   2.737   2.927   1.192 -0.7564 -0.9588 -0.1719
   40MPD2    H3  629   2.511   2.837   1.180  1.2457 -0.4200  3.6670
   40MPD2     N  630   2.322   3.243   1.215  0.4566  0.0741 -0.1063
   40MPD2    H5  631   2.237   3.197   1.184 -0.0016 -0.0023  1.2688
   40MPD2    N1  632   2.815   3.184   1.225  0.4143  0.8566  0.2770
   40MPD2    H7  633   2.875   3.113   1.186 -0.2328  0.7112 -0.4560
   41TMC2    C1  634   1.793   2.128  13.270 -0.0034  0.2638 -0.1287
   41TMC2    C2  635   1.658   2.135  13.286 -0.0611  0.3847 -0.0933
   41TMC2    C3  636   1.582   2.200  13.185  0.6932 -0.5237 -0.6073
   41TMC2    C4  637   1.849   2.179  13.157  0.0525  0.2716  0.4902
   41TMC2    C5  638   1.772   2.257  13.067 -0.0709  0.7627 -0.0938
   41TMC2    C6  639   1.642   2.267  13.079  0.4499  0.3898 -0.4219
   41TMC2     C  640   1.882   2.102  13.377  0.4497 -0.5987 -0.2157
   41TMC2     O  641   2.003   2.114  13.349  0.5077 -0.4396 -0.4341
   41TMC2     H  642   1.606   2.078  13.363 -1.0927 -0.3212 -1.3162
   41TMC2    H1  643   1.956   2.182  13.138  0.0463 -1.1830  0.2539
   41TMC2    H2  644   1.588   2.327  13.006  3.0494  2.5496 -0.5636
   41TMC2    C7  645   1.833   2.317  12.946  0.1280 -0.3377  0.0592
   41TMC2    C8  646   1.445   2.174  13.183 -0.2557 -0.5049  0.2168
   41TMC2    O1  647   1.773   2.409  12.890 -0.1183  0.7312 -0.0875
   41TMC2    O2  648   1.378   2.110  13.269  0.0914  0.2916  0.5120
   41TMC2    O5  649   1.399   2.185  13.059 -0.9247  0.4375  0.4623
   41TMC2    H5  650   1.449   2.202  12.976 -1.3163 -0.2705  0.0796
   42MPD2     C  651   2.038   2.020  13.614 -0.3619  0.4133 -0.0733
   42MPD2    C1  652   1.899   2.018  13.610 -0.2077  0.1218  0.5071
   42MPD2    C2  653   1.833   1.963  13.720 -0.4717 -0.0987  0.7749
   42MPD2    C3  654   1.905   1.916  13.826  0.6316 -0.0908  0.4303
   42MPD2    C4  655   2.044   1.914  13.823 -0.5811  0.3657 -0.0146
   42MPD2    C5  656   2.102   1.955  13.709  0.5891  0.3528 -0.1016
   42MPD2     H  657   1.725   1.960  13.728 -0.6369 -0.8889 -1.7150
   42MPD2    H1  658   2.105   1.876  13.904 -1.2351  0.0826  0.3413
   42MPD2    H2  659   2.106   2.048  13.534  2.1272 -0.9648  1.5627
   42MPD2    H3  660   2.211   1.956  13.712  0.6382  0.6842 -2.3847
   42MPD2     N  661   1.838   1.875  13.946  0.6649 -0.1438 -0.0054
   42MPD2    H5  662   1.905   1.850  14.018 -0.2885 -0.8717  0.6469
   42MPD2    N1  663   1.824   2.060  13.496 -0.7831  0.0888 -0.2120
   42MPD2    H7  664   1.723   2.044  13.493 -0.0833 -4.7363  2.0048
   43TMC2    C1  665   2.655   0.726   0.790  0.4606  0.0507 -0.0999
   43TMC2    C2  666   2.537   0.783   0.746 -0.6467  1.1726 -0.1249
   43TMC2    C3  667   2.484   0.901   0.805 -0.1798 -0.3303  0.4950
   43TMC2    C4  668   2.731   0.787   0.889  0.5852 -0.4046 -0.3922
   43TMC2    C5  669   2.685   0.913   0.928  0.2147  0.1050 -0.1959
   43TMC2    C6  670   2.566   0.968   0.887 -0.6983  0.0080 -0.1736
   43TMC2     C  671   2.714   0.609   0.723  0.2693 -0.2229 -0.5460
   43TMC2     O  672   2.833   0.592   0.754  0.0999 -0.4654  0.7402
   43TMC2     H  673   2.494   0.737   0.658 -0.9547 -0.5502  0.9377
   43TMC2    H1  674   2.825   0.751   0.929 -0.1822  0.5780  2.3201
   43TMC2    H2  675   2.541   1.069   0.919  0.6502 -0.3780  2.0653
   43TMC2    C7  676   2.759   0.986   1.027  0.6317  0.2563 -0.3052
   43TMC2    C8  677   2.360   0.966   0.759 -0.3129 -0.1624  0.3439
   43TMC2    O1  678   2.709   1.078   1.080  0.0224 -0.0855  0.0196
   43TMC2    O2  679   2.350   1.091   0.743 -0.6189 -0.2657 -0.3662
   43TMC2    O5  680   2.275   0.887   0.688  0.1604  0.3551  0.4011
   43TMC2    H5  681   2.294   0.793   0.711 -0.0010  0.7706  2.1895
   44MPD2     C  682   2.685   0.185   0.433 -0.1395 -0.3430  0.1275
   44MPD2    C1  683   2.785   0.232   0.509 -0.4356 -0.6067  0.6868
   44MPD2    C2  684   2.769   0.351   0.577  0.2839  0.7334 -0.0298
   44MPD2    C3  685   2.656   0.427   0.564  0.4576  0.0512  0.2611
   44MPD2    C4  686   2.558   0.377   0.490  0.3545  0.7807  0.0541
   44MPD2    C5  687   2.570   0.262   0.422  0.1530 -0.2737  0.3119
   44MPD2     H  688   2.855   0.381   0.636  0.5821  2.1139 -1.1772
   44MPD2    H1  689   2.463   0.429   0.486 -0.6847 -1.1059  0.3975
   44MPD2    H2  690   2.683   0.081   0.401 -0.6281 -0.6217  1.0445
   44MPD2    H3  691   2.481   0.219   0.378  0.1177 -0.2923  0.4013
   44MPD2     N  692   2.630   0.548   0.631  0.2296 -0.7911 -0.1283
   44MPD2    H5  693   2.535   0.582   0.625 -0.1672 -1.8857  0.0925
   44MPD2    N1  694   2.901   0.156   0.516  0.1732 -0.1905  0.1041
   44MPD2    H7  695   2.972   0.190   0.579 -0.9448  0.2568  1.1300
   45TMC2    C1  696   3.489   2.143   9.795  0.3832  0.4197  0.8092
   45TMC2    C2  697   3.391   2.117   9.704  0.0491  0.5345 -0.3654
   45TMC2    C3  698   3.341   2.229   9.636  0.6656 -0.1383 -0.1425
   45TMC2    C4  699   3.542   2.269   9.818 -0.1918 -0.5827 -0.3424
   45TMC2    C5  700   3.492   2.377   9.744  0.1129  0.1636 -0.0458
   45TMC2    C6  701   3.389   2.356   9.659  0.3340 -0.1183 -0.2965
   45TMC2     C  702   3.537   2.032   9.875 -0.1613 -0.3018 -0.1358
   45TMC2     O  703   3.618   2.074   9.961 -0.0585 -0.4414 -0.2364
   45TMC2     H  704   3.347   2.018   9.695 -0.3750  0.7122 -0.2491
   45TMC2    H1  705   3.620   2.277   9.893 -1.3106  2.4476  0.4857
   45TMC2    H2  706   3.334   2.436   9.610 -0.1278  0.2138  0.7592
   45TMC2    C7  707   3.542   2.505   9.787  0.5872 -0.8862 -0.2916
   45TMC2    C8  708   3.261   2.192   9.523 -0.0542  0.4736  0.1496
   45TMC2    O1  709   3.636   2.499   9.866 -0.1638  0.0757  0.2215
   45TMC2    O2  710   3.166   2.115   9.531  0.0677  0.0104 -0.0946
   45TMC2    O5  711   3.326   2.223   9.414 -0.3407  0.7088 -0.0031
   45TMC2    H5  712   3.411   2.268   9.430  0.4593 -0.7874 -0.1188
   46MPD2     C  713   3.681   1.787   9.962  0.4766 -0.1603 -0.1265
   46MPD2    C1  714   3.571   1.786   9.880 -0.2348  0.1824 -0.4277
   46MPD2    C2  715   3.533   1.660   9.833 -0.0377  0.4285 -0.3598
   46MPD2    C3  716   3.598   1.543   9.877  0.1079 -0.4576  0.3347
   46MPD2    C4  717   3.692   1.556   9.979  0.5200  0.1392 -0.6947
   46MPD2    C5  718   3.742   1.675  10.013  0.5857 -1.2051  0.1146
   46MPD2     H  719   3.458   1.657   9.755  1.2312 -0.0400 -1.5776
   46MPD2    H1  720   3.714   1.464  10.032 -1.6862  0.7279  1.2111
   46MPD2    H2  721   3.723   1.881   9.996 -0.7714  0.3411  0.0545
   46MPD2    H3  722   3.818   1.694  10.088 -0.2417 -1.1894  0.9364
   46MPD2     N  723   3.555   1.415   9.839  0.8546 -0.1340 -0.0798
   46MPD2    H5  724   3.467   1.410   9.789  0.5150 -0.4890  0.5502
   46MPD2    N1  725   3.501   1.901   9.839  0.2003  0.6953  0.2955
   46MPD2    H7  726   3.432   1.888   9.766  2.3589  1.0840 -1.8218
   47TMC2    C1  727   0.547   1.838   8.418 -0.2091  0.2396  0.2608
   47TMC2    C2  728   0.494   1.887   8.304  0.3151 -0.5063 -0.1208
   47TMC2    C3  729   0.358   1.865   8.292 -0.6197 -0.2194 -0.3508
   47TMC2    C4  730   0.469   1.790   8.515  0.3598 -0.0241 -0.9337
   47TMC2    C5  731   0.332   1.789   8.502  0.5813 -0.6054 -0.8205
   47TMC2    C6  732   0.276   1.822   8.385  0.3060  0.1130 -0.3673
   47TMC2     C  733   0.686   1.855   8.434 -0.7246  0.2354 -0.8791
   47TMC2     O  734   0.748   1.867   8.326  0.5855  0.6081 -1.0049
   47TMC2     H  735   0.551   1.926   8.220  0.0746 -1.4650 -0.7302
   47TMC2    H1  736   0.504   1.743   8.606  1.2369  0.0801 -1.2177
   47TMC2    H2  737   0.169   1.839   8.377  0.1723  0.4837  1.9440
   47TMC2    C7  738   0.255   1.741   8.616  0.4162 -0.2687 -0.5531
   47TMC2    C8  739   0.290   1.917   8.176 -0.2191 -0.2843 -0.6689
   47TMC2    O1  740   0.315   1.720   8.722 -0.0822 -0.0023  0.1734
   47TMC2    O2  741   0.355   1.913   8.069 -0.2267 -0.1308  0.6119
   47TMC2    O5  742   0.213   2.019   8.217  0.5340  1.0778 -0.5315
   47TMC2    H5  743   0.184   2.021   8.311  1.7005 -0.9793 -0.1204
   48MPD2     C  744   0.970   1.854   8.530 -0.4944 -0.4207  0.0732
   48MPD2    C1  745   0.866   1.840   8.615 -0.6779  0.1372 -0.1451
   48MPD2    C2  746   0.897   1.822   8.747  0.0000  0.0492  0.1440
   48MPD2    C3  747   1.025   1.789   8.789 -0.4437  0.2487  0.9373
   48MPD2    C4  748   1.127   1.783   8.694 -1.1059 -0.6891 -0.3782
   48MPD2    C5  749   1.100   1.822   8.564  0.5306  0.0288 -0.1754
   48MPD2     H  750   0.808   1.816   8.809 -0.0077  1.4652  0.2677
   48MPD2    H1  751   1.230   1.761   8.721 -0.5430 -1.9202 -3.5554
   48MPD2    H2  752   0.954   1.878   8.425  0.5178 -0.9710 -0.2083
   48MPD2    H3  753   1.180   1.831   8.491 -0.1146 -0.2617 -0.9150
   48MPD2     N  754   1.049   1.764   8.926  0.0247 -0.4357 -0.0989
   48MPD2    H5  755   0.975   1.794   8.988 -0.8308 -0.0501 -1.3122
   48MPD2    N1  756   0.732   1.847   8.568  0.0418 -0.5427 -0.4937
   48MPD2    H7  757   0.662   1.838   8.641  2.3303  2.4456  2.1128
   49TMC2    C1  758   0.255   0.757  10.070 -0.0020 -0.2451  0.3338
   49TMC2    C2  759   0.312   0.869  10.023  0.4266 -0.3726 -0.0187
   49TMC2    C3  760   0.288   0.900   9.888  0.4592  0.4032 -0.1715
   49TMC2    C4  761   0.195   0.665   9.983  0.0637 -0.4587  0.1036
   49TMC2    C5  762   0.193   0.699   9.853  0.8742 -0.3461  0.2945
   49TMC2    C6  763   0.251   0.806   9.799 -0.2013 -0.4459  0.2532
   49TMC2     C  764   0.285   0.727  10.214 -0.2063  0.3745  0.0823
   49TMC2     O  765   0.355   0.807  10.278 -0.0633 -0.1672  0.0867
   49TMC2     H  766   0.363   0.948  10.078  3.2918 -2.3983  0.1800
   49TMC2    H1  767   0.166   0.569  10.022  0.3250 -0.4081  0.4237
   49TMC2    H2  768   0.266   0.830   9.695  0.6838  0.3922  0.5706
   49TMC2    C7  769   0.109   0.620   9.767 -0.4712 -0.0600  0.3088
   49TMC2    C8  770   0.372   1.003   9.832 -0.3261  0.0319 -0.2015
   49TMC2    O1  771   0.098   0.654   9.648  0.2934 -0.2507 -0.7123
   49TMC2    O2  772   0.458   1.067   9.893 -0.4716  0.3312  0.7375
   49TMC2    O5  773   0.291   1.050   9.734 -0.0167  0.1218 -0.4702
   49TMC2    H5  774   0.205   1.004   9.727 -0.8723  1.6515 -0.0064
   50MPD2     C  775   0.315   0.626  10.489  0.0223  0.1220  1.1898
   50MPD2    C1  776   0.240   0.558  10.393  0.5922  0.8157 -0.3821
   50MPD2    C2  777   0.172   0.445  10.426  0.2472  0.0799 -0.2410
   50MPD2    C3  778   0.182   0.400  10.553 -0.8584  0.3109  0.3409
   50MPD2    C4  779   0.248   0.468  10.650  0.0925  0.5369  0.9311
   50MPD2    C5  780   0.316   0.579  10.615 -0.8846  0.1263  0.3761
   50MPD2     H  781   0.119   0.389  10.350 -0.4770  1.7533 -0.9557
   50MPD2    H1  782   0.257   0.428  10.751 -0.9101  0.5224  1.0132
   50MPD2    H2  783   0.377   0.713  10.468 -0.2393  0.4057  1.6095
   50MPD2    H3  784   0.379   0.626  10.690 -2.7220  1.4061  1.1309
   50MPD2     N  785   0.132   0.266  10.593  0.1487  0.4809 -0.2428
   50MPD2    H5  786   0.146   0.237  10.690 -1.8251  0.0242 -0.0848
   50MPD2    N1  787   0.233   0.607  10.258 -0.3892  0.2586 -0.8478
   50MPD2    H7  788   0.177   0.550  10.195  1.4639 -1.4341 -0.9795
   51TMC2    C1  789   1.331   2.704   1.941 -0.6573 -0.5533 -0.1987
   51TMC2    C2  790   1.411   2.643   2.035  0.3568  0.5578  1.1009
   51TMC2    C3  791   1.458   2.729   2.128 -0.1701 -0.3977 -0.1961
   51TMC2    C4  792   1.299   2.836   1.934  0.4488 -0.9254 -0.1493
   51TMC2    C5  793   1.350   2.913   2.033 -0.7456 -0.1228 -0.2182
   51TMC2    C6  794   1.422   2.862   2.134 -0.2496  0.5744 -0.2157
   51TMC2     C  795   1.311   2.638   1.814 -0.0471  0.9895  0.5835
   51TMC2     O  796   1.219   2.675   1.741 -0.2807 -0.0905  0.1875
   51TMC2     H  797   1.430   2.537   2.045 -3.3987 -0.3984 -1.9698
   51TMC2    H1  798   1.242   2.872   1.849 -0.7905 -0.1461  1.0132
   51TMC2    H2  799   1.454   2.926   2.215  1.0180 -0.3392  0.0077
   51TMC2    C7  800   1.298   3.047   2.055 -0.5159 -0.2932  0.8264
   51TMC2    C8  801   1.480   2.675   2.257  0.4209  0.4805  0.1875
   51TMC2    O1  802   1.356   3.118   2.135  0.4136  0.5493  0.0319
   51TMC2    O2  803   1.541   2.571   2.260 -0.2811  0.3836  0.2718
   51TMC2    O5  804   1.353   2.696   2.301  0.4920 -0.1544  0.0506
   51TMC2    H5  805   1.318   2.783   2.274  2.1261 -0.3039 -2.6008
   52MPD2     C  806   1.379   2.211   1.546 -0.1928 -0.3847  0.5724
   52MPD2    C1  807   1.294   2.316   1.516  0.7232 -0.3849  0.0693
   52MPD2    C2  808   1.297   2.419   1.605 -0.2753 -0.3941 -0.2591
   52MPD2    C3  809   1.390   2.429   1.709 -0.5420 -0.1873 -0.1501
   52MPD2    C4  810   1.490   2.337   1.717  0.0035  0.3565  0.2429
   52MPD2    C5  811   1.484   2.225   1.640 -0.1039  0.2279  0.6531
   52MPD2     H  812   1.221   2.495   1.590  0.8350  0.5492 -1.0948
   52MPD2    H1  813   1.576   2.343   1.783 -1.2315 -0.7113  1.9408
   52MPD2    H2  814   1.388   2.128   1.476  3.1328  1.2034 -0.8871
   52MPD2    H3  815   1.563   2.150   1.642 -1.6091 -1.5038 -3.8671
   52MPD2     N  816   1.392   2.532   1.809  0.3002  0.4154 -0.2358
   52MPD2    H5  817   1.468   2.526   1.876  0.6039  0.2951 -0.5921
   52MPD2    N1  818   1.213   2.321   1.403 -0.2849  0.2457  0.2208
   52MPD2    H7  819   1.175   2.415   1.392  0.4915  0.2373 -2.6956
   53TMC2    C1  820   0.249   2.170  11.521 -0.8268  0.1987 -0.2007
   53TMC2    C2  821   0.356   2.119  11.451 -0.3107 -0.4525  0.4057
   53TMC2    C3  822   0.416   2.009  11.510  0.2351  0.4160  0.0209
   53TMC2    C4  823   0.230   2.134  11.650  0.6232  0.0187  0.1652
   53TMC2    C5  824   0.296   2.027  11.704  0.0919 -0.2766 -0.7193
   53TMC2    C6  825   0.398   1.968  11.645 -0.0325  0.3888 -0.0641
   53TMC2     C  826   0.125   2.181  11.448 -0.5002  0.5486 -0.1422
   53TMC2     O  827   0.119   2.223  11.334 -0.3201  0.1952  0.0684
   53TMC2     H  828   0.365   2.148  11.347 -1.4830  0.1884  0.4869
   53TMC2    H1  829   0.150   2.183  11.703  3.0403  2.0179  1.9949
   53TMC2    H2  830   0.463   1.897  11.695 -0.7710  2.1321  3.3891
   53TMC2    C7  831   0.245   1.971  11.829  0.4983 -0.2748  0.7113
   53TMC2    C8  832   0.530   1.959  11.429  0.5194  0.5170 -0.4841
   53TMC2    O1  833   0.124   1.997  11.842 -0.2955 -0.1947  0.5172
   53TMC2    O2  834   0.566   2.024  11.333  0.6182 -0.1210 -0.3533
   53TMC2    O5  835   0.548   1.824  11.455 -0.7070  0.0589  0.1022
   53TMC2    H5  836   0.516   1.794  11.543 -0.6945 -0.9982 -0.2604
   54MPD2     C  837   4.597   2.093  11.346  0.3580 -0.0912  0.1682
   54MPD2    C1  838   4.655   2.052  11.464 -0.1771  0.1893  0.3721
   54MPD2    C2  839   4.593   1.956  11.540 -0.2511  0.0722 -0.3059
   54MPD2    C3  840   4.480   1.888  11.494 -0.7854 -0.0475  0.1233
   54MPD2    C4  841   4.424   1.928  11.374 -0.1923  0.3835  0.5053
   54MPD2    C5  842   4.486   2.034  11.298  0.0169  0.6823 -0.2426
   54MPD2     H  843   4.652   1.922  11.624 -1.7897 -1.1144  0.3121
   54MPD2    H1  844   4.353   1.872  11.315 -0.8583  0.8992  0.8208
   54MPD2    H2  845   4.629   2.173  11.281 -0.6022 -0.5803 -0.9012
   54MPD2    H3  846   4.455   2.049  11.196  1.8509  1.3306 -0.7036
   54MPD2     N  847   4.409   1.786  11.565 -0.2567  0.8226  0.1932
   54MPD2    H5  848   4.311   1.779  11.538 -0.0982 -0.8898  0.1001
   54MPD2    N1  849   0.037   2.104  11.517 -0.9545  0.3414  0.4582
   54MPD2    H7  850   0.077   2.056  11.597 -0.6406 -1.1158 -0.5629
   55TMC2    C1  851   1.337   4.465   0.054  0.2182 -0.3656 -0.1641
   55TMC2    C2  852   1.312   4.452  17.671 -0.1319 -0.1014 -0.4168
   55TMC2    C3  853   1.272   4.324  17.636  0.1249 -0.5448  0.1078
   55TMC2    C4  854   1.332   4.361   0.144  0.6957 -0.9473 -0.1045
   55TMC2    C5  855   1.297   4.236   0.101  0.4165 -0.8764  0.2724
   55TMC2    C6  856   1.268   4.221  17.726  0.2893 -0.7181 -0.2941
   55TMC2     C  857   1.353   4.602   0.103  0.6103 -0.2958  0.3422
   55TMC2     O  858   1.340   4.617   0.224 -0.4917 -0.0878  0.2405
   55TMC2     H  859   1.297   4.540  17.610 -3.1003  0.0204  0.5056
   55TMC2    H1  860   1.371   4.384   0.243  1.9970  0.6344 -0.9848
   55TMC2    H2  861   1.263   4.119  17.691 -0.2884 -0.8483  0.1754
   55TMC2    C7  862   1.281   4.127   0.193  0.2645  0.0562  0.0932
   55TMC2    C8  863   1.292   4.286  17.496  0.1888 -0.4647 -0.5135
   55TMC2    O1  864   1.258   4.020   0.137 -0.2589 -0.5473  0.3073
   55TMC2    O2  865   1.269   4.174  17.457 -0.7085 -0.0786 -0.2646
   55TMC2    O5  866   1.387   4.363  17.445 -0.2054  0.2736 -0.2656
   55TMC2    H5  867   1.395   4.450  17.490  0.7221 -0.2495  0.5788
   56MPD2     C  868   1.415   0.167  17.657 -0.5258 -0.2334 -0.1461
   56MPD2    C1  869   1.385   0.089   0.016 -0.5337  0.1385 -0.3649
   56MPD2    C2  870   1.328   0.148   0.125  0.3505  1.1185 -0.5293
   56MPD2    C3  871   1.304   0.281   0.130 -0.0607 -0.0950  0.1434
   56MPD2    C4  872   1.342   0.362   0.024 -0.3972  0.6710  0.4824
   56MPD2    C5  873   1.388   0.303  17.664  0.7279  0.4980 -1.0091
   56MPD2     H  874   1.289   0.087   0.206  2.0786 -0.1364 -0.6318
   56MPD2    H1  875   1.304   0.462   0.007 -0.9859  0.0966 -1.5711
   56MPD2    H2  876   1.450   0.124  17.564 -2.2898 -2.3007  0.1611
   56MPD2    H3  877   1.401   0.361  17.574 -1.8955 -0.4424 -1.9962
   56MPD2     N  878   1.229   0.326   0.242 -0.3322  0.5687 -0.1633
   56MPD2    H5  879   1.221   0.257   0.316  0.2046  0.3794 -0.2796
   56MPD2    N1  880   1.393   4.690   0.009 -0.5647  0.6984  0.5197
   56MPD2    H7  881   1.422   4.646  17.677 -0.2590  1.0317  0.4552
   57TMC2    C1  882   0.737   0.610  13.579 -0.3821 -0.4942 -0.1981
   57TMC2    C2  883   0.783   0.608  13.714  0.1147  0.6420 -0.7071
   57TMC2    C3  884   0.922   0.588  13.725  0.5494  0.3252  0.6239
   57TMC2    C4  885   0.813   0.604  13.469 -0.4331  0.3091  0.0462
   57TMC2    C5  886   0.944   0.587  13.491  0.1308  0.8024 -0.0419
   57TMC2    C6  887   1.003   0.568  13.613 -0.3783 -0.0552 -0.5339
   57TMC2     C  888   0.591   0.578  13.571  0.6372 -0.5493  0.1204
   57TMC2     O  889   0.519   0.650  13.633  0.1435 -0.1053 -0.2629
   57TMC2     H  890   0.710   0.610  13.794  0.2117  1.1142 -0.6319
   57TMC2    H1  891   0.777   0.624  13.369  1.3329  0.5565 -0.5440
   57TMC2    H2  892   1.111   0.563  13.615 -0.4568 -0.7514  2.4061
   57TMC2    C7  893   1.027   0.577  13.369  0.2060 -0.1965 -0.5472
   57TMC2    C8  894   0.964   0.519  13.848 -0.3012 -0.2694  0.1373
   57TMC2    O1  895   0.994   0.654  13.275 -0.1112 -0.3151  0.1426
   57TMC2    O2  896   1.045   0.428  13.846 -0.1633  0.0444  0.1863
   57TMC2    O5  897   0.891   0.560  13.952  0.2663  0.4633  1.1256
   57TMC2    H5  898   0.862   0.653  13.941 -1.6701 -0.4715 -1.7698
   58MPD2     C  899   0.194   0.288  13.461  0.3219 -0.0135 -0.2983
   58MPD2    C1  900   0.197   0.425  13.490  0.4790  0.4026  0.4361
   58MPD2    C2  901   0.320   0.477  13.512 -0.6173 -0.9373 -0.1542
   58MPD2    C3  902   0.437   0.396  13.517 -0.5689  0.3780  0.1712
   58MPD2    C4  903   0.431   0.263  13.486  0.4163 -0.1254 -0.8777
   58MPD2    C5  904   0.307   0.209  13.449 -0.1624  0.3181 -0.2540
   58MPD2     H  905   0.324   0.585  13.524  2.6642 -0.8436 -1.9392
   58MPD2    H1  906   0.519   0.199  13.492  1.5373  1.3067 -2.1298
   58MPD2    H2  907   0.103   0.240  13.427  0.0621 -0.3216  0.8244
   58MPD2    H3  908   0.306   0.104  13.422 -1.3537  0.2977 -0.1263
   58MPD2     N  909   0.566   0.450  13.528  0.7706 -0.2324 -0.0474
   58MPD2    H5  910   0.645   0.393  13.499  0.4670 -0.9779  0.5758
   58MPD2    N1  911   0.088   0.507  13.491 -0.3550 -0.3431 -0.1978
   58MPD2    H7  912   0.102   0.596  13.538 -0.1494 -0.2244 -0.4868
   59TMC2    C1  913   2.645   1.631  13.048  0.2644 -0.4180 -0.4947
   59TMC2    C2  914   2.593   1.510  13.062  0.1754 -0.6961  0.2102
   59TMC2    C3  915   2.572   1.433  12.950 -0.4987 -0.9536 -0.0846
   59TMC2    C4  916   2.671   1.686  12.919 -0.6718 -0.0734 -0.2133
   59TMC2    C5  917   2.643   1.614  12.805  0.9545  0.0238 -0.1296
   59TMC2    C6  918   2.599   1.482  12.825  0.2571  0.0242  1.5766
   59TMC2     C  919   2.723   1.683  13.158 -0.2935 -0.2173 -0.5860
   59TMC2     O  920   2.743   1.805  13.145  0.2314 -0.8148 -0.0322
   59TMC2     H  921   2.570   1.467  13.159 -2.5942 -0.9289 -0.5733
   59TMC2    H1  922   2.723   1.781  12.913  0.0513 -0.4261  0.3556
   59TMC2    H2  923   2.582   1.418  12.739  0.6555  1.7528  0.2118
   59TMC2    C7  924   2.702   1.645  12.681 -0.7763 -1.3011 -1.4955
   59TMC2    C8  925   2.520   1.303  12.961 -0.3672 -0.6601  0.6198
   59TMC2    O1  926   2.767   1.554  12.628  0.4118  0.0922 -0.3046
   59TMC2    O2  927   2.556   1.212  12.889 -0.3923 -0.0989  0.0166
   59TMC2    O5  928   2.458   1.284  13.080  0.4616  0.0767 -0.4996
   59TMC2    H5  929   2.424   1.366  13.122  1.4334 -0.7257  1.7993
   60MPD2     C  930   2.950   1.746  13.341  0.5089  0.0826  0.0517
   60MPD2    C1  931   2.898   1.619  13.314 -0.1158  0.0130 -0.5187
   60MPD2    C2  932   2.957   1.512  13.375  0.1329 -0.5898  0.1317
   60MPD2    C3  933   3.069   1.533  13.455 -0.4531 -0.1975  0.5115
   60MPD2    C4  934   3.116   1.665  13.472 -0.3208 -0.1652  0.4632
   60MPD2    C5  935   3.052   1.775  13.422 -0.5336 -0.1432  0.1222
   60MPD2     H  936   2.919   1.411  13.363 -0.5536  0.0314 -2.9990
   60MPD2    H1  937   3.200   1.678  13.539  0.2364 -1.8423  0.1083
   60MPD2    H2  938   2.905   1.833  13.295 -0.5733  0.3056  1.5113
   60MPD2    H3  939   3.073   1.876  13.457 -0.0739  0.4344 -1.7898
   60MPD2     N  940   3.145   1.429  13.514 -0.3430 -0.1722  0.5081
   60MPD2    H5  941   3.236   1.451  13.551  1.0205 -0.8876 -2.4142
   60MPD2    N1  942   2.794   1.584  13.218  0.2974 -1.0018  0.1794
   60MPD2    H7  943   2.771   1.488  13.196 -0.4026 -1.2888  2.1705
   61TMC2    C1  944   2.079   2.191  15.752  0.1417 -0.3018 -0.8313
   61TMC2    C2  945   1.992   2.212  15.859  0.5141  0.3474  0.2601
   61TMC2    C3  946   2.011   2.323  15.937 -0.1671 -0.6285  0.2572
   61TMC2    C4  947   2.173   2.284  15.727  0.4108 -0.8290 -0.6893
   61TMC2    C5  948   2.195   2.385  15.823 -0.7246 -0.0644  0.0069
   61TMC2    C6  949   2.117   2.408  15.931  0.6088 -0.2496 -0.0329
   61TMC2     C  950   2.047   2.087  15.650  0.1654  0.0227 -0.6443
   61TMC2     O  951   1.954   2.010  15.687  1.2396  0.2557 -0.6114
   61TMC2     H  952   1.918   2.139  15.891  0.2589 -0.5398 -2.3348
   61TMC2    H1  953   2.235   2.288  15.638 -2.1493  0.8876 -2.3713
   61TMC2    H2  954   2.127   2.488  16.003  1.4152  0.7846 -1.2878
   61TMC2    C7  955   2.267   2.509  15.776  0.3294 -0.0118 -0.1212
   61TMC2    C8  956   1.941   2.327  16.057  0.4238  0.6030  0.2265
   61TMC2    O1  957   2.190   2.603  15.763  0.3579  0.0556  0.3367
   61TMC2    O2  958   1.993   2.365  16.160  0.2927  0.1473 -0.6421
   61TMC2    O5  959   1.834   2.390  16.011 -0.2761 -0.3588 -0.0193
   61TMC2    H5  960   1.826   2.382  15.914 -1.1831  0.7821 -0.0429
   62MPD2     C  961   2.004   1.910  15.410  0.2819 -0.0088  0.4899
   62MPD2    C1  962   2.093   2.021  15.411  0.4293  0.1135  1.0615
   62MPD2    C2  963   2.151   2.049  15.281  0.8696 -0.2928  0.4426
   62MPD2    C3  964   2.116   1.986  15.165  0.5136 -0.5228  0.1444
   62MPD2    C4  965   2.019   1.879  15.175 -0.4272 -0.2064  0.5313
   62MPD2    C5  966   1.965   1.847  15.293 -0.3749 -0.4008  0.7711
   62MPD2     H  967   2.222   2.131  15.274 -0.6468  0.9354 -0.3385
   62MPD2    H1  968   1.998   1.824  15.084 -1.3367  0.0686  0.5700
   62MPD2    H2  969   1.959   1.873  15.501 -1.2145 -0.3677 -0.4051
   62MPD2    H3  970   1.904   1.759  15.305 -1.8021  0.3673 -0.8138
   62MPD2     N  971   2.185   2.015  15.043  0.0243  0.2531 -0.2931
   62MPD2    H5  972   2.136   1.992  14.957 -0.0305 -0.8262  0.0189
   62MPD2    N1  973   2.117   2.094  15.533  0.0954 -0.9430  0.6576
   62MPD2    H7  974   2.195   2.159  15.528 -2.2933  2.0074  1.4843
   63TMC2    C1  975   1.175   2.684   9.957 -0.2994  0.0152  0.1524
   63TMC2    C2  976   1.201   2.577   9.873  0.1999  0.5009  0.2791
   63TMC2    C3  977   1.227   2.610   9.740  0.6473  0.0119 -0.2141
   63TMC2    C4  978   1.187   2.813   9.916 -1.2324  0.2965  0.2871
   63TMC2    C5  979   1.217   2.836   9.784 -0.2246  0.2147 -0.1761
   63TMC2    C6  980   1.234   2.733   9.695 -0.7224 -0.0907  0.4305
   63TMC2     C  981   1.087   2.665  10.075 -0.0633  0.2420 -0.3000
   63TMC2     O  982   1.014   2.758  10.102 -0.5197  0.1110  0.2139
   63TMC2     H  983   1.196   2.472   9.901 -0.8729 -0.3470 -3.1080
   63TMC2    H1  984   1.156   2.895   9.979  0.8007  2.0790 -1.0471
   63TMC2    H2  985   1.252   2.769   9.594 -2.3955 -1.9759 -0.5261
   63TMC2    C7  986   1.174   2.955   9.724  0.2091  0.1152 -0.2070
   63TMC2    C8  987   1.269   2.513   9.640  0.7781 -0.0130 -0.2457
   63TMC2    O1  988   1.123   2.944   9.618 -0.2966  0.3431  0.2739
   63TMC2    O2  989   1.323   2.538   9.534  0.4200  0.1000 -0.0260
   63TMC2    O5  990   1.195   2.406   9.674  0.4341  0.1904  0.2101
   63TMC2    H5  991   1.138   2.416   9.753  0.8078 -0.2415  0.5342
   64MPD2     C  992   0.935   2.389  10.491  0.2651  0.1486  0.1501
   64MPD2    C1  993   1.032   2.328  10.419 -0.1057  0.7240  0.0686
   64MPD2    C2  994   1.094   2.381  10.311  0.3042 -0.4872 -0.5499
   64MPD2    C3  995   1.054   2.501  10.260  0.4237 -0.6180  0.5169
   64MPD2    C4  996   0.953   2.569  10.331 -0.9170  0.2153  0.2642
   64MPD2    C5  997   0.900   2.515  10.451 -0.0815  0.5824  0.3838
   64MPD2     H  998   1.183   2.338  10.266  0.3405  0.0583 -0.9969
   64MPD2    H1  999   0.914   2.666  10.302  0.6516  0.7247 -0.1504
   64MPD2    H2 1000   0.873   2.342  10.567 -2.0684  2.2537 -0.4413
   64MPD2    H3 1001   0.821   2.569  10.502 -1.3965 -0.2618 -0.7626
   64MPD2     N 1002   1.108   2.546  10.140 -0.0605 -0.4097 -0.3128
   64MPD2    H5 1003   1.166   2.472  10.102  0.8277 -0.1167  0.4721
   64MPD2    N1 1004   1.074   2.200  10.452  0.1992 -0.2859  0.6306
   64MPD2    H7 1005   1.156   2.163  10.406 -0.5344 -1.4382  0.2404
   65TMC2    C1 1006   3.149   1.911  15.394  0.6071 -1.0646 -0.1515
   65TMC2    C2 1007   3.135   1.885  15.262 -0.0218  0.1715 -0.6981
   65TMC2    C3 1008   3.153   1.988  15.168 -0.8133 -0.5057 -0.2094
   65TMC2    C4 1009   3.158   2.043  15.439 -0.0100  0.3911  0.0009
   65TMC2    C5 1010   3.160   2.145  15.339 -0.6619  0.2899  0.5587
   65TMC2    C6 1011   3.160   2.117  15.206 -0.3862  0.8137  0.1794
   65TMC2     C 1012   3.154   1.810  15.499 -0.0974  0.2482  0.0276
   65TMC2     O 1013   3.197   1.833  15.610  0.0670 -0.2513  0.3006
   65TMC2     H 1014   3.142   1.784  15.223 -0.8537 -0.8665  1.8643
   65TMC2    H1 1015   3.187   2.073  15.539 -1.4987  1.4836  0.1100
   65TMC2    H2 1016   3.171   2.193  15.130 -3.2602  0.8526 -0.1846
   65TMC2    C7 1017   3.141   2.286  15.377  0.4105 -0.4018 -0.3849
   65TMC2    C8 1018   3.133   1.958  15.026 -0.4189  0.5447  0.2088
   65TMC2    O1 1019   3.151   2.356  15.277 -0.0753  0.2618  0.1088
   65TMC2    O2 1020   3.095   1.843  15.001 -0.0464  0.0697 -0.2579
   65TMC2    O5 1021   3.231   2.015  14.967  0.4663 -0.1959  0.4065
   65TMC2    H5 1022   3.277   2.080  15.025  0.1009  0.9169 -0.5465
   66MPD2     C 1023   3.125   1.555  15.659 -0.2154 -0.1304  0.4253
   66MPD2    C1 1024   3.090   1.574  15.523  1.0371  0.3051 -0.5209
   66MPD2    C2 1025   3.028   1.465  15.458  0.3298 -0.2352  0.2807
   66MPD2    C3 1026   2.997   1.352  15.530 -0.0906 -0.4032  0.0660
   66MPD2    C4 1027   3.009   1.345  15.668 -0.1636 -0.3515  0.2254
   66MPD2    C5 1028   3.079   1.442  15.735 -0.0736  0.2251 -0.9617
   66MPD2     H 1029   2.998   1.476  15.355  1.7628  2.0659  0.1162
   66MPD2    H1 1030   2.977   1.258  15.725 -1.3472  0.7235  1.1819
   66MPD2    H2 1031   3.190   1.627  15.707 -0.8425  1.3465 -0.9846
   66MPD2    H3 1032   3.091   1.435  15.843 -1.1987  1.8317 -0.7328
   66MPD2     N 1033   2.930   1.247  15.468 -0.3590  0.0963 -0.0798
   66MPD2    H5 1034   2.865   1.196  15.527  0.7750 -2.2439 -0.8605
   66MPD2    N1 1035   3.104   1.695  15.453  0.0802  0.2305 -0.0858
   66MPD2    H7 1036   3.078   1.689  15.355  1.4278  1.6958 -0.5290
   67TMC2    C1 1037   2.988   1.198  14.436 -0.3333  0.3041 -0.0364
   67TMC2    C2 1038   2.893   1.290  14.467  0.1466 -0.3437 -0.0827
   67TMC2    C3 1039   2.928   1.384  14.562  0.0575 -0.2693  0.1310
   67TMC2    C4 1040   3.103   1.179  14.501 -0.4299  1.0143 -0.0388
   67TMC2    C5 1041   3.134   1.267  14.605 -0.0841 -0.2974 -0.2871
   67TMC2    C6 1042   3.046   1.369  14.635  0.3625  0.4832 -0.4403
   67TMC2     C 1043   2.962   1.113  14.317 -0.5366  0.1499 -0.2150
   67TMC2     O 1044   3.052   1.033  14.287 -1.1965 -0.8268  0.5273
   67TMC2     H 1045   2.802   1.315  14.413  0.9396  0.9854 -0.7996
   67TMC2    H1 1046   3.180   1.120  14.451  0.0596  0.7530  1.0328
   67TMC2    H2 1047   3.075   1.439  14.712 -2.1953 -0.7868  1.7221
   67TMC2    C7 1048   3.250   1.250  14.687  0.1754  0.3300 -0.7600
   67TMC2    C8 1049   2.832   1.476  14.620 -0.6470 -0.1115 -0.2340
   67TMC2    O1 1050   3.348   1.200  14.632  0.0955  0.4405  0.5594
   67TMC2    O2 1051   2.851   1.501  14.737 -0.0473 -0.4050 -0.2553
   67TMC2    O5 1052   2.732   1.522  14.545  0.1304  0.3117 -0.2079
   67TMC2    H5 1053   2.720   1.489  14.453 -0.0718 -1.2557  0.3810
   68MPD2     C 1054   2.846   0.941  14.097 -0.1573 -0.0032 -0.4324
   68MPD2    C1 1055   2.783   1.037  14.163  0.2436  0.2530  0.0470
   68MPD2    C2 1056   2.652   1.054  14.134 -0.3823  0.2977  0.0974
   68MPD2    C3 1057   2.579   0.978  14.033  0.1093  0.3935  0.3752
   68MPD2    C4 1058   2.652   0.880  13.966  0.1497  0.4171 -0.7617
   68MPD2    C5 1059   2.786   0.864  14.001 -0.3352 -0.1926 -0.3157
   68MPD2     H 1060   2.607   1.133  14.192  0.9744  1.4758 -0.4505
   68MPD2    H1 1061   2.608   0.820  13.887 -0.7071  0.7401 -0.5318
   68MPD2    H2 1062   2.951   0.918  14.111 -0.2479  0.4778  0.9839
   68MPD2    H3 1063   2.845   0.787  13.954  2.0257  0.7283  1.1255
   68MPD2     N 1064   2.449   0.993  13.994  0.5297  0.1369  0.1322
   68MPD2    H5 1065   2.414   0.935  13.919  0.5670 -2.1226  1.8456
   68MPD2    N1 1066   2.835   1.120  14.263 -0.4469  0.0348  0.2921
   68MPD2    H7 1067   2.776   1.195  14.299 -2.5835 -1.6268  0.3093
   69TMC2    C1 1068   0.460   2.014  12.376 -0.4505  0.7433 -1.1283
   69TMC2    C2 1069   0.419   2.128  12.441  0.0190  0.1780  0.4996
   69TMC2    C3 1070   0.411   2.242  12.367  0.1270  0.3699  0.4748
   69TMC2    C4 1071   0.504   2.014  12.249 -0.1751  0.8711  0.5612
   69TMC2    C5 1072   0.497   2.133  12.183  0.1604 -0.2377 -0.5406
   69TMC2    C6 1073   0.441   2.251  12.235  0.9702 -0.0199  0.4068
   69TMC2     C 1074   0.437   1.899  12.451 -0.7444  0.1579 -0.3811
   69TMC2     O 1075   0.367   1.912  12.553  0.2777 -0.2941  0.1514
   69TMC2     H 1076   0.378   2.121  12.541  0.3369  2.9180  0.8226
   69TMC2    H1 1077   0.533   1.929  12.188 -2.3819 -0.0816  0.8154
   69TMC2    H2 1078   0.434   2.345  12.182 -2.2089 -0.2825  0.3663
   69TMC2    C7 1079   0.564   2.142  12.053 -0.1700  0.1488 -0.2808
   69TMC2    C8 1080   0.333   2.347  12.430 -0.2903 -0.3549 -0.1058
   69TMC2    O1 1081   0.664   2.073  12.041 -0.1894  0.3638  0.0125
   69TMC2    O2 1082   0.281   2.325  12.541  0.1881 -0.2668 -0.1536
   69TMC2    O5 1083   0.321   2.469  12.371 -0.2757 -0.0245  0.3099
   69TMC2    H5 1084   0.386   2.491  12.301 -0.3552  0.1533  0.2903
   70MPD2     C 1085   0.644   1.594  12.443  0.2144  1.0022  0.1128
   70MPD2    C1 1086   0.531   1.668  12.469 -0.0957 -0.0172  0.7679
   70MPD2    C2 1087   0.440   1.608  12.559 -0.1532 -0.8633  0.5186
   70MPD2    C3 1088   0.479   1.508  12.643 -0.0278  0.4852  0.3659
   70MPD2    C4 1089   0.590   1.436  12.610  0.2071 -0.0228  0.2549
   70MPD2    C5 1090   0.677   1.482  12.511 -0.0008 -0.8252  0.0102
   70MPD2     H 1091   0.346   1.663  12.566  1.1805  1.5165 -0.1468
   70MPD2    H1 1092   0.616   1.352  12.674  0.2316 -0.1660  0.0552
   70MPD2    H2 1093   0.712   1.623  12.363  0.3395 -0.0216 -0.1473
   70MPD2    H3 1094   0.767   1.424  12.491  1.8316  1.7601  0.7957
   70MPD2     N 1095   0.399   1.474  12.754 -0.6599 -0.5961 -1.1362
   70MPD2    H5 1096   0.428   1.415  12.832 -2.5640  0.8657  0.6717
   70MPD2    N1 1097   0.518   1.795  12.408  0.4587  0.3894  0.1570
   70MPD2    H7 1098   0.591   1.812  12.339 -0.2580 -0.0918 -0.7134
   71TMC2    C1 1099   2.609   2.411   1.211 -0.4409  0.5002 -0.1666
   71TMC2    C2 1100   2.732   2.357   1.208 -0.3506 -0.0321 -0.4830
   71TMC2    C3 1101   2.748   2.242   1.279  0.0408 -0.4976 -0.4251
   71TMC2    C4 1102   2.505   2.354   1.272  0.2302  0.7516  0.3759
   71TMC2    C5 1103   2.526   2.242   1.354  0.4811 -0.0302 -0.0311
   71TMC2    C6 1104   2.652   2.182   1.357  0.0288 -0.2381 -0.5798
   71TMC2     C 1105   2.582   2.525   1.121  0.0144  0.4729 -0.4618
   71TMC2     O 1106   2.464   2.551   1.122  0.2267 -0.2936  0.3398
   71TMC2     H 1107   2.813   2.405   1.155  0.8018 -1.5171 -0.0612
   71TMC2    H1 1108   2.412   2.409   1.283  1.4770  2.3204  2.9762
   71TMC2    H2 1109   2.675   2.092   1.413  0.4015  0.6668  0.7217
   71TMC2    C7 1110   2.422   2.179   1.426 -0.9099  0.1220  0.2463
   71TMC2    C8 1111   2.889   2.205   1.301 -0.1260  0.4798  0.4410
   71TMC2    O1 1112   2.448   2.061   1.463  0.2449 -0.6175 -0.1828
   71TMC2    O2 1113   2.931   2.171   1.411 -0.8157  0.5721  0.2297
   71TMC2    O5 1114   2.946   2.180   1.180 -0.2097  0.2755 -0.0792
   71TMC2    H5 1115   2.887   2.197   1.104  1.2906 -0.4369 -1.4117
   72MPD2     C 1116   2.701   2.893   0.774  0.3173  0.4780  0.3309
   72MPD2    C1 1117   2.577   2.849   0.825  0.2609 -0.3769 -0.6802
   72MPD2    C2 1118   2.565   2.748   0.922 -1.0808  0.3314  0.4573
   72MPD2    C3 1119   2.683   2.688   0.962 -0.9991 -0.6330 -0.3625
   72MPD2    C4 1120   2.805   2.731   0.909 -0.1345 -0.2107 -1.2242
   72MPD2    C5 1121   2.811   2.828   0.813 -0.3358 -0.0085  0.1338
   72MPD2     H 1122   2.464   2.725   0.953 -0.6533 -1.9770  0.1216
   72MPD2    H1 1123   2.900   2.694   0.944  0.8286  2.6332 -0.8456
   72MPD2    H2 1124   2.710   2.980   0.710 -1.6176 -0.6770 -1.5159
   72MPD2    H3 1125   2.908   2.868   0.783 -0.5590  0.6398  0.2658
   72MPD2     N 1126   2.685   2.578   1.053  0.3637  0.1887  0.3564
   72MPD2    H5 1127   2.776   2.546   1.086  1.6200  3.0812 -0.3315
   72MPD2    N1 1128   2.466   2.914   0.772  0.3357 -0.1805  0.5573
   72MPD2    H7 1129   2.489   2.985   0.703 -1.3497  0.9008  1.1151
   73TMC2    C1 1130   2.190   4.427  13.809 -0.3280  0.3120 -0.1693
   73TMC2    C2 1131   2.160   4.418  13.937 -0.4583 -0.0228  0.0632
   73TMC2    C3 1132   2.240   4.357  14.031 -0.0644 -0.4143  0.2331
   73TMC2    C4 1133   2.315   4.383  13.772  0.2651  0.1226 -0.0155
   73TMC2    C5 1134   2.395   4.331  13.872 -0.1371  0.6436 -0.7104
   73TMC2    C6 1135   2.360   4.315  14.000 -0.3784  0.4883  0.3660
   73TMC2     C 1136   2.176   4.561  13.749 -0.9468  0.0397  0.0025
   73TMC2     O 1137   2.268   4.586  13.671  0.3280 -0.1009  0.2431
   73TMC2     H 1138   2.068   4.456  13.980 -0.4074  2.8424 -2.3933
   73TMC2    H1 1139   2.348   4.383  13.669  1.4604  0.2418  0.3669
   73TMC2    H2 1140   2.412   4.245  14.065 -1.3345  0.4269  1.0626
   73TMC2    C7 1141   2.537   4.375  13.868  0.1464 -0.2721  0.0700
   73TMC2    C8 1142   2.178   4.283  14.137 -0.6014 -0.0605 -0.3672
   73TMC2    O1 1143   2.622   4.315  13.937 -0.0523  0.3371 -0.1851
   73TMC2    O2 1144   2.060   4.243  14.143 -0.4883 -0.0095 -0.1996
   73TMC2    O5 1145   2.249   4.313  14.249  0.4268  0.2601  0.1772
   73TMC2    H5 1146   2.306   4.385  14.216 -0.8775  0.7773 -0.9464
   74MPD2     C 1147   1.966   0.248  13.595  0.2804 -0.1392  0.1877
   74MPD2    C1 1148   2.103   0.220  13.611  0.2832  0.1358  0.0397
   74MPD2    C2 1149   2.132   0.094  13.672 -0.8852  0.2102 -0.0053
   74MPD2    C3 1150   2.034   0.015  13.717 -0.4363 -0.2740  0.0431
   74MPD2    C4 1151   1.904   0.050  13.706  1.0165 -0.1467 -0.0673
   74MPD2    C5 1152   1.871   0.163  13.639  0.2131  0.2938 -0.4442
   74MPD2     H 1153   2.235   0.069  13.695 -0.8210 -0.5056 -1.0784
   74MPD2    H1 1154   1.832   4.718  13.744  1.5508 -0.9581 -0.5501
   74MPD2    H2 1155   1.941   0.325  13.522 -2.0014 -2.4774 -1.4729
   74MPD2    H3 1156   1.766   0.170  13.613 -0.5697 -0.1647  2.5664
   74MPD2     N 1157   2.060   4.626  13.767  0.1021 -0.4710  0.3712
   74MPD2    H5 1158   1.987   4.573  13.814  0.1931 -0.7194  0.2264
   74MPD2    N1 1159   2.204   0.313  13.567 -0.6443  0.5404  0.4594
   74MPD2    H7 1160   2.172   0.392  13.512  0.0559 -0.0342 -0.7675
   75TMC2    C1 1161   2.232   1.072  14.008 -0.6533 -0.2753  0.6979
   75TMC2    C2 1162   2.130   1.096  14.093  0.3961  0.4966 -0.0495
   75TMC2    C3 1163   2.014   1.133  14.038  0.1415 -0.4158  0.3731
   75TMC2    C4 1164   2.209   1.075  13.876 -0.2721  0.7562 -0.3500
   75TMC2    C5 1165   2.087   1.105  13.821  0.1032  0.4621  0.5878
   75TMC2    C6 1166   1.985   1.140  13.906  0.6829  0.1710  0.1135
   75TMC2     C 1167   2.370   1.072  14.058 -0.2745 -0.3367 -0.7539
   75TMC2     O 1168   2.382   1.125  14.167  0.3541 -0.2103 -0.5514
   75TMC2     H 1169   2.140   1.087  14.200  0.3296  1.5915  0.0419
   75TMC2    H1 1170   2.288   1.057  13.803 -0.4397 -2.2765  0.2280
   75TMC2    H2 1171   1.886   1.173  13.878  0.3014 -0.7086  0.4192
   75TMC2    C7 1172   2.070   1.121  13.675  0.9590 -0.3322  0.3173
   75TMC2    C8 1173   1.913   1.189  14.130 -1.0099 -0.3637  0.2533
   75TMC2    O1 1174   2.113   1.032  13.603 -0.0853  0.7725 -0.0217
   75TMC2    O2 1175   1.945   1.238  14.236  0.0652  0.4490 -0.1694
   75TMC2    O5 1176   1.814   1.101  14.121  0.2847 -0.1618  0.3197
   75TMC2    H5 1177   1.796   1.060  14.034  3.9850 -2.6042  0.6831
   76TMC2    C1 1178   1.343   1.366  11.977 -0.0132 -1.0356  0.2836
   76TMC2    C2 1179   1.236   1.285  11.984 -0.0923 -0.0822 -0.0050
   76TMC2    C3 1180   1.215   1.204  12.092 -0.6781 -0.7121 -0.2477
   76TMC2    C4 1181   1.431   1.376  12.088  0.0904 -0.1807 -0.2158
   76TMC2    C5 1182   1.430   1.269  12.169  0.1875  0.6317 -0.5957
   76TMC2    C6 1183   1.317   1.185  12.182  0.9132 -0.2395  0.3597
   76TMC2     C 1184   1.354   1.463  11.870 -0.6779 -0.5314  0.0479
   76TMC2     O 1185   1.254   1.461  11.797  0.1303 -0.8305  0.1042
   76TMC2     H 1186   1.170   1.274  11.898  0.6548 -2.1195 -0.3039
   76TMC2    H1 1187   1.500   1.459  12.099 -1.7818  1.2230  0.8176
   76TMC2    H2 1188   1.292   1.141  12.278 -0.7834  0.4112  0.2317
   76TMC2    C7 1189   1.516   1.274  12.280  0.4857  0.0617  0.4597
   76TMC2    C8 1190   1.082   1.152  12.118  0.5649 -0.6485 -0.4943
   76TMC2    O1 1191   1.466   1.255  12.392 -0.4760  0.1400 -0.4666
   76TMC2    O2 1192   0.974   1.205  12.097 -0.0084 -0.3200  0.3617
   76TMC2    O5 1193   1.097   1.038  12.183 -0.0394 -0.0371  0.3139
   76TMC2    H5 1194   1.186   0.998  12.177 -0.2927 -0.5929  0.2431
   77MPD2     C 1195   1.530   1.876  11.634 -0.4071  0.1053  0.5185
   77MPD2    C1 1196   1.409   1.807  11.624  0.0790 -0.9124 -0.0582
   77MPD2    C2 1197   1.388   1.706  11.703 -0.1145  0.3268 -0.4788
   77MPD2    C3 1198   1.485   1.658  11.791 -0.3318  0.5715  0.2098
   77MPD2    C4 1199   1.603   1.727  11.803 -0.6402  0.1025 -0.1756
   77MPD2    C5 1200   1.617   1.833  11.722 -0.2590 -0.0024  0.4491
   77MPD2     H 1201   1.290   1.661  11.693 -0.8481  1.6323  0.9954
   77MPD2    H1 1202   1.687   1.700  11.866 -1.7826  0.2163  1.3729
   77MPD2    H2 1203   1.549   1.969  11.582  0.5676  0.0749  0.8192
   77MPD2    H3 1204   1.706   1.894  11.734 -1.1350  1.4885 -0.6438
   77MPD2     N 1205   1.468   1.537  11.866 -0.1178 -0.0582 -0.4979
   77MPD2    H5 1206   1.553   1.503  11.911 -0.9855  0.6142  1.6466
   77MPD2    N1 1207   1.303   1.858  11.545  0.0571 -0.9423  0.3881
   77MPD2    H7 1208   1.220   1.801  11.564 -0.1525 -1.0375 -0.8371
   78TMC2    C1 1209   2.392   3.003   1.574  0.5793  0.0968  0.4385
   78TMC2    C2 1210   2.315   2.900   1.525 -0.3127 -0.1621  0.0459
   78TMC2    C3 1211   2.380   2.783   1.489 -0.3601  0.0483 -0.4487
   78TMC2    C4 1212   2.529   2.995   1.583 -0.5040  0.4799  0.9164
   78TMC2    C5 1213   2.589   2.876   1.535 -0.4227  0.3607 -0.1752
   78TMC2    C6 1214   2.513   2.766   1.501  0.0422 -0.1003  0.5750
   78TMC2     C 1215   2.323   3.118   1.630  0.1967  0.3886 -0.6101
   78TMC2     O 1216   2.200   3.117   1.631  0.2854  0.1699 -0.5424
   78TMC2     H 1217   2.207   2.901   1.518 -0.3505  0.9975  0.6605
   78TMC2    H1 1218   2.585   3.085   1.603  0.1594  0.2166  0.2460
   78TMC2    H2 1219   2.552   2.678   1.453 -1.7418  0.1791 -1.3612
   78TMC2    C7 1220   2.733   2.878   1.508  0.8317 -0.0144 -0.5227
   78TMC2    C8 1221   2.295   2.667   1.475 -0.1458  0.0830  0.7919
   78TMC2    O1 1222   2.784   2.782   1.454  0.1493 -0.2792  0.3524
   78TMC2    O2 1223   2.337   2.555   1.498 -0.2533  0.0878  0.5669
   78TMC2    O5 1224   2.179   2.690   1.411 -0.9505  0.0719 -0.0678
   78TMC2    H5 1225   2.172   2.778   1.368  2.2688 -0.5442 -1.8172
   79MPD1     C 1226   2.318   3.593   1.841  0.0101  0.2963  0.2827
   79MPD1    C1 1227   2.221   3.501   1.830  0.8532  0.1236  0.3527
   79MPD1    C2 1228   2.250   3.380   1.767  0.1474 -0.1393 -0.8309
   79MPD1    C3 1229   2.371   3.348   1.721  0.9492  0.2320 -0.9393
   79MPD1    C4 1230   2.466   3.441   1.727  0.0154  0.1556  0.0895
   79MPD1    C5 1231   2.436   3.560   1.783  0.4994 -0.5911  0.4733
   79MPD1     H 1232   2.169   3.308   1.763  1.0373 -1.2804  1.3075
   79MPD1    H1 1233   2.566   3.428   1.687  0.3406  2.6443  0.0886
   79MPD1    H2 1234   2.295   3.691   1.879  1.0748  0.3644  0.7350
   79MPD1    H3 1235   2.515   3.634   1.792 -1.2343  1.2175  1.0458
   79MPD1     N 1236   2.407   3.218   1.676 -0.2282 -0.5635  0.3382
   79MPD1    H5 1237   2.504   3.214   1.647 -0.0244 -0.9810  1.0882
   79MPD1    N1 1238   2.105   3.513   1.910  0.0813  0.8720 -0.0764
   79MPD1    H6 1239   2.031   3.470   1.856  1.3617  0.1216 -1.2273
   79MPD1    H7 1240   2.075   3.608   1.934 -2.2333  0.7725 -2.6956
   80TMC2    C1 1241   4.137   0.679  12.442 -0.1824 -0.2970  0.7495
   80TMC2    C2 1242   4.040   0.774  12.465 -0.2745 -0.1900  0.4889
   80TMC2    C3 1243   3.943   0.740  12.556  0.0667  0.2376 -0.2132
   80TMC2    C4 1244   4.136   0.562  12.519  0.1417 -0.1548 -0.0607
   80TMC2    C5 1245   4.029   0.532  12.600 -0.1550 -0.7432 -0.9102
   80TMC2    C6 1246   3.928   0.621  12.619  0.6139  0.1240 -0.7187
   80TMC2     C 1247   4.269   0.735  12.392  0.0099 -0.6398 -0.2233
   80TMC2     O 1248   4.274   0.857  12.391  1.3574 -0.5843 -0.2829
   80TMC2     H 1249   4.047   0.878  12.436  0.0503 -1.0408 -2.4916
   80TMC2    H1 1250   4.216   0.492  12.500  0.9691 -0.1455  3.4660
   80TMC2    H2 1251   3.861   0.597  12.701  1.8098 -0.3330  0.1244
   80TMC2    C7 1252   4.037   0.420  12.691 -0.0905  0.3664  0.7689
   80TMC2    C8 1253   3.840   0.834  12.580 -0.1963  0.0634 -0.6563
   80TMC2    O1 1254   3.941   0.381  12.749  0.2397  0.5017 -0.2716
   80TMC2    O2 1255   3.825   0.929  12.502  0.1042  0.3034 -0.7313
   80TMC2    O5 1256   3.834   0.838  12.715  0.3415 -0.6220  0.1945
   80TMC2    H5 1257   3.914   0.795  12.753  0.0635 -1.8630 -0.6461
   81MPD2     C 1258   4.549   0.558  12.237 -0.2993  0.2181  0.4206
   81MPD2    C1 1259   4.488   0.659  12.312  0.0413 -0.0631 -0.4270
   81MPD2    C2 1260   4.564   0.765  12.364 -0.5981  0.3757 -0.2754
   81MPD2    C3 1261   4.703   0.771  12.337  0.2654 -0.8432  0.3904
   81MPD2    C4 1262   0.022   0.674  12.262 -0.1770 -0.0264 -0.3986
   81MPD2    C5 1263   4.688   0.568  12.214 -0.7568 -0.0757 -0.0526
   81MPD2     H 1264   4.525   0.839  12.432 -1.1857 -1.3510  1.2598
   81MPD2    H1 1265   0.130   0.679  12.250  0.0613  0.1359  1.7409
   81MPD2    H2 1266   4.504   0.470  12.191  2.0032 -0.1547 -1.1372
   81MPD2    H3 1267   0.012   0.487  12.180 -1.2831 -0.0157 -1.1879
   81MPD2     N 1268   0.028   0.887  12.391 -0.3511  0.3062 -0.8672
   81MPD2    H5 1269   4.708   0.954  12.440  1.6435  1.9758 -0.7318
   81MPD2    N1 1270   4.351   0.636  12.345 -0.1479  0.1815 -0.2506
   81MPD2    H7 1271   4.311   0.546  12.321 -0.9994  0.2289  0.9955
   82TMC2    C1 1272   3.131   0.114  10.858 -0.3253  0.1082  0.3745
   82TMC2    C2 1273   3.261   0.130  10.833 -0.5579  0.5975 -0.0205
   82TMC2    C3 1274   3.350   0.056  10.905  0.0741 -0.1422  0.0672
   82TMC2    C4 1275   3.086   0.030  10.952 -0.3915  0.1172  0.0060
   82TMC2    C5 1276   3.174   4.693  11.021 -0.4526 -0.5065 -0.6419
   82TMC2    C6 1277   3.305   4.705  10.994  0.0679 -0.1480 -0.2101
   82TMC2     C 1278   3.049   0.220  10.819 -0.2091  0.0467 -0.0285
   82TMC2     O 1279   2.926   0.209  10.822  0.3908  0.0632 -0.5271
   82TMC2     H 1280   3.290   0.198  10.754  1.0278  0.3796  0.3747
   82TMC2    H1 1281   2.980   0.021  10.969  0.0315 -2.5483  1.1946
   82TMC2    H2 1282   3.374   4.641  11.048 -0.0940  0.7251  1.0478
   82TMC2    C7 1283   3.139   4.592  11.130  0.3964 -0.4614 -0.2943
   82TMC2    C8 1284   3.493   0.050  10.870  0.2484 -0.0977  0.4660
   82TMC2    O1 1285   3.118   4.645  11.236 -0.3426  0.0388 -0.3579
   82TMC2    O2 1286   3.580   0.053  10.956  0.3001  0.0957  0.2894
   82TMC2    O5 1287   3.489   4.702  10.775 -0.0274  0.3347  0.3827
   82TMC2    H5 1288   3.399   4.695  10.735  0.0960 -1.4746  0.3845
   83MPD2     C 1289   3.016   0.720  10.715  0.6555  0.1602 -1.0812
   83MPD2    C1 1290   2.928   0.616  10.687 -0.4373 -0.0539  0.2880
   83MPD2    C2 1291   2.957   0.493  10.739  0.2074  0.3869  0.0886
   83MPD2    C3 1292   3.077   0.464  10.801  1.0364  0.0437  0.4038
   83MPD2    C4 1293   3.168   0.566  10.812  0.4236 -0.9561 -0.2035
   83MPD2    C5 1294   3.133   0.690  10.784 -0.5270  0.4627  0.8572
   83MPD2     H 1295   2.877   0.419  10.734  0.7657 -0.2208  0.1427
   83MPD2    H1 1296   3.258   0.550  10.870  0.6657 -0.0710 -0.3371
   83MPD2    H2 1297   3.002   0.824  10.688 -0.3113  0.5701  1.0075
   83MPD2    H3 1298   3.211   0.765  10.793  2.0292 -2.3385  1.8685
   83MPD2     N 1299   3.121   0.336  10.833  0.0942  0.0315  0.7594
   83MPD2    H5 1300   3.219   0.323  10.858 -0.0276 -0.5662  0.9084
   83MPD2    N1 1301   2.811   0.654  10.617 -0.0579  0.1983  0.5925
   83MPD2    H7 1302   2.792   0.754  10.614 -2.5562 -0.2297  2.0457
   84TMC2    C1 1303   4.664   4.689  10.762  0.3879 -0.0707  0.1451
   84TMC2    C2 1304   4.626   4.584  10.686 -0.0665  0.1249 -0.9117
   84TMC2    C3 1305   4.652   4.583  10.548 -0.0217 -0.0804  0.2259
   84TMC2    C4 1306   4.726   0.060  10.705  0.4872  0.2231  0.5986
   84TMC2    C5 1307   0.011   0.059  10.570  0.0365  0.1310 -0.6729
   84TMC2    C6 1308   4.708   4.697  10.493  0.5577  0.3136  0.8166
   84TMC2     C 1309   4.599   4.714  10.889  0.4261  0.3374  0.0200
   84TMC2     O 1310   4.620   0.084  10.940 -0.2226  0.1808 -0.3233
   84TMC2     H 1311   4.583   4.496  10.731 -1.1206  0.9088 -0.3901
   84TMC2    H1 1312   0.016   0.151  10.756  2.4559  0.8237 -1.5860
   84TMC2    H2 1313   4.735   4.696  10.388  0.4206 -0.3114  0.7850
   84TMC2    C7 1314   0.061   0.182  10.507 -0.0636 -0.1003 -0.1204
   84TMC2    C8 1315   4.596   4.482  10.460 -0.4249 -0.7460  0.2455
   84TMC2    O1 1316   0.028   0.192  10.391  0.0920 -0.6487  0.8435
   84TMC2    O2 1317   4.595   4.498  10.339  0.1204 -0.3759 -0.4186
   84TMC2    O5 1318   4.595   4.367  10.524  0.0070  0.1174 -0.5217
   84TMC2    H5 1319   4.646   4.372  10.607 -0.9467  0.1475  0.0642
   85TMC2    C1 1320   0.213   3.092  15.743  0.3133 -0.1262  0.1084
   85TMC2    C2 1321   0.211   3.229  15.707  0.0703  0.7154  0.2305
   85TMC2    C3 1322   0.245   3.260  15.578 -0.3227  0.1427  0.2737
   85TMC2    C4 1323   0.249   2.994  15.650 -0.7204 -0.1533  0.3350
   85TMC2    C5 1324   0.267   3.037  15.526  0.3453 -1.1092  0.4019
   85TMC2    C6 1325   0.253   3.161  15.480  0.2012  0.0873 -0.0956
   85TMC2     C 1326   0.195   3.049  15.883 -0.6642  0.0057 -0.1219
   85TMC2     O 1327   0.229   3.124  15.972  0.3445  0.0423 -0.5103
   85TMC2     H 1328   0.185   3.305  15.780 -2.9856  1.6830 -1.8438
   85TMC2    H1 1329   0.254   2.888  15.674 -1.4668 -0.5237 -1.1367
   85TMC2    H2 1330   0.271   3.180  15.375  1.4443 -2.7965 -0.3971
   85TMC2    C7 1331   0.339   2.948  15.447 -0.4746  0.6917 -0.1642
   85TMC2    C8 1332   0.221   3.398  15.539  0.3577 -0.3187  0.4448
   85TMC2    O1 1333   0.313   2.829  15.461  0.4941  0.4987 -0.1622
   85TMC2    O2 1334   0.162   3.482  15.606 -0.7748  0.6968 -0.6820
   85TMC2    O5 1335   0.268   3.426  15.416 -0.0153 -0.3923 -0.0196
   85TMC2    H5 1336   0.348   3.378  15.386  0.7232  0.3000  0.8276
   86MPD2     C 1337   0.077   2.678  16.225 -0.6316 -0.0001  0.1521
   86MPD2    C1 1338   0.036   2.640  16.100  0.2539 -0.2804  0.4409
   86MPD2    C2 1339   0.068   2.718  15.985 -0.2551  0.5043  0.3863
   86MPD2    C3 1340   0.120   2.846  15.995  0.4925  0.7229 -0.0461
   86MPD2    C4 1341   0.158   2.883  16.119 -0.2850 -0.1996 -0.4138
   86MPD2    C5 1342   0.135   2.802  16.232  0.1614 -0.1071  0.0728
   86MPD2     H 1343   0.036   2.703  15.882 -0.6779  0.8634  0.4682
   86MPD2    H1 1344   0.196   2.982  16.141 -0.9866  0.2354 -1.1498
   86MPD2    H2 1345   0.068   2.630  16.322  0.5457 -4.3028 -1.8736
   86MPD2    H3 1346   0.172   2.846  16.324  0.1647  0.0805 -0.0174
   86MPD2     N 1347   0.148   2.922  15.882 -0.2219 -0.2900 -0.7146
   86MPD2    H5 1348   0.142   2.867  15.796  0.9834 -1.1564 -0.2362
   86MPD2    N1 1349   4.711   2.518  16.077  0.1120 -0.2329 -0.5960
   86MPD2    H7 1350   4.688   2.504  15.979 -0.5952 -0.4099 -0.4022
   87TMC2    C1 1351   2.798   1.476   0.878  0.8574  0.9433  0.3395
   87TMC2    C2 1352   2.921   1.509   0.842  0.7917  0.1823  0.2337
   87TMC2    C3 1353   2.971   1.631   0.879  0.4320  0.0243  1.4007
   87TMC2    C4 1354   2.720   1.563   0.940  0.2779  0.6540 -0.8592
   87TMC2    C5 1355   2.769   1.692   0.969  0.2033  0.0588 -0.2619
   87TMC2    C6 1356   2.902   1.723   0.942 -0.0648 -0.3144 -0.6235
   87TMC2     C 1357   2.736   1.359   0.814  0.6439  0.1429 -0.0370
   87TMC2     O 1358   2.615   1.367   0.789 -0.2701 -0.0074 -0.1085
   87TMC2     H 1359   2.995   1.456   0.783 -0.7655 -0.4282 -1.1730
   87TMC2    H1 1360   2.616   1.543   0.959  0.7247  0.8399  1.7644
   87TMC2    H2 1361   2.935   1.826   0.944  2.8716 -1.2852 -0.1337
   87TMC2    C7 1362   2.681   1.814   0.989 -0.0863  0.3700 -0.3599
   87TMC2    C8 1363   3.116   1.665   0.865  0.1391  0.6470 -0.2417
   87TMC2    O1 1364   2.726   1.924   0.963 -0.0482 -0.1014  0.0051
   87TMC2    O2 1365   3.186   1.596   0.789 -0.3060  0.0108 -0.5624
   87TMC2    O5 1366   3.150   1.717   0.984 -0.1628 -0.1539 -0.3855
   87TMC2    H5 1367   3.078   1.762   1.033 -1.2476 -1.9179 -0.3965
   88MPD2     C 1368   2.362   1.833   1.172  0.4830 -0.1686  0.3092
   88MPD2    C1 1369   2.468   1.879   1.096  0.0133  0.0459  0.0768
   88MPD2    C2 1370   2.452   2.010   1.045  0.1171 -0.0561 -0.6634
   88MPD2    C3 1371   2.340   2.090   1.078  0.3578 -0.3698  0.5090
   88MPD2    C4 1372   2.240   2.043   1.160 -0.9603  0.7700  0.1828
   88MPD2    C5 1373   2.251   1.909   1.193  0.3066 -0.8593  0.1901
   88MPD2     H 1374   2.524   2.046   0.973  4.4118 -0.7597  3.2252
   88MPD2    H1 1375   2.156   2.106   1.190 -0.4069  0.5891  2.1091
   88MPD2    H2 1376   2.358   1.726   1.190  0.6164 -0.1457  0.4732
   88MPD2    H3 1377   2.166   1.873   1.251  0.1619  1.5542  1.4486
   88MPD2     N 1378   2.320   2.215   1.013 -0.2708 -0.2024 -0.4364
   88MPD2    H5 1379   2.233   2.264   1.030 -0.1535 -0.6673  1.5027
   88MPD2    N1 1380   2.570   1.784   1.058  0.8573 -0.0650  0.4847
   88MPD2    H7 1381   2.559   1.688   1.091  2.6297 -0.3746  0.1253
   89TMC2    C1 1382   3.007   4.208   1.788 -0.0618 -0.3130  0.4214
   89TMC2    C2 1383   2.884   4.150   1.802  0.1712  0.7592 -0.3128
   89TMC2    C3 1384   2.783   4.240   1.804 -0.0839  0.0178  0.1687
   89TMC2    C4 1385   3.028   4.346   1.771  0.2192  0.2668  0.3994
   89TMC2    C5 1386   2.920   4.430   1.785 -0.0354  0.3094  0.3972
   89TMC2    C6 1387   2.796   4.378   1.796 -0.0398 -0.1448  0.2139
   89TMC2     C 1388   3.113   4.113   1.788  0.3404  0.0163 -0.1366
   89TMC2     O 1389   3.216   4.159   1.834  0.3416  0.0511 -0.3148
   89TMC2     H 1390   2.866   4.047   1.831 -1.5684  0.6836 -1.6314
   89TMC2    H1 1391   3.127   4.385   1.791 -0.2321  0.3979  2.3745
   89TMC2    H2 1392   2.705   4.435   1.788  0.1595  0.0038 -1.0069
   89TMC2    C7 1393   2.927   4.574   1.770 -1.1926  0.0559 -0.3111
   89TMC2    C8 1394   2.647   4.189   1.823  0.0730 -0.9654 -0.0195
   89TMC2    O1 1395   2.841   4.644   1.822 -0.6482  0.0302 -0.4716
   89TMC2    O2 1396   2.557   4.257   1.870 -0.4542  0.0986 -0.4396
   89TMC2    O5 1397   2.631   4.097   1.724  0.8456  0.1394  0.3292
   89TMC2    H5 1398   2.718   4.068   1.689  0.8160 -0.4955  0.7694
   90MPD2     C 1399   3.333   3.669   1.703 -0.1929  0.1980 -0.2153
   90MPD2    C1 1400   3.210   3.668   1.637  0.0146 -0.2819 -0.2512
   90MPD2    C2 1401   3.128   3.777   1.656 -0.4187  0.0793 -0.2453
   90MPD2    C3 1402   3.166   3.880   1.733 -0.3533 -0.1356  0.0933
   90MPD2    C4 1403   3.287   3.881   1.798 -0.4995 -0.1837  0.0312
   90MPD2    C5 1404   3.373   3.775   1.775 -0.7661 -0.0401 -0.4916
   90MPD2     H 1405   3.031   3.784   1.608 -0.4265  0.7329 -0.1404
   90MPD2    H1 1406   3.329   3.952   1.868 -1.0785 -1.1177  1.3212
   90MPD2    H2 1407   3.404   3.588   1.696  1.2981  1.4169  0.9924
   90MPD2    H3 1408   3.473   3.769   1.816 -0.6283  2.7227 -0.4147
   90MPD2     N 1409   3.074   3.990   1.743 -0.1137  0.4109  0.0457
   90MPD2    H5 1410   2.985   3.984   1.694 -0.8714  1.9626  1.2432
   90MPD2    N1 1411   3.163   3.573   1.542  0.0717  0.2851  0.0379
   90MPD2    H7 1412   3.066   3.587   1.513  0.2925  0.9447 -0.3613
   91TMC2    C1 1413   4.575   3.816  16.634 -0.5760 -0.0393 -0.3199
   91TMC2    C2 1414   4.551   3.845  16.768 -0.2589 -0.0447  0.4732
   91TMC2    C3 1415   4.451   3.769  16.827 -0.2013  0.5652 -0.2716
   91TMC2    C4 1416   4.497   3.732  16.557 -0.0132 -0.3898 -0.3515
   91TMC2    C5 1417   4.391   3.673  16.617 -0.6856 -0.5518 -0.4149
   91TMC2    C6 1418   4.381   3.678  16.753  0.2585 -0.5024  0.1850
   91TMC2     C 1419   4.669   3.890  16.563 -0.0496  0.6773  0.0266
   91TMC2     O 1420   4.647   3.900  16.441  0.3794 -0.1742 -0.0474
   91TMC2     H 1421   4.587   3.928  16.829 -2.4184  0.4375  1.0776
   91TMC2    H1 1422   4.517   3.721  16.451 -1.0402 -2.9120 -0.2899
   91TMC2    H2 1423   4.300   3.623  16.800  0.3256  0.3786  1.3161
   91TMC2    C7 1424   4.296   3.593  16.543 -0.6475  0.3031  0.7095
   91TMC2    C8 1425   4.442   3.763  16.972  0.0629  0.6219 -0.3873
   91TMC2    O1 1426   4.240   3.503  16.607  0.0016  0.5944 -0.1540
   91TMC2    O2 1427   4.468   3.864  17.037  0.3930  0.2327 -0.2498
   91TMC2    O5 1428   4.481   3.639  17.002 -0.4117 -0.3770  0.0980
   91TMC2    H5 1429   4.449   3.564  16.948 -2.0451  0.6629 -0.3999
   92MPD2     C 1430   0.148   4.067  16.479  0.0033  0.2652  0.1005
   92MPD2    C1 1431   0.162   3.981  16.579 -0.2409 -0.0107 -0.4286
   92MPD2    C2 1432   0.286   3.971  16.636 -0.2033  0.6083 -0.6924
   92MPD2    C3 1433   0.396   4.047  16.593  0.1414 -0.1731 -0.6926
   92MPD2    C4 1434   0.373   4.135  16.492 -0.1409  0.1941 -0.2873
   92MPD2    C5 1435   0.249   4.145  16.432 -0.3294 -0.3060  0.0508
   92MPD2     H 1436   0.298   3.909  16.724 -1.9781  1.2463  0.0105
   92MPD2    H1 1437   0.455   4.196  16.456 -0.0747  1.0856  1.3898
   92MPD2    H2 1438   0.052   4.073  16.429  0.2130 -0.6989 -0.4136
   92MPD2    H3 1439   0.225   4.205  16.345 -2.6936 -0.7847  0.3758
   92MPD2     N 1440   0.516   4.053  16.657 -0.4973 -0.2539 -0.4896
   92MPD2    H5 1441   0.567   4.138  16.638 -0.7552  0.1882  0.8310
   92MPD2    N1 1442   0.051   3.906  16.632 -0.5178  0.0409  0.1596
   92MPD2    H7 1443   0.065   3.862  16.722  1.5791  2.8924  1.2490
   93TMC2    C1 1444   2.128   3.163  13.737  0.1646  0.1115  0.2456
   93TMC2    C2 1445   2.156   3.081  13.630 -0.4466  0.1987  0.4024
   93TMC2    C3 1446   2.284   3.074  13.582  0.4284 -0.5086 -0.5562
   93TMC2    C4 1447   2.225   3.238  13.803  0.3975  0.5625 -0.3202
   93TMC2    C5 1448   2.349   3.234  13.741 -0.2536 -1.3189 -0.7980
   93TMC2    C6 1449   2.384   3.153  13.638 -0.4708  0.2149 -0.0736
   93TMC2     C 1450   2.017   3.115  13.815  0.2944 -0.2560 -0.0947
   93TMC2     O 1451   2.031   3.098  13.935 -0.1188  0.3865  0.2285
   93TMC2     H 1452   2.086   3.014  13.581  1.3805 -0.0569 -1.8677
   93TMC2    H1 1453   2.205   3.310  13.882 -1.2428 -0.9522  0.6595
   93TMC2    H2 1454   2.481   3.152  13.590 -0.2072  2.3827  0.4396
   93TMC2    C7 1455   2.441   3.343  13.755 -0.1287 -0.2977 -0.6052
   93TMC2    C8 1456   2.303   3.000  13.460  0.4323 -0.2231  0.1618
   93TMC2    O1 1457   2.560   3.320  13.749  0.3449 -0.1214 -0.1765
   93TMC2    O2 1458   2.248   2.894  13.434 -0.0635  0.1714  0.5154
   93TMC2    O5 1459   2.377   3.077  13.377 -0.4621 -0.6123  0.2643
   93TMC2    H5 1460   2.378   3.173  13.393 -0.0461 -0.7382  1.0054
   94MPD2     C 1461   1.746   2.979  13.849 -0.3362  0.6459  0.4909
   94MPD2    C1 1462   1.781   3.067  13.751 -0.8755  0.6161 -0.0621
   94MPD2    C2 1463   1.679   3.117  13.670 -0.4079 -0.2175  0.4837
   94MPD2    C3 1464   1.547   3.079  13.701 -0.2093  0.4986  0.2739
   94MPD2    C4 1465   1.518   3.006  13.811 -0.0773  0.1686  0.0870
   94MPD2    C5 1466   1.616   2.952  13.882  0.1948 -0.2814  0.3781
   94MPD2     H 1467   1.701   3.186  13.589  1.8863 -1.4076  0.0812
   94MPD2    H1 1468   1.422   2.958  13.828  0.0095 -1.0832 -2.8932
   94MPD2    H2 1469   1.819   2.948  13.923  0.7683 -1.6995 -1.6269
   94MPD2    H3 1470   1.602   2.871  13.952 -0.6113 -0.5695 -0.1150
   94MPD2     N 1471   1.437   3.129  13.631 -0.3168 -0.6201  0.1876
   94MPD2    H5 1472   1.348   3.106  13.674 -1.0948  0.0410 -1.0247
   94MPD2    N1 1473   1.908   3.121  13.731 -0.7549 -0.3998  0.3652
   94MPD2    H7 1474   1.920   3.166  13.640 -3.4519  0.6546  0.5323
   95TMC2    C1 1475   2.026   1.580  15.559  0.1940  0.3800 -0.7064
   95TMC2    C2 1476   1.891   1.560  15.580 -0.4117  0.7056  0.7104
   95TMC2    C3 1477   1.840   1.625  15.688 -0.1930  0.9539 -0.2258
   95TMC2    C4 1478   2.107   1.647  15.657 -0.0361 -0.3218 -0.2120
   95TMC2    C5 1479   2.047   1.701  15.771 -0.0871  0.0020 -0.4917
   95TMC2    C6 1480   1.913   1.701  15.780  0.1544  0.3632  0.1445
   95TMC2     C 1481   2.102   1.495  15.478  0.4098  0.0678 -0.1086
   95TMC2     O 1482   2.214   1.538  15.449 -0.0200 -0.3548  0.0845
   95TMC2     H 1483   1.815   1.515  15.518  1.9500  1.6199 -2.8459
   95TMC2    H1 1484   2.214   1.654  15.643 -0.0325  1.6109  0.7615
   95TMC2    H2 1485   1.858   1.746  15.863 -2.3054 -0.5331 -0.9902
   95TMC2    C7 1486   2.130   1.788  15.857 -0.6272 -0.2709  1.0418
   95TMC2    C8 1487   1.696   1.606  15.704 -0.1793 -0.4462 -0.4468
   95TMC2    O1 1488   2.250   1.795  15.830 -0.2792  0.1275  0.4910
   95TMC2    O2 1489   1.645   1.497  15.689 -0.2882 -0.2067 -0.4535
   95TMC2    O5 1490   1.642   1.708  15.785 -0.5673 -0.3730 -0.4679
   95TMC2    H5 1491   1.663   1.793  15.741 -3.0279  1.6394  2.2316
   96MPD2     C 1492   2.158   1.081  15.175 -0.4211 -0.5571  0.4217
   96MPD2    C1 1493   2.247   1.180  15.217  0.0380  0.1615  0.4932
   96MPD2    C2 1494   2.203   1.289  15.292 -0.3164 -0.0289  0.4092
   96MPD2    C3 1495   2.070   1.297  15.330  0.1877  0.4180 -0.4345
   96MPD2    C4 1496   1.974   1.195  15.289 -0.2993  0.1979 -0.0815
   96MPD2    C5 1497   2.020   1.095  15.210  0.3162  0.2221 -0.6967
   96MPD2     H 1498   2.278   1.355  15.333 -0.2428  1.1565 -1.6459
   96MPD2    H1 1499   1.873   1.192  15.328  0.4051 -0.7014  1.6404
   96MPD2    H2 1500   2.197   0.992  15.126  3.7412  1.4908  0.0114
   96MPD2    H3 1501   1.955   1.009  15.200 -1.0930  1.0521  1.4829
   96MPD2     N 1502   2.027   1.399  15.419 -0.6282  0.6650 -0.5071
   96MPD2    H5 1503   1.926   1.400  15.433 -0.3612  1.1353  1.3514
   96MPD2    N1 1504   2.384   1.153  15.189 -0.0145  0.4162  0.3237
   96MPD2    H7 1505   2.393   1.067  15.137 -1.4227  1.8698 -2.3361
   97TMC2    C1 1506   4.232   3.794  17.676  0.2268  0.3464  0.0557
   97TMC2    C2 1507   4.192   3.782  17.545  0.1112 -0.3105  0.2564
   97TMC2    C3 1508   4.260   3.862  17.459 -0.3931  0.0015  0.1150
   97TMC2    C4 1509   4.331   3.883  17.720  0.9359 -0.4494 -0.2093
   97TMC2    C5 1510   4.376   3.968  17.624 -0.9094  0.5339  0.5168
   97TMC2    C6 1511   4.338   3.964  17.496 -0.0543 -0.2856  0.2243
   97TMC2     C 1512   4.172   3.725   0.031  0.4236  0.7112 -0.7836
   97TMC2     O 1513   4.235   3.725   0.138 -0.1113 -0.0567  0.9712
   97TMC2     H 1514   4.141   3.692  17.511 -0.7140 -0.3446  1.5830
   97TMC2    H1 1515   4.376   3.876   0.064 -0.0459  1.7908  0.3847
   97TMC2    H2 1516   4.385   4.019  17.416  0.1621  0.8160  1.1146
   97TMC2    C7 1517   4.458   4.078  17.671 -0.8061  0.9092 -0.2791
   97TMC2    C8 1518   4.235   3.863  17.322 -0.9233  0.5474 -0.0763
   97TMC2    O1 1519   4.522   4.052   0.018  0.2590 -0.0133 -1.1355
   97TMC2    O2 1520   4.217   3.971  17.263 -0.2493  0.8662 -0.0920
   97TMC2    O5 1521   4.200   3.741  17.285  0.0287  0.4090  0.2287
   97TMC2    H5 1522   4.265   3.681  17.328 -1.4027 -2.5098 -1.7139
   98MPD2     C 1523   3.726   3.574   0.242  0.3266 -0.0213 -0.2176
   98MPD2    C1 1524   3.845   3.600   0.297  0.0048  0.6182  0.0607
   98MPD2    C2 1525   3.952   3.630   0.215  0.3008 -0.5278  0.1923
   98MPD2    C3 1526   3.939   3.649   0.080 -0.6268  0.0447 -0.7274
   98MPD2    C4 1527   3.818   3.616   0.025 -0.4255 -0.4347  0.0145
   98MPD2    C5 1528   3.711   3.587   0.103 -0.1926  0.2522  0.1387
   98MPD2     H 1529   4.046   3.639   0.269  0.5973  3.7055 -1.0250
   98MPD2    H1 1530   3.797   3.620  17.673 -2.8088 -1.3093  0.4449
   98MPD2    H2 1531   3.637   3.558   0.300 -0.5472 -1.1743 -1.8802
   98MPD2    H3 1532   3.613   3.567   0.061 -0.9378  1.8129  1.1193
   98MPD2     N 1533   4.042   3.690   0.001 -0.6607 -0.0851  0.4445
   98MPD2    H5 1534   4.013   3.700  17.658  0.1109  0.1680  0.2367
   98MPD2    N1 1535   3.852   3.596   0.432  0.2123  0.1701 -0.0676
   98MPD2    H7 1536   3.780   3.546   0.483 -0.2620 -1.0914 -1.9900
   99TMC2    C1 1537   2.992   1.227   1.685  0.3491  0.1235  0.5030
   99TMC2    C2 1538   3.043   1.253   1.804 -1.1504  0.3836 -0.9208
   99TMC2    C3 1539   2.966   1.308   1.905  0.1631 -0.3598 -0.1768
   99TMC2    C4 1540   2.854   1.254   1.659  0.7310 -0.0591  1.1756
   99TMC2    C5 1541   2.790   1.327   1.758  0.4198  0.7073 -0.3047
   99TMC2    C6 1542   2.843   1.361   1.878 -0.0643  0.6095  0.0734
   99TMC2     C 1543   3.059   1.146   1.591 -0.4019 -0.0158  0.1417
   99TMC2     O 1544   3.170   1.104   1.628 -0.2430  0.7334  0.5430
   99TMC2     H 1545   3.150   1.241   1.821 -0.9412  1.2728 -1.6396
   99TMC2    H1 1546   2.804   1.239   1.564  0.9330  2.5275  0.6606
   99TMC2    H2 1547   2.795   1.422   1.953  1.1223 -1.0276  2.1651
   99TMC2    C7 1548   2.646   1.347   1.741  0.2729  0.7207  0.1594
   99TMC2    C8 1549   3.040   1.374   2.016  0.1036 -0.7721  0.0902
   99TMC2    O1 1550   2.594   1.444   1.799 -0.6320 -0.1814  0.2462
   99TMC2    O2 1551   3.134   1.320   2.074 -0.5760  0.2042 -0.5918
   99TMC2    O5 1552   3.025   1.510   2.011 -0.2672 -0.2945  0.1839
   99TMC2    H5 1553   2.953   1.553   1.961  0.1128 -0.7809 -0.7807
  100MPD2     C 1554   3.164   0.995   1.343  0.3969 -0.3835  0.2082
  100MPD2    C1 1555   3.034   1.049   1.362  0.4170 -0.1560 -0.1886
  100MPD2    C2 1556   2.945   1.019   1.256  0.4608  0.2520 -0.0277
  100MPD2    C3 1557   2.979   0.953   1.141 -0.3668 -0.1727 -0.3089
  100MPD2    C4 1558   3.105   0.891   1.134  0.1859  0.5800  0.2727
  100MPD2    C5 1559   3.192   0.913   1.235  0.7615  0.2517  0.1062
  100MPD2     H 1560   2.841   1.048   1.265  0.4612 -0.6367  2.8403
  100MPD2    H1 1561   3.140   0.828   1.053 -0.1167 -0.6939  1.1299
  100MPD2    H2 1562   3.247   1.002   1.413  0.0553 -0.6475  0.6414
  100MPD2    H3 1563   3.292   0.871   1.229 -0.8467 -3.4470 -0.5278
  100MPD2     N 1564   2.881   0.934   1.041 -0.2069  0.1154  0.9099
  100MPD2    H5 1565   2.911   0.878   0.961 -0.6091 -0.5253  1.2064
  100MPD2    N1 1566   2.994   1.129   1.473 -0.5971 -0.3256 -0.2997
  100MPD2    H7 1567   2.900   1.167   1.475  0.2532  1.6716  0.8839
  101TMC2    C1 1568   3.531   1.554  12.895 -0.0233 -0.9452  0.0434
  101TMC2    C2 1569   3.444   1.661  12.913  0.4027 -0.3178  0.2978
  101TMC2    C3 1570   3.499   1.789  12.917  0.5501  0.2772  0.2083
  101TMC2    C4 1571   3.670   1.568  12.899  0.0144 -0.1191 -0.7006
  101TMC2    C5 1572   3.714   1.703  12.898 -0.1295  0.1258 -0.2929
  101TMC2    C6 1573   3.632   1.813  12.908  0.2762  0.7476  0.0211
  101TMC2     C 1574   3.462   1.437  12.925  0.0299 -0.2699  0.0494
  101TMC2     O 1575   3.363   1.437  12.996  0.6222 -0.1528 -0.2542
  101TMC2     H 1576   3.338   1.646  12.900  0.5719 -0.5103 -0.8167
  101TMC2    H1 1577   3.743   1.489  12.892 -0.1021 -0.3424  0.6161
  101TMC2    H2 1578   3.663   1.917  12.899 -1.0809  1.4115  3.2309
  101TMC2    C7 1579   3.854   1.732  12.874 -0.2644 -0.3955  0.4210
  101TMC2    C8 1580   3.413   1.895  12.865  0.2503  0.0086 -0.2313
  101TMC2    O1 1581   3.877   1.843  12.826 -0.0117  0.0684  0.1308
  101TMC2    O2 1582   3.455   1.979  12.783  0.4620  0.5256  0.2672
  101TMC2    O5 1583   3.291   1.883  12.922 -0.3065  0.1331  0.0587
  101TMC2    H5 1584   3.285   1.814  12.991 -0.7449  1.2311  1.1234
  102MPD2     C 1585   3.597   1.092  12.907  0.1846  0.4928 -0.3692
  102MPD2    C1 1586   3.544   1.204  12.967 -0.1239  0.1707 -0.3556
  102MPD2    C2 1587   3.490   1.196  13.091 -0.4922 -0.7356  0.8053
  102MPD2    C3 1588   3.490   1.084  13.167 -0.4588  0.8960  0.4340
  102MPD2    C4 1589   3.532   0.970  13.094  0.8021 -0.4620 -0.4944
  102MPD2    C5 1590   3.583   0.971  12.968  0.2045 -0.1919  0.2278
  102MPD2     H 1591   3.462   1.289  13.140  1.2353  1.3358 -2.1577
  102MPD2    H1 1592   3.544   0.877  13.149 -2.9063  0.0952  1.2409
  102MPD2    H2 1593   3.649   1.101  12.812 -1.2541 -0.2994 -1.2354
  102MPD2    H3 1594   3.607   0.881  12.911  1.2010 -0.1392  0.5760
  102MPD2     N 1595   3.424   1.083  13.289 -0.7610 -0.4560 -0.6819
  102MPD2    H5 1596   3.388   1.166  13.334  0.5661 -1.1338  1.6665
  102MPD2    N1 1597   3.538   1.324  12.891 -0.1943 -0.4143 -0.4052
  102MPD2    H7 1598   3.606   1.333  12.815  0.8308 -0.8865  0.4558
  103TMC2    C1 1599   2.208   1.662  12.303 -0.0510 -0.6713  0.1189
  103TMC2    C2 1600   2.276   1.720  12.201 -0.6875  0.0162 -0.3310
  103TMC2    C3 1601   2.323   1.845  12.207  0.2111 -0.3927  0.0857
  103TMC2    C4 1602   2.191   1.730  12.422 -0.0872  0.2991  0.0420
  103TMC2    C5 1603   2.217   1.864  12.421 -0.4194 -0.6739 -0.0012
  103TMC2    C6 1604   2.277   1.921  12.312 -0.7024 -0.4964 -0.2579
  103TMC2     C 1605   2.103   1.569  12.280 -0.0181 -0.2586  0.3609
  103TMC2     O 1606   2.052   1.565  12.169  0.0410  0.1378  0.4193
  103TMC2     H 1607   2.265   1.670  12.105 -1.5340 -0.6096  0.0868
  103TMC2    H1 1608   2.142   1.676  12.502 -1.5889  1.2189 -0.2440
  103TMC2    H2 1609   2.294   2.028  12.312  1.2865 -0.8212  2.7448
  103TMC2    C7 1610   2.167   1.935  12.530  0.6569 -0.4582 -0.0914
  103TMC2    C8 1611   2.381   1.914  12.088 -0.4577  0.0364  0.4327
  103TMC2    O1 1612   2.113   1.871  12.617 -0.1398  0.4181  0.4215
  103TMC2    O2 1613   2.341   2.021  12.045  0.0635  0.2735  0.1689
  103TMC2    O5 1614   2.435   1.817  12.009 -0.2331 -0.6130 -0.0344
  103TMC2    H5 1615   2.468   1.746  12.069 -1.9416  0.1377  1.8034
  104MPD2     C 1616   1.954   1.325  12.508  0.3945 -0.6995  0.5393
  104MPD2    C1 1617   1.965   1.406  12.401 -0.5498 -0.5170  0.2080
  104MPD2    C2 1618   1.869   1.395  12.305 -0.8471  0.1883 -0.3805
  104MPD2    C3 1619   1.752   1.316  12.331 -0.7756 -0.3451  0.2745
  104MPD2    C4 1620   1.748   1.237  12.445  0.0854 -0.6551  0.1834
  104MPD2    C5 1621   1.853   1.238  12.526  0.1566 -0.3130 -0.5191
  104MPD2     H 1622   1.872   1.457  12.216  1.2504  2.4043  1.2416
  104MPD2    H1 1623   1.672   1.164  12.470  0.0206 -0.3684  0.8125
  104MPD2    H2 1624   2.037   1.324  12.577 -0.9321 -3.6676  2.0651
  104MPD2    H3 1625   1.864   1.156  12.596  1.5079 -0.5836 -1.0477
  104MPD2     N 1626   1.644   1.306  12.239  0.3837 -0.4132  0.4812
  104MPD2    H5 1627   1.653   1.347  12.147  2.8312  4.2279  2.7641
  104MPD2    N1 1628   2.076   1.486  12.385 -0.3796  0.3265 -0.0723
  104MPD2    H7 1629   2.128   1.508  12.470  0.2854  0.5821 -0.5468
  105TMC2    C1 1630   2.468   0.863   0.020 -0.0404 -0.1835  1.0200
  105TMC2    C2 1631   2.449   0.991  17.731  1.1845 -0.0249 -0.2682
  105TMC2    C3 1632   2.418   1.093   0.066  0.1287  0.7794 -0.3754
  105TMC2    C4 1633   2.465   0.839   0.155  0.0180  0.0638 -0.4360
  105TMC2    C5 1634   2.450   0.943   0.246 -0.1058  0.0002 -0.0630
  105TMC2    C6 1635   2.422   1.065   0.201  0.1787  0.4672 -0.2778
  105TMC2     C 1636   2.500   0.754  17.682 -0.2699  0.1840 -0.1889
  105TMC2     O 1637   2.460   0.641  17.706  0.2346  0.1782 -0.4897
  105TMC2     H 1638   2.443   1.019  17.627  0.0570 -1.5103 -0.6071
  105TMC2    H1 1639   2.506   0.743   0.184  0.1417  0.2233 -0.0814
  105TMC2    H2 1640   2.406   1.146   0.272 -1.1265 -1.3811  1.5260
  105TMC2    C7 1641   2.524   0.932   0.371  0.1391 -0.2677 -0.2606
  105TMC2    C8 1642   2.462   1.225   0.016 -0.3410 -0.6379 -0.0269
  105TMC2    O1 1643   2.537   0.821   0.414  0.5987  0.6363  0.2666
  105TMC2    O2 1644   2.524   1.249  17.665 -0.2207 -0.0631  0.1579
  105TMC2    O5 1645   2.400   1.314   0.098 -0.0429 -0.8372 -0.0831
  105TMC2    H5 1646   2.339   1.275   0.164  0.1967 -0.0967  0.5788
  106MPD2     C 1647   2.799   0.562  17.295  0.0439 -0.4333 -0.0548
  106MPD2    C1 1648   2.801   0.699  17.288  0.5729  0.5912  0.0050
  106MPD2    C2 1649   2.720   0.780  17.373 -0.1909  0.5869 -0.4649
  106MPD2    C3 1650   2.646   0.721  17.472 -0.2644 -0.5140 -0.0071
  106MPD2    C4 1651   2.643   0.583  17.478 -0.0062 -0.4049  0.5746
  106MPD2    C5 1652   2.708   0.507  17.388 -0.0361  0.0696 -0.2568
  106MPD2     H 1653   2.730   0.888  17.375  1.3171  0.4481 -0.3939
  106MPD2    H1 1654   2.598   0.535  17.564  0.0223  2.1854  2.0516
  106MPD2    H2 1655   2.860   0.499  17.231 -0.1623  0.2286 -0.9005
  106MPD2    H3 1656   2.695   0.401  17.404  0.7098  0.0536  0.2315
  106MPD2     N 1657   2.579   0.802  17.570  0.4102 -0.1445  0.1581
  106MPD2    H5 1658   2.594   0.902  17.569  0.0316 -0.0885  0.1963
  106MPD2    N1 1659   2.885   0.762  17.192  0.1556  0.4630 -0.1183
  106MPD2    H7 1660   2.872   0.863  17.188  0.4732  0.4040 -2.6031
  107TMC2    C1 1661   4.213   0.427  11.571  0.6934 -0.4315 -0.1975
  107TMC2    C2 1662   4.293   0.519  11.507  0.9931 -0.2406  1.6702
  107TMC2    C3 1663   4.391   0.462  11.432 -0.6980 -0.1303 -0.4811
  107TMC2    C4 1664   4.241   0.289  11.582  0.7591  0.4970 -0.6002
  107TMC2    C5 1665   4.332   0.244  11.496  0.6053  0.3202 -0.6472
  107TMC2    C6 1666   4.405   0.327  11.415  0.2060 -0.1667 -0.1315
  107TMC2     C 1667   4.103   0.475  11.648 -0.5737 -0.0558  0.5806
  107TMC2     O 1668   4.047   0.386  11.710  0.2274 -0.4417  0.3257
  107TMC2     H 1669   4.288   0.625  11.528  0.6036 -0.0615  0.7050
  107TMC2    H1 1670   4.174   0.220  11.633  1.2735  0.4683  0.0427
  107TMC2    H2 1671   4.483   0.284  11.354 -0.8366 -1.5936 -0.4364
  107TMC2    C7 1672   4.316   0.106  11.455 -0.8759 -0.1292  0.1151
  107TMC2    C8 1673   4.461   0.547  11.329  0.0884  0.8116 -0.1184
  107TMC2    O1 1674   4.231   0.037  11.508 -0.5394  0.7948  0.2250
  107TMC2    O2 1675   4.537   0.507  11.244  0.0623 -0.2185  0.5658
  107TMC2    O5 1676   4.363   0.632  11.292 -0.4024  0.0657 -0.3870
  107TMC2    H5 1677   4.278   0.634  11.340 -0.5699 -4.4289 -0.4859
  108MPD2     C 1678   3.939   0.811  11.684  0.5806 -0.0367 -0.1905
  108MPD2    C1 1679   3.954   0.675  11.688 -0.1435 -0.1134 -0.4034
  108MPD2    C2 1680   3.847   0.602  11.739 -0.3317  0.1463  0.5967
  108MPD2    C3 1681   3.749   0.660  11.806  0.1677  0.4989  0.0751
  108MPD2    C4 1682   3.730   0.800  11.798  0.2784  0.1121 -0.9435
  108MPD2    C5 1683   3.831   0.873  11.744  0.3060 -0.4960 -0.9381
  108MPD2     H 1684   3.843   0.494  11.724 -0.5615  0.2154  0.1537
  108MPD2    H1 1685   3.654   0.860  11.847  0.9047  0.6176 -0.6051
  108MPD2    H2 1686   4.008   0.875  11.629  0.6636  0.1589  0.1462
  108MPD2    H3 1687   3.821   0.981  11.747  0.8914 -0.4510 -0.5910
  108MPD2     N 1688   3.640   0.596  11.871  0.2465  0.2154 -0.2969
  108MPD2    H5 1689   3.561   0.655  11.894  1.0236  1.0188  0.3173
  108MPD2    N1 1690   4.078   0.618  11.637 -0.4840  0.2649 -0.2778
  108MPD2    H7 1691   4.129   0.681  11.576 -2.0158  1.8291  0.0579
  109TMC2    C1 1692   2.906   3.513   0.617 -0.3494  1.0129 -0.0120
  109TMC2    C2 1693   2.881   3.631   0.549  0.1680 -0.6307 -0.2822
  109TMC2    C3 1694   2.945   3.746   0.587 -0.5008 -0.1182 -0.5053
  109TMC2    C4 1695   2.987   3.516   0.727 -0.0965 -0.3895 -0.8928
  109TMC2    C5 1696   3.045   3.634   0.763  0.2220  0.0958 -0.3429
  109TMC2    C6 1697   3.021   3.754   0.701  0.4698  0.0226  0.1747
  109TMC2     C 1698   2.926   3.393   0.535  0.6409  0.2237  0.0692
  109TMC2     O 1699   2.898   3.396   0.419  0.5516  0.6580 -0.6718
  109TMC2     H 1700   2.825   3.629   0.456  1.4005  2.1432 -1.0834
  109TMC2    H1 1701   3.005   3.427   0.786 -0.5065 -0.5034 -0.9384
  109TMC2    H2 1702   3.091   3.835   0.719  2.0146 -0.7135 -2.5207
  109TMC2    C7 1703   3.173   3.616   0.844  0.8149  0.5494 -0.3067
  109TMC2    C8 1704   2.885   3.865   0.527 -0.0771  0.3664 -0.3628
  109TMC2    O1 1705   3.220   3.505   0.844  0.8681  0.1313  0.2899
  109TMC2    O2 1706   2.829   3.874   0.422  1.0028 -0.1001 -0.2289
  109TMC2    O5 1707   2.909   3.956   0.618  0.9453  0.1811  0.2546
  109TMC2    H5 1708   2.943   3.918   0.702 -0.4351  0.8139  1.0899
  110MPD2     C 1709   3.198   2.960   0.512 -0.0605 -0.4281  0.0326
  110MPD2    C1 1710   3.158   2.986   0.642 -0.0467  0.1637  0.3665
  110MPD2    C2 1711   3.069   3.084   0.667 -0.4304  0.3165  0.4438
  110MPD2    C3 1712   3.018   3.165   0.569 -0.0806 -0.1922  0.2811
  110MPD2    C4 1713   3.050   3.128   0.438 -0.3307 -0.8002 -0.6738
  110MPD2    C5 1714   3.140   3.027   0.414 -0.2722 -0.7248 -0.3751
  110MPD2     H 1715   3.070   3.126   0.767  0.5662  1.5221 -0.0646
  110MPD2    H1 1716   3.024   3.184   0.348 -1.6017  0.5770  0.5566
  110MPD2    H2 1717   3.269   2.885   0.478  1.2437  0.7662  0.0801
  110MPD2    H3 1718   3.160   2.991   0.314 -0.6935 -0.0901 -0.6962
  110MPD2     N 1719   2.952   3.284   0.614  0.9189  0.1334  0.0133
  110MPD2    H5 1720   2.922   3.285   0.710  2.1957 -0.2794  0.4186
  110MPD2    N1 1721   3.223   2.919   0.752  0.0060 -0.3776 -0.7735
  110MPD2    H7 1722   3.206   2.961   0.843  0.2835  0.9320 -1.3255
  111TMC2    C1 1723   3.627   1.815  11.541 -0.6500 -0.2868 -0.2757
  111TMC2    C2 1724   3.531   1.739  11.603 -0.1823  0.5386 -0.4979
  111TMC2    C3 1725   3.555   1.687  11.728 -0.3319  0.5787 -0.2150
  111TMC2    C4 1726   3.753   1.833  11.595  0.2899 -0.7434  0.1008
  111TMC2    C5 1727   3.770   1.796  11.729  0.5161  0.3323  0.4968
  111TMC2    C6 1728   3.672   1.721  11.796  0.9269 -0.1458 -0.2183
  111TMC2     C 1729   3.605   1.877  11.408 -0.0367 -0.5202 -0.3939
  111TMC2     O 1730   3.699   1.935  11.355 -0.2699  0.0823 -0.3264
  111TMC2     H 1731   3.438   1.703  11.558  0.5679 -0.8973 -0.9056
  111TMC2    H1 1732   3.826   1.880  11.530  0.5448  1.5203  2.0224
  111TMC2    H2 1733   3.705   1.683  11.892 -0.7621  0.6861  0.6900
  111TMC2    C7 1734   3.900   1.823  11.791  0.0962 -0.1692  0.4435
  111TMC2    C8 1735   3.441   1.636  11.803 -0.2016 -0.0611  0.1440
  111TMC2    O1 1736   3.933   1.757  11.888  0.3361 -0.1316 -0.3017
  111TMC2    O2 1737   3.403   1.523  11.775 -0.6928  0.1578  0.2527
  111TMC2    O5 1738   3.459   1.680  11.926  0.4640 -0.6865 -0.3795
  111TMC2    H5 1739   3.495   1.772  11.925 -0.5088 -0.3069 -0.2023
  112MPD2     C 1740   3.281   2.082  11.088 -0.1042 -0.1657  0.5963
  112MPD2    C1 1741   3.410   2.054  11.066  0.1168 -0.9473  0.4452
  112MPD2    C2 1742   3.479   1.995  11.171  0.3872  0.8376 -0.5254
  112MPD2    C3 1743   3.411   1.975  11.295  0.2205  0.2086  0.7470
  112MPD2    C4 1744   3.285   2.017  11.314  0.2240 -0.1627  0.0623
  112MPD2    C5 1745   3.218   2.063  11.208 -0.3464 -0.6387  0.6362
  112MPD2     H 1746   3.582   1.969  11.153  0.2807  0.3122 -0.3498
  112MPD2    H1 1747   3.228   2.011  11.406  0.2350  0.2413  0.0967
  112MPD2    H2 1748   3.215   2.116  11.008 -0.6910  0.3629  1.3043
  112MPD2    H3 1749   3.113   2.086  11.223 -0.3035 -0.6863  1.0083
  112MPD2     N 1750   3.474   1.909  11.399 -0.1107 -0.5273 -0.5468
  112MPD2    H5 1751   3.424   1.892  11.486 -1.4681 -1.2562 -1.4701
  112MPD2    N1 1752   3.476   2.076  10.945  0.4629  0.3833 -0.1266
  112MPD2    H7 1753   3.566   2.029  10.951  0.9819  1.3903 -0.0117
  113TMC2    C1 1754   1.594   0.860   0.954 -0.5524  0.2999 -0.1597
  113TMC2    C2 1755   1.502   0.953   0.919 -0.4573 -0.1550  0.0463
  113TMC2    C3 1756   1.370   0.916   0.909  0.3824 -0.0963  0.5687
  113TMC2    C4 1757   1.561   0.726   0.973  0.3169 -0.4404 -0.7833
  113TMC2    C5 1758   1.426   0.697   0.950  0.3389  0.7118 -0.4996
  113TMC2    C6 1759   1.326   0.786   0.928  0.4911  0.4804 -0.3151
  113TMC2     C 1760   1.727   0.908   0.972 -0.2605  0.1065 -1.7053
  113TMC2     O 1761   1.740   1.023   1.004  0.2617 -0.0267  0.0511
  113TMC2     H 1762   1.518   1.060   0.912  2.4747 -0.4664  1.7240
  113TMC2    H1 1763   1.630   0.656   1.020  1.4682  4.0502  4.2598
  113TMC2    H2 1764   1.221   0.759   0.921  0.9043 -1.2133  0.0191
  113TMC2    C7 1765   1.378   0.566   0.907  1.1715 -0.7923  0.2475
  113TMC2    C8 1766   1.273   1.025   0.875 -0.2994 -0.3802  0.0049
  113TMC2    O1 1767   1.282   0.569   0.828 -0.0061 -0.0014  0.5701
  113TMC2    O2 1768   1.294   1.142   0.911  0.4698  0.1902 -0.1285
  113TMC2    O5 1769   1.165   0.969   0.828 -0.7014 -0.4710 -0.0244
  113TMC2    H5 1770   1.172   0.884   0.780  1.0945  1.0648 -2.4604
  114MPD2     C 1771   2.225   0.832   1.073 -0.4888  0.1351 -0.7764
  114MPD2    C1 1772   2.148   0.940   1.095  0.7647  0.2419 -0.0764
  114MPD2    C2 1773   2.013   0.938   1.055  1.1561 -0.3756  0.1106
  114MPD2    C3 1774   1.958   0.820   1.000  0.3367  0.0126  0.1815
  114MPD2    C4 1775   2.042   0.720   0.980  0.4115 -0.1284  0.1024
  114MPD2    C5 1776   2.168   0.726   1.019 -0.8654 -0.1153 -0.2529
  114MPD2     H 1777   1.948   1.024   1.061  0.0903 -1.1463 -0.4199
  114MPD2    H1 1778   2.007   0.625   0.941 -0.6744 -0.1540  1.1205
  114MPD2    H2 1779   2.331   0.822   1.095 -1.0784 -2.1157  1.0808
  114MPD2    H3 1780   2.239   0.649   0.991  0.0482  1.2592 -1.7283
  114MPD2     N 1781   1.821   0.807   0.961 -0.4784  0.7838  0.2580
  114MPD2    H5 1782   1.784   0.717   0.932 -1.0989  1.4092 -0.8814
  114MPD2    N1 1783   2.198   1.069   1.141  0.1699  0.0602 -0.5349
  114MPD2    H7 1784   2.135   1.148   1.146  1.5470  0.9689  2.3512
  115TMC2    C1 1785   3.136   3.031  17.572 -0.0281 -0.6969 -0.3964
  115TMC2    C2 1786   3.167   2.940  17.666 -0.1690 -0.1916  0.7487
  115TMC2    C3 1787   3.238   2.992   0.023  0.1530 -0.3318 -0.2879
  115TMC2    C4 1788   3.151   3.166  17.595  0.0800  0.0056  0.6147
  115TMC2    C5 1789   3.219   3.212  17.703 -0.2391 -0.4973  0.0262
  115TMC2    C6 1790   3.256   3.121   0.042 -0.3275 -0.0739  0.3942
  115TMC2     C 1791   3.055   2.975  17.460 -0.7750 -0.0301 -0.8564
  115TMC2     O 1792   3.014   2.861  17.462 -0.0297  0.0410  0.7085
  115TMC2     H 1793   3.153   2.835  17.646 -0.4005 -0.2152  1.0449
  115TMC2    H1 1794   3.102   3.237  17.529  0.9683  0.2273  0.1879
  115TMC2    H2 1795   3.311   3.149   0.132  0.0639  0.5526 -0.0409
  115TMC2    C7 1796   3.264   3.351  17.720  0.2721 -0.3491  0.1636
  115TMC2    C8 1797   3.338   2.905   0.079  0.4222 -0.2195  0.7811
  115TMC2    O1 1798   3.312   3.383   0.074 -0.0652 -0.7050 -0.9106
  115TMC2    O2 1799   3.457   2.932   0.075 -0.4843  0.6650  0.0076
  115TMC2    O5 1800   3.282   2.791   0.123  0.1692 -0.0929  0.6837
  115TMC2    H5 1801   3.184   2.787   0.132  0.1358  2.0950  1.2557
  116MPD2     C 1802   2.765   3.044  17.038  0.4758  0.3432 -1.0495
  116MPD2    C1 1803   2.780   2.933  17.119  0.0992  0.2443  0.2923
  116MPD2    C2 1804   2.875   2.932  17.227 -0.6194  0.3301  0.7776
  116MPD2    C3 1805   2.955   3.046  17.249  0.1601  0.5475  0.8559
  116MPD2    C4 1806   2.933   3.159  17.174 -0.1412  0.0253 -0.1327
  116MPD2    C5 1807   2.840   3.156  17.066 -0.4075  0.5246  0.6822
  116MPD2     H 1808   2.886   2.846  17.293  0.5405  0.1089  0.2836
  116MPD2    H1 1809   2.980   3.254  17.199  0.9200 -1.1883  2.4709
  116MPD2    H2 1810   2.688   3.047  16.962 -0.9697  1.6598  0.4638
  116MPD2    H3 1811   2.827   3.252  17.018  1.2684  0.2941 -0.2615
  116MPD2     N 1812   3.046   3.061  17.351  0.3201  0.2710 -0.1472
  116MPD2    H5 1813   3.091   3.151  17.363 -1.6397  1.1520  0.6277
  116MPD2    N1 1814   2.682   2.829  17.094 -0.1765 -0.0795  0.2219
  116MPD2    H7 1815   2.620   2.836  17.014  1.8082 -1.5325 -1.4505
  117TMC2    C1 1816   1.665   4.030  13.903 -0.4330  0.2131 -0.0378
  117TMC2    C2 1817   1.780   3.967  13.877  0.9498  0.1065 -0.3234
  117TMC2    C3 1818   1.891   4.053  13.882 -0.3813  0.1607 -0.1424
  117TMC2    C4 1819   1.650   4.167  13.931  0.3412  0.4977 -0.5068
  117TMC2    C5 1820   1.767   4.241  13.926 -0.0642 -0.2024 -0.5151
  117TMC2    C6 1821   1.889   4.185  13.911 -0.0205 -0.3460 -0.0535
  117TMC2     C 1822   1.553   3.947  13.914 -1.2492  0.5155  0.0977
  117TMC2     O 1823   1.569   3.833  13.879 -0.4487  0.9669 -0.4776
  117TMC2     H 1824   1.786   3.861  13.857  0.8677 -0.0419  0.4720
  117TMC2    H1 1825   1.552   4.214  13.930  1.5399  2.9562 -0.8255
  117TMC2    H2 1826   1.976   4.249  13.913 -1.8324  2.1149 -0.3774
  117TMC2    C7 1827   1.765   4.392  13.911 -0.3564  0.1499 -0.1320
  117TMC2    C8 1828   2.019   3.999  13.851  0.5936  0.7135  0.2479
  117TMC2    O1 1829   1.875   4.440  13.883 -0.0992  0.2387 -0.6108
  117TMC2    O2 1830   2.121   4.049  13.895  0.2312  0.1558  0.2770
  117TMC2    O5 1831   2.004   3.889  13.768 -0.5568 -0.2801  0.4641
  117TMC2    H5 1832   1.912   3.858  13.753 -1.4643  1.9975  1.2589
  118MPD2     C 1833   1.504   4.621  14.017 -1.3280 -0.4843  0.1229
  118MPD2    C1 1834   1.634   4.585  13.991 -0.0962 -0.3595  0.5756
  118MPD2    C2 1835   1.736   4.675  13.989 -0.3543  0.1411 -0.0435
  118MPD2    C3 1836   1.704   0.072  14.017 -0.9554  0.4365 -0.2027
  118MPD2    C4 1837   1.576   0.111  14.027 -0.4761 -0.7087  0.1296
  118MPD2    C5 1838   1.480   0.011  14.028 -0.0216 -0.1674 -0.5814
  118MPD2     H 1839   1.835   4.634  14.001  0.1701  0.6245 -2.7138
  118MPD2    H1 1840   1.550   0.216  14.035  1.0573 -0.3361  0.1595
  118MPD2    H2 1841   1.418   4.555  14.022 -2.7431  1.3093 -0.3752
  118MPD2    H3 1842   1.378   0.041  14.045 -0.2036 -0.9389 -0.3054
  118MPD2     N 1843   1.804   0.173  14.025 -0.2854  0.1342 -0.9837
  118MPD2    H5 1844   1.767   0.268  14.033 -0.5728 -0.0764  0.1891
  118MPD2    N1 1845   1.652   4.447  13.968 -0.4822  0.2828 -0.1285
  118MPD2    H7 1846   1.578   4.383  13.995  1.5361 -1.9040  0.2196
  119TMC2    C1 1847   4.445   0.868  13.045 -1.3357  0.3477  0.1246
  119TMC2    C2 1848   4.502   0.925  12.933 -0.6504 -0.9414  0.4763
  119TMC2    C3 1849   4.416   0.933  12.827 -0.2439  0.6180  0.0561
  119TMC2    C4 1850   4.334   0.791  13.046  0.1533  0.7486  0.3694
  119TMC2    C5 1851   4.253   0.792  12.933  0.2069  0.4083 -0.3411
  119TMC2    C6 1852   4.298   0.867  12.829  1.0644  0.5389  0.3923
  119TMC2     C 1853   4.508   0.885  13.176  0.7488  0.1777 -0.0502
  119TMC2     O 1854   4.450   0.850  13.277  0.0002 -0.0389 -0.1614
  119TMC2     H 1855   4.594   0.981  12.946 -0.6565 -0.0853 -3.1715
  119TMC2    H1 1856   4.315   0.730  13.133 -1.4247  0.3505 -0.2614
  119TMC2    H2 1857   4.230   0.872  12.745 -1.1719 -1.0867  2.1408
  119TMC2    C7 1858   4.118   0.747  12.946  1.1544 -0.0017  0.1302
  119TMC2    C8 1859   4.466   0.981  12.703  0.4923 -0.3551 -0.6904
  119TMC2    O1 1860   4.036   0.793  12.868 -0.6678 -0.0729 -0.6409
  119TMC2    O2 1861   4.410   1.059  12.631 -0.7751 -0.7957  0.1150
  119TMC2    O5 1862   4.585   0.915  12.673  0.4939  0.3676  1.3178
  119TMC2    H5 1863   4.607   0.854  12.746 -0.3852  1.3128  2.3686
  120MPD2     C 1864   0.181   0.969  13.481  0.0817  1.0929  0.0496
  120MPD2    C1 1865   0.051   0.954  13.513  0.1767 -0.8204  0.0621
  120MPD2    C2 1866   4.700   0.949  13.403 -0.1320  0.3357 -0.3289
  120MPD2    C3 1867   4.735   0.945  13.271 -0.3809  0.3030 -0.1718
  120MPD2    C4 1868   0.122   0.940  13.241  0.7824 -0.6206  0.6235
  120MPD2    C5 1869   0.213   0.965  13.347 -0.3422  0.4116  0.1908
  120MPD2     H 1870   4.594   0.951  13.426  0.3782  0.5947  1.9374
  120MPD2    H1 1871   0.156   0.936  13.138  0.7233  0.0121  0.5788
  120MPD2    H2 1872   0.261   0.986  13.552  0.1265 -0.5387  0.3898
  120MPD2    H3 1873   0.320   0.965  13.329 -0.4045  0.8578 -0.1896
  120MPD2     N 1874   4.639   0.930  13.167  0.4795 -0.5775 -0.4354
  120MPD2    H5 1875   4.666   0.940  13.069 -1.5093 -1.5037 -1.0716
  120MPD2    N1 1876   4.738   0.948  13.652 -0.3737 -0.6834 -0.1085
  120MPD2    H7 1877   0.043   1.014  13.715 -0.7431  0.7258 -1.3296
  121TMC2    C1 1878   1.430   2.639  14.236 -0.9660 -0.2221  0.0989
  121TMC2    C2 1879   1.394   2.553  14.331 -0.3445 -0.1302  0.0777
  121TMC2    C3 1880   1.257   2.531  14.350 -0.5208  0.2596 -0.2880
  121TMC2    C4 1881   1.339   2.692  14.144  0.3874 -0.1296  0.3642
  121TMC2    C5 1882   1.214   2.666  14.166 -0.1333 -0.5948  0.0361
  121TMC2    C6 1883   1.166   2.593  14.271  0.7720  0.9657 -0.1583
  121TMC2     C 1884   1.577   2.643  14.202 -0.0542  0.7708  0.1399
  121TMC2     O 1885   1.654   2.652  14.296  0.8173 -0.1894  0.0205
  121TMC2     H 1886   1.474   2.495  14.376 -1.6134 -2.5823 -0.8563
  121TMC2    H1 1887   1.367   2.745  14.054  1.2175 -1.3377 -0.0839
  121TMC2    H2 1888   1.062   2.562  14.270  1.1053 -0.1740  0.4580
  121TMC2    C7 1889   1.126   2.724  14.061 -0.3015 -0.0809 -0.0602
  121TMC2    C8 1890   1.213   2.405  14.403  0.5614  0.2561 -0.4587
  121TMC2    O1 1891   1.167   2.812  13.985 -0.0384 -0.2755 -0.4133
  121TMC2    O2 1892   1.120   2.396  14.477 -0.3120  0.4374 -0.6188
  121TMC2    O5 1893   1.291   2.298  14.367  0.3240 -0.1012  0.4572
  121TMC2    H5 1894   1.351   2.315  14.291 -0.7082  1.0519 -0.0922
  122MPD2     C 1895   1.851   2.635  14.074  0.3040  0.7560  0.1141
  122MPD2    C1 1896   1.725   2.641  14.007 -0.0994 -0.3431  0.5290
  122MPD2    C2 1897   1.720   2.641  13.872  0.3467  0.3207 -0.8299
  122MPD2    C3 1898   1.839   2.652  13.797  0.4433 -0.3204  0.4169
  122MPD2    C4 1899   1.964   2.648  13.863  0.3856 -0.4652 -0.2197
  122MPD2    C5 1900   1.965   2.635  14.004 -0.6606  0.3303  0.4553
  122MPD2     H 1901   1.626   2.638  13.818 -1.1609  2.7568  1.6275
  122MPD2    H1 1902   2.056   2.663  13.807  0.3750 -0.1466 -0.1528
  122MPD2    H2 1903   1.850   2.627  14.182 -2.0110  3.9327  0.3257
  122MPD2    H3 1904   2.060   2.636  14.056 -0.9166 -2.4550  0.9486
  122MPD2     N 1905   1.836   2.662  13.654  0.6543  0.0056 -0.0513
  122MPD2    H5 1906   1.925   2.661  13.604  1.0398 -1.1429  0.6770
  122MPD2    N1 1907   1.601   2.647  14.068  0.0916  0.2982 -0.1911
  122MPD2    H7 1908   1.517   2.634  14.012  0.5803 -2.5627 -0.2737
  123TMC2    C1 1909   0.031   1.469  10.200 -0.0710 -0.5139  0.4236
  123TMC2    C2 1910   0.151   1.532  10.170  0.7663  0.3182  0.2414
  123TMC2    C3 1911   0.219   1.471  10.069  0.0554 -0.4730 -0.1234
  123TMC2    C4 1912   4.727   1.354  10.141  0.8260  0.3358 -0.0397
  123TMC2    C5 1913   0.076   1.290  10.056  0.1706  0.5005  0.0722
  123TMC2    C6 1914   0.183   1.354  10.007 -0.2310  0.3642  0.2237
  123TMC2     C 1915   4.682   1.530  10.291 -0.0302 -0.1578  0.1692
  123TMC2     O 1916   4.686   1.656  10.289 -0.1416  0.1749  0.6165
  123TMC2     H 1917   0.184   1.628  10.207 -2.0006  1.1161  0.6321
  123TMC2    H1 1918   4.635   1.308  10.174  0.8430  0.5743  0.3301
  123TMC2    H2 1919   0.251   1.308   9.937 -0.0880  1.7645 -0.5507
  123TMC2    C7 1920   0.027   1.166   9.992 -0.4477 -0.5622  0.4872
  123TMC2    C8 1921   0.301   1.567   9.999 -0.1138  0.4246  0.1303
  123TMC2    O1 1922   0.044   1.157   9.871 -0.6319 -0.1971  0.7107
  123TMC2    O2 1923   0.339   1.670  10.050  0.4957  0.3271 -0.1867
  123TMC2    O5 1924   0.250   1.571   9.874  0.7934  0.2787 -0.2908
  123TMC2    H5 1925   0.214   1.487   9.838  2.5920 -1.2444  1.4840
  124MPD2     C 1926   4.342   1.505  10.667  0.3690  0.9334  0.1617
  124MPD2    C1 1927   4.391   1.378  10.637 -0.1032  0.0119  0.5384
  124MPD2    C2 1928   4.482   1.356  10.537 -0.3884  0.1844  0.1828
  124MPD2    C3 1929   4.523   1.468  10.472 -0.5639 -0.6317 -0.1529
  124MPD2    C4 1930   4.468   1.589  10.497 -0.5432  0.0134  0.1364
  124MPD2    C5 1931   4.382   1.612  10.598 -0.0878 -0.0233  0.7410
  124MPD2     H 1932   4.527   1.261  10.510 -0.8224  0.6316 -2.0651
  124MPD2    H1 1933   4.504   1.676  10.442 -2.2848 -0.0049 -1.0205
  124MPD2    H2 1934   4.274   1.524  10.748 -0.9428 -1.3394 -0.3811
  124MPD2    H3 1935   4.357   1.716  10.618 -2.3837 -0.4370  0.0003
  124MPD2     N 1936   4.619   1.445  10.376 -0.1394 -0.0305 -0.6181
  124MPD2    H5 1937   4.642   1.347  10.359 -1.0468 -0.4965  0.7388
  124MPD2    N1 1938   4.338   1.274  10.714  0.5165  0.2339 -0.2168
  124MPD2    H7 1939   4.258   1.291  10.775 -0.7065 -1.3170 -1.3889
  125TMC2    C1 1940   4.579   1.913   9.435 -0.7454 -0.1917  0.3162
  125TMC2    C2 1941   4.675   2.005   9.420  0.2051 -0.1981 -0.3320
  125TMC2    C3 1942   4.717   2.044   9.292  0.3528 -0.4782  0.3100
  125TMC2    C4 1943   4.544   1.833   9.328  0.1868 -0.2411 -0.4323
  125TMC2    C5 1944   4.604   1.857   9.209  0.1073  0.1365 -0.2506
  125TMC2    C6 1945   4.690   1.965   9.186 -0.3317  0.4235 -0.1496
  125TMC2     C 1946   4.505   1.902   9.563 -0.2251  0.3637  0.0380
  125TMC2     O 1947   4.561   1.945   9.662 -0.7970  0.3195 -0.0962
  125TMC2     H 1948   4.696   2.068   9.507 -2.8056 -0.2292  0.4018
  125TMC2    H1 1949   4.482   1.745   9.337  1.6118 -1.2211 -0.1935
  125TMC2    H2 1950   4.727   1.989   9.087 -0.5242 -1.6007 -0.7042
  125TMC2    C7 1951   4.555   1.775   9.098  0.6999  0.0972 -0.7198
  125TMC2    C8 1952   0.025   2.179   9.273 -0.0848 -0.3533  0.4282
  125TMC2    O1 1953   4.436   1.748   9.086  0.5471  0.3431 -0.4743
  125TMC2    O2 1954   0.111   2.235   9.345  0.0335  0.3117 -0.0896
  125TMC2    O5 1955   0.005   2.213   9.144 -0.7561 -0.0962 -0.1075
  125TMC2    H5 1956   4.658   2.179   9.113  0.0674 -0.8635 -1.5913
  126MPD1     C 1957   4.067   1.830   9.801 -0.5258  0.1165  0.0262
  126MPD1    C1 1958   4.048   1.776   9.674 -0.5193 -0.0196 -0.1944
  126MPD1    C2 1959   4.156   1.786   9.591  0.8356  0.7668 -0.5832
  126MPD1    C3 1960   4.277   1.836   9.632  0.3739  0.7209 -0.5470
  126MPD1    C4 1961   4.298   1.864   9.768 -0.8011 -0.8705  0.6290
  126MPD1    C5 1962   4.188   1.869   9.851 -0.6055  0.3477 -0.0265
  126MPD1     H 1963   4.147   1.758   9.487 -1.0133  1.8708 -0.7152
  126MPD1    H1 1964   4.395   1.877   9.813 -0.3344 -1.0398 -0.3416
  126MPD1    H2 1965   3.979   1.835   9.863 -0.5181 -1.3485  0.1564
  126MPD1    H3 1966   4.194   1.910   9.951  3.4121  0.1542 -0.1897
  126MPD1     N 1967   4.381   1.844   9.537 -0.4059  0.1072  0.0605
  126MPD1    H5 1968   4.359   1.815   9.443 -1.0246  0.1275  0.1928
  126MPD1    N1 1969   3.913   1.769   9.625  0.1796  0.2176  0.3669
  126MPD1    H6 1970   3.860   1.720   9.696 -1.2668  0.0861 -0.7949
  126MPD1    H7 1971   3.917   1.701   9.550  0.1845 -3.2215  3.5104
  127TMC2    C1 1972   0.821   0.978   9.831 -0.2479  0.6122 -0.5735
  127TMC2    C2 1973   0.941   0.931   9.878  0.2339  0.3111  0.3020
  127TMC2    C3 1974   0.931   0.821   9.963  0.3457 -0.3425  0.2062
  127TMC2    C4 1975   0.709   0.902   9.842  0.2643  0.8276 -0.0288
  127TMC2    C5 1976   0.704   0.792   9.927 -0.4481  0.6272 -0.2487
  127TMC2    C6 1977   0.816   0.761   9.996 -0.1772  0.5967 -0.1028
  127TMC2     C 1978   0.821   1.103   9.767  0.0670  0.1411 -0.5400
  127TMC2     O 1979   0.936   1.136   9.736  0.3778 -0.0723  0.1748
  127TMC2     H 1980   1.029   0.988   9.850  0.6379  0.0311  1.0071
  127TMC2    H1 1981   0.625   0.918   9.777 -0.1834 -0.6734  0.1786
  127TMC2    H2 1982   0.815   0.686  10.074  0.3839 -0.7164 -1.3598
  127TMC2    C7 1983   0.601   0.686   9.907  0.5858  0.1747 -0.5774
  127TMC2    C8 1984   1.052   0.753  10.003 -0.7378  0.2727 -0.0553
  127TMC2    O1 1985   0.520   0.698   9.816  0.4593  0.1001 -0.1311
  127TMC2    O2 1986   1.062   0.679  10.097  0.4635 -0.4382  0.0962
  127TMC2    O5 1987   1.140   0.756   9.905  0.2599 -0.8270 -0.3868
  127TMC2    H5 1988   1.114   0.814   9.830 -1.0837  1.9128  2.1838
  128MPD2     C 1989   0.546   1.318   9.627  0.4535 -0.1304  0.3989
  128MPD2    C1 1990   0.676   1.280   9.656  0.1780 -0.6135  0.2238
  128MPD2    C2 1991   0.782   1.345   9.592 -0.1483  0.0209  0.7289
  128MPD2    C3 1992   0.751   1.446   9.507 -0.9022 -0.1717  0.4941
  128MPD2    C4 1993   0.623   1.485   9.477 -0.1979  0.9364 -0.3755
  128MPD2    C5 1994   0.516   1.418   9.534  0.5340 -0.5003  0.2300
  128MPD2     H 1995   0.886   1.328   9.621 -0.3599 -0.5475  1.1537
  128MPD2    H1 1996   0.598   1.566   9.409  2.0052  1.2442 -0.8187
  128MPD2    H2 1997   0.464   1.277   9.685 -0.5346  0.1237 -0.8212
  128MPD2    H3 1998   0.415   1.454   9.519  0.8514 -0.6511 -2.4034
  128MPD2     N 1999   0.862   1.517   9.457  0.1178  0.1241 -0.2188
  128MPD2    H5 2000   0.952   1.499   9.500 -0.3577 -3.0754 -0.6115
  128MPD2    N1 2001   0.699   1.161   9.738  0.0231 -0.3898 -0.0389
  128MPD2    H7 2002   0.620   1.120   9.786 -0.5917  2.5719  1.4918
  129TMC2    C1 2003   0.564   1.304   1.315 -0.3231  0.2494 -0.0521
  129TMC2    C2 2004   0.685   1.245   1.331 -1.0172 -0.0666  0.6301
  129TMC2    C3 2005   0.693   1.149   1.430  0.8345  0.0383 -0.0743
  129TMC2    C4 2006   0.452   1.280   1.382  0.6178  0.1671 -0.6843
  129TMC2    C5 2007   0.456   1.186   1.480 -0.6413 -0.5168  0.4470
  129TMC2    C6 2008   0.578   1.119   1.504  0.0743 -0.4916 -0.8091
  129TMC2     C 2009   0.547   1.389   1.206  0.2825  0.1165 -0.0414
  129TMC2     O 2010   0.450   1.376   1.141  0.5630 -0.3718  0.1380
  129TMC2     H 2011   0.773   1.255   1.269 -0.9433 -1.4266  0.5111
  129TMC2    H1 2012   0.365   1.342   1.366 -0.0279 -0.4722  0.3761
  129TMC2    H2 2013   0.587   1.057   1.593 -0.7856  0.2516 -0.1965
  129TMC2    C7 2014   0.326   1.140   1.530  1.1133 -0.3907  0.9035
  129TMC2    C8 2015   0.821   1.126   1.495 -0.1673  0.2588 -0.3669
  129TMC2    O1 2016   0.236   1.200   1.482  0.1700 -0.0333 -0.2726
  129TMC2    O2 2017   0.849   1.029   1.563 -0.3923  0.4578  0.1053
  129TMC2    O5 2018   0.909   1.228   1.469  0.3095 -0.3056  0.0496
  129TMC2    H5 2019   0.874   1.306   1.421 -1.7631  0.0106  2.0255
  130MPD2     C 2020   0.582   1.608   1.011  0.6592  0.0880  0.2071
  130MPD2    C1 2021   0.639   1.606   1.140 -0.3213 -0.1385  0.1137
  130MPD2    C2 2022   0.716   1.720   1.182  0.0605 -0.4302  1.0959
  130MPD2    C3 2023   0.715   1.840   1.103 -0.4385 -0.6240 -0.0570
  130MPD2    C4 2024   0.654   1.834   0.975 -0.1998 -0.9271 -0.1229
  130MPD2    C5 2025   0.588   1.718   0.932  0.5870 -0.0592 -0.5568
  130MPD2     H 2026   0.755   1.730   1.282  3.1618 -2.2080  0.0618
  130MPD2    H1 2027   0.663   1.912   0.901 -0.7822 -0.3816  0.3746
  130MPD2    H2 2028   0.538   1.523   0.960 -0.9783 -0.1455  2.0346
  130MPD2    H3 2029   0.548   1.706   0.832 -0.7387  1.5687 -0.2352
  130MPD2     N 2030   0.773   1.957   1.155 -0.5961 -0.4792 -0.1226
  130MPD2    H5 2031   0.813   1.951   1.248  0.1068 -2.0749 -0.5228
  130MPD2    N1 2032   0.636   1.491   1.218 -0.0253 -0.5762  0.0781
  130MPD2    H7 2033   0.696   1.502   1.299 -0.8380  0.5765  0.5163
  131TMC2    C1 2034   4.236   0.515   9.952 -0.5643 -0.1555  0.7290
  131TMC2    C2 2035   4.167   0.400   9.908  0.7318  0.6928 -0.9830
  131TMC2    C3 2036   4.168   0.368   9.774  0.3699 -0.0220 -0.7759
  131TMC2    C4 2037   4.281   0.603   9.861  0.2560 -0.0260  0.0810
  131TMC2    C5 2038   4.267   0.572   9.728 -0.4628  0.4723 -0.2997
  131TMC2    C6 2039   4.218   0.452   9.681  0.1406 -0.0281 -0.1720
  131TMC2     C 2040   4.220   0.560  10.086 -0.5854 -0.3863 -0.4474
  131TMC2     O 2041   4.262   0.672  10.110  0.5423  0.2889 -0.3623
  131TMC2     H 2042   4.133   0.318   9.969 -0.5063  1.2809 -0.8628
  131TMC2    H1 2043   4.315   0.701   9.891 -1.4271  0.8983 -0.9919
  131TMC2    H2 2044   4.200   0.452   9.574 -0.8543  0.0547  0.0020
  131TMC2    C7 2045   4.346   0.655   9.639 -0.3305 -0.3525  0.1345
  131TMC2    C8 2046   4.113   0.243   9.727 -0.3368  0.4586  0.1480
  131TMC2    O1 2047   4.366   0.596   9.537 -0.0046  0.7459  0.7642
  131TMC2    O2 2048   4.049   0.162   9.798  0.5896  0.1049  0.3089
  131TMC2    O5 2049   4.184   0.198   9.620 -0.0777  0.1550  0.1579
  131TMC2    H5 2050   4.228   0.266   9.565 -0.7176  2.1356  2.0795
  132MPD2     C 2051   4.113   0.351  10.374  0.0968  0.0518  0.4851
  132MPD2    C1 2052   4.151   0.470  10.308 -0.0477 -0.6722  0.0701
  132MPD2    C2 2053   4.172   0.577  10.389  0.0717 -0.4674 -0.1134
  132MPD2    C3 2054   4.161   0.566  10.527  0.0440 -0.2344 -0.7357
  132MPD2    C4 2055   4.143   0.442  10.591  0.0582 -0.1435  0.6163
  132MPD2    C5 2056   4.125   0.333  10.510 -0.2126  0.3045 -0.2902
  132MPD2     H 2057   4.194   0.673  10.343 -0.8443 -0.7401 -1.1094
  132MPD2    H1 2058   4.152   0.431  10.699  0.7012  1.2928  0.7095
  132MPD2    H2 2059   4.099   0.261  10.314  0.3470 -0.5231  1.2803
  132MPD2    H3 2060   4.101   0.238  10.556  0.5912  0.0246 -0.4589
  132MPD2     N 2061   4.166   0.685  10.601 -0.0509 -0.0933  1.0453
  132MPD2    H5 2062   4.192   0.765  10.545  0.2181 -2.5728 -2.4299
  132MPD2    N1 2063   4.171   0.463  10.169  0.5759 -0.2048 -0.3584
  132MPD2    H7 2064   4.151   0.375  10.124  2.1818 -1.7321  1.9407
  133TMC2    C1 2065   3.707   0.144   9.699  0.3590 -0.2884 -0.3629
  133TMC2    C2 2066   3.760   0.114   9.581  0.0161  1.0367  0.3081
  133TMC2    C3 2067   3.774   4.722   9.541 -0.2392 -0.0872  0.7025
  133TMC2    C4 2068   3.655   0.046   9.782 -0.0145  0.1990 -0.3465
  133TMC2    C5 2069   3.674   4.653   9.739  0.4183  0.4232  0.2074
  133TMC2    C6 2070   3.729   4.618   9.619  0.1662  0.8767  0.3689
  133TMC2     C 2071   3.696   0.284   9.734 -0.0375  0.0456  0.5467
  133TMC2     O 2072   3.693   0.363   9.645  1.1422 -0.1268 -0.1240
  133TMC2     H 2073   3.782   0.201   9.520 -0.3891  1.0473  0.1751
  133TMC2    H1 2074   3.609   0.070   9.877 -0.8246  0.1671 -0.7285
  133TMC2    H2 2075   3.753   4.517   9.588 -2.3444  0.1542  0.7869
  133TMC2    C7 2076   3.598   4.557   9.813  1.1501  0.2507 -0.5410
  133TMC2    C8 2077   3.883   4.695   9.445  0.3118 -1.7404 -0.3648
  133TMC2    O1 2078   3.570   4.579   9.925 -0.5657 -0.4033 -0.1766
  133TMC2    O2 2079   3.953   0.047   9.399  0.3995 -0.2475  0.0677
  133TMC2    O5 2080   3.828   4.604   9.365  0.3413 -0.1903  0.4144
  133TMC2    H5 2081   3.756   4.555   9.411  0.6002 -0.2472  0.7586
  134MPD2     C 2082   3.779   0.438  10.054 -0.3845 -0.1129 -0.4299
  134MPD2    C1 2083   3.713   0.427   9.932 -0.3029 -0.1077 -0.4545
  134MPD2    C2 2084   3.669   0.548   9.885  0.0734  0.7525  0.1224
  134MPD2    C3 2085   3.680   0.671   9.951  0.8816 -0.4120  0.6668
  134MPD2    C4 2086   3.743   0.676  10.078  0.3106 -0.2198 -0.2271
  134MPD2    C5 2087   3.791   0.559  10.123 -0.2247 -0.6189  0.5627
  134MPD2     H 2088   3.624   0.541   9.786  2.4009 -1.1247 -0.7826
  134MPD2    H1 2089   3.747   0.772  10.130 -3.2693  0.5520 -1.4035
  134MPD2    H2 2090   3.822   0.349  10.099 -0.7846  0.5110  1.2058
  134MPD2    H3 2091   3.858   0.539  10.206  0.6667  0.8285  0.1794
  134MPD2     N 2092   3.639   0.790   9.897  0.3273  0.4079 -0.2715
  134MPD2    H5 2093   3.675   0.870   9.948  1.3477  0.8912 -1.7390
  134MPD2    N1 2094   3.720   0.301   9.863 -0.0840  0.6761  0.1764
  134MPD2    H7 2095   3.762   0.221   9.909 -0.7595 -0.0081 -0.3852
  135TMC2    C1 2096   0.326   2.889   9.593  0.5179  0.0690  0.5498
  135TMC2    C2 2097   0.375   2.761   9.598 -0.3611  0.1398 -1.0742
  135TMC2    C3 2098   0.318   2.674   9.681 -0.2627  0.3015  0.7236
  135TMC2    C4 2099   0.219   2.931   9.664  0.0769  0.7582 -0.1384
  135TMC2    C5 2100   0.158   2.845   9.753 -0.4945  0.4515  0.3611
  135TMC2    C6 2101   0.210   2.714   9.763 -0.4860  0.5831  0.0346
  135TMC2     C 2102   0.365   2.966   9.473 -0.2140 -0.1143 -1.3712
  135TMC2     O 2103   0.330   3.083   9.467  0.0804 -0.6261 -0.3496
  135TMC2     H 2104   0.469   2.736   9.551  0.8895 -1.1578  2.1220
  135TMC2    H1 2105   0.168   3.022   9.635 -1.8303 -0.9380 -2.1565
  135TMC2    H2 2106   0.152   2.637   9.811 -2.0460  0.6099 -1.7868
  135TMC2    C7 2107   0.034   2.882   9.819 -0.1800  0.7183  0.1592
  135TMC2    C8 2108   0.397   2.566   9.744  0.5746  0.0084  0.3362
  135TMC2    O1 2109   4.709   2.978   9.784 -0.8259 -0.2128 -0.2596
  135TMC2    O2 2110   0.511   2.541   9.708  0.3562 -0.2452  0.2930
  135TMC2    O5 2111   0.365   2.557   9.875 -0.2881 -0.0584 -0.5691
  135TMC2    H5 2112   0.274   2.523   9.889 -0.8560  0.6326 -2.4878
  136MPD2     C 2113   0.505   3.073   9.241 -0.1307  0.2328  0.4830
  136MPD2    C1 2114   0.499   2.935   9.267  0.5910 -0.9213 -0.0886
  136MPD2    C2 2115   0.566   2.853   9.177  0.3585 -0.1437 -0.2808
  136MPD2    C3 2116   0.644   2.904   9.068  0.1142  0.2184 -0.0512
  136MPD2    C4 2117   0.653   3.040   9.049  0.5340  0.5523 -0.0480
  136MPD2    C5 2118   0.583   3.121   9.139  0.4862  0.4352  0.0953
  136MPD2     H 2119   0.566   2.746   9.195 -0.1270  0.0103  0.6604
  136MPD2    H1 2120   0.718   3.081   8.973  0.0152 -1.4630 -1.5811
  136MPD2    H2 2121   0.464   3.143   9.312  1.0772  0.1433  1.2663
  136MPD2    H3 2122   0.608   3.225   9.123 -1.9367  0.7623 -1.4559
  136MPD2     N 2123   0.717   2.822   8.975  0.1662 -0.1552 -0.3486
  136MPD2    H5 2124   0.776   2.879   8.915  1.3338 -0.1464  0.8050
  136MPD2    N1 2125   0.427   2.885   9.377 -0.2669  0.0133 -0.6568
  136MPD2    H7 2126   0.437   2.786   9.396 -5.0043 -0.1270  1.1876
  137TMC2    C1 2127   0.488   2.262   9.142  0.2482 -0.0027 -0.3625
  137TMC2    C2 2128   0.436   2.353   9.058  0.8940 -0.1509  0.5433
  137TMC2    C3 2129   0.324   2.322   8.984  0.3100  0.0346  0.3450
  137TMC2    C4 2130   0.443   2.130   9.134 -0.0191  0.4192  0.7674
  137TMC2    C5 2131   0.334   2.103   9.057 -0.6957  0.2948  0.3302
  137TMC2    C6 2132   0.268   2.199   8.985 -0.2938 -0.4896 -0.8033
  137TMC2     C 2133   0.568   2.306   9.261 -0.8657 -0.7082 -0.1107
  137TMC2     O 2134   0.598   2.425   9.268 -0.1566 -0.2521 -0.1776
  137TMC2     H 2135   0.465   2.455   9.081 -3.1019  1.2433 -0.6437
  137TMC2    H1 2136   0.487   2.048   9.189  0.7599 -1.5428 -2.7605
  137TMC2    H2 2137   0.171   2.188   8.938 -1.1359  0.0743  0.8161
  137TMC2    C7 2138   0.269   1.970   9.061  0.2222 -0.1071 -0.5445
  137TMC2    C8 2139   0.283   2.414   8.882  0.3308 -0.2441  0.4655
  137TMC2    O1 2140   0.193   1.949   8.966 -0.0355  0.1046  0.8291
  137TMC2    O2 2141   0.179   2.410   8.821  0.2287  0.2965  0.2308
  137TMC2    O5 2142   0.385   2.500   8.849 -0.1300 -0.4118 -0.2697
  137TMC2    H5 2143   0.458   2.518   8.912 -0.7100  1.2875 -0.0737
  138MPD2     C 2144   0.804   2.108   9.439 -0.3186 -0.3512 -0.4863
  138MPD2    C1 2145   0.712   2.212   9.426 -0.8298 -0.4404 -0.9289
  138MPD2    C2 2146   0.719   2.320   9.510  0.0031 -0.3818 -0.2995
  138MPD2    C3 2147   0.815   2.318   9.614  0.9992  0.4561  1.2120
  138MPD2    C4 2148   0.901   2.216   9.622  0.3805  0.1607 -0.4256
  138MPD2    C5 2149   0.894   2.107   9.544 -0.0270  0.3286 -0.8884
  138MPD2     H 2150   0.654   2.405   9.492 -0.7757 -0.7340  0.8287
  138MPD2    H1 2151   0.983   2.217   9.694 -0.4552  1.4217  0.5094
  138MPD2    H2 2152   0.800   2.014   9.385 -2.4002  0.0293 -0.9685
  138MPD2    H3 2153   0.959   2.022   9.559  0.8023  0.9342 -1.0379
  138MPD2     N 2154   0.805   2.426   9.710 -0.5648 -0.4720 -0.3096
  138MPD2    H5 2155   0.718   2.476   9.696 -1.7559 -2.7812 -1.0955
  138MPD2    N1 2156   0.628   2.200   9.317 -0.2471 -0.1699 -0.1125
  138MPD2    H7 2157   0.615   2.109   9.273  0.1896 -0.3461  0.1264
  139TMC2    C1 2158   1.624   0.356  13.357 -0.3626  0.3405 -0.2428
  139TMC2    C2 2159   1.684   0.397  13.242 -0.6955  0.7621  0.1620
  139TMC2    C3 2160   1.644   0.517  13.193 -0.5067 -0.0375  0.7378
  139TMC2    C4 2161   1.538   0.437  13.427 -0.6984 -0.1712  0.8674
  139TMC2    C5 2162   1.512   0.566  13.379 -0.0046 -0.8949  0.1000
  139TMC2    C6 2163   1.564   0.607  13.256  0.0282 -0.3498  1.1168
  139TMC2     C 2164   1.630   0.216  13.387  0.2482  0.5632 -0.7373
  139TMC2     O 2165   1.709   0.146  13.327 -0.1327 -0.2647 -0.5049
  139TMC2     H 2166   1.745   0.330  13.182  1.1655  2.1922  0.4692
  139TMC2    H1 2167   1.468   0.395  13.499 -1.7488  0.1964  0.0632
  139TMC2    H2 2168   1.537   0.704  13.216  1.5774  0.2153  1.4457
  139TMC2    C7 2169   1.403   0.644  13.436  1.0516  0.4589 -0.5553
  139TMC2    C8 2170   1.685   0.549  13.056  0.0643  0.5139 -0.4929
  139TMC2    O1 2171   1.322   0.699  13.362  0.1867  0.2749  0.0910
  139TMC2    O2 2172   1.726   0.455  12.983  0.2304 -0.3092  0.1514
  139TMC2    O5 2173   1.712   0.684  13.043  0.1863  0.5457  0.3749
  139TMC2    H5 2174   1.707   0.722  13.133 -1.1802 -0.1886  0.6116
  140MPD2     C 2175   1.440   0.016  13.640 -0.2533  0.0286  0.1321
  140MPD2    C1 2176   1.531   0.035  13.536 -0.3305 -0.3029  0.0320
  140MPD2    C2 2177   1.618   4.676  13.502  0.2579  0.1702 -0.3406
  140MPD2    C3 2178   1.603   4.551  13.568  0.2425 -0.1269 -0.3600
  140MPD2    C4 2179   1.506   4.533  13.664  0.3912  0.7008  0.1076
  140MPD2    C5 2180   1.419   4.637  13.697 -0.2886 -0.6966 -0.6281
  140MPD2     H 2181   1.703   4.694  13.438  0.7131 -0.1588  0.1729
  140MPD2    H1 2182   1.489   4.439  13.714 -1.3765  1.0575  0.2162
  140MPD2    H2 2183   1.361   0.086  13.664 -0.8233 -0.1184 -1.3057
  140MPD2    H3 2184   1.341   4.625  13.771 -1.0595 -2.5372 -1.7446
  140MPD2     N 2185   1.699   4.446  13.537  0.4285  0.2186 -0.0923
  140MPD2    H5 2186   1.778   4.471  13.478 -0.8459  1.8166 -1.1324
  140MPD2    N1 2187   1.536   0.167  13.477  0.0012 -0.4390 -0.2727
  140MPD2    H7 2188   1.486   0.243  13.523  0.6477  0.3256 -0.8211
  141TMC2    C1 2189   1.677   1.792  14.091  0.4638  0.3473 -0.7306
  141TMC2    C2 2190   1.641   1.659  14.107 -0.8881  0.1938 -0.1284
  141TMC2    C3 2191   1.641   1.607  14.236  0.5471 -0.4252  0.1551
  141TMC2    C4 2192   1.725   1.863  14.194  0.0411 -0.5562 -0.7817
  141TMC2    C5 2193   1.700   1.813  14.322  0.5822 -0.5452 -0.4131
  141TMC2    C6 2194   1.675   1.688  14.348 -0.0661  0.3528 -0.1572
  141TMC2     C 2195   1.703   1.829  13.953  0.0200 -0.4196  0.0964
  141TMC2     O 2196   1.609   1.813  13.875 -0.3584  0.1444 -0.4823
  141TMC2     H 2197   1.593   1.598  14.032  0.4363 -1.9041  0.7209
  141TMC2    H1 2198   1.756   1.966  14.178 -1.6166  0.2473  1.2245
  141TMC2    H2 2199   1.693   1.655  14.450 -1.3395 -1.5323 -0.5417
  141TMC2    C7 2200   1.723   1.897  14.442  0.3722 -0.0366 -0.3391
  141TMC2    C8 2201   1.616   1.468  14.262 -0.1476 -0.9514 -0.2398
  141TMC2    O1 2202   1.797   1.855  14.527  0.0664  0.2199  0.2223
  141TMC2    O2 2203   1.572   1.429  14.373  0.2081  0.3301 -0.2354
  141TMC2    O5 2204   1.636   1.397  14.152 -0.5905 -0.3534  0.3290
  141TMC2    H5 2205   1.713   1.432  14.103 -0.3030 -0.3176  0.8010
  142TMC2    C1 2206   4.512   0.394  10.592  0.9625 -0.1774  0.3155
  142TMC2    C2 2207   4.576   0.399  10.717 -0.5616  0.2032  0.7468
  142TMC2    C3 2208   4.645   0.509  10.749  0.1151  0.1462  0.1117
  142TMC2    C4 2209   4.516   0.497  10.499 -0.0809 -0.2356  0.2650
  142TMC2    C5 2210   4.587   0.605  10.542 -0.4511  0.4496 -0.0489
  142TMC2    C6 2211   4.649   0.616  10.660  0.4675 -0.3378 -0.4653
  142TMC2     C 2212   4.452   0.266  10.538  0.0201  0.3043 -0.1704
  142TMC2     O 2213   4.446   0.241  10.419 -0.5136  0.2774  0.4794
  142TMC2     H 2214   4.583   0.324  10.795  1.7259 -1.9551 -1.5324
  142TMC2    H1 2215   4.457   0.487  10.409  2.1600 -0.0255 -1.2034
  142TMC2    H2 2216   4.703   0.709  10.674 -0.0255 -0.0305 -0.5715
  142TMC2    C7 2217   4.623   0.699  10.443 -0.2141  0.9323  0.0307
  142TMC2    C8 2218   4.713   0.508  10.874 -0.0340  0.2969 -0.7880
  142TMC2    O1 2219   4.651   0.809  10.487  0.6456  0.4326  0.3670
  142TMC2    O2 2220   0.029   0.407  10.913  0.5335 -0.2199 -0.0678
  142TMC2    O5 2221   4.729   0.624  10.927  0.6257 -0.2383 -0.2525
  142TMC2    H5 2222   4.703   0.708  10.885  1.9858  0.3477  0.0885
  143MPD2     C 2223   4.217   4.569  10.666 -0.0169 -0.2594 -0.4978
  143MPD2    C1 2224   4.266   4.614  10.544 -0.1291  0.0436  0.0086
  143MPD2    C2 2225   4.331   4.738  10.537  0.1373 -0.0466 -0.5380
  143MPD2    C3 2226   4.348   0.069  10.652  0.1510  0.1082 -0.1614
  143MPD2    C4 2227   4.298   0.033  10.775  0.3097 -0.3726 -0.9015
  143MPD2    C5 2228   4.238   4.647  10.780  0.1328  0.1573  0.0724
  143MPD2     H 2229   4.382   0.021  10.444 -0.9586  0.1583 -1.0864
  143MPD2    H1 2230   4.309   0.094  10.863 -1.2829 -2.0881  0.5088
  143MPD2    H2 2231   4.157   4.479  10.676 -0.1005 -0.0147  1.3508
  143MPD2    H3 2232   4.190   4.620  10.873  3.1191 -2.4618  0.8562
  143MPD2     N 2233   4.412   0.193  10.647  0.4613  0.9455 -0.4021
  143MPD2    H5 2234   4.425   0.245  10.733  1.2055  0.0694  0.0077
  143MPD2    N1 2235   4.257   4.527  10.434 -0.3594  0.1796 -0.0013
  143MPD2    H7 2236   4.230   4.431  10.454  2.0557 -0.4388  0.2611
  144TMC2    C1 2237   2.428   4.476   0.871 -0.1124  0.1570  0.4855
  144TMC2    C2 2238   2.515   4.374   0.831 -0.0040 -0.3378 -0.2478
  144TMC2    C3 2239   2.618   4.336   0.909 -0.3490  0.3650  0.0271
  144TMC2    C4 2240   2.438   4.537   0.996 -0.3192 -0.3316  0.4383
  144TMC2    C5 2241   2.553   4.502   1.061  0.1817 -0.3047  0.2608
  144TMC2    C6 2242   2.637   4.402   1.027  0.0052  0.2734  0.8167
  144TMC2     C 2243   2.297   4.462   0.814  0.1900  0.1253 -0.5100
  144TMC2     O 2244   2.272   4.358   0.756 -0.1870  0.0791 -0.2169
  144TMC2     H 2245   2.491   4.316   0.743  0.1902  0.5164 -0.8707
  144TMC2    H1 2246   2.357   4.600   1.032  0.0149 -0.4705  1.4147
  144TMC2    H2 2247   2.727   4.380   1.082  1.0791  0.2215 -0.9792
  144TMC2    C7 2248   2.591   4.580   1.176 -0.4530  0.2021  0.7102
  144TMC2    C8 2249   2.679   4.211   0.874 -0.0153  0.2649 -0.0279
  144TMC2    O1 2250   2.685   4.543   1.246 -0.3150 -0.3574 -0.3323
  144TMC2    O2 2251   2.609   4.127   0.824 -0.0209  0.5234  0.0404
  144TMC2    O5 2252   2.764   4.186   0.976  0.0895 -0.1912  0.8629
  144TMC2    H5 2253   2.835   4.254   0.975  1.0184 -1.1454  3.4351
  145MPD2     C 2254   1.801   4.575   0.810  1.1203  0.4981  0.4267
  145MPD2    C1 2255   1.871   4.460   0.774 -1.1204  0.6517 -0.8872
  145MPD2    C2 2256   2.005   4.449   0.786  0.5329 -0.0218 -0.1818
  145MPD2    C3 2257   2.077   4.563   0.834  0.0714 -0.3466  0.4987
  145MPD2    C4 2258   2.006   4.675   0.877 -0.2207  0.2336  0.1624
  145MPD2    C5 2259   1.870   4.680   0.866  0.5604 -0.3081 -0.0339
  145MPD2     H 2260   2.048   4.350   0.770 -1.0035 -0.5801 -0.8197
  145MPD2    H1 2261   2.059   0.020   0.920  0.5967 -0.3132  0.2248
  145MPD2    H2 2262   1.693   4.583   0.805  0.9020 -2.4900  0.3909
  145MPD2    H3 2263   1.807   0.026   0.888  0.8495 -0.5963  1.9160
  145MPD2     N 2264   2.215   4.565   0.850  0.3186 -0.0246  0.5432
  145MPD2    H5 2265   2.253   4.652   0.885 -0.8571  0.9948 -0.7467
  145MPD2    N1 2266   1.804   4.348   0.729 -0.2828  0.4982  0.2069
  145MPD2    H7 2267   1.858   4.263   0.712  0.5681  1.1903 -0.5932
  146TMC2    C1 2268   4.216   2.523  12.199  1.0177  0.4751  0.7844
  146TMC2    C2 2269   4.146   2.540  12.082 -0.0130  0.6525 -0.0422
  146TMC2    C3 2270   4.163   2.455  11.979  0.1324 -0.0781 -0.8014
  146TMC2    C4 2271   4.317   2.436  12.212  0.5114  0.4490  0.2268
  146TMC2    C5 2272   4.338   2.355  12.104 -0.4850 -0.2595  0.3888
  146TMC2    C6 2273   4.268   2.366  11.986  0.3748  0.1650 -0.4988
  146TMC2     C 2274   4.219   2.622  12.306  0.2184 -0.1354 -0.0054
  146TMC2     O 2275   4.190   2.734  12.264  0.8364  0.1409  0.7406
  146TMC2     H 2276   4.056   2.601  12.080 -0.1241  0.4704 -0.6341
  146TMC2    H1 2277   4.393   2.445  12.289  1.7555 -2.1489 -0.6971
  146TMC2    H2 2278   4.287   2.293  11.908 -1.8907  0.8241 -1.6466
  146TMC2    C7 2279   4.440   2.250  12.113  0.8097  0.0550 -0.0084
  146TMC2    C8 2280   4.128   2.506  11.849  0.3305 -1.2765  0.0219
  146TMC2    O1 2281   4.498   2.218  12.012  0.3058 -0.0029 -0.1307
  146TMC2    O2 2282   4.166   2.608  11.791 -0.3730  0.1858 -0.1209
  146TMC2    O5 2283   4.032   2.421  11.799 -0.2841  0.2403  0.1355
  146TMC2    H5 2284   4.009   2.345  11.856 -0.8478 -0.1466 -0.6178
  147MPD2     C 2285   0.062   2.106  12.417 -1.1494 -0.5095  0.1059
  147MPD2    C1 2286   4.690   2.104  12.497  0.1371 -0.5173  0.3206
  147MPD2    C2 2287   4.570   2.141  12.436 -0.5968 -0.0247  0.8566
  147MPD2    C3 2288   4.572   2.177  12.303  0.2281 -0.1909 -0.0644
  147MPD2    C4 2289   4.687   2.180  12.230 -0.1172 -0.1426 -0.7895
  147MPD2    C5 2290   0.061   2.144  12.289  0.0289 -0.4229  0.1894
  147MPD2     H 2291   4.477   2.146  12.490 -0.8853  1.8454  0.1965
  147MPD2    H1 2292   4.691   2.204  12.125 -0.9040  1.0072 -0.5485
  147MPD2    H2 2293   0.156   2.064  12.450 -0.6484 -1.4294 -2.4709
  147MPD2    H3 2294   0.147   2.122  12.227 -0.0071 -0.1817  0.0555
  147MPD2     N 2295   4.459   2.224  12.246 -0.6203 -0.4270  0.0865
  147MPD2    H5 2296   4.376   2.234  12.304 -2.1021 -0.5964 -1.9736
  147MPD2    N1 2297   4.703   2.058  12.635  0.5285  0.2442 -0.1032
  147MPD2    H7 2298   0.055   2.044  12.676  0.8446  0.5460 -0.6928
  148TMC2    C1 2299   3.579   1.720  10.702  0.6539  0.6001  0.2508
  148TMC2    C2 2300   3.674   1.804  10.654 -0.5048 -0.2634  0.4140
  148TMC2    C3 2301   3.802   1.762  10.669 -0.3303 -0.0665 -0.8129
  148TMC2    C4 2302   3.602   1.611  10.777 -0.7926  0.1319 -0.7470
  148TMC2    C5 2303   3.734   1.575  10.804 -0.3223  0.2886 -0.1351
  148TMC2    C6 2304   3.838   1.656  10.755  0.4510 -1.0005 -0.1300
  148TMC2     C 2305   3.449   1.740  10.651 -0.3257  0.5919 -0.5476
  148TMC2     O 2306   3.422   1.846  10.592 -0.7824  0.0479 -0.2317
  148TMC2     H 2307   3.654   1.889  10.589 -1.0919 -0.8985 -0.2370
  148TMC2    H1 2308   3.526   1.553  10.827  0.8411 -2.7027 -1.5539
  148TMC2    H2 2309   3.942   1.639  10.779  0.4297 -0.5905  0.2506
  148TMC2    C7 2310   3.766   1.443  10.841 -0.3011 -0.0097  0.0641
  148TMC2    C8 2311   3.903   1.854  10.623  0.2824 -0.5160  0.0310
  148TMC2    O1 2312   3.866   1.402  10.785  0.1250 -0.8816  0.0812
  148TMC2    O2 2313   3.886   1.975  10.622  0.1667 -0.1513 -0.1959
  148TMC2    O5 2314   4.022   1.793  10.614  0.0863  0.0396 -0.0484
  148TMC2    H5 2315   4.015   1.698  10.587  0.8808  0.0733 -0.3980
  149MPD2     C 2316   3.191   1.682  10.508 -0.3216 -0.0688  0.0536
  149MPD2    C1 2317   3.275   1.588  10.556  0.0406  0.2511 -0.4405
  149MPD2    C2 2318   3.248   1.457  10.543  0.9390  0.2792 -0.3857
  149MPD2    C3 2319   3.146   1.426  10.458 -0.6065 -0.6267  0.3630
  149MPD2    C4 2320   3.077   1.519  10.392 -0.7112 -0.1706 -0.2677
  149MPD2    C5 2321   3.088   1.646  10.427  0.4653  0.0896 -0.6530
  149MPD2     H 2322   3.314   1.380  10.580 -0.5653 -1.8641 -2.1448
  149MPD2    H1 2323   3.005   1.490  10.317 -2.2456 -0.1075  1.1906
  149MPD2    H2 2324   3.204   1.787  10.532 -0.5016  0.3091 -1.4972
  149MPD2    H3 2325   3.028   1.722  10.379  0.0193  0.4106  0.4095
  149MPD2     N 2326   3.102   1.298  10.440  0.3748  0.3384  0.8269
  149MPD2    H5 2327   3.049   1.282  10.355  1.2704  0.7165  0.1944
  149MPD2    N1 2328   3.390   1.616  10.631 -0.4027  0.2146 -0.2098
  149MPD2    H7 2329   3.445   1.537  10.663 -1.5972  0.2758  1.9576
  150TMC2    C1 2330   1.339   1.019  11.579 -0.4726  0.9981  0.7552
  150TMC2    C2 2331   1.308   1.131  11.508  0.1832  0.4151  0.4743
  150TMC2    C3 2332   1.376   1.246  11.540  0.3715  0.2255 -0.4585
  150TMC2    C4 2333   1.438   1.017  11.674  0.0308  0.7133 -0.0438
  150TMC2    C5 2334   1.509   1.133  11.699  1.3998 -0.2259 -0.8929
  150TMC2    C6 2335   1.481   1.254  11.631  0.2206  0.2764 -0.1652
  150TMC2     C 2336   1.284   0.886  11.537 -0.0081 -0.0039  0.5853
  150TMC2     O 2337   1.360   0.795  11.557  0.1535 -0.5552 -0.1533
  150TMC2     H 2338   1.220   1.129  11.445 -1.2819  0.2382  2.4977
  150TMC2    H1 2339   1.463   0.925  11.726 -2.0024  0.7662  1.0380
  150TMC2    H2 2340   1.531   1.346  11.659  0.3157  0.2952 -0.3982
  150TMC2    C7 2341   1.602   1.146  11.813 -0.7131  0.0991  0.1356
  150TMC2    C8 2342   1.341   1.370  11.483 -0.3242 -0.0763 -0.3636
  150TMC2    O1 2343   1.658   1.252  11.832 -0.6150  0.1326  0.1456
  150TMC2    O2 2344   1.410   1.472  11.482  0.9580  0.5162 -0.4796
  150TMC2    O5 2345   1.203   1.366  11.488  0.0042 -0.5478 -0.0508
  150TMC2    H5 2346   1.166   1.289  11.537  1.4879 -0.5013  1.1329
  151MPD2     C 2347   0.861   0.595  11.586 -0.1353  0.3171  0.7450
  151MPD2    C1 2348   0.828   0.723  11.599  0.1310 -0.4844  0.0129
  151MPD2    C2 2349   0.919   0.822  11.575  0.6352  0.2428  0.4150
  151MPD2    C3 2350   1.055   0.788  11.550 -0.2474 -0.5515  0.5664
  151MPD2    C4 2351   1.090   0.655  11.545 -0.5184  0.3054 -0.8752
  151MPD2    C5 2352   0.994   0.559  11.571  0.2300  0.5518 -0.0739
  151MPD2     H 2353   0.889   0.926  11.573 -1.3579 -0.3239  1.4983
  151MPD2    H1 2354   1.190   0.624  11.516  0.2251 -0.3845  2.4142
  151MPD2    H2 2355   0.791   0.516  11.611  1.1219 -1.6968 -2.0611
  151MPD2    H3 2356   1.019   0.454  11.567  0.6084  0.5854  1.6203
  151MPD2     N 2357   1.147   0.892  11.534  0.8315  0.3929  0.1423
  151MPD2    H5 2358   1.105   0.984  11.544  0.7527  0.3619  0.0940
  151MPD2    N1 2359   0.691   0.756  11.647  0.3709  0.4648 -0.6499
  151MPD2    H7 2360   0.618   0.686  11.654 -1.8158  2.9320  1.1105
  152TMC2    C1 2361   1.009   0.158  12.852 -0.6690  1.3271 -0.7453
  152TMC2    C2 2362   1.101   0.067  12.888  0.4770  0.5758 -0.6861
  152TMC2    C3 2363   1.234   0.093  12.851 -0.0787  0.4656  0.0554
  152TMC2    C4 2364   1.042   0.278  12.783  0.6094 -0.0123  0.0795
  152TMC2    C5 2365   1.173   0.302  12.752  0.8393 -1.1642 -0.4006
  152TMC2    C6 2366   1.267   0.213  12.791 -0.0876  0.0100 -0.4526
  152TMC2     C 2367   0.871   0.130  12.869  0.3622 -0.1849  0.5039
  152TMC2     O 2368   0.784   0.217  12.853  0.5590  0.4680 -0.5091
  152TMC2     H 2369   1.084   4.716  12.945 -0.2243  0.3884 -1.1901
  152TMC2    H1 2370   0.963   0.346  12.755  0.1269 -0.7037 -0.2549
  152TMC2    H2 2371   1.369   0.215  12.755 -0.3245 -0.9921 -1.1573
  152TMC2    C7 2372   1.197   0.436  12.700  0.1321  0.2202 -0.4073
  152TMC2    C8 2373   1.336   4.735  12.873  0.2973  0.0844  0.8530
  152TMC2    O1 2374   1.098   0.508  12.677 -0.1891  0.5330  0.3981
  152TMC2    O2 2375   1.445   0.026  12.919  0.0761  0.0991 -0.6471
  152TMC2    O5 2376   1.296   4.610  12.841 -0.5699 -0.3169 -0.3568
  152TMC2    H5 2377   1.211   4.599  12.794 -1.0836 -0.5498  0.6394
  153MPD2     C 2378   0.711   4.546  12.926 -0.1892  0.4049  0.0453
  153MPD2    C1 2379   0.723   4.685  12.929  0.4019 -0.9753  0.0663
  153MPD2    C2 2380   0.612   0.021  12.952  0.9552 -0.0136 -0.5526
  153MPD2    C3 2381   0.482   4.703  12.965  0.0550  0.1410 -0.3413
  153MPD2    C4 2382   0.476   4.567  12.958 -0.4299  0.5651 -0.1952
  153MPD2    C5 2383   0.587   4.492  12.933  0.3292 -0.0732  0.3726
  153MPD2     H 2384   0.620   0.129  12.960  0.3543  0.0625 -0.9836
  153MPD2    H1 2385   0.377   4.526  12.974 -0.2973 -0.2683 -1.4824
  153MPD2    H2 2386   0.795   4.483  12.897  0.0320  0.2417  1.0185
  153MPD2    H3 2387   0.576   4.387  12.911 -4.6584  0.0821  2.3240
  153MPD2     N 2388   0.374   0.051  12.999  0.2402 -0.0411 -0.3236
  153MPD2    H5 2389   0.382   0.152  12.997  2.6788 -0.2587 -0.7919
  153MPD2    N1 2390   0.852   4.738  12.899 -0.6960 -0.6830  0.3188
  153MPD2    H7 2391   0.924   4.667  12.904  0.2187  0.1567 -1.0350
  154TMC2    C1 2392   1.715   1.024  17.597  0.3515  0.9016  0.3949
  154TMC2    C2 2393   1.824   0.936  17.618 -0.1847  0.1019 -0.6063
  154TMC2    C3 2394   1.842   0.846  17.518  0.1090 -0.8149 -0.3631
  154TMC2    C4 2395   1.653   1.041  17.470 -0.0671  0.3557  0.6907
  154TMC2    C5 2396   1.673   0.943  17.384  0.0080 -0.0266 -0.3002
  154TMC2    C6 2397   1.756   0.840  17.410  0.2372 -0.4306 -0.1600
  154TMC2     C 2398   1.688   1.114  17.710 -0.2799  0.4042  0.1013
  154TMC2     O 2399   1.773   1.151   0.033  0.3507  0.2635 -0.1815
  154TMC2     H 2400   1.864   0.924  17.718  0.6651  0.0537 -0.9566
  154TMC2    H1 2401   1.594   1.126  17.438  0.2220 -0.4075 -1.8565
  154TMC2    H2 2402   1.758   0.747  17.354  0.4053 -0.9662  0.7205
  154TMC2    C7 2403   1.612   0.970  17.249 -0.1754 -0.9175 -0.8100
  154TMC2    C8 2404   1.905   0.720  17.546 -0.1314  0.0714  0.2537
  154TMC2    O1 2405   1.520   1.050  17.237  0.2789 -0.1712 -0.2944
  154TMC2    O2 2406   1.942   0.703  17.660  0.8604 -0.3937 -0.2751
  154TMC2    O5 2407   1.967   0.681  17.434  0.5193 -1.1302  0.2604
  154TMC2    H5 2408   1.920   0.712  17.354  1.3896 -0.9304 -0.1743
  155MPD2     C 2409   1.349   1.226   0.036 -0.0263 -0.6468  0.0812
  155MPD2    C1 2410   1.484   1.226   0.042  0.4510 -0.1041 -0.4655
  155MPD2    C2 2411   1.543   1.301   0.139 -0.7059  0.4434  0.5139
  155MPD2    C3 2412   1.471   1.362   0.235  0.5325  0.0074 -0.8577
  155MPD2    C4 2413   1.332   1.348   0.234  0.3476 -0.6777 -0.5873
  155MPD2    C5 2414   1.269   1.278   0.132  0.0584 -0.0731  0.3979
  155MPD2     H 2415   1.651   1.302   0.142 -0.7069  0.1396  0.7175
  155MPD2    H1 2416   1.271   1.383   0.317 -0.3883 -0.7726 -1.0930
  155MPD2    H2 2417   1.312   1.171  17.704  1.4909 -1.8961  0.2253
  155MPD2    H3 2418   1.161   1.275   0.122  0.1825 -0.3992 -0.7821
  155MPD2     N 2419   1.538   1.438   0.334  0.3259 -0.0564 -0.2716
  155MPD2    H5 2420   1.637   1.423   0.346 -0.1168 -1.5489  1.5453
  155MPD2    N1 2421   1.554   1.146  17.703  0.1578  0.2485  0.2703
  155MPD2    H7 2422   1.508   1.102  17.625  2.0157 -0.6627 -0.3193
  156TMC2    C1 2423   0.863   2.811  11.342 -0.1838 -0.0185  0.5316
  156TMC2    C2 2424   0.743   2.765  11.305 -0.1386  0.2307 -0.2286
  156TMC2    C3 2425   0.689   2.815  11.188 -0.5804 -0.3879 -0.0364
  156TMC2    C4 2426   0.928   2.918  11.284 -0.0022  0.9941  0.4587
  156TMC2    C5 2427   0.864   2.975  11.172  0.3641 -0.7503 -0.0403
  156TMC2    C6 2428   0.744   2.922  11.122 -0.0129 -0.4832  0.7869
  156TMC2     C 2429   0.913   2.781  11.479  0.3033  0.5583 -0.0519
  156TMC2     O 2430   0.989   2.870  11.514  0.0179 -0.3819 -0.5184
  156TMC2     H 2431   0.678   2.713  11.375  0.0586  1.6823  1.0234
  156TMC2    H1 2432   1.028   2.949  11.311  1.4098 -0.8782 -2.5867
  156TMC2    H2 2433   0.684   2.966  11.043  2.4514  1.3134 -0.1020
  156TMC2    C7 2434   0.900   3.119  11.149  0.2169 -0.8213  0.7277
  156TMC2    C8 2435   0.548   2.798  11.188  0.2505 -0.2063  0.9671
  156TMC2    O1 2436   1.008   3.158  11.187 -0.4034  0.2884 -0.4362
  156TMC2    O2 2437   0.480   2.773  11.287  0.5450  0.1683 -0.2715
  156TMC2    O5 2438   0.491   2.826  11.071 -0.2014 -0.7281 -0.2714
  156TMC2    H5 2439   0.557   2.825  10.999 -0.3333 -0.6733 -0.3921
  157MPD2     C 2440   0.834   2.531  11.735 -0.0481  0.1508  0.0764
  157MPD2    C1 2441   0.905   2.635  11.674 -0.1656  0.7934  0.4485
  157MPD2    C2 2442   1.001   2.705  11.754  0.2397  0.4199 -0.1900
  157MPD2    C3 2443   1.032   2.654  11.880 -1.0103  0.3040 -0.8422
  157MPD2    C4 2444   0.955   2.557  11.940  0.0486 -0.4957  0.0312
  157MPD2    C5 2445   0.858   2.497  11.865 -0.2239 -0.6759  0.2557
  157MPD2     H 2446   1.056   2.791  11.716  1.5335 -1.6687 -3.1007
  157MPD2    H1 2447   0.976   2.524  12.041 -0.9545  0.6505  0.6097
  157MPD2    H2 2448   0.747   2.488  11.687  0.4568  0.7403 -1.3905
  157MPD2    H3 2449   0.801   2.414  11.906  0.8482 -1.9782 -0.9356
  157MPD2     N 2450   1.148   2.702  11.944 -0.8217 -0.5057  0.2603
  157MPD2    H5 2451   1.208   2.758  11.885 -0.5921 -0.2050  0.7742
  157MPD2    N1 2452   0.858   2.676  11.544  0.0101 -0.0086  0.4424
  157MPD2    H7 2453   0.776   2.626  11.510  0.4001  0.5123 -1.2666
  158TMC2    C1 2454   1.490   1.820  12.958 -0.1709  0.1637  0.3915
  158TMC2    C2 2455   1.518   1.917  12.863 -0.5007  0.2223 -0.1144
  158TMC2    C3 2456   1.476   1.888  12.737  0.4595 -0.1035 -0.2149
  158TMC2    C4 2457   1.400   1.724  12.934  0.4841  0.5954  0.0106
  158TMC2    C5 2458   1.345   1.710  12.807 -0.0372  0.3177  0.5099
  158TMC2    C6 2459   1.390   1.786  12.706  1.0772  1.7050 -0.3832
  158TMC2     C 2460   1.574   1.816  13.081  0.3120  0.5219  0.0716
  158TMC2     O 2461   1.684   1.872  13.078 -0.5225  0.2627  0.0234
  158TMC2     H 2462   1.607   1.978  12.875  1.0842 -2.2445  0.6494
  158TMC2    H1 2463   1.390   1.646  13.008  1.4711  1.1803  0.7620
  158TMC2    H2 2464   1.358   1.770  12.604 -0.3838  0.0413  0.3327
  158TMC2    C7 2465   1.247   1.609  12.788 -0.5233 -0.5317 -0.8976
  158TMC2    C8 2466   1.488   1.994  12.639 -0.1140  0.0315 -0.5319
  158TMC2    O1 2467   1.204   1.586  12.676 -0.3914 -0.3884 -0.0576
  158TMC2    O2 2468   1.576   2.079  12.650 -0.2949  0.1642 -0.2369
  158TMC2    O5 2469   1.446   1.956  12.518 -0.5504 -0.4078  0.0265
  158TMC2    H5 2470   1.349   1.943  12.510 -0.9076  0.3080  3.3199
  159MPD2     C 2471   1.646   1.709  13.577  0.1555  0.2907 -0.5442
  159MPD2    C1 2472   1.507   1.725  13.557 -0.1681  0.2519  0.0446
  159MPD2    C2 2473   1.460   1.747  13.422  0.8555  0.5735  0.0918
  159MPD2    C3 2474   1.555   1.751  13.318 -0.1547  0.2049 -0.6960
  159MPD2    C4 2475   1.691   1.723  13.345 -0.7174  0.4857  0.0767
  159MPD2    C5 2476   1.731   1.705  13.475  0.2556 -0.1665  0.0510
  159MPD2     H 2477   1.356   1.771  13.404  1.2261  0.0463 -2.8124
  159MPD2    H1 2478   1.758   1.726  13.261  1.8647  0.1198  2.1149
  159MPD2    H2 2479   1.691   1.699  13.675 -0.7349  1.1148 -0.0511
  159MPD2    H3 2480   1.835   1.678  13.492  0.3755  1.2667  1.5103
  159MPD2     N 2481   1.505   1.775  13.189  0.5256  0.0015  0.0443
  159MPD2    H5 2482   1.403   1.772  13.188  0.5022  1.3754 -1.7267
  159MPD2    N1 2483   1.420   1.730  13.676 -0.7212  0.4405  0.4160
  159MPD2    H7 2484   1.470   1.724  13.765  1.2500  1.2130 -0.6320
  160TMC2    C1 2485   0.461   4.209   1.285 -0.6835 -0.4665 -0.2012
  160TMC2    C2 2486   0.457   4.084   1.333 -0.2402 -0.0408 -0.1270
  160TMC2    C3 2487   0.580   4.028   1.355  0.5725 -0.2259 -0.3228
  160TMC2    C4 2488   0.574   4.286   1.257  0.1612  0.1142  0.9092
  160TMC2    C5 2489   0.691   4.227   1.290  0.1697  0.9202  0.1800
  160TMC2    C6 2490   0.696   4.092   1.336  0.1536  0.3695  0.3287
  160TMC2     C 2491   0.342   4.257   1.218  0.5372 -0.2711 -0.4908
  160TMC2     O 2492   0.329   4.379   1.226 -0.1595 -0.3006 -0.1199
  160TMC2     H 2493   0.367   4.032   1.364 -0.9104  0.6774 -0.8760
  160TMC2    H1 2494   0.573   4.382   1.208 -1.2643  0.3206  1.3265
  160TMC2    H2 2495   0.789   4.041   1.359  0.7235  1.1267 -0.3063
  160TMC2    C7 2496   0.811   4.290   1.238  0.0589  0.8332  0.5605
  160TMC2    C8 2497   0.587   3.917   1.443  0.0260 -0.7426 -0.6457
  160TMC2    O1 2498   0.892   4.218   1.186  0.7680  0.1634  0.1557
  160TMC2    O2 2499   0.675   3.887   1.519 -0.0182 -0.3227  0.2553
  160TMC2    O5 2500   0.499   3.826   1.397  0.2214 -0.1225  0.6740
  160TMC2    H5 2501   0.438   3.862   1.331  2.6594 -0.4604 -1.7621
  161MPD2     C 2502   0.064   4.061   1.088  0.0578 -0.1727 -0.6271
  161MPD2    C1 2503   0.142   4.175   1.107  0.2409  0.2918 -0.8176
  161MPD2    C2 2504   0.086   4.302   1.076  0.1383  0.1222  0.2391
  161MPD2    C3 2505   4.696   4.318   1.026  0.0706 -0.3752 -0.1652
  161MPD2    C4 2506   4.623   4.205   1.008  0.1336  0.2441  0.3667
  161MPD2    C5 2507   4.677   4.077   1.042 -0.8228  0.1631  0.2491
  161MPD2     H 2508   0.148   4.390   1.082 -0.8013  0.6928  1.6027
  161MPD2    H1 2509   4.516   4.211   0.991  0.5264  0.1938 -2.0525
  161MPD2    H2 2510   0.088   3.964   1.131 -0.6109 -0.3108 -0.5705
  161MPD2    H3 2511   4.618   3.988   1.025  0.2892 -0.8196  1.4970
  161MPD2     N 2512   4.637   4.442   0.993 -0.2865 -0.5956 -0.6022
  161MPD2    H5 2513   4.543   4.437   0.955 -0.4993 -1.5565  0.0416
  161MPD2    N1 2514   0.269   4.157   1.164  0.0279 -0.8328  0.7099
  161MPD2    H7 2515   0.299   4.060   1.171 -2.7329 -1.5924  2.2198
  162TMC2    C1 2516   3.955   1.847   1.014  0.2331  0.0589  0.8105
  162TMC2    C2 2517   3.898   1.976   1.016 -0.3925 -0.6036 -0.7536
  162TMC2    C3 2518   3.942   2.062   1.115  0.2458  0.4966  0.0552
  162TMC2    C4 2519   4.041   1.808   1.109  0.0148  0.2960 -0.0667
  162TMC2    C5 2520   4.080   1.895   1.205 -0.2501 -0.8307 -0.0457
  162TMC2    C6 2521   4.042   2.026   1.206 -0.6935  0.3494 -0.5165
  162TMC2     C 2522   3.889   1.756   0.921 -0.1784 -0.7011  0.0985
  162TMC2     O 2523   3.824   1.811   0.835 -0.0684  0.1944 -0.1254
  162TMC2     H 2524   3.818   2.005   0.949  0.0362 -0.0477 -1.0201
  162TMC2    H1 2525   4.087   1.710   1.096 -0.8050 -0.2558  1.1475
  162TMC2    H2 2526   4.088   2.091   1.280 -0.9935 -0.1893  0.1458
  162TMC2    C7 2527   4.196   1.856   1.288 -0.0937  0.6149  0.5557
  162TMC2    C8 2528   3.910   2.202   1.092 -0.7787  0.2888 -0.1347
  162TMC2    O1 2529   4.264   1.939   1.335  0.3847 -0.3478  0.0870
  162TMC2    O2 2530   3.846   2.239   0.997 -0.0911  0.1008  0.1403
  162TMC2    O5 2531   3.908   2.254   1.219  0.0307 -0.0663  0.2112
  162TMC2    H5 2532   3.938   2.198   1.294 -0.4747 -0.6396 -0.0153
  163MPD2     C 2533   3.746   1.292   0.737  0.0891  0.0401 -0.4626
  163MPD2    C1 2534   3.746   1.414   0.677 -0.2144  0.4627  0.1629
  163MPD2    C2 2535   3.797   1.522   0.746 -0.4639  0.2438  0.0027
  163MPD2    C3 2536   3.848   1.514   0.878  0.1877 -0.1892 -0.1968
  163MPD2    C4 2537   3.843   1.388   0.941 -0.2788 -0.1083 -0.4878
  163MPD2    C5 2538   3.791   1.281   0.869 -0.0706  0.0123 -0.2953
  163MPD2     H 2539   3.803   1.615   0.691 -0.5812 -0.2988 -0.9188
  163MPD2    H1 2540   3.875   1.375   1.044 -1.7317  2.7318  0.3334
  163MPD2    H2 2541   3.710   1.201   0.689 -0.6710  1.0495 -1.8219
  163MPD2    H3 2542   3.776   1.189   0.925 -0.1378  0.9492  1.2117
  163MPD2     N 2543   3.892   1.621   0.956 -0.1269 -0.2783 -1.0814
  163MPD2    H5 2544   3.934   1.595   1.045  0.9430  1.4332 -1.0995
  163MPD2    N1 2545   3.707   1.410   0.541  0.1586 -0.1218 -0.4244
  163MPD2    H7 2546   3.674   1.322   0.503  0.7629 -0.2020 -0.7712
  164TMC2    C1 2547   4.224   1.510  11.245  0.3709  0.3187  0.0045
  164TMC2    C2 2548   4.281   1.587  11.155  0.2863 -0.6131  0.0258
  164TMC2    C3 2549   4.212   1.696  11.098 -0.2287 -0.0786  0.0762
  164TMC2    C4 2550   4.089   1.509  11.264 -0.3227  0.5277  0.2375
  164TMC2    C5 2551   4.015   1.607  11.196 -0.9789 -0.2217 -0.3047
  164TMC2    C6 2552   4.081   1.699  11.115  0.2760 -0.2551 -0.3790
  164TMC2     C 2553   4.285   1.381  11.268 -0.0770  0.1660  0.2837
  164TMC2     O 2554   4.253   1.325  11.371 -0.4591 -0.4357 -0.0814
  164TMC2     H 2555   4.389   1.580  11.144  0.4441 -1.5077  2.1984
  164TMC2    H1 2556   4.056   1.435  11.335 -1.0963  0.0542 -0.6231
  164TMC2    H2 2557   4.022   1.777  11.067 -0.5450 -0.0756  0.9243
  164TMC2    C7 2558   3.873   1.601  11.193  0.4223  0.0381 -0.0622
  164TMC2    C8 2559   4.281   1.776  11.000 -0.5568 -0.2036  0.0416
  164TMC2    O1 2560   3.822   1.662  11.098 -0.2646  0.4081  0.1979
  164TMC2    O2 2561   4.392   1.751  10.957  0.1489  0.0648 -0.2049
  164TMC2    O5 2562   4.237   1.902  11.002  0.2147  0.1525  0.0525
  164TMC2    H5 2563   4.166   1.919  11.067 -1.4907 -0.7862 -1.5496
  165TMC2    C1 2564   1.310   3.715   2.099 -0.2148 -0.3461 -0.2189
  165TMC2    C2 2565   1.370   3.760   2.213  0.5821  0.0794  0.3438
  165TMC2    C3 2566   1.443   3.878   2.209  0.1980 -0.4158 -0.0097
  165TMC2    C4 2567   1.317   3.783   1.982 -0.2344  0.6089  0.3734
  165TMC2    C5 2568   1.370   3.911   1.985  0.3063  0.6079 -0.9326
  165TMC2    C6 2569   1.428   3.963   2.101  0.1619  0.2705  0.3680
  165TMC2     C 2570   1.273   3.576   2.097 -0.1361  1.2774  0.8906
  165TMC2     O 2571   1.323   3.505   2.178  0.2540  0.7399 -0.1531
  165TMC2     H 2572   1.365   3.700   2.304 -1.5332  0.7646  0.6580
  165TMC2    H1 2573   1.284   3.729   1.895 -0.3501  1.8315 -0.3342
  165TMC2    H2 2574   1.473   4.061   2.087 -0.7069  0.1825 -2.9758
  165TMC2    C7 2575   1.379   3.984   1.861  0.3161 -0.0579 -0.2551
  165TMC2    C8 2576   1.492   3.937   2.337 -0.0910  0.2634  0.0711
  165TMC2    O1 2577   1.469   4.068   1.856  0.0455  0.0264 -0.4326
  165TMC2    O2 2578   1.503   4.055   2.351 -0.5980 -0.6344 -0.3096
  165TMC2    O5 2579   1.555   3.848   2.412  0.5228  0.4716  0.3442
  165TMC2    H5 2580   1.560   3.761   2.368 -0.8519 -0.1636  1.4184
  166MPD2     C 2581   0.994   3.193   1.912  0.0020 -0.2882  0.5665
  166MPD2    C1 2582   1.120   3.195   1.967 -0.2261 -0.2199 -0.1089
  166MPD2    C2 2583   1.176   3.315   2.003 -0.0615  0.1462 -0.3422
  166MPD2    C3 2584   1.109   3.434   1.981 -0.1283 -0.0163  0.4549
  166MPD2    C4 2585   0.989   3.434   1.910 -0.5478  0.9121  0.3711
  166MPD2    C5 2586   0.932   3.313   1.879 -0.4857 -0.0921  0.1364
  166MPD2     H 2587   1.278   3.317   2.039 -0.6374 -1.3920  1.3598
  166MPD2    H1 2588   0.928   3.515   1.872  0.3109  1.3829  0.0190
  166MPD2    H2 2589   0.936   3.104   1.891  0.4867  0.1996 -3.0158
  166MPD2    H3 2590   0.834   3.314   1.832 -0.4555  0.9267  0.0840
  166MPD2     N 2591   1.159   3.559   2.022  0.1926  0.2360 -0.2369
  166MPD2    H5 2592   1.113   3.645   1.992  1.5615  1.4221  1.0943
  166MPD2    N1 2593   1.190   3.071   1.972 -0.1998  0.3602  0.3786
  166MPD2    H7 2594   1.141   2.996   1.925  1.3604  0.0847 -0.8283
  167TMC2    C1 2595   3.223   1.196  12.716  0.2113  0.6039  0.9477
  167TMC2    C2 2596   3.194   1.243  12.845 -0.1020 -0.7719 -0.4227
  167TMC2    C3 2597   3.156   1.142  12.928 -0.3291 -0.0950 -0.0465
  167TMC2    C4 2598   3.227   1.064  12.680 -0.5300 -0.2501  0.4825
  167TMC2    C5 2599   3.192   0.972  12.777 -0.6274  0.0774 -0.0779
  167TMC2    C6 2600   3.151   1.011  12.900 -0.3039 -0.0243  0.3610
  167TMC2     C 2601   3.309   1.275  12.635  0.2643 -0.2887 -0.9057
  167TMC2     O 2602   3.398   1.219  12.574  0.3328  0.3730 -0.2796
  167TMC2     H 2603   3.199   1.348  12.870 -0.9273 -1.3933  2.2979
  167TMC2    H1 2604   3.246   1.034  12.577  1.0768  0.6077  0.5239
  167TMC2    H2 2605   3.151   0.933  12.976 -0.3623 -0.9036 -0.5316
  167TMC2    C7 2606   3.238   0.836  12.766 -0.0925 -0.5381 -0.0022
  167TMC2    C8 2607   3.115   1.183  13.058  0.3403  0.2072  0.3811
  167TMC2    O1 2608   3.222   0.756  12.855 -0.6796  0.1563  0.2284
  167TMC2    O2 2609   3.055   1.111  13.135  0.1411  0.3164  0.6613
  167TMC2    O5 2610   3.161   1.303  13.091  0.1409 -0.5524  0.3077
  167TMC2    H5 2611   3.235   1.338  13.038 -0.0354 -0.5922  0.0389
  168MPD2     C 2612   3.487   1.496  12.546 -0.2118 -0.1145 -0.8426
  168MPD2    C1 2613   3.364   1.511  12.606  0.5336 -0.0521 -0.6375
  168MPD2    C2 2614   3.301   1.639  12.595  0.1474  0.0378  0.3041
  168MPD2    C3 2615   3.375   1.747  12.553  0.6031  0.4524  0.0927
  168MPD2    C4 2616   3.509   1.734  12.508  0.2274  0.3771 -0.4116
  168MPD2    C5 2617   3.556   1.605  12.497 -0.4089  0.3301  0.1437
  168MPD2     H 2618   3.200   1.657  12.631 -0.0223 -1.9159  0.8043
  168MPD2    H1 2619   3.576   1.814  12.477  0.6898  0.3862  0.6203
  168MPD2    H2 2620   3.532   1.398  12.532 -1.6818 -0.6553 -1.7621
  168MPD2    H3 2621   3.659   1.588  12.467 -0.4243 -0.6434  0.6414
  168MPD2     N 2622   3.325   1.877  12.552  0.2832  0.2737 -0.1252
  168MPD2    H5 2623   3.395   1.947  12.529  1.4120 -0.4921  1.0128
  168MPD2    N1 2624   3.281   1.409  12.651  0.0757  0.0186  0.5969
  168MPD2    H7 2625   3.189   1.446  12.673  0.3137  0.2882  1.1199
  169MPD1     C 2626   0.657   1.499   8.467 -0.1886 -0.7113 -0.0897
  169MPD1    C1 2627   0.568   1.428   8.546 -0.2737 -0.2458  0.6745
  169MPD1    C2 2628   0.615   1.395   8.669 -0.1736  0.5829 -0.1429
  169MPD1    C3 2629   0.755   1.404   8.701  0.3521  0.2481 -0.3574
  169MPD1    C4 2630   0.842   1.467   8.612 -0.1168 -0.5995  0.2453
  169MPD1    C5 2631   0.789   1.507   8.495  0.1076 -0.7574  0.3187
  169MPD1     H 2632   0.546   1.354   8.741 -2.7752  0.0986 -2.9252
  169MPD1    H1 2633   0.949   1.474   8.626 -0.0735  1.6886 -1.1416
  169MPD1    H2 2634   0.625   1.547   8.376 -2.5912 -0.9217  0.6455
  169MPD1    H3 2635   0.861   1.551   8.426 -0.3999 -0.3517  0.0406
  169MPD1     N 2636   0.807   1.353   8.821 -0.1147  0.1820  0.2854
  169MPD1    H5 2637   0.734   1.322   8.885  1.1772  0.2847  1.8157
  169MPD1    N1 2638   0.432   1.422   8.519 -0.2562  0.2038  0.2542
  169MPD1    H6 2639   0.394   1.335   8.554 -0.2287  0.2121  0.3041
  169MPD1    H7 2640   0.421   1.401   8.420  1.3659 -0.1175  0.1492
  170MPD1     C 2641   4.154   3.139  13.085 -0.1930  0.7636  0.3113
  170MPD1    C1 2642   4.174   3.131  13.216 -0.5199 -0.4899 -0.4919
  170MPD1    C2 2643   4.196   3.248  13.282  0.3975 -0.6557  0.1577
  170MPD1    C3 2644   4.217   3.371  13.217  0.3061  0.5631  0.0636
  170MPD1    C4 2645   4.211   3.367  13.078  0.9185 -0.4840  0.0619
  170MPD1    C5 2646   4.173   3.252  13.015  0.3205 -0.2060 -0.3369
  170MPD1     H 2647   4.204   3.240  13.390 -0.2113  0.0501  0.2509
  170MPD1    H1 2648   4.244   3.449  13.016 -1.2318 -0.2682 -0.8012
  170MPD1    H2 2649   4.130   3.044  13.039 -3.3805  0.9555  1.5362
  170MPD1    H3 2650   4.150   3.258  12.909 -1.6758 -0.6090  0.0696
  170MPD1     N 2651   4.255   3.483  13.294  0.2250 -0.3414 -0.4405
  170MPD1    H5 2652   4.252   3.462  13.394 -1.2144 -2.5951 -0.9559
  170MPD1    N1 2653   4.146   3.016  13.289 -0.4048 -0.0956 -0.2249
  170MPD1    H6 2654   4.189   3.005  13.380 -2.0138 -0.0606  0.5417
  170MPD1    H7 2655   4.169   2.936  13.230  1.8013  0.2479  0.1685
  171MPD1     C 2656   3.099   0.512  14.904 -0.3374 -0.4394 -0.3633
  171MPD1    C1 2657   3.130   0.398  14.838 -0.4440 -0.2073 -0.8703
  171MPD1    C2 2658   3.121   0.279  14.908  0.0141  0.5068  0.0348
  171MPD1    C3 2659   3.068   0.265  15.032 -0.3049  0.9691 -0.5853
  171MPD1    C4 2660   3.038   0.384  15.094 -0.0080 -0.7702 -0.2125
  171MPD1    C5 2661   3.043   0.508  15.031 -0.1247  0.1599  0.6290
  171MPD1     H 2662   3.156   0.189  14.860  2.1149  0.6866  1.2240
  171MPD1    H1 2663   3.002   0.382  15.196  0.6197  1.1179  0.0528
  171MPD1    H2 2664   3.121   0.607  14.857  1.5997 -0.3330  0.7704
  171MPD1    H3 2665   3.011   0.601  15.075 -0.9890  0.9165 -1.5902
  171MPD1     N 2666   3.053   0.140  15.104 -0.4275  0.1425  0.0119
  171MPD1    H5 2667   3.015   0.146  15.197  0.7452 -2.8278  0.6975
  171MPD1    N1 2668   3.209   0.404  14.723  0.0927  0.3301  0.2905
  171MPD1    H6 2669   3.186   0.463  14.642  0.7843  1.4140  0.8823
  171MPD1    H7 2670   3.195   0.318  14.670 -2.9965  1.0202 -0.0703
  172MPD1     C 2671   3.382   4.041   0.751 -0.5461 -0.0541  0.7930
  172MPD1    C1 2672   3.351   4.173   0.769  0.7390  0.1977  0.2303
  172MPD1    C2 2673   3.245   4.230   0.699  0.3150  0.2639  1.0331
  172MPD1    C3 2674   3.177   4.156   0.602  0.4840 -0.2663  1.0184
  172MPD1    C4 2675   3.216   4.029   0.570  0.2982 -0.2337 -0.5602
  172MPD1    C5 2676   3.313   3.973   0.650  0.1712  0.1306  0.4629
  172MPD1     H 2677   3.204   4.326   0.728  0.9204 -0.4210  4.2470
  172MPD1    H1 2678   3.172   3.972   0.489  1.0400 -0.6178 -0.7000
  172MPD1    H2 2679   3.451   3.985   0.813 -0.2477  0.8846  1.3101
  172MPD1    H3 2680   3.340   3.870   0.631  0.2571  0.3757 -0.7086
  172MPD1     N 2681   3.070   4.200   0.524  0.2618 -0.2407  0.2229
  172MPD1    H5 2682   3.043   4.145   0.443  0.3761  1.4025 -0.9240
  172MPD1    N1 2683   3.400   4.243   0.879  0.0317  0.6943 -0.6919
  172MPD1    H6 2684   3.501   4.228   0.887 -0.0013  2.6891  3.3198
  172MPD1    H7 2685   3.390   4.344   0.867  0.5781  0.6106 -1.8818
  173MPD1     C 2686   4.220   3.872  13.693 -0.1369  0.2725  0.8199
  173MPD1    C1 2687   4.129   3.769  13.678  0.2274 -0.0373  0.4573
  173MPD1    C2 2688   4.098   3.697  13.786  0.3969  0.2740 -0.1350
  173MPD1    C3 2689   4.161   3.708  13.906  0.2558 -0.0158  0.0955
  173MPD1    C4 2690   4.255   3.804  13.927  0.0382  0.1108 -0.1447
  173MPD1    C5 2691   4.285   3.891  13.819  0.0463  0.3301  0.6798
  173MPD1     H 2692   4.013   3.630  13.776  2.2171 -2.0485  0.0454
  173MPD1    H1 2693   4.301   3.810  14.025  1.2077  0.4421 -0.7111
  173MPD1    H2 2694   4.253   3.932  13.609 -1.1700  0.3981  0.5095
  173MPD1    H3 2695   4.372   3.955  13.828  0.5154 -0.3473  0.8904
  173MPD1     N 2696   4.117   3.615  13.998 -0.9528  0.4574 -0.9429
  173MPD1    H5 2697   4.035   3.563  13.967 -1.0090 -0.5749  0.9534
  173MPD1    N1 2698   4.050   3.761  13.570  0.3333  0.1387 -0.1238
  173MPD1    H6 2699   3.998   3.674  13.558  3.0633 -1.8051  2.2252
  173MPD1    H7 2700   4.082   3.798  13.481 -0.3822 -1.1870 -0.9367
  174MPD1     C 2701   4.151   3.546  15.014 -0.4302 -0.1925  0.7329
  174MPD1    C1 2702   4.137   3.415  14.977  0.3319 -0.5497  0.4195
  174MPD1    C2 2703   4.124   3.389  14.841 -0.1927  0.1793  0.4608
  174MPD1    C3 2704   4.143   3.493  14.746  0.3834 -0.5647  0.0604
  174MPD1    C4 2705   4.170   3.621  14.789  0.4030  0.0361  0.2666
  174MPD1    C5 2706   4.159   3.643  14.920  0.2929  0.1694  0.7466
  174MPD1     H 2707   4.106   3.286  14.810 -0.9320  0.9241 -1.5963
  174MPD1    H1 2708   4.180   3.703  14.719  1.2269 -1.3000 -1.1628
  174MPD1    H2 2709   4.152   3.576  15.118  0.1264 -1.6229  1.1418
  174MPD1    H3 2710   4.153   3.746  14.952  1.3879  0.4956 -0.1017
  174MPD1     N 2711   4.119   3.473  14.610 -0.3129 -0.6831  0.3946
  174MPD1    H5 2712   4.135   3.555  14.553  0.1575  0.7691  2.5993
  174MPD1    N1 2713   4.113   3.315  15.066 -0.1598 -0.5096  0.5087
  174MPD1    H6 2714   4.151   3.223  15.047 -0.2421 -0.4218 -0.0741
  174MPD1    H7 2715   4.152   3.339  15.157 -2.4692  1.0529  1.1093
  175MPD1     C 2716   2.207   3.993  16.669 -0.4938  0.0874  0.3951
  175MPD1    C1 2717   2.094   4.046  16.605 -0.3056 -0.1187  0.0361
  175MPD1    C2 2718   2.089   4.182  16.606 -0.3973 -0.1510 -0.0604
  175MPD1    C3 2719   2.177   4.263  16.672  0.4621 -0.0971  0.0029
  175MPD1    C4 2720   2.271   4.208  16.745  0.1321  0.1842 -0.2190
  175MPD1    C5 2721   2.289   4.073  16.742 -0.7461 -0.0956 -0.1751
  175MPD1     H 2722   2.009   4.221  16.544  0.7514 -0.1869 -1.5437
  175MPD1    H1 2723   2.337   4.267  16.807 -0.0492  1.2723 -1.0749
  175MPD1    H2 2724   2.219   3.887  16.686 -2.0800  0.0301  1.1014
  175MPD1    H3 2725   2.378   4.035  16.790 -0.4681  0.9188  0.1210
  175MPD1     N 2726   2.157   4.407  16.672  0.1017  0.4150  0.3563
  175MPD1    H5 2727   2.220   4.449  16.739 -0.7913  0.6399  1.0492
  175MPD1    N1 2728   2.009   3.966  16.530  0.6118 -0.5423  0.5581
  175MPD1    H6 2729   1.994   3.871  16.562 -0.6572 -1.4624 -2.7876
  175MPD1    H7 2730   1.921   4.014  16.512  0.6623 -0.6411  0.0599
  176MPD1     C 2731   3.802   1.980   0.539  0.5747 -0.0209 -0.0815
  176MPD1    C1 2732   3.814   2.007   0.406 -0.5365  0.6099 -0.5611
  176MPD1    C2 2733   3.770   2.129   0.358 -0.0590  0.2634  0.2402
  176MPD1    C3 2734   3.735   2.234   0.445  0.7715 -0.1943  0.4468
  176MPD1    C4 2735   3.732   2.206   0.581  0.5686  0.2506 -0.5377
  176MPD1    C5 2736   3.767   2.078   0.625 -0.0156 -0.1755  0.2377
  176MPD1     H 2737   3.757   2.141   0.251  0.3597  1.8377  0.3705
  176MPD1    H1 2738   3.704   2.282   0.652  1.2698  2.3592 -2.5192
  176MPD1    H2 2739   3.836   1.884   0.575  1.0946  0.4504  0.6779
  176MPD1    H3 2740   3.767   2.059   0.732  1.5010  0.7658  0.4103
  176MPD1     N 2741   3.675   2.352   0.389  0.3919 -0.1416  0.0532
  176MPD1    H5 2742   3.662   2.357   0.289  0.4304 -0.3666  0.0381
  176MPD1    N1 2743   3.834   1.903   0.305 -1.2547 -0.1431  0.3363
  176MPD1    H6 2744   3.871   1.941   0.218  0.0054  0.4637  1.1353
  176MPD1    H7 2745   3.881   1.821   0.344 -1.3008 -0.7062 -0.7680
  177MPD1     C 2746   1.762   1.455   9.610  0.2413  0.6857 -0.2130
  177MPD1    C1 2747   1.786   1.512   9.488 -0.1083 -0.2093  0.2223
  177MPD1    C2 2748   1.681   1.549   9.410  0.4258  0.0034 -0.4103
  177MPD1    C3 2749   1.550   1.537   9.455 -0.4652  0.4713  0.3260
  177MPD1    C4 2750   1.528   1.474   9.579 -0.4893 -0.5087 -0.6243
  177MPD1    C5 2751   1.636   1.449   9.658  0.0337 -0.2274 -0.6699
  177MPD1     H 2752   1.694   1.584   9.308  0.6385 -2.1993 -1.1478
  177MPD1    H1 2753   1.430   1.447   9.615 -0.8904 -0.1134 -1.4403
  177MPD1    H2 2754   1.832   1.423   9.686  1.6087  1.8658 -0.9797
  177MPD1    H3 2755   1.629   1.412   9.760 -1.1492  0.2532 -0.5781
  177MPD1     N 2756   1.440   1.581   9.377 -0.3279  0.4031  0.0868
  177MPD1    H5 2757   1.455   1.589   9.277  2.4375  0.9397  0.5299
  177MPD1    N1 2758   1.916   1.512   9.428  0.0904  0.5106 -0.6482
  177MPD1    H6 2759   1.993   1.532   9.491 -0.6857 -2.6793  1.2985
  177MPD1    H7 2760   1.935   1.567   9.344 -0.5673  1.7073 -0.0197
  178MPD1     C 2761   4.229   2.708   0.136 -0.0729 -0.3805  0.2897
  178MPD1    C1 2762   4.279   2.836   0.128  0.2052  0.9630  0.7829
  178MPD1    C2 2763   4.321   2.875   0.001 -0.3862  0.7899 -0.2331
  178MPD1    C3 2764   4.325   2.785  17.650 -0.0294  0.0599  0.7904
  178MPD1    C4 2765   4.285   2.654  17.666 -0.3063 -1.2304  0.5505
  178MPD1    C5 2766   4.245   2.612   0.036  0.0002  0.7983  0.3472
  178MPD1     H 2767   4.344   2.981  17.744 -0.7209  0.6362 -2.4092
  178MPD1    H1 2768   4.283   2.583  17.585 -1.1583 -0.7889  0.1870
  178MPD1    H2 2769   4.170   2.682   0.223 -0.2011 -0.8972  0.0531
  178MPD1    H3 2770   4.206   2.512   0.050  3.1014 -0.4008  0.4014
  178MPD1     N 2771   4.371   2.819  17.521  0.0681 -0.6398 -0.2066
  178MPD1    H5 2772   4.371   2.745  17.451 -0.9459  0.2999 -1.2078
  178MPD1    N1 2773   4.248   2.919   0.238 -0.1248 -0.0331  0.8394
  178MPD1    H6 2774   4.301   3.006   0.239  1.3286 -0.9265  0.2282
  178MPD1    H7 2775   4.260   2.870   0.327  0.3653 -2.0445 -0.3440
  179MPD1     C 2776   3.958   1.698  15.304  0.2402  0.2197  0.2556
  179MPD1    C1 2777   4.043   1.623  15.382  0.0491  0.1610 -0.7058
  179MPD1    C2 2778   3.999   1.494  15.403 -0.4328  0.2793 -0.1938
  179MPD1    C3 2779   3.881   1.440  15.359  0.3338  0.5450 -0.1459
  179MPD1    C4 2780   3.799   1.525  15.283 -0.5074 -0.6370  0.3067
  179MPD1    C5 2781   3.838   1.648  15.250 -0.4177 -0.0273 -0.4047
  179MPD1     H 2782   4.049   1.445  15.487 -3.3566 -0.1155  1.2934
  179MPD1    H1 2783   3.704   1.489  15.245 -1.5473  2.2755  0.1203
  179MPD1    H2 2784   3.990   1.799  15.285 -1.7270  0.2590 -2.8148
  179MPD1    H3 2785   3.770   1.714  15.198 -0.1993  1.5159  1.2310
  179MPD1     N 2786   3.851   1.300  15.367  0.1927 -0.3025  0.1010
  179MPD1    H5 2787   3.762   1.267  15.332  0.2986  1.7867 -2.2081
  179MPD1    N1 2788   4.152   1.682  15.440  0.3095  0.4175  0.5025
  179MPD1    H6 2789   4.234   1.626  15.460  1.3072  1.7842  0.1631
  179MPD1    H7 2790   4.168   1.776  15.406 -2.3742  0.3348 -1.0023
  180MPD1     C 2791   3.552   2.556  15.393  0.2641 -0.2317 -0.8262
  180MPD1    C1 2792   3.667   2.578  15.323  0.0209  0.4706 -0.7052
  180MPD1    C2 2793   3.685   2.504  15.206 -0.4779 -0.4187  0.9744
  180MPD1    C3 2794   3.590   2.418  15.162  0.3875 -0.3816 -0.6175
  180MPD1    C4 2795   3.483   2.396  15.239  0.3360 -0.1911 -1.3281
  180MPD1    C5 2796   3.464   2.459  15.356  0.0655  0.5090  0.6935
  180MPD1     H 2797   3.779   2.509  15.153 -0.5944  2.1371  0.9696
  180MPD1    H1 2798   3.396   2.338  15.209  1.2781 -1.8242 -0.9233
  180MPD1    H2 2799   3.530   2.611  15.484  0.7748 -2.8131  0.8896
  180MPD1    H3 2800   3.375   2.435  15.413 -0.3495 -0.4994 -0.3618
  180MPD1     N 2801   3.618   2.358  15.035  0.1571  0.2492 -0.1816
  180MPD1    H5 2802   3.699   2.391  14.984  0.6623 -1.5181 -0.5366
  180MPD1    N1 2803   3.764   2.671  15.351  0.6787  0.2693 -0.2648
  180MPD1    H6 2804   3.762   2.707  15.447 -1.8832  1.5931 -0.7898
  180MPD1    H7 2805   3.860   2.643  15.338  1.2407  1.3618  1.4730
  181MPD1     C 2806   1.096   0.203   9.637  0.2398  0.3734  0.2119
  181MPD1    C1 2807   1.042   0.084   9.627 -0.1854  0.1562  0.7466
  181MPD1    C2 2808   1.087   4.714   9.708 -0.0402 -0.2957  0.0744
  181MPD1    C3 2809   1.174   4.737   9.813  0.2850  0.0927  0.1824
  181MPD1    C4 2810   1.218   0.128   9.825  1.5179 -0.1257  0.6350
  181MPD1    C5 2811   1.172   0.229   9.743  0.2318 -0.9459  0.1839
  181MPD1     H 2812   1.044   4.617   9.687 -0.1562  0.4530 -3.1141
  181MPD1    H1 2813   1.276   0.159   9.911  2.5622 -1.2755  0.3345
  181MPD1    H2 2814   1.080   0.274   9.556  0.1735 -0.2473 -0.3203
  181MPD1    H3 2815   1.227   0.322   9.760 -0.2123 -0.7016  0.2861
  181MPD1     N 2816   1.227   4.637   9.905 -0.7882 -0.8656 -0.5319
  181MPD1    H5 2817   1.281   4.674   9.982 -1.8500  0.6455 -0.5166
  181MPD1    N1 2818   0.959   0.048   9.521  0.3349 -0.0139 -0.3856
  181MPD1    H6 2819   0.902   0.122   9.480  1.3754  0.4028 -1.0857
  181MPD1    H7 2820   0.909   4.700   9.537  0.0043  0.0046 -1.2647
  182MPD1     C 2821   1.943   2.298   1.029  0.0877  0.1832 -0.4458
  182MPD1    C1 2822   2.003   2.403   1.105  0.7676 -0.3921  0.2202
  182MPD1    C2 2823   1.931   2.520   1.118  0.4158 -0.0379 -0.4979
  182MPD1    C3 2824   1.816   2.544   1.048  0.4129  0.2135 -0.4474
  182MPD1    C4 2825   1.765   2.442   0.965 -0.7336 -0.0950  0.4176
  182MPD1    C5 2826   1.824   2.321   0.958  0.4679 -0.1798  0.8681
  182MPD1     H 2827   1.972   2.584   1.196  1.7184 -2.1550  0.5571
  182MPD1    H1 2828   1.672   2.459   0.913 -0.7701  0.3924  0.6459
  182MPD1    H2 2829   1.983   2.199   1.013 -0.8393 -0.7679  3.3401
  182MPD1    H3 2830   1.765   2.247   0.905 -2.0857  1.5491  1.2658
  182MPD1     N 2831   1.748   2.667   1.050 -0.0732  0.0874  0.5052
  182MPD1    H5 2832   1.675   2.676   0.981  0.3042  1.0143  0.2274
  182MPD1    N1 2833   2.118   2.373   1.182  0.0036  0.2808  0.5310
  182MPD1    H6 2834   2.092   2.313   1.259 -1.3937  0.1346 -0.0442
  182MPD1    H7 2835   2.160   2.459   1.216 -0.3197  0.4791  0.4380
  183MPD1     C 2836   1.422   3.656   8.901 -0.3768 -0.2456  0.7079
  183MPD1    C1 2837   1.367   3.729   9.004 -0.9202 -0.2158  0.3497
  183MPD1    C2 2838   1.440   3.730   9.119 -0.3049  0.3920 -0.0446
  183MPD1    C3 2839   1.557   3.660   9.138  0.9925  0.7253  0.0526
  183MPD1    C4 2840   1.600   3.585   9.036  0.5863  0.1676  0.4670
  183MPD1    C5 2841   1.531   3.579   8.918  0.2912 -0.3486 -0.0924
  183MPD1     H 2842   1.399   3.784   9.203  0.4879 -1.5526  1.5617
  183MPD1    H1 2843   1.695   3.536   9.055  0.2693 -0.8311 -0.5114
  183MPD1    H2 2844   1.376   3.657   8.802  2.2696  0.5265 -0.5094
  183MPD1    H3 2845   1.573   3.522   8.837 -0.1496  0.8230 -1.1476
  183MPD1     N 2846   1.615   3.668   9.271 -0.1868 -0.5338 -0.5052
  183MPD1    H5 2847   1.570   3.734   9.335  0.1514  0.9682 -1.8201
  183MPD1    N1 2848   1.259   3.816   8.974 -0.2538  0.3898  0.6769
  183MPD1    H6 2849   1.204   3.804   9.059 -1.2356  0.0996  0.0020
  183MPD1    H7 2850   1.213   3.762   8.901  1.0660 -0.6805  0.6403
  184MPD1     C 2851   1.220   2.988   9.270  0.3261  0.1267 -0.6130
  184MPD1    C1 2852   1.083   2.945   9.258  0.4189  0.3111 -0.3289
  184MPD1    C2 2853   1.068   2.806   9.266 -0.6025 -0.1516  0.0990
  184MPD1    C3 2854   1.176   2.718   9.289  0.3538  0.1823 -0.0715
  184MPD1    C4 2855   1.301   2.763   9.320  0.4217  0.0084 -0.1811
  184MPD1    C5 2856   1.317   2.900   9.307 -0.3489  0.1213  0.6561
  184MPD1     H 2857   0.970   2.761   9.252 -1.2600  1.0584  0.8852
  184MPD1    H1 2858   1.383   2.703   9.355 -1.1923 -1.3052  1.3683
  184MPD1    H2 2859   1.251   3.089   9.245 -0.3928 -0.2198 -2.9801
  184MPD1    H3 2860   1.412   2.943   9.336 -0.1824  0.9923 -1.1591
  184MPD1     N 2861   1.162   2.579   9.296 -0.0080  0.4666 -0.4016
  184MPD1    H5 2862   1.243   2.522   9.315 -1.7371 -1.0076  2.5830
  184MPD1    N1 2863   0.978   3.028   9.215  0.2149  0.3774  0.0520
  184MPD1    H6 2864   0.995   3.124   9.246  2.5861 -0.6302  1.9168
  184MPD1    H7 2865   0.887   2.986   9.226 -0.7281  1.6817 -2.9138
  185MPD1     C 2866   0.531   2.039   8.767 -0.4683 -0.7422  0.4262
  185MPD1    C1 2867   0.577   1.949   8.860  0.2562 -0.3557 -0.6655
  185MPD1    C2 2868   0.680   1.988   8.936  0.5793 -0.4951 -0.1970
  185MPD1    C3 2869   0.735   2.116   8.929  0.5442  0.1895 -0.0627
  185MPD1    C4 2870   0.681   2.210   8.840  0.1360 -0.4114  0.0908
  185MPD1    C5 2871   0.583   2.167   8.761 -0.6469 -0.4371  0.2787
  185MPD1     H 2872   0.720   1.911   9.001  1.4524 -0.4752 -0.7148
  185MPD1    H1 2873   0.729   2.306   8.825  0.9828 -1.0096 -1.1182
  185MPD1    H2 2874   0.443   2.017   8.708 -0.1275  1.4111 -0.9187
  185MPD1    H3 2875   0.536   2.227   8.684  2.1737  3.6572  1.7185
  185MPD1     N 2876   0.845   2.155   9.003 -0.6467 -0.8453 -0.4563
  185MPD1    H5 2877   0.878   2.250   8.998 -1.5154 -0.5920 -1.4172
  185MPD1    N1 2878   0.529   1.819   8.861  0.3147 -0.2690 -0.3796
  185MPD1    H6 2879   0.541   1.761   8.944  0.0110 -1.0174 -0.8667
  185MPD1    H7 2880   0.434   1.821   8.825 -0.7888 -1.1552  2.4422
  186MPD1     C 2881   0.185   1.136  15.584 -0.5427 -0.0928  0.2606
  186MPD1    C1 2882   0.175   1.272  15.584 -0.1196 -0.3534  0.2611
  186MPD1    C2 2883   0.084   1.318  15.677 -1.2087 -0.1524  0.0009
  186MPD1    C3 2884   0.021   1.240  15.775  0.4707  0.0292  1.1460
  186MPD1    C4 2885   0.050   1.103  15.783 -0.0320  0.2915  0.5876
  186MPD1    C5 2886   0.132   1.055  15.683  0.7234  0.4065  0.1068
  186MPD1     H 2887   0.045   1.419  15.673  0.3302  0.5644  2.9665
  186MPD1    H1 2888   0.011   1.035  15.858  1.9915 -1.2122  0.2684
  186MPD1    H2 2889   0.250   1.090  15.510  1.1978 -0.7925  2.2471
  186MPD1    H3 2890   0.138   0.947  15.685 -2.6149  0.1821 -1.0721
  186MPD1     N 2891   4.670   1.307  15.860 -0.4822  0.1138 -0.5014
  186MPD1    H5 2892   4.668   1.408  15.854 -1.3222  0.1266  0.0358
  186MPD1    N1 2893   0.226   1.357  15.482  0.4856  0.4930 -0.8663
  186MPD1    H6 2894   0.262   1.446  15.516  1.6875 -0.0335 -0.7503
  186MPD1    H7 2895   0.302   1.306  15.436 -0.2267 -0.8960 -0.5096
  187MPD1     C 2896   4.052   3.263   0.569  0.5142 -0.0453  0.5442
  187MPD1    C1 2897   3.930   3.210   0.541  0.1689  0.1019  0.4083
  187MPD1    C2 2898   3.883   3.226   0.416  0.4246 -0.0561  1.0598
  187MPD1    C3 2899   3.959   3.269   0.311  0.0787  0.2044  0.5679
  187MPD1    C4 2900   4.091   3.305   0.339 -0.2121  0.2017  0.7121
  187MPD1    C5 2901   4.128   3.319   0.471 -0.1056 -0.1122 -0.0645
  187MPD1     H 2902   3.786   3.182   0.395  1.1283  0.0254 -2.3420
  187MPD1    H1 2903   4.163   3.341   0.267  0.4584 -1.1804  0.6888
  187MPD1    H2 2904   4.081   3.267   0.673 -0.3798  2.6139  0.6996
  187MPD1    H3 2905   4.223   3.369   0.486 -0.4270  0.6073 -0.3987
  187MPD1     N 2906   3.925   3.251   0.177 -0.4158  0.3219 -0.4475
  187MPD1    H5 2907   3.989   3.283   0.106  1.8226 -1.9824  0.5075
  187MPD1    N1 2908   3.844   3.179   0.648  0.1671  0.1424 -0.2363
  187MPD1    H6 2909   3.761   3.123   0.630 -0.0908  0.7313 -0.8673
  187MPD1    H7 2910   3.891   3.141   0.730 -2.3332 -2.2548  0.0822
  188MPD1     C 2911   3.447   3.357  10.154  0.2263 -0.4010  0.1155
  188MPD1    C1 2912   3.532   3.295  10.240  0.5597  0.4181  0.5741
  188MPD1    C2 2913   3.543   3.153  10.234  0.0251  0.7262  0.5731
  188MPD1    C3 2914   3.444   3.079  10.166 -0.4818 -0.2706  0.4564
  188MPD1    C4 2915   3.348   3.146  10.097  0.0979 -0.2299 -0.5194
  188MPD1    C5 2916   3.362   3.282  10.080  0.0311 -0.8797 -0.2954
  188MPD1     H 2917   3.623   3.106  10.291 -0.2150  1.6381  1.6777
  188MPD1    H1 2918   3.283   3.087  10.033 -1.4689 -0.2239  1.0518
  188MPD1    H2 2919   3.435   3.465  10.162  1.2676 -0.4551  2.6591
  188MPD1    H3 2920   3.293   3.334  10.015 -0.2520 -1.2567 -0.2978
  188MPD1     N 2921   3.445   2.938  10.160  0.1608 -0.0148 -0.5001
  188MPD1    H5 2922   3.362   2.897  10.118 -0.1692  0.5115 -0.3674
  188MPD1    N1 2923   3.614   3.384  10.310 -0.8011 -0.6505 -0.6133
  188MPD1    H6 2924   3.578   3.477  10.330  1.6178  0.3072 -0.7787
  188MPD1    H7 2925   3.646   3.344  10.398  0.3203  1.0746 -0.2363
  189MPD1     C 2926   0.717   4.014   0.490 -0.1722  0.6352 -0.5563
  189MPD1    C1 2927   0.593   3.989   0.543  0.0196  0.3227 -0.0431
  189MPD1    C2 2928   0.490   4.076   0.501 -0.1869 -0.5730  0.6003
  189MPD1    C3 2929   0.513   4.194   0.434  0.1314 -0.4168  0.2537
  189MPD1    C4 2930   0.640   4.222   0.392  0.2316 -0.3742 -0.8321
  189MPD1    C5 2931   0.742   4.133   0.419 -0.2670 -0.2881 -0.5826
  189MPD1     H 2932   0.390   4.043   0.525 -0.4268  0.1327  0.5429
  189MPD1    H1 2933   0.665   4.303   0.325 -0.0616  0.7476  0.4414
  189MPD1    H2 2934   0.798   3.944   0.499 -1.8866 -1.1401  1.0155
  189MPD1    H3 2935   0.833   4.152   0.363 -0.6491  1.4756 -0.5921
  189MPD1     N 2936   0.415   4.290   0.411 -0.2451 -0.4773 -0.5980
  189MPD1    H5 2937   0.320   4.259   0.427  0.7881 -1.3654  3.6201
  189MPD1    N1 2938   0.569   3.863   0.601  0.5748  0.5787  0.2651
  189MPD1    H6 2939   0.650   3.828   0.653  2.2630 -0.4900 -3.1140
  189MPD1    H7 2940   0.490   3.868   0.665  1.1800  0.3890  1.0387
  190MPD1     C 2941   3.828   1.827  15.762 -0.4714  0.2162 -0.6288
  190MPD1    C1 2942   3.841   1.920  15.853  0.4911  0.3992 -0.1755
  190MPD1    C2 2943   3.923   2.023  15.827 -0.4141 -0.5564  0.4575
  190MPD1    C3 2944   3.993   2.031  15.711 -0.2906 -0.2010 -0.7690
  190MPD1    C4 2945   3.970   1.932  15.620  0.3861 -0.6691  0.1336
  190MPD1    C5 2946   3.882   1.828  15.637  0.8465  0.4518  0.7859
  190MPD1     H 2947   3.947   2.081  15.916 -0.0006 -0.9125  0.5783
  190MPD1    H1 2948   4.032   1.925  15.531  0.5068  1.1697  0.0794
  190MPD1    H2 2949   3.774   1.738  15.793  0.8427 -0.0618  0.8242
  190MPD1    H3 2950   3.864   1.754  15.560  1.8948  1.5388 -0.5354
  190MPD1     N 2951   4.099   2.127  15.698 -0.5419 -0.4542 -0.0399
  190MPD1    H5 2952   4.111   2.194  15.774  2.1879 -0.3509 -0.5714
  190MPD1    N1 2953   3.804   1.897  15.989  0.8508 -0.3535  0.4402
  190MPD1    H6 2954   3.769   1.978  16.039  0.0857  0.5997 -1.6201
  190MPD1    H7 2955   3.730   1.827  15.987  0.7117 -0.2005  0.2399
  191MPD1     C 2956   2.984   4.135  12.687 -0.1981  0.6973  0.3782
  191MPD1    C1 2957   2.922   4.228  12.607 -0.2345  0.4993  0.4092
  191MPD1    C2 2958   3.003   4.308  12.533  0.1848 -0.0713 -0.1445
  191MPD1    C3 2959   3.143   4.313  12.546  0.0513 -0.4537  0.2076
  191MPD1    C4 2960   3.194   4.229  12.637 -0.0259  0.0170 -0.9079
  191MPD1    C5 2961   3.116   4.141  12.713  0.7834  0.5167  0.3939
  191MPD1     H 2962   2.954   4.353  12.447  0.7770  1.0406  0.1090
  191MPD1    H1 2963   3.301   4.214  12.632  0.3418  2.8873 -1.4456
  191MPD1    H2 2964   2.930   4.058  12.740 -0.0637  1.7110  2.0004
  191MPD1    H3 2965   3.160   4.061  12.772  1.1849  0.4044 -0.0594
  191MPD1     N 2966   3.210   4.399  12.460 -0.0736  0.4053  0.3673
  191MPD1    H5 2967   3.154   4.443  12.388  0.2341 -0.0380 -0.1443
  191MPD1    N1 2968   2.789   4.205  12.572  0.1421 -0.4671 -0.5618
  191MPD1    H6 2969   2.746   4.281  12.519 -0.0528 -0.4616 -0.3916
  191MPD1    H7 2970   2.733   4.172  12.650 -1.4895 -1.0546 -1.9978
  192MPD1     C 2971   3.333   4.555  11.474 -0.2016  0.0968 -0.4435
  192MPD1    C1 2972   3.238   4.590  11.561  0.7550 -0.1017 -0.7090
  192MPD1    C2 2973   3.257   4.555  11.693  0.4048 -0.3425 -0.5813
  192MPD1    C3 2974   3.375   4.496  11.741 -0.4328  0.4129  0.0314
  192MPD1    C4 2975   3.476   4.466  11.647 -0.4813 -0.3597  0.1770
  192MPD1    C5 2976   3.452   4.489  11.512  0.1526  0.1812 -0.4221
  192MPD1     H 2977   3.177   4.591  11.758  0.9981  0.5262 -0.3310
  192MPD1    H1 2978   3.565   4.417  11.685 -1.5244 -1.7966  0.7789
  192MPD1    H2 2979   3.319   4.574  11.368 -0.6327  1.1304 -0.2049
  192MPD1    H3 2980   3.536   4.474  11.446  1.1656  0.8362  0.7209
  192MPD1     N 2981   3.408   4.475  11.877 -0.6157  1.3389 -0.2294
  192MPD1    H5 2982   3.496   4.432  11.902 -1.3318  1.5017  2.6117
  192MPD1    N1 2983   3.123   4.660  11.521  0.1691  0.7022 -0.1928
  192MPD1    H6 2984   3.038   4.625  11.564  1.4152 -1.1307  0.7772
  192MPD1    H7 2985   3.115   4.656  11.420 -0.7523  2.4176 -0.1897
  193MPD1     C 2986   2.342   4.540  16.252  0.0472  0.1179  0.0447
  193MPD1    C1 2987   2.392   4.469  16.354 -0.2212  0.2509 -0.7453
  193MPD1    C2 2988   2.504   4.518  16.423 -0.9382 -0.0164 -0.0736
  193MPD1    C3 2989   2.555   4.648  16.397 -0.0026  0.0680 -0.0689
  193MPD1    C4 2990   2.499   4.721  16.298  0.4979 -0.1868 -0.4318
  193MPD1    C5 2991   2.397   4.664  16.225 -1.0631 -0.1841  0.6982
  193MPD1     H 2992   2.540   4.453  16.502  0.8307  0.3120 -0.6277
  193MPD1    H1 2993   2.542   0.077  16.272 -1.6079  1.3806  1.7897
  193MPD1    H2 2994   2.253   4.515  16.196 -0.5838 -0.4180  1.2822
  193MPD1    H3 2995   2.353   4.732  16.152  0.6006 -1.7601 -1.7691
  193MPD1     N 2996   2.660   4.710  16.472  0.4656 -0.1755  0.1867
  193MPD1    H5 2997   2.669   0.071  16.454  1.4984 -0.1742  0.6671
  193MPD1    N1 2998   2.342   4.342  16.380 -0.7394  0.6174 -0.2970
  193MPD1    H6 2999   2.243   4.337  16.358 -0.3500 -1.4304 -1.5246
  193MPD1    H7 3000   2.349   4.317  16.479 -2.7098 -1.2054 -0.6218
  194MPD1     C 3001   4.713   0.519   0.182 -0.0909 -0.1104 -0.0384
  194MPD1    C1 3002   0.077   0.480   0.102 -0.1167  0.0347  0.1108
  194MPD1    C2 3003   0.127   0.568   0.010 -0.1017  0.0758  0.4095
  194MPD1    C3 3004   0.082   0.700   0.002  0.1464  0.3778  0.7971
  194MPD1    C4 3005   4.721   0.740   0.091  0.3050  0.7623  0.4111
  194MPD1    C5 3006   4.667   0.650   0.177  0.7624  0.0887 -0.1731
  194MPD1     H 3007   0.202   0.537  17.693  0.4750 -0.1991  1.1404
  194MPD1    H1 3008   4.674   0.836   0.075 -1.8787 -0.3105  0.4216
  194MPD1    H2 3009   4.668   0.446   0.249  0.2868 -1.0439 -0.7908
  194MPD1    H3 3010   4.575   0.670   0.231 -0.2222  0.3425 -1.9331
  194MPD1     N 3011   0.135   0.798  17.666  0.2284  0.2059  0.0495
  194MPD1    H5 3012   0.102   0.893  17.681 -0.0551  0.2593 -0.9125
  194MPD1    N1 3013   0.117   0.348   0.108 -0.3356  0.1625  0.5122
  194MPD1    H6 3014   0.105   0.328   0.207 -1.7997  0.0962  0.3219
  194MPD1    H7 3015   0.213   0.328   0.080 -0.1413  1.2402  0.4347
  195MPD1     C 3016   3.021   4.352  17.550 -0.0197  0.0470  0.7609
  195MPD1    C1 3017   3.087   4.352  17.672 -0.4950  0.0587 -0.1686
  195MPD1    C2 3018   3.096   4.240  17.740  0.1560  0.3943  0.1791
  195MPD1    C3 3019   3.054   4.116  17.684 -0.7891  0.2871 -0.3197
  195MPD1    C4 3020   3.008   4.121  17.556  0.2225 -0.8695  0.3220
  195MPD1    C5 3021   2.979   4.239  17.493  0.1298  0.3029 -0.9549
  195MPD1     H 3022   3.125   4.248   0.090 -0.0441 -1.5338  0.3768
  195MPD1    H1 3023   2.991   4.027  17.506  2.1884 -0.1184 -1.7988
  195MPD1    H2 3024   3.014   4.445  17.494  0.6687 -0.0218  0.5641
  195MPD1    H3 3025   2.935   4.239  17.394  1.5742 -1.4340 -1.5937
  195MPD1     N 3026   3.063   3.990  17.743 -0.1022  0.0989  0.7771
  195MPD1    H5 3027   3.040   3.913  17.681 -0.0073  0.5525  0.1790
  195MPD1    N1 3028   3.105   4.487  17.719 -0.7480 -0.5010  0.5346
  195MPD1    H6 3029   3.111   4.564  17.653 -0.7158 -1.6567 -0.8098
  195MPD1    H7 3030   3.169   4.492   0.044  0.5785 -0.6906 -0.5261
  196MPD1     C 3031   1.791   2.685   0.131 -0.8393 -0.0579  0.1472
  196MPD1    C1 3032   1.783   2.822   0.149  0.0978  0.2528  0.0099
  196MPD1    C2 3033   1.832   2.875   0.260  0.6658 -0.7451  0.2216
  196MPD1    C3 3034   1.916   2.802   0.341 -0.2863  0.4095 -0.0241
  196MPD1    C4 3035   1.938   2.670   0.313  0.1786 -0.3660 -0.1330
  196MPD1    C5 3036   1.876   2.605   0.209 -0.1916 -1.2857 -0.1441
  196MPD1     H 3037   1.793   2.974   0.275  2.4115 -0.3825  2.2736
  196MPD1    H1 3038   1.991   2.607   0.383  0.2290  1.1760  1.2153
  196MPD1    H2 3039   1.732   2.634   0.056  1.1974 -0.6301 -1.0448
  196MPD1    H3 3040   1.889   2.499   0.192  0.9872 -1.0026 -1.0539
  196MPD1     N 3041   1.980   2.858   0.452  0.8137  0.0115  0.0192
  196MPD1    H5 3042   2.033   2.787   0.502  0.7441 -1.5533 -2.1472
  196MPD1    N1 3043   1.690   2.897   0.073  0.4236  0.1907 -0.0846
  196MPD1    H6 3044   1.711   2.997   0.067 -2.3121  0.8258  1.4374
  196MPD1    H7 3045   1.670   2.857  17.736  2.1916  1.4760 -1.0576
  197MPD1     C 3046   2.046   0.110  17.123 -0.0945 -0.5008  0.8339
  197MPD1    C1 3047   2.063   0.232  17.192  0.1342 -0.4487  0.6233
  197MPD1    C2 3048   2.101   0.342  17.114 -0.0392 -0.2295 -0.2339
  197MPD1    C3 3049   2.118   0.329  16.973  0.4687  1.0552 -1.2699
  197MPD1    C4 3050   2.095   0.209  16.914  0.2447  0.2377 -0.3682
  197MPD1    C5 3051   2.061   0.101  16.989  0.0193  0.2048 -0.0703
  197MPD1     H 3052   2.102   0.442  17.156  2.4249 -1.3734  2.4008
  197MPD1    H1 3053   2.105   0.204  16.806  1.7706  1.8294 -0.2993
  197MPD1    H2 3054   2.024   0.022  17.183  1.1415  0.9586  3.4214
  197MPD1    H3 3055   2.044   0.006  16.939  0.0530 -0.6264  1.5004
  197MPD1     N 3056   2.146   0.433  16.875 -0.3704  0.6915 -0.1135
  197MPD1    H5 3057   2.145   0.405  16.777 -1.4403  2.5349 -0.6321
  197MPD1    N1 3058   2.035   0.248  17.326 -0.1953 -0.5031 -1.0239
  197MPD1    H6 3059   2.095   0.322  17.362  0.4369 -2.8006  2.6233
  197MPD1    H7 3060   2.060   0.159  17.368 -0.9534  0.5787  1.6780
  198MPD1     C 3061   3.318   3.961  15.313 -0.8032  0.0751  0.4192
  198MPD1    C1 3062   3.299   3.922  15.445 -0.0352 -0.3342  0.0474
  198MPD1    C2 3063   3.408   3.874  15.511  0.3397  0.0117  1.0179
  198MPD1    C3 3064   3.533   3.881  15.459  0.2444 -0.4315  0.3317
  198MPD1    C4 3065   3.552   3.930  15.331 -0.0705 -0.4794  0.5967
  198MPD1    C5 3066   3.443   3.969  15.258 -1.1111 -0.2734  0.8095
  198MPD1     H 3067   3.399   3.832  15.611  0.9492 -1.5481  0.4155
  198MPD1    H1 3068   3.647   3.933  15.279  0.1448 -2.6282  0.8349
  198MPD1    H2 3069   3.231   3.979  15.251  0.3191 -0.5937 -1.3732
  198MPD1    H3 3070   3.456   4.000  15.155  0.3411  2.0803  1.6959
  198MPD1     N 3071   3.649   3.840  15.536  0.3791  0.4752  0.1338
  198MPD1    H5 3072   3.641   3.795  15.626 -0.9398  2.3579  0.9699
  198MPD1    N1 3073   3.172   3.889  15.484 -0.7584 -0.2733 -0.3280
  198MPD1    H6 3074   3.108   3.958  15.447  1.3042  2.0653  0.4710
  198MPD1    H7 3075   3.153   3.875  15.583 -2.5322  0.6947 -0.5309
  199MPD1     C 3076   1.074   4.713  10.251 -0.4929  0.0707  0.3570
  199MPD1    C1 3077   1.062   0.111  10.263  0.9886 -0.1427  0.0120
  199MPD1    C2 3078   0.983   0.172  10.172 -0.1975  0.0586 -0.1162
  199MPD1    C3 3079   0.931   0.108  10.066  0.2838  0.1539 -0.2957
  199MPD1    C4 3080   0.949   4.712  10.049  0.0154  0.5977 -0.2816
  199MPD1    C5 3081   1.020   4.641  10.146  0.1979  0.4470  0.1086
  199MPD1     H 3082   0.965   0.276  10.196  0.7236 -0.4803  2.8449
  199MPD1    H1 3083   0.912   4.656   9.964 -0.6136  0.7274 -0.0994
  199MPD1    H2 3084   1.115   4.656  10.335  3.2174 -1.1110 -2.2410
  199MPD1    H3 3085   1.050   4.537  10.150 -3.5826 -0.6431  0.4381
  199MPD1     N 3086   0.865   0.186   9.962  0.0471  0.4427 -0.5572
  199MPD1    H5 3087   0.815   0.128   9.895  1.0305  0.9990 -1.7619
  199MPD1    N1 3088   1.101   0.181  10.384 -0.4463  0.0915  0.3456
  199MPD1    H6 3089   1.191   0.151  10.421 -0.3293  0.8841  0.7142
  199MPD1    H7 3090   1.111   0.280  10.359 -0.1033 -0.2099 -0.6742
  200MPD1     C 3091   4.514   4.000  14.799 -0.3594 -0.1842  0.2661
  200MPD1    C1 3092   4.647   3.941  14.773  0.9356  0.0386 -0.3553
  200MPD1    C2 3093   0.003   4.028  14.722 -0.0028  0.2509 -0.2868
  200MPD1    C3 3094   4.706   4.153  14.679 -0.6738  0.0350 -0.4479
  200MPD1    C4 3095   4.578   4.203  14.695  0.5623  0.4080  0.4719
  200MPD1    C5 3096   4.484   4.126  14.746 -0.3141 -0.6026 -0.4986
  200MPD1     H 3097   0.103   3.988  14.705 -0.7731 -2.4222  1.6663
  200MPD1    H1 3098   4.532   4.295  14.661 -1.2467  0.4787  3.1284
  200MPD1    H2 3099   4.434   3.937  14.837 -0.0669  0.4752  1.9637
  200MPD1    H3 3100   4.380   4.156  14.741 -0.7142 -1.7643  0.7495
  200MPD1     N 3101   0.069   4.230  14.627  0.2554  0.6556 -0.3178
  200MPD1    H5 3102   0.160   4.190  14.607 -0.6733 -0.5715 -2.1081
  200MPD1    N1 3103   4.680   3.812  14.830 -0.3441 -0.5877  0.0329
  200MPD1    H6 3104   0.018   3.780  14.771 -1.3185 -1.1744 -0.9135
  200MPD1    H7 3105   4.611   3.737  14.825  1.1846 -1.8877 -2.0987
  201MPD1     C 3106   2.800   3.943  12.982 -0.6725 -0.5716 -0.3435
  201MPD1    C1 3107   2.922   3.926  13.036 -0.6421  0.6719 -0.1370
  201MPD1    C2 3108   2.949   3.792  13.066  0.5160 -0.1476 -0.4759
  201MPD1    C3 3109   2.878   3.680  13.015 -0.4014  0.1528 -0.0127
  201MPD1    C4 3110   2.763   3.709  12.954  0.1082 -0.5410 -0.3675
  201MPD1    C5 3111   2.726   3.838  12.939 -1.0097  0.2525  0.1982
  201MPD1     H 3112   3.036   3.770  13.127 -0.5654  0.0616  1.1288
  201MPD1    H1 3113   2.708   3.625  12.913  1.1179 -1.4821  0.2024
  201MPD1    H2 3114   2.755   4.041  12.972 -0.6855 -0.4978  0.4071
  201MPD1    H3 3115   2.630   3.855  12.891 -0.6393  1.1115 -0.2197
  201MPD1     N 3116   2.918   3.551  13.049  0.1122 -0.2594 -0.2058
  201MPD1    H5 3117   3.002   3.544  13.106  0.8314  2.2510 -0.9758
  201MPD1    N1 3118   2.981   4.029  13.105 -0.1549 -0.3904  0.1231
  201MPD1    H6 3119   2.971   4.117  13.054 -1.2410  0.6369  2.1234
  201MPD1    H7 3120   3.080   4.006  13.118 -0.4412 -1.4397  0.4117
  202MPD1     C 3121   1.696   2.322   8.826  0.8662  0.6271 -1.2277
  202MPD1    C1 3122   1.649   2.424   8.900 -0.1630  0.2816  0.2762
  202MPD1    C2 3123   1.741   2.460   8.996  0.3358 -0.5993 -0.4612
  202MPD1    C3 3124   1.841   2.381   9.047  0.3523 -0.2196  0.0451
  202MPD1    C4 3125   1.865   2.265   8.982  0.2772  0.3364  0.7579
  202MPD1    C5 3126   1.802   2.245   8.862  0.2253 -0.0821 -0.0417
  202MPD1     H 3127   1.718   2.551   9.050 -1.1362 -1.2287 -0.0395
  202MPD1    H1 3128   1.947   2.204   9.017  1.6264  0.6816 -1.8376
  202MPD1    H2 3129   1.654   2.300   8.729 -2.3498 -0.8329  0.5163
  202MPD1    H3 3130   1.835   2.157   8.809  2.3655  0.6403  0.0620
  202MPD1     N 3131   1.930   2.413   9.160 -0.1678  0.1080  0.1919
  202MPD1    H5 3132   2.015   2.363   9.182 -0.2732  0.6769  1.9117
  202MPD1    N1 3133   1.571   2.519   8.841 -0.2025  0.1602 -0.6357
  202MPD1    H6 3134   1.485   2.481   8.800 -0.8392 -1.4086  2.1492
  202MPD1    H7 3135   1.533   2.579   8.914  0.4018 -0.6273  0.3337
  203MPD1     C 3136   1.132   3.986  12.136 -0.3050 -0.0374 -0.3891
  203MPD1    C1 3137   1.149   3.881  12.055 -0.4588  0.0969 -0.5329
  203MPD1    C2 3138   1.222   3.770  12.098 -0.3682  0.3694  0.0564
  203MPD1    C3 3139   1.263   3.756  12.230 -0.4225  0.2232 -0.2941
  203MPD1    C4 3140   1.245   3.861  12.311 -1.4801  0.3902  0.0132
  203MPD1    C5 3141   1.190   3.971  12.261  0.1848 -0.0211 -0.2021
  203MPD1     H 3142   1.251   3.691  12.030  0.9286 -1.1934  2.4326
  203MPD1    H1 3143   1.273   3.872  12.415 -0.3825 -2.9966  0.0937
  203MPD1    H2 3144   1.093   4.083  12.108  0.6934 -0.1353 -2.1069
  203MPD1    H3 3145   1.185   4.064  12.315 -0.9980 -0.7695  0.9850
  203MPD1     N 3146   1.339   3.640  12.272 -0.1086  0.4965 -0.4178
  203MPD1    H5 3147   1.353   3.567  12.203 -1.4286 -0.9969  0.9183
  203MPD1    N1 3148   1.096   3.880  11.922  0.2471 -0.1882 -0.1654
  203MPD1    H6 3149   1.046   3.963  11.893  0.7386 -0.5595 -2.0737
  203MPD1    H7 3150   1.148   3.839  11.844  2.5565  0.0469  1.2262
  204MPD1     C 3151   0.630   0.839   0.120  0.9332 -0.2331 -0.3940
  204MPD1    C1 3152   0.732   0.873   0.030  1.0498 -0.6004  0.4499
  204MPD1    C2 3153   0.817   0.776  17.736  0.1624  0.6327  0.2223
  204MPD1    C3 3154   0.779   0.644   0.010 -0.1031  0.9521  0.3049
  204MPD1    C4 3155   0.680   0.611   0.104  0.6278  0.4672  0.1419
  204MPD1    C5 3156   0.608   0.710   0.157  0.7473 -0.1935  0.3669
  204MPD1     H 3157   0.892   0.801  17.661  1.6045 -1.3881  0.9987
  204MPD1    H1 3158   0.643   0.511   0.123 -1.9764  1.8747  2.4086
  204MPD1    H2 3159   0.569   0.912   0.172  0.5701 -0.5762 -0.3427
  204MPD1    H3 3160   0.522   0.686   0.218 -1.0571  0.9413 -1.7357
  204MPD1     N 3161   0.846   0.538  17.698 -0.3116 -0.6444  0.1647
  204MPD1    H5 3162   0.920   0.567  17.635 -0.7388 -2.0286 -0.9783
  204MPD1    N1 3163   0.765   1.011   0.018  0.1041  0.2917  0.0455
  204MPD1    H6 3164   0.829   1.036  17.697 -0.3720  0.3358 -0.3428
  204MPD1    H7 3165   0.687   1.077   0.021  0.3056  0.5892 -1.2633
  205MPD1     C 3166   0.283   4.533  16.947 -0.3557  1.1685 -0.1126
  205MPD1    C1 3167   0.304   4.405  16.889  0.1571  0.1610 -0.7088
  205MPD1    C2 3168   0.399   4.329  16.952 -1.2653 -0.4316  0.1815
  205MPD1    C3 3169   0.453   4.359  17.078  0.1556 -0.2181 -0.6198
  205MPD1    C4 3170   0.433   4.494  17.130 -0.5842 -0.1917  0.0909
  205MPD1    C5 3171   0.346   4.572  17.057 -0.1832  0.0125  0.4088
  205MPD1     H 3172   0.411   4.226  16.922 -1.8547 -0.3354 -0.3760
  205MPD1    H1 3173   0.470   4.534  17.223  0.4171 -3.3018  1.0489
  205MPD1    H2 3174   0.218   4.602  16.896  1.0276  2.9895  0.5902
  205MPD1    H3 3175   0.301   4.662  17.097 -1.1792 -0.6934  0.8650
  205MPD1     N 3176   0.526   4.270  17.159  0.9660 -0.7984  0.5139
  205MPD1    H5 3177   0.555   4.319  17.243 -2.7322  2.6049 -0.2198
  205MPD1    N1 3178   0.250   4.373  16.763  0.0486  0.2873  0.2005
  205MPD1    H6 3179   0.151   4.393  16.749 -0.8985 -3.0950  2.1383
  205MPD1    H7 3180   0.250   4.273  16.748  1.1215  0.6292 -2.0651
  206MPD1     C 3181   1.158   2.697  16.653 -0.3510 -0.2837  0.4215
  206MPD1    C1 3182   1.048   2.661  16.581  0.3122 -0.4011 -0.8727
  206MPD1    C2 3183   1.064   2.560  16.490 -1.0029  0.4629  0.5644
  206MPD1    C3 3184   1.191   2.513  16.460  0.5173 -0.1237  0.1331
  206MPD1    C4 3185   1.303   2.562  16.519 -0.5632 -0.2208 -0.6068
  206MPD1    C5 3186   1.285   2.649  16.622  0.2028  0.0468  0.5741
  206MPD1     H 3187   0.982   2.505  16.445 -0.5304 -1.0303  1.5266
  206MPD1    H1 3188   1.400   2.518  16.502 -0.2913  0.4279 -0.7444
  206MPD1    H2 3189   1.149   2.759  16.741 -2.4070  0.4253 -0.2981
  206MPD1    H3 3190   1.376   2.675  16.677 -0.6044 -0.7605  2.2932
  206MPD1     N 3191   1.213   2.426  16.352 -0.0831  0.2809 -0.1785
  206MPD1    H5 3192   1.304   2.382  16.347  0.4721  1.2719  1.1685
  206MPD1    N1 3193   0.925   2.705  16.629  0.1344  0.3822 -0.5887
  206MPD1    H6 3194   0.937   2.793  16.677 -3.4034  0.9939 -0.8491
  206MPD1    H7 3195   0.857   2.704  16.553 -1.2031 -1.2010  0.6334
  207MPD1     C 3196   4.442   4.536   9.423  0.3255  0.4403  0.2357
  207MPD1    C1 3197   4.362   4.423   9.446  0.0798  0.2274 -0.4620
  207MPD1    C2 3198   4.363   4.382   9.578 -0.2395  0.0073 -0.2230
  207MPD1    C3 3199   4.405   4.458   9.688 -0.1555  0.3199  0.2488
  207MPD1    C4 3200   4.466   4.576   9.660 -0.4272  0.3399 -0.9971
  207MPD1    C5 3201   4.489   4.605   9.531 -0.0012 -0.2800 -0.4170
  207MPD1     H 3202   4.311   4.290   9.603  2.7739 -1.3037  1.1284
  207MPD1    H1 3203   4.513   4.638   9.736  0.9056 -0.4572 -1.1750
  207MPD1    H2 3204   4.479   4.573   9.329  1.1668 -0.4239  0.2234
  207MPD1    H3 3205   4.549   4.692   9.506 -0.2398 -0.0131 -0.0455
  207MPD1     N 3206   4.379   4.431   9.827 -0.5304 -0.1549 -0.1923
  207MPD1    H5 3207   4.401   4.511   9.885 -1.8062  1.0170 -1.3239
  207MPD1    N1 3208   4.323   4.335   9.349 -0.2421  0.2772 -0.2339
  207MPD1    H6 3209   4.275   4.381   9.272 -2.1111  0.0629  0.8089
  207MPD1    H7 3210   4.250   4.274   9.384  1.5288 -2.0219 -0.6140
  208MPD1     C 3211   1.835   3.240  17.710  0.9041  0.3700  0.4582
  208MPD1    C1 3212   1.829   3.209   0.088 -0.8439 -0.2168  0.5918
  208MPD1    C2 3213   1.711   3.233   0.153  0.2925 -0.2603  0.2520
  208MPD1    C3 3214   1.605   3.283   0.083 -0.0885 -0.4635  0.0416
  208MPD1    C4 3215   1.615   3.310  17.703  0.1094 -0.4828  0.3015
  208MPD1    C5 3216   1.731   3.283  17.648  0.0657 -0.3301 -0.1020
  208MPD1     H 3217   1.695   3.199   0.255 -0.8711  0.3331  0.2590
  208MPD1    H1 3218   1.532   3.334  17.638  0.0594 -0.8660  0.2237
  208MPD1    H2 3219   1.930   3.227  17.660  1.1021 -0.6404  1.1086
  208MPD1    H3 3220   1.751   3.310  17.545 -3.1069 -0.5164 -0.7697
  208MPD1     N 3221   1.481   3.288   0.152  0.1043  0.6109  0.0832
  208MPD1    H5 3222   1.474   3.247   0.244  1.3530  1.0949  0.3904
  208MPD1    N1 3223   1.948   3.170   0.156  0.3888 -0.4078  0.1149
  208MPD1    H6 3224   1.940   3.127   0.248  0.1594  1.8787  1.1706
  208MPD1    H7 3225   2.021   3.130   0.098  0.0907  0.5470 -0.9208
  209MPD1     C 3226   3.817   2.831  10.676 -0.2166  0.1601 -0.1544
  209MPD1    C1 3227   3.873   2.877  10.788  0.0219 -0.4608 -0.9801
  209MPD1    C2 3228   3.866   3.011  10.810 -0.0023  0.5633  0.7262
  209MPD1    C3 3229   3.805   3.091  10.719 -0.7859 -0.1762 -0.1258
  209MPD1    C4 3230   3.755   3.040  10.596 -0.2687 -0.6477 -0.2720
  209MPD1    C5 3231   3.752   2.907  10.588  0.2028  0.2232 -0.0371
  209MPD1     H 3232   3.899   3.053  10.904  0.8695 -2.0786  1.6050
  209MPD1    H1 3233   3.704   3.095  10.518 -0.3963 -1.8258 -1.0040
  209MPD1    H2 3234   3.818   2.726  10.648 -0.0359 -0.3875  1.8911
  209MPD1    H3 3235   3.710   2.852  10.504 -0.1153 -0.4665  0.5672
  209MPD1     N 3236   3.791   3.225  10.752  0.4097  0.0035  0.3248
  209MPD1    H5 3237   3.809   3.258  10.846 -2.5491  1.3674  0.4274
  209MPD1    N1 3238   3.904   2.784  10.892  0.4720 -0.1050 -0.0965
  209MPD1    H6 3239   3.936   2.700  10.844 -0.0558 -0.3745  0.0195
  209MPD1    H7 3240   3.974   2.815  10.958  1.3473 -0.9284 -0.6315
  210MPD1     C 3241   4.061   3.583  11.477  0.0024  0.3472  0.1632
  210MPD1    C1 3242   4.076   3.700  11.403 -0.2973  0.4833  0.5798
  210MPD1    C2 3243   4.032   3.694  11.270  0.1425 -0.0654 -0.2601
  210MPD1    C3 3244   3.988   3.575  11.208 -0.5696  0.1951 -0.1862
  210MPD1    C4 3245   3.976   3.465  11.289  0.1141  0.2171 -0.4760
  210MPD1    C5 3246   4.017   3.471  11.423  0.4307 -0.9193 -0.1054
  210MPD1     H 3247   4.027   3.782  11.206  0.3002  0.2078  0.1083
  210MPD1    H1 3248   3.935   3.374  11.248 -0.7153 -1.3109  3.8581
  210MPD1    H2 3249   4.076   3.585  11.585 -1.8608  1.4908  0.3993
  210MPD1    H3 3250   4.025   3.382  11.485 -0.8738 -0.4055  0.7805
  210MPD1     N 3251   3.944   3.551  11.077  0.3653 -0.5346  0.7156
  210MPD1    H5 3252   3.894   3.467  11.051 -0.0739 -0.2172  0.5455
  210MPD1    N1 3253   4.077   3.826  11.467 -0.5824 -0.2843 -0.2347
  210MPD1    H6 3254   4.115   3.895  11.402 -1.6728  1.4017  0.9104
  210MPD1    H7 3255   4.132   3.822  11.553 -1.2293 -0.2412  0.1813
  211MPD1     C 3256   0.671   3.405  17.360 -0.1953 -0.2760  0.9849
  211MPD1    C1 3257   0.564   3.442  17.275  0.1590 -0.4991 -0.3582
  211MPD1    C2 3258   0.591   3.551  17.188  0.1175  0.4949  0.2880
  211MPD1    C3 3259   0.721   3.603  17.176 -0.0174  0.1694 -0.8345
  211MPD1    C4 3260   0.823   3.548  17.252  0.3256  0.6331 -0.6663
  211MPD1    C5 3261   0.797   3.452  17.339 -0.3064  0.4795  0.0393
  211MPD1     H 3262   0.507   3.598  17.139  2.1184  2.3953 -1.2866
  211MPD1    H1 3263   0.925   3.582  17.241  0.5223 -0.0850 -1.0904
  211MPD1    H2 3264   0.667   3.328  17.437  2.2841 -0.4343  0.9804
  211MPD1    H3 3265   0.871   3.424  17.413 -0.8948 -0.6705  0.1856
  211MPD1     N 3266   0.734   3.713  17.093 -0.5262  0.3127  0.5849
  211MPD1    H5 3267   0.651   3.733  17.039 -0.0588  1.1107  0.1619
  211MPD1    N1 3268   0.430   3.407  17.295 -0.6048 -0.5356 -0.1325
  211MPD1    H6 3269   0.389   3.410  17.202  0.2918  1.3047 -0.4741
  211MPD1    H7 3270   0.430   3.306  17.308  0.5980 -0.8644 -2.6372
  212MPD1     C 3271   0.779   2.350  16.655  0.1012  0.6582  0.2016
  212MPD1    C1 3272   0.833   2.232  16.686  0.2711  0.4620 -0.5473
  212MPD1    C2 3273   0.756   2.128  16.731 -0.0350  0.1975 -0.4595
  212MPD1    C3 3274   0.621   2.145  16.764  0.4908  0.5691  0.0462
  212MPD1    C4 3275   0.566   2.267  16.738  0.0839 -0.6177 -0.8277
  212MPD1    C5 3276   0.643   2.366  16.681 -0.1191  0.3936  0.1375
  212MPD1     H 3277   0.805   2.033  16.746 -2.1601 -0.4189  2.5042
  212MPD1    H1 3278   0.462   2.293  16.754  0.6316  1.9484 -1.3400
  212MPD1    H2 3279   0.840   2.428  16.610  1.1691 -1.3491 -1.8517
  212MPD1    H3 3280   0.591   2.459  16.659 -0.6958 -0.1089 -0.6434
  212MPD1     N 3281   0.536   2.044  16.802  0.4182  0.4549 -0.2051
  212MPD1    H5 3282   0.435   2.059  16.802  0.5904  1.6464  0.1866
  212MPD1    N1 3283   0.967   2.212  16.661 -0.7220 -1.0885  0.5362
  212MPD1    H6 3284   1.015   2.147  16.722 -0.7526 -0.2714  1.4250
  212MPD1    H7 3285   1.012   2.303  16.674 -0.7814 -0.7828 -1.3797
  213MPD1     C 3286   3.869   2.628  15.976  0.5288 -0.5882  0.5022
  213MPD1    C1 3287   3.753   2.577  15.932 -0.1461 -0.1641 -0.0120
  213MPD1    C2 3288   3.691   2.660  15.837  0.0220 -0.3157  0.4956
  213MPD1    C3 3289   3.764   2.750  15.757 -0.6336 -0.8310 -0.6461
  213MPD1    C4 3290   3.897   2.761  15.781  0.7310 -0.6834 -0.5558
  213MPD1    C5 3291   3.944   2.706  15.895  0.2731  0.2537  0.2941
  213MPD1     H 3292   3.585   2.647  15.818  0.7207 -1.6702 -2.3154
  213MPD1    H1 3293   3.957   2.831  15.725 -0.4979 -0.2945 -1.3776
  213MPD1    H2 3294   3.934   2.582  16.049 -1.0453 -4.4314 -0.4985
  213MPD1    H3 3295   4.048   2.723  15.921  0.0792  1.6997  0.1280
  213MPD1     N 3296   3.690   2.832  15.664  0.0000  0.6992  0.0212
  213MPD1    H5 3297   3.589   2.821  15.661 -0.2471  2.6126  1.0150
  213MPD1    N1 3298   3.677   2.502  16.020 -0.3463  0.2449  0.0607
  213MPD1    H6 3299   3.733   2.435  16.074  1.4986  2.4320  0.8709
  213MPD1    H7 3300   3.613   2.439  15.973  0.6716 -0.6001 -0.2058
  214MPD1     C 3301   3.310   2.613  14.840 -0.4432 -0.2951 -0.5660
  214MPD1    C1 3302   3.284   2.581  14.969 -0.3165  0.5321 -0.5339
  214MPD1    C2 3303   3.310   2.680  15.062  0.6713  0.3419 -0.5975
  214MPD1    C3 3304   3.361   2.804  15.021 -0.2168 -0.3066 -0.5421
  214MPD1    C4 3305   3.379   2.836  14.889  0.1471 -0.6434  0.4140
  214MPD1    C5 3306   3.358   2.736  14.803  0.4727 -0.1180  0.3753
  214MPD1     H 3307   3.295   2.656  15.167  1.2288 -2.9927 -1.2863
  214MPD1    H1 3308   3.410   2.933  14.850  0.0883 -1.2390 -1.1110
  214MPD1    H2 3309   3.292   2.546  14.757  0.0931  1.7865 -2.3952
  214MPD1    H3 3310   3.367   2.749  14.696 -1.3058 -3.2864 -0.1546
  214MPD1     N 3311   3.422   2.893  15.119 -0.6206  0.3053  0.4573
  214MPD1    H5 3312   3.487   2.960  15.081 -0.0004 -0.0755  0.8544
  214MPD1    N1 3313   3.238   2.453  15.009 -0.6487 -0.1199  0.0170
  214MPD1    H6 3314   3.230   2.449  15.111 -4.6970  1.9565 -0.2579
  214MPD1    H7 3315   3.310   2.386  14.982 -1.5271 -0.8796 -0.4184
  215MPD1     C 3316   3.332   3.435  10.697  0.8373 -0.1132  0.0699
  215MPD1    C1 3317   3.346   3.569  10.692 -0.8490  0.1107  0.0507
  215MPD1    C2 3318   3.408   3.634  10.791 -0.0479  0.6547 -1.0582
  215MPD1    C3 3319   3.468   3.556  10.892  0.7567 -0.6161 -0.0312
  215MPD1    C4 3320   3.460   3.422  10.897 -0.1152 -0.2690 -0.1095
  215MPD1    C5 3321   3.379   3.361  10.803  0.3563  0.3434 -0.6889
  215MPD1     H 3322   3.417   3.742  10.798  2.0776  0.3256  1.3821
  215MPD1    H1 3323   3.490   3.358  10.979  0.5668 -1.1195 -1.0111
  215MPD1    H2 3324   3.282   3.390  10.612 -1.0196  0.6801  0.7253
  215MPD1    H3 3325   3.359   3.255  10.815 -1.6987  0.8051 -0.0060
  215MPD1     N 3326   3.531   3.633  10.992 -0.3547 -0.7697 -0.4685
  215MPD1    H5 3327   3.535   3.734  10.985 -0.8696 -0.7124 -0.0146
  215MPD1    N1 3328   3.276   3.642  10.594  0.1985  0.3248 -0.2643
  215MPD1    H6 3329   3.269   3.598  10.502  0.5253  0.2075 -0.2318
  215MPD1    H7 3330   3.310   3.738  10.587 -0.8748  0.8468  1.6501
  216MPD1     C 3331   4.067   1.655   0.252 -0.2891  0.1638 -0.4649
  216MPD1    C1 3332   4.115   1.612   0.377  0.4408 -0.4117  0.0120
  216MPD1    C2 3333   4.136   1.476   0.388 -0.3034  0.8169  0.2827
  216MPD1    C3 3334   4.111   1.384   0.295 -0.2005 -0.0045 -0.5136
  216MPD1    C4 3335   4.059   1.429   0.173 -0.2273 -0.2217 -0.0230
  216MPD1    C5 3336   4.048   1.565   0.156  0.4438 -0.7141  0.1911
  216MPD1     H 3337   4.180   1.437   0.479  1.1527 -0.4868 -0.9985
  216MPD1    H1 3338   4.051   1.356   0.094  1.2617 -0.2451 -0.1537
  216MPD1    H2 3339   4.049   1.754   0.213 -2.1750  0.0805  0.2005
  216MPD1    H3 3340   4.019   1.599   0.057  2.3902 -0.5397 -0.3045
  216MPD1     N 3341   4.128   1.247   0.320  0.2537 -0.5803  0.4315
  216MPD1    H5 3342   4.158   1.233   0.416  1.3829  4.7920  0.8712
  216MPD1    N1 3343   4.165   1.703   0.469  0.9131 -0.3568 -0.1750
  216MPD1    H6 3344   4.127   1.797   0.460  0.0423 -0.7432 -0.5835
  216MPD1    H7 3345   4.157   1.668   0.565 -0.8610  1.1894  0.2422
  217MPD1     C 3346   0.702   2.127   8.122 -0.6389 -0.0024 -0.0023
  217MPD1    C1 3347   0.608   2.194   8.191 -0.3707  0.7050  0.0059
  217MPD1    C2 3348   0.645   2.282   8.292  1.0725 -0.2060  0.0691
  217MPD1    C3 3349   0.773   2.278   8.346  0.5159  0.3844  0.1719
  217MPD1    C4 3350   0.861   2.203   8.276 -0.5363  0.2242  0.2261
  217MPD1    C5 3351   0.829   2.124   8.169 -0.1807 -0.3256 -0.5172
  217MPD1     H 3352   0.566   2.346   8.331 -0.6438 -3.0701  1.3206
  217MPD1    H1 3353   0.967   2.212   8.300 -0.2595  1.1657 -1.3460
  217MPD1    H2 3354   0.669   2.074   8.033  0.4681  0.6092 -0.7822
  217MPD1    H3 3355   0.916   2.084   8.118  0.3084  1.9997 -1.5122
  217MPD1     N 3356   0.815   2.346   8.459  0.4801  0.0809  0.3012
  217MPD1    H5 3357   0.908   2.330   8.496  0.3694 -0.1762  0.4679
  217MPD1    N1 3358   0.485   2.219   8.129  0.6455 -0.0089 -0.1435
  217MPD1    H6 3359   0.417   2.247   8.199  0.4322  1.8759 -1.0965
  217MPD1    H7 3360   0.452   2.139   8.076  0.4787  0.2652 -0.4510
  218MPD1     C 3361   3.547   2.858  12.994  0.5261 -0.2868  0.3627
  218MPD1    C1 3362   3.611   2.851  12.873 -0.6092  0.1329 -0.0791
  218MPD1    C2 3363   3.607   2.972  12.807  0.4615 -0.6414 -0.1365
  218MPD1    C3 3364   3.540   3.086  12.846  0.0382 -0.1563 -0.5653
  218MPD1    C4 3365   3.466   3.085  12.961  0.5861 -0.5727 -0.3491
  218MPD1    C5 3366   3.478   2.971  13.034 -0.2433 -0.0424  0.0254
  218MPD1     H 3367   3.649   2.976  12.707 -1.2705  0.5140 -0.8304
  218MPD1    H1 3368   3.415   3.177  12.984  1.0898 -0.3393 -0.1678
  218MPD1    H2 3369   3.552   2.773  13.061  0.0414 -0.0648  0.6760
  218MPD1    H3 3370   3.438   2.974  13.135 -1.6817  0.7611 -0.5683
  218MPD1     N 3371   3.548   3.205  12.763 -0.8394 -0.3448 -0.6903
  218MPD1    H5 3372   3.601   3.199  12.676  1.8833 -1.7038  1.0750
  218MPD1    N1 3373   3.681   2.744  12.827 -0.1258  0.2220 -0.1686
  218MPD1    H6 3374   3.645   2.659  12.869 -1.4930  0.5065 -0.7745
  218MPD1    H7 3375   3.668   2.747  12.726  1.4392  0.1467 -0.3751
  219MPD1     C 3376   3.303   3.709  12.027 -0.5320 -0.0094  0.3063
  219MPD1    C1 3377   3.434   3.755  12.055 -0.1723  0.3558  0.0120
  219MPD1    C2 3378   3.485   3.754  12.180  0.1738  0.1109  0.8491
  219MPD1    C3 3379   3.417   3.679  12.276 -0.1468  0.5298  0.4918
  219MPD1    C4 3380   3.300   3.624  12.239 -0.3464  0.1093 -0.3802
  219MPD1    C5 3381   3.232   3.644  12.119 -0.2973  0.1910  1.1281
  219MPD1     H 3382   3.581   3.796  12.207  0.1293  1.8979 -1.7920
  219MPD1    H1 3383   3.249   3.578  12.323 -0.2813 -0.3695 -0.5999
  219MPD1    H2 3384   3.265   3.707  11.925 -0.0588 -0.8591  0.1402
  219MPD1    H3 3385   3.135   3.599  12.100  1.5491 -2.0111 -3.0048
  219MPD1     N 3386   3.458   3.646  12.404 -0.1165 -0.0654 -0.0975
  219MPD1    H5 3387   3.403   3.588  12.466 -0.3280  0.4952  0.2388
  219MPD1    N1 3388   3.506   3.814  11.955  0.2225 -0.2983 -0.2860
  219MPD1    H6 3389   3.606   3.818  11.971  0.6834 -1.2539 -2.9312
  219MPD1    H7 3390   3.476   3.790  11.860  0.5638 -1.5918 -0.0733
  220MPD1     C 3391   4.009   4.399   9.545  0.5041 -0.3608 -0.6334
  220MPD1    C1 3392   3.923   4.292   9.562 -0.2500  0.7895  0.0515
  220MPD1    C2 3393   3.891   4.260   9.687 -1.0576 -0.1782 -0.5613
  220MPD1    C3 3394   3.923   4.332   9.801 -0.1758  0.1026 -0.4703
  220MPD1    C4 3395   4.018   4.436   9.784  0.8321 -0.3939  0.4848
  220MPD1    C5 3396   4.061   4.464   9.654  0.1897 -0.3822 -0.3639
  220MPD1     H 3397   3.823   4.177   9.702  0.1111 -0.9151  0.7034
  220MPD1    H1 3398   4.053   4.501   9.863  2.1416 -0.0706 -0.3689
  220MPD1    H2 3399   4.037   4.428   9.444 -0.3918 -1.6211 -1.2471
  220MPD1    H3 3400   4.124   4.550   9.639 -1.3187  0.5206 -1.5953
  220MPD1     N 3401   3.868   4.284   9.923 -0.3474 -0.8268 -0.1086
  220MPD1    H5 3402   3.819   4.196   9.926 -0.0890 -0.9735 -0.2119
  220MPD1    N1 3403   3.860   4.226   9.458 -0.2199 -0.8992 -0.0256
  220MPD1    H6 3404   3.845   4.126   9.469  0.6927 -0.6816  3.0696
  220MPD1    H7 3405   3.898   4.248   9.366 -1.3391 -2.8145 -0.9478
  221MPD1     C 3406   0.428   2.632  16.369 -0.4109 -0.3820  0.2953
  221MPD1    C1 3407   0.492   2.743  16.401  0.2108  0.1719 -0.9075
  221MPD1    C2 3408   0.616   2.753  16.335 -0.4547  0.0787  0.7647
  221MPD1    C3 3409   0.688   2.655  16.275  0.3669  0.2961  0.6066
  221MPD1    C4 3410   0.623   2.530  16.270 -0.1917  0.5726  0.2653
  221MPD1    C5 3411   0.493   2.528  16.315  0.4936  0.7683 -0.2211
  221MPD1     H 3412   0.657   2.853  16.329  1.9899 -1.0008 -0.7217
  221MPD1    H1 3413   0.668   2.440  16.230 -0.2608  0.7528 -0.2193
  221MPD1    H2 3414   0.323   2.617  16.389 -0.9640  0.3790 -2.0167
  221MPD1    H3 3415   0.445   2.432  16.300  0.3113  1.0968 -1.6894
  221MPD1     N 3416   0.819   2.657  16.224  0.4357 -0.3802 -0.1105
  221MPD1    H5 3417   0.860   2.567  16.202 -0.8038 -1.7164  3.0895
  221MPD1    N1 3418   0.423   2.855  16.446 -0.5885  0.1549 -0.1518
  221MPD1    H6 3419   0.489   2.920  16.489 -2.2129  1.9315 -0.3533
  221MPD1    H7 3420   0.338   2.839  16.499 -0.4440 -0.1541 -0.0073
  222MPD1     C 3421   0.583   2.793  16.815 -0.0019  0.1831 -0.6738
  222MPD1    C1 3422   0.629   2.704  16.910 -0.2446 -0.1606 -0.1131
  222MPD1    C2 3423   0.564   2.711  17.034  0.3283  0.2051  0.0318
  222MPD1    C3 3424   0.455   2.791  17.063  0.3661  0.3765 -0.2502
  222MPD1    C4 3425   0.415   2.879  16.960 -0.6833  0.0444 -0.4192
  222MPD1    C5 3426   0.477   2.874  16.840  0.5038  0.1328 -0.3178
  222MPD1     H 3427   0.584   2.635  17.109  0.4347 -1.0895 -1.2965
  222MPD1    H1 3428   0.331   2.947  16.974  0.3814  1.1000  0.7979
  222MPD1    H2 3429   0.631   2.806  16.719  1.3459 -0.8936 -0.1413
  222MPD1    H3 3430   0.429   2.933  16.763  0.9020  0.9005  0.0169
  222MPD1     N 3431   0.391   2.791  17.184  0.1845 -0.0096  0.1629
  222MPD1    H5 3432   0.306   2.847  17.183 -0.8672 -1.6531 -1.3630
  222MPD1    N1 3433   0.739   2.621  16.888 -0.1689  0.5051  0.4385
  222MPD1    H6 3434   0.788   2.610  16.976  1.0555  0.7362 -0.1973
  222MPD1    H7 3435   0.799   2.618  16.805 -2.2416 -2.2531 -0.9760
  223MPD1     C 3436   4.365   2.296  17.603 -0.3020  0.8936 -0.2169
  223MPD1    C1 3437   4.430   2.327  17.717 -0.7654  0.5148 -0.3821
  223MPD1    C2 3438   4.545   2.395  17.697  0.4754 -0.0725 -0.3413
  223MPD1    C3 3439   4.580   2.451  17.571 -0.4538 -0.0650  0.3106
  223MPD1    C4 3440   4.509   2.424  17.462 -0.3276  0.1218  0.6879
  223MPD1    C5 3441   4.392   2.350  17.477 -0.4018 -0.4553  0.1689
  223MPD1     H 3442   4.621   2.404   0.019  0.7755  1.0350 -0.7659
  223MPD1    H1 3443   4.537   2.459  17.363  0.9032 -2.8410 -0.0190
  223MPD1    H2 3444   4.280   2.229  17.602  1.8241 -1.8182  2.4384
  223MPD1    H3 3445   4.341   2.327  17.384  0.0413  1.7627 -0.6362
  223MPD1     N 3446   4.693   2.534  17.568  0.2951 -0.1585  0.1916
  223MPD1    H5 3447   0.008   2.532  17.653 -1.6678 -1.0065  1.4336
  223MPD1    N1 3448   4.394   2.270   0.092 -0.5304  0.7298  0.3041
  223MPD1    H6 3449   4.296   2.245   0.103 -0.2542  0.5020  2.3241
  223MPD1    H7 3450   4.414   2.326   0.175  0.7534  0.4364  0.1976
  224MPD1     C 3451   1.062   3.368   8.885  0.4380 -0.5179  0.9404
  224MPD1    C1 3452   1.024   3.454   8.991  0.0944  0.0799  0.4821
  224MPD1    C2 3453   1.105   3.467   9.100 -0.0712  0.3591  0.0704
  224MPD1    C3 3454   1.228   3.403   9.108 -0.2327  0.0043  0.0744
  224MPD1    C4 3455   1.263   3.310   9.011  0.0696  0.2626  0.3786
  224MPD1    C5 3456   1.178   3.292   8.898 -0.2202  0.3228 -1.1822
  224MPD1     H 3457   1.080   3.540   9.177  1.3503 -1.3794  2.1839
  224MPD1    H1 3458   1.355   3.253   9.019 -1.6037 -2.3073  1.2759
  224MPD1    H2 3459   1.004   3.355   8.794 -0.4703  1.9032  1.1590
  224MPD1    H3 3460   1.213   3.222   8.822 -1.4383 -0.4722 -1.0058
  224MPD1     N 3461   1.310   3.414   9.222 -0.2452 -0.3511  0.3353
  224MPD1    H5 3462   1.401   3.367   9.220 -0.1637 -0.2062  0.7181
  224MPD1    N1 3463   0.923   3.547   8.974 -0.2208  0.2629  0.1293
  224MPD1    H6 3464   0.885   3.574   9.064 -2.1666  0.8801 -0.8631
  224MPD1    H7 3465   0.848   3.499   8.924  0.3595 -0.2067 -0.2955
  225MPD1     C 3466   3.130   0.476  12.478 -0.5345 -0.5601 -0.6870
  225MPD1    C1 3467   3.154   0.341  12.507  0.1856 -1.2110  0.2108
  225MPD1    C2 3468   3.050   0.257  12.485  0.1478 -1.2865  0.5853
  225MPD1    C3 3469   2.939   0.300  12.407 -0.1981  0.5167 -0.2161
  225MPD1    C4 3470   2.933   0.421  12.356 -0.2996 -0.2696 -0.4160
  225MPD1    C5 3471   3.026   0.509  12.396 -0.2446 -0.0766  0.3720
  225MPD1     H 3472   3.055   0.155  12.523  0.3587 -1.7061 -0.5680
  225MPD1    H1 3473   2.841   0.447  12.304 -1.1581 -2.8120 -0.1373
  225MPD1    H2 3474   3.201   0.555  12.498  0.2760 -0.9826 -1.8078
  225MPD1    H3 3475   3.010   0.613  12.367  0.0434 -0.4294 -1.0302
  225MPD1     N 3476   2.833   0.210  12.382 -0.1646  0.2625  0.0571
  225MPD1    H5 3477   2.764   0.243  12.315 -0.4463 -3.6689 -1.6184
  225MPD1    N1 3478   3.258   0.307  12.593  0.3918  0.1454  0.8520
  225MPD1    H6 3479   3.338   0.352  12.549 -0.4138  0.9188  0.1583
  225MPD1    H7 3480   3.276   0.208  12.602  4.2521  0.8433  0.5450
  226MPD1     C 3481   1.016   4.364   9.244  0.1211  0.0706  0.0994
  226MPD1    C1 3482   1.007   4.322   9.374  1.1830  0.4637 -0.2001
  226MPD1    C2 3483   1.097   4.373   9.462  0.3734 -0.2640 -0.1533
  226MPD1    C3 3484   1.192   4.469   9.420  0.1060 -0.0608  0.2120
  226MPD1    C4 3485   1.202   4.498   9.287 -0.5473 -0.3155 -0.7919
  226MPD1    C5 3486   1.115   4.441   9.199  0.0157 -0.1106  0.0483
  226MPD1     H 3487   1.096   4.345   9.567  0.5241 -0.8111 -0.2967
  226MPD1    H1 3488   1.275   4.571   9.253  0.3829 -0.8701  0.0222
  226MPD1    H2 3489   0.959   4.321   9.162  0.3519  0.4573 -0.2667
  226MPD1    H3 3490   1.135   4.452   9.093  1.7750 -0.8634  0.2987
  226MPD1     N 3491   1.268   4.528   9.515  0.4877  0.3222 -0.0888
  226MPD1    H5 3492   1.254   4.494   9.610 -1.1044 -1.1633 -0.8839
  226MPD1    N1 3493   0.890   4.260   9.415 -0.0270  0.3173 -0.6924
  226MPD1    H6 3494   0.859   4.197   9.342  0.8293 -1.0900  0.1570
  226MPD1    H7 3495   0.902   4.199   9.496  0.4693 -0.6042 -1.4579
  227MPD1     C 3496   1.477   0.702   9.703  0.4144  0.0031 -0.3007
  227MPD1    C1 3497   1.550   0.659   9.597  0.2766  0.9874  0.5972
  227MPD1    C2 3498   1.587   0.529   9.581 -0.3811  0.3264  1.1116
  227MPD1    C3 3499   1.552   0.440   9.683 -0.0043  2.0692  0.5942
  227MPD1    C4 3500   1.484   0.482   9.795  0.6025  0.0150 -0.1987
  227MPD1    C5 3501   1.444   0.608   9.796  0.8549  0.1326 -0.9119
  227MPD1     H 3502   1.638   0.498   9.491  1.1076 -1.4745  2.5658
  227MPD1    H1 3503   1.459   0.426   9.884  1.2505 -0.1749 -0.1387
  227MPD1    H2 3504   1.448   0.806   9.710 -0.4881 -0.1134 -2.3836
  227MPD1    H3 3505   1.384   0.626   9.884 -1.7647 -2.0210 -2.2388
  227MPD1     N 3506   1.583   0.308   9.669  0.1415 -0.3235 -0.5612
  227MPD1    H5 3507   1.631   0.275   9.586  2.4463 -4.3855  2.3913
  227MPD1    N1 3508   1.576   0.750   9.496  0.6801 -0.0156 -0.5929
  227MPD1    H6 3509   1.551   0.844   9.525 -1.6007  0.0537 -2.8220
  227MPD1    H7 3510   1.668   0.743   9.453  2.1754  1.3272  2.3811
  228MPD1     C 3511   0.660   1.728  12.992 -0.1058  0.0851 -0.0717
  228MPD1    C1 3512   0.606   1.748  12.870 -0.2461 -0.2157 -0.6009
  228MPD1    C2 3513   0.476   1.801  12.860 -0.3873  0.1486 -0.3823
  228MPD1    C3 3514   0.398   1.807  12.969 -0.1539  0.3876  0.3804
  228MPD1    C4 3515   0.450   1.783  13.093  0.1584 -0.1376  0.0589
  228MPD1    C5 3516   0.579   1.748  13.100  0.3893  0.2663 -0.2166
  228MPD1     H 3517   0.433   1.831  12.766  0.6043  1.6263 -0.3506
  228MPD1    H1 3518   0.386   1.781  13.181 -0.0081  0.2911 -0.0531
  228MPD1    H2 3519   0.766   1.710  13.010 -0.0858  0.0895 -0.1840
  228MPD1    H3 3520   0.623   1.730  13.198 -0.5233  1.1866  0.3519
  228MPD1     N 3521   0.263   1.842  12.955  0.8797 -0.4740 -0.1004
  228MPD1    H5 3522   0.231   1.876  12.865  0.6376  1.3931  0.6874
  228MPD1    N1 3523   0.683   1.765  12.759  0.1591 -0.1550  0.1014
  228MPD1    H6 3524   0.635   1.735  12.674  0.3151 -1.0250  0.3149
  228MPD1    H7 3525   0.771   1.714  12.772 -0.9602 -1.8886  0.8855
  229MPD1     C 3526   4.182   1.238  14.236  0.6495 -0.4631 -0.3464
  229MPD1    C1 3527   4.158   1.278  14.369  0.7128  0.0383  0.1042
  229MPD1    C2 3528   4.204   1.188  14.467 -0.6775 -0.0046  0.0506
  229MPD1    C3 3529   4.286   1.082  14.434 -0.1464  0.1992  0.8340
  229MPD1    C4 3530   4.317   1.053  14.301 -0.3548 -0.3447 -0.3385
  229MPD1    C5 3531   4.261   1.131  14.204 -0.2160  0.6070  0.2692
  229MPD1     H 3532   4.174   1.209  14.569  1.8348  2.1292  0.3501
  229MPD1    H1 3533   4.376   0.967  14.272  0.3252 -0.8671  2.6135
  229MPD1    H2 3534   4.126   1.298  14.164  0.7408 -1.1923 -1.0294
  229MPD1    H3 3535   4.292   1.109  14.103 -2.2933 -1.0292 -0.0092
  229MPD1     N 3536   4.345   0.988  14.532 -0.0360 -0.1654  0.3127
  229MPD1    H5 3537   4.411   0.922  14.491 -0.3423 -0.7610  0.7842
  229MPD1    N1 3538   4.065   1.382  14.395  0.1582 -0.6850 -0.3270
  229MPD1    H6 3539   4.085   1.427  14.484 -1.3458 -0.7092  0.0195
  229MPD1    H7 3540   4.087   1.454  14.326  1.5287 -0.5669  0.2244
  230MPD1     C 3541   4.352   0.392  15.439  0.0016 -0.6845  0.4770
  230MPD1    C1 3542   4.465   0.466  15.443 -0.0294 -0.5393 -1.3154
  230MPD1    C2 3543   4.482   0.561  15.348 -0.2008  0.3798  0.7593
  230MPD1    C3 3544   4.387   0.583  15.248  0.0787 -0.6851 -0.2450
  230MPD1    C4 3545   4.269   0.518  15.253 -0.1132 -0.2798 -0.1940
  230MPD1    C5 3546   4.252   0.424  15.346 -0.0701 -0.0538  0.4132
  230MPD1     H 3547   4.578   0.612  15.346 -0.2276  0.4730  1.8003
  230MPD1    H1 3548   4.189   0.531  15.180  1.0798  3.4774 -0.8448
  230MPD1    H2 3549   4.329   0.316  15.513 -2.3391 -1.9922 -1.5570
  230MPD1    H3 3550   4.169   0.355  15.332  1.2189 -1.6278  0.5297
  230MPD1     N 3551   4.419   0.666  15.139 -0.1220  1.0133 -0.2256
  230MPD1    H5 3552   4.514   0.701  15.133  1.0241 -1.7582  1.9957
  230MPD1    N1 3553   4.562   0.440  15.547  0.4371  0.1228  0.4279
  230MPD1    H6 3554   4.620   0.524  15.558  0.2051 -0.0631  3.0651
  230MPD1    H7 3555   4.518   0.409  15.633 -3.3167  0.4640 -1.3671
  231MPD1     C 3556   3.349   3.639  15.191 -0.4822 -0.8077  0.2245
  231MPD1    C1 3557   3.209   3.643  15.173  0.2923 -0.3790  0.1696
  231MPD1    C2 3558   3.159   3.555  15.079 -0.2982  0.1841  0.5120
  231MPD1    C3 3559   3.243   3.477  15.002 -0.5357  0.8626  0.1421
  231MPD1    C4 3560   3.377   3.487  15.008  0.3238  0.5931 -0.2028
  231MPD1    C5 3561   3.428   3.562  15.109  0.7185 -0.0251 -0.3364
  231MPD1     H 3562   3.051   3.549  15.070 -0.1063 -1.1858 -0.7890
  231MPD1    H1 3563   3.450   3.427  14.955 -0.4251 -1.0255  0.5918
  231MPD1    H2 3564   3.405   3.680  15.275  0.1227  0.3459 -0.7360
  231MPD1    H3 3565   3.536   3.559  15.118  0.6390 -0.6500  0.4383
  231MPD1     N 3566   3.173   3.382  14.924  0.1655  0.5222  0.0258
  231MPD1    H5 3567   3.073   3.370  14.939  0.0285  2.3919  0.7112
  231MPD1    N1 3568   3.124   3.707  15.265  0.0993  0.1097  0.2583
  231MPD1    H6 3569   3.159   3.770  15.336 -0.4839  0.5056  0.1919
  231MPD1    H7 3570   3.033   3.736  15.229 -0.4988 -1.3756  0.5539
  232MPD1     C 3571   3.881   4.465   0.153 -0.0258 -0.5814 -0.0415
  232MPD1    C1 3572   3.874   4.597   0.201 -0.0673 -0.0403  0.3769
  232MPD1    C2 3573   3.779   4.680   0.156  0.8297 -0.4186 -0.1031
  232MPD1    C3 3574   3.680   4.646   0.061  0.0653  0.1892 -0.0454
  232MPD1    C4 3575   3.701   4.518   0.007  0.4047 -0.4603  0.9670
  232MPD1    C5 3576   3.795   4.429   0.053 -0.4321  0.5777 -0.0558
  232MPD1     H 3577   3.773   0.041   0.198  1.7209 -0.6266  0.5249
  232MPD1    H1 3578   3.631   4.484  17.685  2.1537  0.2532 -0.9738
  232MPD1    H2 3579   3.948   4.393   0.198 -1.6726 -2.2584 -0.2790
  232MPD1    H3 3580   3.792   4.327   0.016  1.0292  0.2652  0.7235
  232MPD1     N 3581   3.578   0.002   0.030 -0.0696  0.3154  0.4736
  232MPD1    H5 3582   3.550   0.075   0.094  0.1589 -0.3894  1.3798
  232MPD1    N1 3583   3.947   4.623   0.321  0.0183  0.6637 -0.4138
  232MPD1    H6 3584   4.027   4.561   0.315 -0.0262  0.7117 -1.4795
  232MPD1    H7 3585   3.984   4.718   0.324 -0.4210  0.7954  1.2068
  233MPD1     C 3586   0.795   3.783   1.180 -0.4046  0.3682  0.3926
  233MPD1    C1 3587   0.804   3.656   1.230 -0.2119 -0.3788 -0.8957
  233MPD1    C2 3588   0.921   3.623   1.302  0.0851 -0.2278  0.1904
  233MPD1    C3 3589   1.021   3.712   1.315 -0.7436  0.0359  0.6632
  233MPD1    C4 3590   1.012   3.833   1.246 -0.4123  0.4194 -0.1083
  233MPD1    C5 3591   0.904   3.866   1.178  0.2762 -0.1208  0.3535
  233MPD1     H 3592   0.931   3.525   1.346  0.8150  0.1775  0.9192
  233MPD1    H1 3593   1.091   3.906   1.250 -1.3076  1.3562  0.4021
  233MPD1    H2 3594   0.705   3.825   1.136 -1.2954 -0.6503  1.2789
  233MPD1    H3 3595   0.878   3.966   1.147  1.8039 -0.0335 -0.6118
  233MPD1     N 3596   1.132   3.701   1.395 -0.6102 -0.0774  0.7627
  233MPD1    H5 3597   1.203   3.771   1.374  0.1258 -0.0762  3.2753
  233MPD1    N1 3598   0.698   3.564   1.225 -0.3364  0.0667 -0.8563
  233MPD1    H6 3599   0.731   3.468   1.215  0.6654  0.4297 -1.0209
  233MPD1    H7 3600   0.650   3.589   1.139  0.3251 -2.8213 -2.0675
  234MPD1     C 3601   2.168   1.725   9.526 -0.9428 -0.0439 -0.1533
  234MPD1    C1 3602   2.067   1.739   9.620  0.3414  0.6514  0.4863
  234MPD1    C2 3603   1.972   1.843   9.610 -0.4622 -0.7193 -0.2527
  234MPD1    C3 3604   1.980   1.932   9.507 -0.5925  0.1246  0.2608
  234MPD1    C4 3605   2.078   1.920   9.414  0.0314 -0.1368 -0.3831
  234MPD1    C5 3606   2.169   1.814   9.415 -0.5107 -0.4440  0.1958
  234MPD1     H 3607   1.907   1.874   9.691  0.5384  1.2271 -0.1799
  234MPD1    H1 3608   2.097   1.999   9.343  1.3618  0.7432  0.9530
  234MPD1    H2 3609   2.246   1.650   9.523 -0.0333  0.9759 -1.6653
  234MPD1    H3 3610   2.244   1.815   9.337 -1.8418  0.5001 -1.0739
  234MPD1     N 3611   1.890   2.044   9.507 -0.8704  0.1411 -0.1233
  234MPD1    H5 3612   1.819   2.051   9.579  0.0321 -0.4031  0.8157
  234MPD1    N1 3613   2.066   1.659   9.736  0.1646  0.3230 -0.1598
  234MPD1    H6 3614   2.106   1.566   9.720 -0.6182 -0.1018  0.3410
  234MPD1    H7 3615   1.971   1.636   9.765  0.0406  1.7013  0.5470
  235MPD1     C 3616   3.733   1.013  11.475  0.3459 -0.1989 -0.9003
  235MPD1    C1 3617   3.763   0.894  11.410 -0.6869 -0.2145 -0.0880
  235MPD1    C2 3618   3.837   0.893  11.296 -0.2547  0.8934 -0.1858
  235MPD1    C3 3619   3.899   1.006  11.243 -0.4576 -0.5581 -0.0741
  235MPD1    C4 3620   3.884   1.129  11.309 -0.5670 -1.1395  0.5808
  235MPD1    C5 3621   3.796   1.128  11.418  0.2480 -0.1632  0.2978
  235MPD1     H 3622   3.845   0.802  11.239  0.8629 -0.7499  2.6107
  235MPD1    H1 3623   3.930   1.224  11.283  0.2451 -0.9447  2.7579
  235MPD1    H2 3624   3.666   1.021  11.559  0.9425 -0.3289 -0.4125
  235MPD1    H3 3625   3.800   1.222  11.473  0.1651 -0.1222  0.2356
  235MPD1     N 3626   3.990   0.985  11.135  0.1556 -0.1154  0.2102
  235MPD1    H5 3627   4.010   0.889  11.111 -0.0887  0.2435 -1.4252
  235MPD1    N1 3628   3.703   0.774  11.451 -0.7894 -0.0105  0.0162
  235MPD1    H6 3629   3.758   0.694  11.421 -0.9808  0.6069 -2.0330
  235MPD1    H7 3630   3.693   0.772  11.552 -1.1247 -0.5852 -0.0290
  236MPD1     C 3631   2.557   0.777   9.864  0.0649 -0.7793 -0.4980
  236MPD1    C1 3632   2.605   0.906   9.869 -0.2555 -0.3108 -0.5987
  236MPD1    C2 3633   2.710   0.935   9.960 -0.2425 -0.4526  0.0090
  236MPD1    C3 3634   2.775   0.827  10.025 -0.3582  0.6980 -1.1315
  236MPD1    C4 3635   2.718   0.701  10.019  0.2780  0.6875 -0.9280
  236MPD1    C5 3636   2.608   0.676   9.948  0.4746 -0.7510 -0.3879
  236MPD1     H 3637   2.746   1.036   9.972  0.2552 -0.3801 -2.0444
  236MPD1    H1 3638   2.751   0.615  10.075  0.5024  1.2203 -0.2369
  236MPD1    H2 3639   2.470   0.759   9.801  1.3475 -2.5191 -1.7730
  236MPD1    H3 3640   2.568   0.575   9.950 -2.6042  0.5406  3.0208
  236MPD1     N 3641   2.884   0.836  10.116  0.1294  0.4684 -0.1651
  236MPD1    H5 3642   2.910   0.753  10.169 -1.5626 -0.3113 -0.5670
  236MPD1    N1 3643   2.531   1.015   9.817  0.4703 -0.3796 -0.2058
  236MPD1    H6 3644   2.471   0.999   9.737  0.1091  2.1668 -0.4199
  236MPD1    H7 3645   2.576   1.105   9.804  0.4392 -0.4368 -0.7260
  237MPD1     C 3646   2.794   0.265  14.833  0.1851  0.4754  0.0308
  237MPD1    C1 3647   2.738   0.216  14.951  0.2236 -0.2563 -0.2034
  237MPD1    C2 3648   2.728   0.078  14.970  0.0346 -0.5562 -0.1925
  237MPD1    C3 3649   2.777   4.728  14.875 -0.8286  0.0846  0.3732
  237MPD1    C4 3650   2.830   0.036  14.758  0.2282  0.4834 -0.6656
  237MPD1    C5 3651   2.833   0.175  14.737  0.8075  0.1362  0.1496
  237MPD1     H 3652   2.690   0.048  15.066  1.4183  1.1338  0.8825
  237MPD1    H1 3653   2.869   4.709  14.681  2.0149 -1.3511  1.7739
  237MPD1    H2 3654   2.808   0.373  14.828 -1.1204  0.6376 -0.1250
  237MPD1    H3 3655   2.876   0.226  14.651  1.8221 -2.0910 -0.6483
  237MPD1     N 3656   2.785   4.586  14.895  0.7049 -0.1973 -0.3215
  237MPD1    H5 3657   2.830   4.524  14.828 -0.8186 -1.5987 -0.0558
  237MPD1    N1 3658   2.662   0.294  15.037  0.8648 -0.2070 -0.2026
  237MPD1    H6 3659   2.655   0.256  15.131  1.4790 -2.6959 -1.1751
  237MPD1    H7 3660   2.692   0.390  15.053  1.3322 -0.3249 -0.3793
  238MPD1     C 3661   0.317   3.052  14.886  0.8636 -0.5332 -0.2214
  238MPD1    C1 3662   0.227   3.072  14.984  0.5537  0.7022  0.3574
  238MPD1    C2 3663   0.108   2.996  14.976  0.6514  0.7998 -0.2264
  238MPD1    C3 3664   0.099   2.880  14.900  0.2562 -0.1726 -0.0074
  238MPD1    C4 3665   0.208   2.852  14.820 -0.4143 -0.3520  0.0052
  238MPD1    C5 3666   0.311   2.937  14.816  0.5067 -0.2451 -0.6244
  238MPD1     H 3667   0.039   3.011  15.058  0.6893  0.3185 -0.1012
  238MPD1    H1 3668   0.224   2.765  14.757  0.9868  0.2975 -0.5328
  238MPD1    H2 3669   0.397   3.125  14.875 -0.6204  1.3338  1.4195
  238MPD1    H3 3670   0.395   2.923  14.748  0.5462 -0.8254 -0.4574
  238MPD1     N 3671   4.724   2.801  14.898  0.5374  0.1701  0.0915
  238MPD1    H5 3672   4.724   2.717  14.840 -1.5871 -0.3865  0.9067
  238MPD1    N1 3673   0.228   3.185  15.065  0.0286  0.2179  0.1395
  238MPD1    H6 3674   0.159   3.169  15.137  0.5174 -0.2714  0.5004
  238MPD1    H7 3675   0.318   3.204  15.109  0.3408  0.0584 -0.4300
  239MPD1     C 3676   4.508   3.332  14.677  0.1050  0.6256  0.3257
  239MPD1    C1 3677   4.615   3.398  14.726 -0.3110 -0.0436 -0.2006
  239MPD1    C2 3678   4.657   3.515  14.657 -0.1486  0.1284  0.3548
  239MPD1    C3 3679   4.587   3.580  14.560 -0.5077 -0.1259  0.6613
  239MPD1    C4 3680   4.478   3.506  14.504  0.9471  0.4016 -0.1027
  239MPD1    C5 3681   4.443   3.383  14.568  0.1877  0.5042 -0.1636
  239MPD1     H 3682   0.012   3.558  14.692  0.7826 -2.0800  0.5656
  239MPD1    H1 3683   4.418   3.540  14.420  3.8752  1.7431 -1.6709
  239MPD1    H2 3684   4.467   3.241  14.721 -0.4906 -0.2670 -2.0570
  239MPD1    H3 3685   4.362   3.326  14.525  0.1253  1.1982 -0.9702
  239MPD1     N 3686   4.629   3.700  14.492  0.1569 -0.3496  0.1244
  239MPD1    H5 3687   4.565   3.747  14.429 -1.0246 -0.7094  1.0548
  239MPD1    N1 3688   4.698   3.332  14.818  0.1528  0.0837  1.0888
  239MPD1    H6 3689   0.005   3.405  14.873  1.3741 -0.0813  0.2910
  239MPD1    H7 3690   4.651   3.266  14.879 -2.2395  0.8463  0.0628
  240MPD1     C 3691   0.088   3.072  14.109  0.1047  0.0522 -0.0073
  240MPD1    C1 3692   4.706   3.099  14.055  0.2465  0.1918 -0.0212
  240MPD1    C2 3693   4.595   3.107  14.141 -0.3381  0.3417  0.2141
  240MPD1    C3 3694   4.607   3.074  14.277  0.3890 -0.3529  0.1145
  240MPD1    C4 3695   4.737   3.056  14.325 -1.0827  0.2190 -0.2401
  240MPD1    C5 3696   0.104   3.042  14.243 -1.0906 -0.0813  0.4217
  240MPD1     H 3697   4.500   3.140  14.101  0.2068 -0.4269 -1.7542
  240MPD1    H1 3698   0.016   3.040  14.431  3.0635  3.5116 -0.4696
  240MPD1    H2 3699   0.171   3.066  14.040  0.9971  0.1019  1.0572
  240MPD1    H3 3700   0.201   3.039  14.292 -0.1028  0.8584 -1.4876
  240MPD1     N 3701   4.493   3.071  14.357  0.4958  0.5696  0.4038
  240MPD1    H5 3702   4.516   3.041  14.451 -1.8813 -1.5317  0.3095
  240MPD1    N1 3703   4.692   3.142  13.924  0.0823  0.0429 -0.0895
  240MPD1    H6 3704   4.723   3.238  13.909 -0.5364  0.3995  0.9215
  240MPD1    H7 3705   4.595   3.143  13.893 -0.8681 -1.6652  2.8749
  241MPD1     C 3706   4.119   2.994  15.280  0.6120 -0.4525 -0.8961
  241MPD1    C1 3707   4.240   2.989  15.218 -0.2630  0.3962  0.2890
  241MPD1    C2 3708   4.237   2.985  15.077 -0.7835 -0.3563  0.0867
  241MPD1    C3 3709   4.123   2.985  14.994  0.0352  0.0006  0.0872
  241MPD1    C4 3710   4.007   2.987  15.064  0.1839  1.2090 -0.6978
  241MPD1    C5 3711   4.007   2.985  15.202 -0.2247 -0.3310  0.3362
  241MPD1     H 3712   4.337   2.976  15.035 -1.4746  0.5585 -1.7798
  241MPD1    H1 3713   3.909   2.978  15.019 -0.1472 -1.0412  0.4914
  241MPD1    H2 3714   4.111   2.979  15.387 -1.2986 -1.4818 -1.1905
  241MPD1    H3 3715   3.905   2.985  15.239 -0.9612 -1.2459 -1.6647
  241MPD1     N 3716   4.121   2.986  14.856  0.1217  0.4207 -1.1339
  241MPD1    H5 3717   4.035   2.974  14.803 -0.0055  0.8361 -1.0236
  241MPD1    N1 3718   4.356   2.945  15.293  0.1994  0.3787  0.2988
  241MPD1    H6 3719   4.443   2.970  15.248 -0.9444  0.9766 -1.5999
  241MPD1    H7 3720   4.357   2.976  15.389 -2.5352 -0.2965  0.5436
  242MPD1     C 3721   4.220   1.402  16.126 -0.7496 -0.5489  0.2339
  242MPD1    C1 3722   4.280   1.486  16.037 -0.2455 -0.7231 -0.2318
  242MPD1    C2 3723   4.304   1.434  15.911 -0.0727  0.2235  0.6664
  242MPD1    C3 3724   4.296   1.297  15.879  0.3438 -0.6563  0.2092
  242MPD1    C4 3725   4.248   1.209  15.974  0.2807 -0.4273  0.0860
  242MPD1    C5 3726   4.205   1.265  16.097 -0.1005 -0.1363  0.3336
  242MPD1     H 3727   4.328   1.499  15.827 -1.0265 -0.6522 -0.2922
  242MPD1    H1 3728   4.245   1.102  15.959  1.6701 -0.3923 -0.4178
  242MPD1    H2 3729   4.188   1.427  16.227 -0.9052 -0.4947  0.1713
  242MPD1    H3 3730   4.171   1.194  16.172  0.7723 -1.2222 -0.2929
  242MPD1     N 3731   4.333   1.241  15.751  0.1438 -0.0848 -0.0466
  242MPD1    H5 3732   4.349   1.141  15.755  1.2888  0.1232  0.5658
  242MPD1    N1 3733   4.284   1.624  16.061 -0.3908  0.0723  0.1397
  242MPD1    H6 3734   4.362   1.670  16.014 -0.9614 -1.1447 -1.9612
  242MPD1    H7 3735   4.285   1.643  16.161 -0.5732 -3.4159  0.8219
  243MPD1     C 3736   4.405   0.496  17.356 -1.0431 -0.4263 -0.2239
  243MPD1    C1 3737   4.480   0.534  17.469 -0.7837  0.1867  0.1995
  243MPD1    C2 3738   4.613   0.562  17.444  0.6167  0.5882  0.0354
  243MPD1    C3 3739   4.668   0.538  17.321 -0.0372 -0.8103  0.2400
  243MPD1    C4 3740   4.592   0.488  17.215  0.3605  1.1274  0.3295
  243MPD1    C5 3741   4.457   0.468  17.232  0.4820  0.4965 -0.9121
  243MPD1     H 3742   4.681   0.600  17.520  1.1877  3.4536 -1.8970
  243MPD1    H1 3743   4.630   0.481  17.114 -1.6360 -0.8089 -0.2853
  243MPD1    H2 3744   4.299   0.481  17.374 -1.2376  2.1190  0.7804
  243MPD1    H3 3745   4.394   0.414  17.161  0.0974  0.4337 -0.5269
  243MPD1     N 3746   0.071   0.552  17.311  0.0590 -0.0435 -0.1684
  243MPD1    H5 3747   0.124   0.577  17.393 -0.4230 -0.8920  0.4060
  243MPD1    N1 3748   4.423   0.567  17.591  0.4781  0.4021  0.4414
  243MPD1    H6 3749   4.484   0.538  17.667  2.7003 -0.9699 -1.8704
  243MPD1    H7 3750   4.335   0.516  17.591  0.8666 -0.2995 -1.4949
  244MPD1     C 3751   0.690   4.615  17.523 -0.3522  0.1513  0.3772
  244MPD1    C1 3752   0.692   4.628  17.388 -0.2722  0.1703  0.3058
  244MPD1    C2 3753   0.635   0.003  17.333 -0.7778 -0.0566 -0.5466
  244MPD1    C3 3754   0.599   0.111  17.411  0.3831 -0.7345 -0.2940
  244MPD1    C4 3755   0.613   0.105  17.547  0.4380 -0.5015  0.4648
  244MPD1    C5 3756   0.659   4.723  17.600  0.6420 -0.3010 -0.2126
  244MPD1     H 3757   0.630   0.001  17.224 -1.2120  1.5896 -0.5567
  244MPD1    H1 3758   0.585   0.183  17.617 -0.6960  0.2832 -0.8804
  244MPD1    H2 3759   0.712   4.517  17.564  0.1279 -0.2801 -0.9095
  244MPD1    H3 3760   0.668   4.717  17.708  1.0429  0.7031 -0.1870
  244MPD1     N 3761   0.552   0.221  17.338 -0.1879 -0.4017  0.4577
  244MPD1    H5 3762   0.534   0.232  17.239 -1.5712  3.5757  1.1129
  244MPD1    N1 3763   0.719   4.517  17.308  0.2375 -0.0576 -0.2769
  244MPD1    H6 3764   0.752   4.559  17.221  2.3967  0.1120  0.6170
  244MPD1    H7 3765   0.795   4.457  17.337  0.1422 -0.1229 -0.1653
  245MPD1     C 3766   2.935   0.479  13.126 -0.0590 -0.4398 -0.1258
  245MPD1    C1 3767   2.857   0.595  13.118 -0.2424 -0.2496 -0.6438
  245MPD1    C2 3768   2.865   0.682  13.227 -0.2389 -0.7823  0.1133
  245MPD1    C3 3769   2.938   0.653  13.339 -0.2391  0.2525  0.4562
  245MPD1    C4 3770   3.012   0.539  13.350  0.2599  0.3310  0.2687
  245MPD1    C5 3771   3.009   0.456  13.239 -0.5675  0.1460 -0.1720
  245MPD1     H 3772   2.813   0.776  13.211 -0.8895 -1.2948 -0.8138
  245MPD1    H1 3773   3.091   0.523  13.421 -1.0257 -1.8880  1.2046
  245MPD1    H2 3774   2.968   0.423  13.039 -0.9500 -2.0123  0.5521
  245MPD1    H3 3775   3.077   0.372  13.246  2.1944  2.4807  0.7664
  245MPD1     N 3776   2.943   0.743  13.449 -0.0071  0.3645 -0.4524
  245MPD1    H5 3777   2.905   0.835  13.426 -0.9624 -0.2284 -1.2417
  245MPD1    N1 3778   2.801   0.637  13.000 -0.2150  0.6424 -1.0655
  245MPD1    H6 3779   2.727   0.703  13.024 -1.2453 -0.5138 -1.1152
  245MPD1    H7 3780   2.757   0.561  12.949 -0.4194 -1.0806  1.7167
  246MPD1     C 3781   3.402   4.088   9.854 -0.3155  0.3986 -0.0100
  246MPD1    C1 3782   3.468   4.092   9.735  0.5477  0.9156 -0.4086
  246MPD1    C2 3783   3.503   4.222   9.686 -0.0204 -0.6525  0.3866
  246MPD1    C3 3784   3.508   4.332   9.777 -0.8539  0.3625  0.0107
  246MPD1    C4 3785   3.458   4.315   9.904  0.0735  0.6075 -0.1699
  246MPD1    C5 3786   3.391   4.198   9.933 -0.9508  0.5117 -0.3612
  246MPD1     H 3787   3.531   4.237   9.582  3.6474  0.8578  1.5966
  246MPD1    H1 3788   3.451   4.399   9.972  0.1759 -1.7774  2.7911
  246MPD1    H2 3789   3.365   3.992   9.890 -0.7336  0.4295 -0.3473
  246MPD1    H3 3790   3.347   4.189  10.032  0.4998 -0.4226  0.2037
  246MPD1     N 3791   3.569   4.450   9.725  0.0371 -0.2176 -0.1906
  246MPD1    H5 3792   3.598   4.451   9.628  1.9515  0.2292  0.3891
  246MPD1    N1 3793   3.447   3.984   9.650 -0.9063  0.2235 -0.0181
  246MPD1    H6 3794   3.533   3.979   9.595  0.0960 -1.0691  1.6722
  246MPD1    H7 3795   3.438   3.889   9.686 -1.4928 -0.3131 -1.5684
  247MPD1     C 3796   2.214   2.101  16.234  0.2100  0.3484 -0.0569
  247MPD1    C1 3797   2.285   2.090  16.117  0.6924 -0.1352  0.3476
  247MPD1    C2 3798   2.243   1.989  16.038  0.0149 -0.4693  0.9148
  247MPD1    C3 3799   2.120   1.936  16.051 -0.0117 -0.6197  0.0003
  247MPD1    C4 3800   2.036   1.962  16.161  0.5646  0.0616  0.1092
  247MPD1    C5 3801   2.089   2.042  16.255  0.1396  0.2223 -0.0063
  247MPD1     H 3802   2.310   1.968  15.955 -0.0255  1.4164  0.4026
  247MPD1    H1 3803   1.935   1.923  16.168  1.1017 -1.4818 -0.7131
  247MPD1    H2 3804   2.263   2.158  16.311 -1.9676  1.8766  0.1854
  247MPD1    H3 3805   2.027   2.065  16.341 -1.3151  1.7402 -1.4676
  247MPD1     N 3806   2.071   1.838  15.966  0.6200 -0.1404 -0.0028
  247MPD1    H5 3807   1.977   1.805  15.982  0.2389  1.3890  0.9333
  247MPD1    N1 3808   2.404   2.163  16.107 -0.0134  0.2832  0.5927
  247MPD1    H6 3809   2.423   2.179  16.008 -0.6458  0.8726  0.5694
  247MPD1    H7 3810   2.403   2.251  16.157  0.7686 -0.3379  1.7004
  248MPD1     C 3811   1.562   0.849  16.751  0.1093 -0.6618 -0.1963
  248MPD1    C1 3812   1.648   0.755  16.806 -0.0507 -0.3236  0.5141
  248MPD1    C2 3813   1.690   0.784  16.934 -0.0119 -0.5757  0.5159
  248MPD1    C3 3814   1.623   0.877  17.014  0.4463  0.2851  0.0293
  248MPD1    C4 3815   1.525   0.955  16.954 -0.5471  0.2896 -0.3439
  248MPD1    C5 3816   1.493   0.938  16.824  0.7654 -0.6001 -0.4541
  248MPD1     H 3817   1.769   0.722  16.975  0.1100  0.0026  1.1781
  248MPD1    H1 3818   1.483   1.039  17.008 -2.8733 -1.7590  1.0486
  248MPD1    H2 3819   1.522   0.844  16.650 -4.3458 -1.9564  1.6475
  248MPD1    H3 3820   1.418   0.999  16.775  0.5855 -1.5809 -1.4055
  248MPD1     N 3821   1.663   0.886  17.152  0.0957  0.7875  0.5161
  248MPD1    H5 3822   1.748   0.835  17.174  0.0720  0.9620  1.0118
  248MPD1    N1 3823   1.719   0.679  16.720 -0.9870 -0.3482 -0.4197
  248MPD1    H6 3824   1.657   0.648  16.645 -1.2436  2.7960 -1.4972
  248MPD1    H7 3825   1.751   0.589  16.756 -0.7081 -0.1318 -0.1354
  249MPD1     C 3826   4.528   0.235   9.670 -0.3235 -0.0364 -0.0147
  249MPD1    C1 3827   4.514   0.258   9.806 -0.3085  0.0720  0.1626
  249MPD1    C2 3828   4.595   0.358   9.858  0.2275 -0.0041 -0.0092
  249MPD1    C3 3829   4.676   0.439   9.775  0.2612  0.3824 -0.4568
  249MPD1    C4 3830   4.679   0.412   9.639  0.0483  1.0185 -0.0790
  249MPD1    C5 3831   4.596   0.316   9.591  0.6482 -0.3437  0.0884
  249MPD1     H 3832   4.591   0.372   9.965  0.1612  3.2496 -0.4155
  249MPD1    H1 3833   0.006   0.467   9.573 -0.4696  1.3737 -0.3041
  249MPD1    H2 3834   4.473   0.152   9.627 -0.5650 -0.2568  0.7152
  249MPD1    H3 3835   4.607   0.295   9.486 -0.1447  0.4489 -0.1486
  249MPD1     N 3836   0.028   0.528   9.834  0.3864  0.0359 -0.2155
  249MPD1    H5 3837   0.039   0.517   9.934 -0.3147 -2.5451 -0.4376
  249MPD1    N1 3838   4.450   0.162   9.884 -0.0358 -0.3090  0.2064
  249MPD1    H6 3839   4.433   0.196   9.979  0.2206 -0.2327  0.2268
  249MPD1    H7 3840   4.369   0.112   9.848  1.5745 -2.0613 -0.9717
  250MPD2     C 3841   1.173   4.000  13.247  0.0863 -0.4524  1.2537
  250MPD2    C1 3842   1.221   4.082  13.140  0.5736  1.0842 -0.3862
  250MPD2    C2 3843   1.200   4.041  13.006  0.0675  0.2414 -0.0127
  250MPD2    C3 3844   1.121   3.927  12.981  0.5498 -0.5515 -0.0886
  250MPD2    C4 3845   1.074   3.851  13.089 -0.3510  0.6061  0.2523
  250MPD2    C5 3846   1.104   3.892  13.221 -0.5253 -0.2706 -0.2616
  250MPD2     H 3847   1.255   4.095  12.929 -1.5699 -0.4230 -1.6501
  250MPD2    H1 3848   1.016   3.762  13.072  0.9563 -0.1247 -0.3385
  250MPD2    H2 3849   1.201   4.024  13.349 -0.7618 -1.5192  1.7328
  250MPD2    H3 3850   1.064   3.832  13.302  2.0821 -0.5752  0.8061
  250MPD2     N 3851   1.097   3.878  12.851  0.3547  1.0358 -0.6133
  250MPD2    H5 3852   1.050   3.789  12.842 -0.1606  1.2583 -0.1440
  250MPD2    N1 3853   1.307   4.199  13.164 -0.3923  0.1506  0.3015
  250MPD2    H7 3854   1.350   4.237  13.080 -0.7705  0.1708  0.1186
  251TMC3    C1 3855   1.389   4.390  13.270  0.2382 -0.0036 -0.0754
  251TMC3    C2 3856   1.334   4.513  13.312 -0.0525  0.2287  0.0509
  251TMC3    C3 3857   1.402   4.626  13.275 -0.0907 -0.4887  0.1493
  251TMC3    C4 3858   1.507   4.377  13.200 -0.6390 -0.5727  0.0025
  251TMC3    C5 3859   1.566   4.493  13.172 -0.1083 -0.3187 -0.0802
  251TMC3    C6 3860   1.519   4.617  13.192  0.4743 -0.0841 -0.8697
  251TMC3     C 3861   1.292   4.277  13.278 -0.6177  0.1213  0.2953
  251TMC3     O 3862   1.208   4.283  13.365  0.1747 -0.6127  0.2545
  251TMC3     H 3863   1.258   4.533  13.387  1.7309  0.6797  1.7388
  251TMC3    H1 3864   1.546   4.278  13.185  2.5213  0.8734 -1.2429
  251TMC3    H2 3865   1.582   4.701  13.167 -3.8481  3.4436 -0.0639
  251TMC3    C7 3866   1.711   4.472  13.173  0.0907 -0.4342  0.1565
  251TMC3    C8 3867   1.323   0.006  13.280  1.0369  0.1944  0.4187
  251TMC3    O1 3868   1.746   4.356  13.156  0.1848  0.0954 -0.3193
  251TMC3    O2 3869   1.211   0.006  13.325 -0.3033 -0.0225  0.4782
  252TMC3    C1 3870   0.954   1.321   9.001  0.1467  0.2503  0.4396
  252TMC3    C2 3871   1.078   1.314   9.048 -0.0836  0.1346 -0.4369
  252TMC3    C3 3872   1.093   1.279   9.181 -0.2998  0.4765 -0.1750
  252TMC3    C4 3873   0.843   1.295   9.076  0.2341 -0.2917 -0.0365
  252TMC3    C5 3874   0.864   1.262   9.208  0.7266  0.6685 -0.0814
  252TMC3    C6 3875   0.983   1.251   9.266 -0.4111 -0.1995  0.2099
  252TMC3     C 3876   0.939   1.354   8.864  0.2372  0.1090 -1.0475
  252TMC3     O 3877   1.038   1.390   8.803 -0.1982 -0.7747 -0.4092
  252TMC3     H 3878   1.165   1.337   8.989 -0.0697  2.4759  0.4851
  252TMC3    H1 3879   0.740   1.312   9.047  0.1190 -0.6675  0.1532
  252TMC3    H2 3880   0.995   1.235   9.373 -2.9387 -4.1885 -0.0990
  252TMC3    C7 3881   0.744   1.206   9.268  0.5713 -0.6390  0.2089
  252TMC3    C8 3882   1.235   1.264   9.228  0.7768 -0.1540  0.7026
  252TMC3    O1 3883   0.637   1.242   9.219  0.0437  0.2519 -0.5103
  252TMC3    O2 3884   1.309   1.323   9.157  0.0562 -0.0445  0.4311
  253MPD2     C 3885   2.008   4.155  15.045  0.0194  0.3022  0.3870
  253MPD2    C1 3886   1.876   4.175  15.071  0.2433  0.1280  0.4491
  253MPD2    C2 3887   1.832   4.174  15.206 -0.0846 -0.1670  0.3339
  253MPD2    C3 3888   1.922   4.152  15.307  0.0542  0.0980  0.3798
  253MPD2    C4 3889   2.048   4.134  15.279  0.3079 -0.8089  0.1701
  253MPD2    C5 3890   2.104   4.137  15.153  0.0031 -0.1272 -0.0139
  253MPD2     H 3891   1.732   4.193  15.244  0.2801 -0.1136  1.2553
  253MPD2    H1 3892   2.120   4.122  15.359 -0.4346 -0.3426  0.9081
  253MPD2    H2 3893   2.037   4.148  14.942 -1.8052  0.2623 -0.1334
  253MPD2    H3 3894   2.210   4.129  15.134 -0.4956  1.1112 -3.2635
  253MPD2     N 3895   1.882   4.146  15.446 -0.3165 -0.0983  0.0612
  253MPD2    H5 3896   1.958   4.121  15.508  2.0571 -1.0004 -3.1644
  253MPD2    N1 3897   1.777   4.203  14.973  0.1995  0.8721  0.0522
  253MPD2    H7 3898   1.678   4.200  14.996 -0.2043 -2.1334 -2.0278
  254TMC3    C1 3899   1.751   4.165  15.635  0.3155  0.1970  0.4553
  254TMC3    C2 3900   1.698   4.269  15.711 -0.4897 -0.0799 -0.0397
  254TMC3    C3 3901   1.699   4.250  15.848 -0.8990  1.4042  0.3219
  254TMC3    C4 3902   1.807   4.052  15.693  0.1950  0.3765  0.5789
  254TMC3    C5 3903   1.798   4.036  15.829  0.2262 -0.0248 -0.6044
  254TMC3    C6 3904   1.746   4.139  15.908 -0.6244 -0.2384 -0.3147
  254TMC3     C 3905   1.764   4.194  15.492  0.4435  0.9465 -0.0225
  254TMC3     O 3906   1.669   4.246  15.441 -0.0478  0.0582 -0.0228
  254TMC3     H 3907   1.673   4.367  15.672 -0.5314 -0.4180 -0.8518
  254TMC3    H1 3908   1.842   3.979  15.621  0.2903  0.3501  0.6526
  254TMC3    H2 3909   1.732   4.130  16.016 -1.6236  1.5377 -0.2963
  254TMC3    C7 3910   1.834   3.908  15.896 -0.6015  0.3073  0.4473
  254TMC3    C8 3911   1.621   4.337  15.932 -0.2565  0.2428 -0.4462
  254TMC3    O1 3912   1.809   3.900  16.012  0.2110 -0.1328 -0.1006
  254TMC3    O2 3913   1.643   4.332  16.053  0.2169 -0.4360  0.0917
  255MPD2     C 3914   0.287   2.040  10.351  0.4743  0.2120 -0.1946
  255MPD2    C1 3915   0.254   2.177  10.364  0.1147 -0.3404  0.6529
  255MPD2    C2 3916   0.334   2.275  10.309 -1.1263 -0.5808  0.4058
  255MPD2    C3 3917   0.453   2.237  10.249  0.1773 -0.9799  0.6888
  255MPD2    C4 3918   0.490   2.107  10.239  0.6431  0.3641  0.6576
  255MPD2    C5 3919   0.411   2.005  10.298 -0.1181 -0.9218 -0.0783
  255MPD2     H 3920   0.309   2.381  10.311 -0.1702 -0.3546  0.2087
  255MPD2    H1 3921   0.581   2.083  10.184  0.5297  0.9753  0.2037
  255MPD2    H2 3922   0.216   1.963  10.379  1.1372 -0.6441 -0.8670
  255MPD2    H3 3923   0.440   1.901  10.291 -2.3029 -1.3631 -2.6771
  255MPD2     N 3924   0.522   2.345  10.193 -0.8429 -0.3383 -0.1026
  255MPD2    H5 3925   0.477   2.436  10.195 -0.0076  0.0795 -0.5364
  255MPD2    N1 3926   0.130   2.202  10.424  0.3190 -0.2392  0.0686
  255MPD2    H7 3927   0.075   2.123  10.458 -0.1872  0.1527  0.1607
  256TMC3    C1 3928   4.675   2.325  10.485  0.0115 -0.2904 -0.4363
  256TMC3    C2 3929   4.620   2.448  10.486 -0.2419  0.3280  0.1275
  256TMC3    C3 3930   4.481   2.451  10.481 -0.1740  0.3941  0.3205
  256TMC3    C4 3931   4.604   2.202  10.476  0.3962  0.4003 -0.3601
  256TMC3    C5 3932   4.467   2.216  10.479  0.0713  1.2378 -0.1864
  256TMC3    C6 3933   4.403   2.336  10.476 -0.2441  0.0071  0.3269
  256TMC3     C 3934   0.072   2.328  10.441  0.1163 -0.0440  1.0473
  256TMC3     O 3935   0.105   2.436  10.396 -0.3412  1.0449 -0.4680
  256TMC3     H 3936   4.687   2.533  10.492  0.5811 -0.3070 -0.1170
  256TMC3    H1 3937   4.646   2.104  10.493 -0.1714  0.1022 -0.6684
  256TMC3    H2 3938   4.296   2.346  10.460  0.2517  1.1917 -2.1065
  256TMC3    C7 3939   4.369   2.109  10.442  0.3835 -0.0954 -0.0101
  256TMC3    C8 3940   4.432   2.560  10.393 -0.2115  0.5751 -0.1101
  256TMC3    O1 3941   4.246   2.121  10.466 -0.2043 -0.8040 -0.3630
  256TMC3    O2 3942   4.315   2.574  10.365 -0.0394  0.0558  0.1473
  257MPD2     C 3943   0.001   4.410  13.295  0.1714 -0.7267  1.2987
  257MPD2    C1 3944   4.648   4.352  13.206  0.9764  0.0752  0.1547
  257MPD2    C2 3945   4.621   4.217  13.212 -0.5720 -0.0421  0.7795
  257MPD2    C3 3946   4.673   4.136  13.311 -0.0074 -0.7076  0.9140
  257MPD2    C4 3947   0.015   4.194  13.402 -0.3695 -0.3584  0.1470
  257MPD2    C5 3948   0.047   4.325  13.394 -0.1221  0.0461 -0.3903
  257MPD2     H 3949   4.563   4.183  13.127  0.1698  0.2102  0.1777
  257MPD2    H1 3950   0.055   4.138  13.486  1.2662 -1.9265 -1.7033
  257MPD2    H2 3951   0.024   4.514  13.275  0.5870 -1.3653 -1.6135
  257MPD2    H3 3952   0.122   4.376  13.453  0.2471  0.7112 -1.4394
  257MPD2     N 3953   4.622   4.004  13.311 -0.0158  0.7233  0.4293
  257MPD2    H5 3954   4.573   3.977  13.227  0.7809 -0.0141  0.1892
  257MPD2    N1 3955   4.590   4.436  13.104 -0.4842  0.6588  0.2897
  257MPD2    H7 3956   4.620   4.533  13.100  2.0126 -0.0110  2.4464
  258TMC3    C1 3957   4.560   3.801  13.430  0.2464 -0.7152  0.2680
  258TMC3    C2 3958   4.466   3.765  13.329 -0.2560 -0.4324 -0.0371
  258TMC3    C3 3959   4.355   3.685  13.356 -0.1094 -0.2323  0.5786
  258TMC3    C4 3960   4.562   3.745  13.549 -0.2517  0.5056  0.3608
  258TMC3    C5 3961   4.454   3.665  13.576 -0.3101  0.1664  0.4034
  258TMC3    C6 3962   4.356   3.628  13.482 -0.4879 -0.3097  0.1270
  258TMC3     C 3963   4.646   3.918  13.417  0.6585 -0.1108 -0.1942
  258TMC3     O 3964   4.733   3.930  13.502  0.0591 -0.3574  0.4836
  258TMC3     H 3965   4.466   3.818  13.235 -3.0237  1.3824  0.9850
  258TMC3    H1 3966   4.642   3.766  13.619 -1.7817 -0.9159  2.5217
  258TMC3    H2 3967   4.271   3.570  13.514  1.1116 -1.8712  1.5490
  258TMC3    C7 3968   4.454   3.591  13.701  0.4974  0.2050  0.2050
  258TMC3    C8 3969   4.299   3.605  13.249  0.0182  0.5448  0.7597
  258TMC3    O1 3970   4.364   3.507  13.705 -1.0910  0.3391 -0.1510
  258TMC3    O2 3971   4.332   3.633  13.135  0.4714 -0.3263  0.4733
  259MPD2     C 3972   3.356   1.539   0.398  0.4100 -0.3533 -0.7924
  259MPD2    C1 3973   3.355   1.401   0.417 -0.3034  0.2975 -0.4818
  259MPD2    C2 3974   3.321   1.318   0.314 -0.9935 -0.4455 -0.8451
  259MPD2    C3 3975   3.285   1.370   0.194 -0.3955 -0.3017  0.4444
  259MPD2    C4 3976   3.292   1.507   0.170 -0.6138 -0.1021 -0.0186
  259MPD2    C5 3977   3.327   1.589   0.277  0.1961  1.4285 -0.0055
  259MPD2     H 3978   3.307   1.210   0.321 -2.2877 -0.3178 -1.5224
  259MPD2    H1 3979   3.266   1.555   0.076  1.7771 -0.5699 -0.9043
  259MPD2    H2 3980   3.374   1.609   0.480  1.3815 -1.1339 -0.3323
  259MPD2    H3 3981   3.326   1.697   0.261  1.3623  1.5378  0.6858
  259MPD2     N 3982   3.231   1.279   0.098  0.0795 -0.4433 -0.1764
  259MPD2    H5 3983   3.212   1.183   0.123 -0.9889  0.0870  1.0467
  259MPD2    N1 3984   3.376   1.355   0.550 -0.5850 -0.5004 -0.2212
  259MPD2    H7 3985   3.381   1.426   0.622 -0.9889  0.4351 -1.1238
  260TMC3    C1 3986   3.167   1.206  17.636 -0.1581 -0.2656  0.7748
  260TMC3    C2 3987   3.194   1.211  17.501 -0.3828  0.2745 -0.5004
  260TMC3    C3 3988   3.113   1.138  17.418 -0.0425 -0.2122  0.4453
  260TMC3    C4 3989   3.059   1.130  17.675  0.4109 -0.0764  0.5779
  260TMC3    C5 3990   2.963   1.079  17.593 -0.2995 -0.0554 -0.3570
  260TMC3    C6 3991   2.992   1.081  17.455 -0.5617 -0.4403  0.3636
  260TMC3     C 3992   3.225   1.313  17.718  0.4756 -0.3849 -0.1298
  260TMC3     O 3993   3.279   1.406  17.658  0.2847  0.5151  0.4017
  260TMC3     H 3994   3.294   1.242  17.474  0.0692  0.4790  1.4345
  260TMC3    H1 3995   3.037   1.133   0.027 -0.5757  1.9876  0.3376
  260TMC3    H2 3996   2.925   1.033  17.385 -0.3160  2.7179 -2.0143
  260TMC3    C7 3997   2.932   0.945  17.630 -0.0099 -0.1513 -0.4046
  260TMC3    C8 3998   3.189   1.061  17.326  0.0331 -0.2780 -0.5685
  260TMC3    O1 3999   2.986   0.862  17.555 -0.1683 -0.0130 -0.0329
  260TMC3    O2 4000   3.260   1.111  17.242  0.2414  0.0768 -0.1841
  261MPD2     C 4001   0.446   3.918  12.315  0.1034  0.3283 -0.8206
  261MPD2    C1 4002   0.572   3.971  12.292 -0.2570 -0.2343 -0.8070
  261MPD2    C2 4003   0.596   4.069  12.198 -0.5808  0.1029 -0.5366
  261MPD2    C3 4004   0.481   4.121  12.131 -0.5307 -0.4618 -0.5427
  261MPD2    C4 4005   0.358   4.072  12.156 -0.3552 -0.3001 -0.3655
  261MPD2    C5 4006   0.341   3.970  12.247  0.5542 -0.2492 -0.2734
  261MPD2     H 4007   0.698   4.083  12.165 -0.3204  0.8520  0.5891
  261MPD2    H1 4008   0.270   4.098  12.099  0.7130  0.2741 -1.7718
  261MPD2    H2 4009   0.426   3.836  12.383 -0.1133  1.3758  0.3905
  261MPD2    H3 4010   0.240   3.938  12.271  1.0548  0.0480  2.2805
  261MPD2     N 4011   0.509   4.218  12.031 -0.0719  0.3421 -0.3265
  261MPD2    H5 4012   0.606   4.227  12.002  0.7161 -0.9687  1.8447
  261MPD2    N1 4013   0.686   3.908  12.359  0.4768  0.1944  0.5075
  261MPD2    H7 4014   0.660   3.826  12.413  0.3107  0.5139  0.9111
  262TMC3    C1 4015   0.467   4.385  11.861  0.6372  0.1336  0.0573
  262TMC3    C2 4016   0.419   4.516  11.858 -0.4915  1.2040 -0.1182
  262TMC3    C3 4017   0.483   4.600  11.775  0.3272 -0.5957  0.2141
  262TMC3    C4 4018   0.575   4.342  11.789  0.0018 -0.4738  0.6249
  262TMC3    C5 4019   0.643   4.446  11.730  0.0992  0.3528 -0.5009
  262TMC3    C6 4020   0.601   4.572  11.711  1.1517  0.5556  1.0035
  262TMC3     C 4021   0.414   4.302  11.966 -0.1902  0.0633  0.8048
  262TMC3     O 4022   0.294   4.313  11.990 -0.3438 -0.1688  0.0900
  262TMC3     H 4023   0.337   4.544  11.923 -1.6357  1.7692 -1.8061
  262TMC3    H1 4024   0.606   4.238  11.787 -0.4221 -0.5854  0.1331
  262TMC3    H2 4025   0.651   4.651  11.657  1.0818 -1.3760 -1.9200
  262TMC3    C7 4026   0.781   4.413  11.705 -0.4400 -0.1100 -0.0153
  262TMC3    C8 4027   0.451   0.008  11.786 -0.0904 -0.2981 -0.3324
  262TMC3    O1 4028   0.810   4.296  11.681  0.7004  0.1577 -0.2017
  262TMC3    O2 4029   0.523   0.084  11.727  0.0031 -0.0245 -0.0213
  263MPD2     C 4030   1.452   3.202  10.984 -1.0476  0.5372 -0.4095
  263MPD2    C1 4031   1.533   3.238  11.082 -0.4182  0.7658 -0.6636
  263MPD2    C2 4032   1.608   3.356  11.060  0.5132 -0.0525 -0.5408
  263MPD2    C3 4033   1.602   3.423  10.938 -0.7231  0.1565  0.3293
  263MPD2    C4 4034   1.517   3.382  10.841 -0.7580 -0.1215  0.4026
  263MPD2    C5 4035   1.453   3.265  10.860 -0.3351  0.3802  0.2484
  263MPD2     H 4036   1.681   3.397  11.130  0.0990 -0.2097 -0.0243
  263MPD2    H1 4037   1.501   3.440  10.751 -0.3324 -0.0548  0.3679
  263MPD2    H2 4038   1.408   3.104  10.999  0.5072 -0.4127 -2.1322
  263MPD2    H3 4039   1.385   3.223  10.787 -0.2172 -0.4701  0.6211
  263MPD2     N 4040   1.698   3.525  10.919 -0.3194 -0.2946 -0.3454
  263MPD2    H5 4041   1.755   3.543  11.002  0.2046 -0.8608 -0.5861
  263MPD2    N1 4042   1.554   3.156  11.198  0.1563 -0.2491  0.2013
  263MPD2    H7 4043   1.507   3.067  11.209  1.0566 -0.5556  1.6102
  264TMC3    C1 4044   1.815   3.692  10.809  0.8901  0.0781  0.3390
  264TMC3    C2 4045   1.819   3.771  10.920 -0.5537  0.1413  0.0363
  264TMC3    C3 4046   1.915   3.872  10.915  0.3008 -0.0655  0.1916
  264TMC3    C4 4047   1.908   3.698  10.710  0.1742  0.5183 -1.0158
  264TMC3    C5 4048   1.997   3.795  10.709  0.7117 -0.5713 -1.1657
  264TMC3    C6 4049   1.997   3.884  10.811 -0.6284 -0.3799 -0.1623
  264TMC3     C 4050   1.735   3.570  10.796 -0.0195  0.8493 -0.5161
  264TMC3     O 4051   1.714   3.524  10.685 -0.5361 -0.3034 -0.2161
  264TMC3     H 4052   1.736   3.773  10.990 -0.0510 -1.9935  0.6886
  264TMC3    H1 4053   1.902   3.632  10.625 -1.3421  0.3926 -0.8126
  264TMC3    H2 4054   2.067   3.966  10.808  0.5144 -1.2315  2.4420
  264TMC3    C7 4055   2.090   3.802  10.601  0.2619 -0.8585  0.0876
  264TMC3    C8 4056   1.931   3.978  11.016  0.6127 -0.1643  0.4358
  264TMC3    O1 4057   2.113   3.696  10.541 -0.0181  0.3251  0.3945
  264TMC3    O2 4058   2.029   4.051  11.007 -0.4073 -0.3451 -0.4670
  265MPD2     C 4059   3.106   4.036  14.996  0.0950  0.6727  0.9361
  265MPD2    C1 4060   3.200   4.133  14.994 -0.3793  0.2375 -0.2051
  265MPD2    C2 4061   3.314   4.114  14.924  0.2749  0.2312  0.0162
  265MPD2    C3 4062   3.349   3.986  14.872  0.6510 -0.2861  0.0267
  265MPD2    C4 4063   3.269   3.881  14.904  0.0672  0.0686 -0.7696
  265MPD2    C5 4064   3.150   3.913  14.959  0.2815  0.3461  0.1849
  265MPD2     H 4065   3.392   4.186  14.903  0.8984 -0.7238 -0.9898
  265MPD2    H1 4066   3.286   3.779  14.870 -0.8982 -0.1989 -0.4386
  265MPD2    H2 4067   3.008   4.057  15.038  0.2873  2.8944  0.2253
  265MPD2    H3 4068   3.082   3.830  14.978  1.4176 -1.1550 -2.2636
  265MPD2     N 4069   3.473   3.963  14.811 -0.0987 -0.2276  0.6747
  265MPD2    H5 4070   3.502   3.866  14.808 -0.2259 -0.2604  0.5177
  265MPD2    N1 4071   3.174   4.257  15.059 -0.7723 -0.7922  0.2473
  265MPD2    H7 4072   3.222   4.336  15.019 -1.9892  0.2372  0.8242
  266TMC3    C1 4073   3.079   4.417  15.203  0.5494  0.0841  1.0404
  266TMC3    C2 4074   2.994   4.435  15.311 -0.3251  0.3657 -0.1832
  266TMC3    C3 4075   2.939   4.562  15.334 -0.6242  0.2006 -0.6659
  266TMC3    C4 4076   3.105   4.517  15.109 -0.1149  0.3412 -0.0114
  266TMC3    C5 4077   3.047   4.642  15.135  0.2069 -0.1544 -0.0030
  266TMC3    C6 4078   2.960   4.665  15.244 -0.0867 -0.2391 -0.3327
  266TMC3     C 4079   3.087   4.270  15.164 -0.2615  0.8197  0.6837
  266TMC3     O 4080   3.041   4.182  15.232  1.0563  0.1020 -0.5045
  266TMC3     H 4081   2.965   4.351  15.373 -0.1742 -1.1295 -2.1535
  266TMC3    H1 4082   3.146   4.495  15.012 -1.4142  0.7830 -0.6616
  266TMC3    H2 4083   2.894   0.010  15.259 -1.1859 -1.6666  2.8124
  266TMC3    C7 4084   3.088   0.013  15.050 -0.0761  0.2539 -0.0463
  266TMC3    C8 4085   2.857   4.578  15.453  0.3084  0.6310 -0.5286
  266TMC3    O1 4086   3.157   4.721  14.951 -0.1009  0.0040  1.1258
  266TMC3    O2 4087   2.822   4.691  15.472  0.3365  0.5276 -1.0557
  267MPD2     C 4088   4.732   0.625   0.842  0.8258 -0.5469  0.6003
  267MPD2    C1 4089   0.000   0.741   0.778 -0.6192 -0.0753 -0.4008
  267MPD2    C2 4090   4.642   0.781   0.686 -0.2232  0.9054  0.5393
  267MPD2    C3 4091   4.526   0.710   0.671  0.1338  1.0593 -0.4944
  267MPD2    C4 4092   4.523   0.589   0.733 -0.1277  0.2384 -0.1390
  267MPD2    C5 4093   4.622   0.545   0.821  0.2010 -0.3271 -0.4572
  267MPD2     H 4094   4.645   0.876   0.635  2.1323  0.0659 -0.8726
  267MPD2    H1 4095   4.443   0.516   0.722 -1.0386  1.3454 -0.9297
  267MPD2    H2 4096   0.072   0.595   0.910  0.9408 -0.1294  0.6525
  267MPD2    H3 4097   4.617   0.443   0.857  2.3511 -0.4514 -0.5475
  267MPD2     N 4098   4.410   0.750   0.597  0.1720 -0.2431 -0.1043
  267MPD2    H5 4099   4.335   0.682   0.592  1.1488 -1.4358  1.1897
  267MPD2    N1 4100   0.116   0.823   0.801  0.0243  0.2170 -0.4726
  267MPD2    H7 4101   0.178   0.798   0.877 -1.8293 -1.0903  0.6103
  268TMC3    C1 4102   0.264   1.008   0.785 -1.1175 -0.0214  0.1971
  268TMC3    C2 4103   0.318   1.092   0.697  0.1777 -0.3115 -0.7851
  268TMC3    C3 4104   0.424   1.169   0.735 -0.1580 -0.1874 -0.5415
  268TMC3    C4 4105   0.314   0.992   0.913  0.0921 -0.0466 -0.1769
  268TMC3    C5 4106   0.412   1.082   0.947 -0.0548 -0.2820 -0.5263
  268TMC3    C6 4107   0.472   1.171   0.863  0.6308 -0.1838 -0.3998
  268TMC3     C 4108   0.161   0.919   0.719 -0.7485  0.0609 -0.5685
  268TMC3     O 4109   0.115   0.950   0.610 -0.0997 -0.0627  0.0851
  268TMC3     H 4110   0.264   1.099   0.603  0.9842  0.4258 -1.1868
  268TMC3    H1 4111   0.258   0.926   0.978 -0.7019  2.6287  1.8535
  268TMC3    H2 4112   0.548   1.243   0.892  0.5623 -0.3087  0.1000
  268TMC3    C7 4113   0.477   1.059   1.079  0.0913 -0.0683  0.7925
  268TMC3    C8 4114   0.502   1.232   0.634 -0.2848 -0.0970 -0.1719
  268TMC3    O1 4115   0.598   1.089   1.083  0.3674  0.0911 -0.0119
  268TMC3    O2 4116   0.602   1.288   0.672  0.3101 -0.5531  0.2926
  269MPD2     C 4117   1.306   4.724  15.145  0.1828  0.5021 -0.0069
  269MPD2    C1 4118   1.208   0.000  15.243 -1.0498 -0.0059 -0.0700
  269MPD2    C2 4119   1.141   0.122  15.247  0.1506  0.3251  0.4001
  269MPD2    C3 4120   1.168   0.229  15.155  0.5871 -0.5928 -0.1174
  269MPD2    C4 4121   1.261   0.205  15.059 -0.6528 -0.0746 -0.3794
  269MPD2    C5 4122   1.327   0.086  15.051  0.2822  0.6582 -0.6933
  269MPD2     H 4123   1.083   0.143  15.336  1.5523 -0.0630  1.4209
  269MPD2    H1 4124   1.288   0.275  14.981  1.4790  0.8047  1.1577
  269MPD2    H2 4125   1.351   4.625  15.146  0.3882  0.5924 -0.2488
  269MPD2    H3 4126   1.394   0.076  14.967  2.8575 -1.2419  1.5738
  269MPD2     N 4127   1.095   0.346  15.173 -0.7099 -0.5486  0.1192
  269MPD2    H5 4128   1.020   0.344  15.241  1.2555 -0.5209  2.2913
  269MPD2    N1 4129   1.193   4.629  15.334  0.1617  0.0664  0.4379
  269MPD2    H7 4130   1.247   4.544  15.317 -0.6959 -0.6491  1.3180
  270TMC3    C1 4131   1.108   4.507  15.517 -0.0575 -0.7594  0.3905
  270TMC3    C2 4132   0.984   4.456  15.551  0.1479 -0.0843  0.0922
  270TMC3    C3 4133   0.983   4.347  15.631  0.6568  0.4721 -0.2952
  270TMC3    C4 4134   1.223   4.452  15.569  0.5337 -0.7521 -0.1380
  270TMC3    C5 4135   1.217   4.346  15.655 -0.2513  0.0653 -0.0607
  270TMC3    C6 4136   1.095   4.297  15.690  0.0612 -0.1409 -0.3247
  270TMC3     C 4137   1.117   4.634  15.452 -0.0950  0.1669  0.0492
  270TMC3     O 4138   1.032   4.717  15.481  0.1438  0.5450 -0.6785
  270TMC3     H 4139   0.898   4.506  15.508  0.8032 -0.9583 -2.2201
  270TMC3    H1 4140   1.319   4.493  15.538  1.3326 -2.0736  0.5802
  270TMC3    H2 4141   1.074   4.221  15.764  1.5762  1.1231  1.4111
  270TMC3    C7 4142   1.323   4.255  15.656 -0.1935  0.1873 -0.3004
  270TMC3    C8 4143   0.900   4.235  15.580  0.1006  0.0683 -0.2406
  270TMC3    O1 4144   1.394   4.268  15.555 -0.4364  0.0763  0.1398
  270TMC3    O2 4145   0.940   4.120  15.595  0.7175  0.0303  0.1965
  271MPD2     C 4146   0.504   4.063  13.760  0.2432 -0.2162 -0.2158
  271MPD2    C1 4147   0.449   4.089  13.889 -0.3469  0.0417  0.1128
  271MPD2    C2 4148   0.324   4.138  13.894 -0.7756 -0.5756 -0.6478
  271MPD2    C3 4149   0.268   4.179  13.777 -0.4014  0.1888 -0.2392
  271MPD2    C4 4150   0.328   4.163  13.655 -0.2098  0.1726  0.4205
  271MPD2    C5 4151   0.445   4.097  13.645  0.2382  0.0900 -0.2722
  271MPD2     H 4152   0.282   4.144  13.993  0.1892  0.0681 -0.2793
  271MPD2    H1 4153   0.294   4.200  13.560 -0.5678  0.0109  0.4845
  271MPD2    H2 4154   0.600   4.014  13.746  0.2233 -0.4106  0.3248
  271MPD2    H3 4155   0.482   4.091  13.544  2.4808 -1.5510  0.6608
  271MPD2     N 4156   0.139   4.242  13.780 -0.2233 -0.1942  0.2572
  271MPD2    H5 4157   0.094   4.278  13.696 -2.4809 -3.8152 -0.0565
  271MPD2    N1 4158   0.512   4.056  14.010 -0.2723  0.6541  0.1928
  271MPD2    H7 4159   0.449   4.054  14.090 -0.2957 -0.4608  0.1435
  272TMC3    C1 4160   0.664   3.962  14.174  0.2068  0.0869 -0.2087
  272TMC3    C2 4161   0.789   3.922  14.214 -1.7065  0.0052 -0.2418
  272TMC3    C3 4162   0.813   3.905  14.348  0.2014  0.2121  0.6039
  272TMC3    C4 4163   0.561   3.998  14.261 -0.7841 -0.0498  0.7337
  272TMC3    C5 4164   0.597   3.976  14.392  0.6343 -0.2522  0.2853
  272TMC3    C6 4165   0.720   3.933  14.438 -0.1696 -0.4167  0.3939
  272TMC3     C 4166   0.635   3.994  14.035  0.7643 -0.1686 -0.3677
  272TMC3     O 4167   0.719   3.960  13.948  0.2178  0.1450 -0.4399
  272TMC3     H 4168   0.870   3.911  14.142 -0.4251  1.8324  0.9499
  272TMC3    H1 4169   0.458   4.018  14.236 -0.3279 -1.1089 -2.0004
  272TMC3    H2 4170   0.740   3.919  14.544 -0.8437 -1.0352  0.4371
  272TMC3    C7 4171   0.506   4.009  14.498 -0.3936 -0.8294 -0.0578
  272TMC3    C8 4172   0.945   3.924  14.382 -0.3544  0.6595  1.1922
  272TMC3    O1 4173   0.396   3.954  14.496  0.9442  0.6656 -0.3704
  272TMC3    O2 4174   1.006   4.009  14.321 -0.2494 -0.3302  0.1408
  273MPD2     C 4175   1.702   2.631  11.591  0.6071 -0.4998 -0.3985
  273MPD2    C1 4176   1.839   2.640  11.588  0.8340 -0.1890  0.6408
  273MPD2    C2 4177   1.908   2.619  11.467 -0.2453  0.0700 -1.1590
  273MPD2    C3 4178   1.841   2.600  11.347  0.2306  0.4749 -0.0105
  273MPD2    C4 4179   1.702   2.596  11.351 -0.2758 -0.8058 -0.0322
  273MPD2    C5 4180   1.638   2.604  11.474 -0.0057 -0.0274  0.3397
  273MPD2     H 4181   2.015   2.603  11.467 -0.2302  0.1625 -0.6675
  273MPD2    H1 4182   1.646   2.573  11.261  0.9521  1.8048 -1.4739
  273MPD2    H2 4183   1.642   2.631  11.680  2.3666  0.9927  0.7828
  273MPD2    H3 4184   1.529   2.605  11.472 -0.0710 -1.0845  2.7922
  273MPD2     N 4185   1.910   2.584  11.224  0.6785 -0.0757 -0.5062
  273MPD2    H5 4186   1.851   2.576  11.141 -1.2920  0.0281  0.8701
  273MPD2    N1 4187   1.913   2.664  11.710 -0.3957 -0.9791 -0.5024
  273MPD2    H7 4188   1.857   2.685  11.792  1.7441 -0.6667  0.8829
  274TMC3    C1 4189   2.084   2.583  11.055  0.2646  0.0251  0.4204
  274TMC3    C2 4190   1.978   2.572  10.965 -0.0013  0.2391 -0.1440
  274TMC3    C3 4191   2.002   2.612  10.836 -0.4498 -0.3110  0.2919
  274TMC3    C4 4192   2.202   2.644  11.015  0.1050 -0.8332  0.5351
  274TMC3    C5 4193   2.220   2.693  10.889 -0.1708 -0.3718 -0.4330
  274TMC3    C6 4194   2.123   2.673  10.797  0.1394  0.1328  0.4678
  274TMC3     C 4195   2.046   2.594  11.195 -0.5485 -0.3018 -0.5283
  274TMC3     O 4196   2.137   2.605  11.278 -0.5891  0.3601  0.6874
  274TMC3     H 4197   1.884   2.520  10.983 -0.6778  2.0807  1.6399
  274TMC3    H1 4198   2.278   2.660  11.090  0.2845 -2.6811  0.7392
  274TMC3    H2 4199   2.129   2.722  10.700 -2.2217 -1.3776 -0.4624
  274TMC3    C7 4200   2.329   2.782  10.851  0.1777  0.4629  0.0532
  274TMC3    C8 4201   1.899   2.586  10.743  0.5375  0.3188 -0.4855
  274TMC3    O1 4202   2.357   2.788  10.730  0.0017 -0.2182 -0.5970
  274TMC3    O2 4203   1.783   2.584  10.778 -0.0277 -0.0233  0.3183
  275MPD2     C 4204   2.044   4.698  14.336 -0.0617  0.9296 -0.4490
  275MPD2    C1 4205   1.952   0.047  14.396  0.3654  0.4997 -0.2126
  275MPD2    C2 4206   1.824   0.014  14.401  0.3635 -0.9517  0.5273
  275MPD2    C3 4207   1.779   4.633  14.341 -0.0042 -0.2211  0.0306
  275MPD2    C4 4208   1.869   4.550  14.286 -0.0445  0.1203  0.1792
  275MPD2    C5 4209   1.998   4.578  14.285 -0.0887 -0.3828  0.1863
  275MPD2     H 4210   1.750   0.076  14.450  0.0902 -0.5063 -0.4414
  275MPD2    H1 4211   1.840   4.453  14.247  0.5473 -0.2224  0.5796
  275MPD2    H2 4212   2.151   4.712  14.348  0.0306 -0.4066  0.2369
  275MPD2    H3 4213   2.082   4.522  14.247 -0.4473 -1.2975  0.7336
  275MPD2     N 4214   1.642   4.603  14.333  0.0793  0.1954 -0.7545
  275MPD2    H5 4215   1.619   4.514  14.289 -1.7573  0.5930 -0.5745
  275MPD2    N1 4216   1.979   0.169  14.455 -0.2872  0.6855  0.3588
  275MPD2    H7 4217   1.900   0.221  14.491 -0.9560 -0.3574  0.3882
  276TMC3    C1 4218   2.080   0.381  14.480 -0.1008 -0.3254  0.0903
  276TMC3    C2 4219   1.951   0.427  14.493  0.0188 -0.2069  0.3873
  276TMC3    C3 4220   1.935   0.537  14.575 -0.1419 -0.3941 -0.4253
  276TMC3    C4 4221   2.190   0.430  14.542  0.3220  0.2079  0.1218
  276TMC3    C5 4222   2.171   0.545  14.610  0.0046 -0.5472 -0.6833
  276TMC3    C6 4223   2.048   0.599  14.634 -0.0611 -0.0967 -0.1355
  276TMC3     C 4224   2.097   0.240  14.442 -0.8023 -0.5076 -0.5179
  276TMC3     O 4225   2.214   0.198  14.429  0.0032 -0.1631  0.2619
  276TMC3     H 4226   1.880   0.396  14.417  0.7054 -1.0070  0.0613
  276TMC3    H1 4227   2.284   0.385  14.514 -0.8384 -2.2451  0.1366
  276TMC3    H2 4228   2.028   0.685  14.697  0.7084 -0.3409  0.4355
  276TMC3    C7 4229   2.269   0.619  14.683  0.3209  0.0121 -0.4481
  276TMC3    C8 4230   1.814   0.529  14.651  0.2642 -0.1136 -0.0211
  276TMC3    O1 4231   2.242   0.729  14.735 -0.6583  0.1694 -0.2558
  276TMC3    O2 4232   1.747   0.630  14.664 -0.1957 -0.3196 -0.2656
  277MPD2     C 4233   3.432   4.156  13.108 -0.9208  0.2200  0.1888
  277MPD2    C1 4234   3.295   4.200  13.123  0.3109 -0.2348  0.6672
  277MPD2    C2 4235   3.235   4.159  13.239  0.6737  0.1716 -0.7227
  277MPD2    C3 4236   3.299   4.072  13.333 -1.0849 -0.2033 -0.5182
  277MPD2    C4 4237   3.433   4.030  13.308 -0.5816 -0.2780 -0.3220
  277MPD2    C5 4238   3.490   4.076  13.197 -0.2394 -0.0222  0.1313
  277MPD2     H 4239   3.136   4.199  13.257  0.4375  0.6150 -3.0499
  277MPD2    H1 4240   3.500   3.979  13.376  0.3271 -0.8017 -1.5927
  277MPD2    H2 4241   3.493   4.181  13.022 -1.8054  2.1328  0.1260
  277MPD2    H3 4242   3.597   4.061  13.187 -0.2510 -0.1272  0.1636
  277MPD2     N 4243   3.231   4.039  13.451  0.2150 -0.4353  0.4538
  277MPD2    H5 4244   3.148   4.095  13.467 -0.2022 -1.0560  0.4791
  277MPD2    N1 4245   3.249   4.299  13.026  0.0827  0.3203  0.0266
  277MPD2    H7 4246   3.319   4.330  12.959  0.3168  1.8515  0.9643
  278TMC3    C1 4247   3.183   3.932  13.658 -0.0332 -0.1955  0.8052
  278TMC3    C2 4248   3.236   3.857  13.754 -0.8494 -0.4242 -0.4385
  278TMC3    C3 4249   3.149   3.791  13.839 -0.0791  0.0934 -0.4362
  278TMC3    C4 4250   3.050   3.955  13.653 -0.1211 -0.3842 -0.1994
  278TMC3    C5 4251   2.968   3.887  13.740 -0.0961 -0.1135 -0.3110
  278TMC3    C6 4252   3.013   3.809  13.835 -0.3958  0.6665 -0.2253
  278TMC3     C 4253   3.274   3.954  13.551  0.6719  0.2508  0.4526
  278TMC3     O 4254   3.370   3.872  13.546 -0.2928 -0.1781  0.5246
  278TMC3     H 4255   3.344   3.846  13.760 -0.7875  0.1030 -0.5808
  278TMC3    H1 4256   3.008   4.013  13.572  1.4122  2.9482  1.3769
  278TMC3    H2 4257   2.944   3.769  13.908 -0.5591  0.8186 -0.2993
  278TMC3    C7 4258   2.826   3.896  13.723  0.0600 -0.1974 -0.1513
  278TMC3    C8 4259   3.184   3.653  13.869 -0.1006  0.5709 -0.4444
  278TMC3    O1 4260   2.773   4.002  13.691 -0.1894  0.0975  0.4837
  278TMC3    O2 4261   3.140   3.585  13.959  0.3291  0.2701 -0.2753
  279MPD2     C 4262   2.711   3.818   0.124 -0.0011  0.3970  0.3855
  279MPD2    C1 4263   2.707   3.953   0.079 -0.1066  0.1702  0.7821
  279MPD2    C2 4264   2.674   3.983  17.706  0.1169 -0.6926  0.6581
  279MPD2    C3 4265   2.649   3.880  17.616  0.2767  0.5196 -0.0165
  279MPD2    C4 4266   2.652   3.753  17.662 -0.4224  0.1172  0.0520
  279MPD2    C5 4267   2.685   3.723   0.038 -0.0515 -0.0729 -0.0804
  279MPD2     H 4268   2.658   4.088  17.687 -1.5289 -0.5431  2.7576
  279MPD2    H1 4269   2.629   3.676  17.589 -1.3406 -1.3163  1.8572
  279MPD2    H2 4270   2.738   3.786   0.224  1.0293 -1.3165 -0.4424
  279MPD2    H3 4271   2.705   3.620   0.067  0.8676 -0.2633 -1.4010
  279MPD2     N 4272   2.614   3.905  17.482  0.1670 -0.0907 -0.6882
  279MPD2    H5 4273   2.595   3.821  17.427  1.2715  0.4313 -1.8772
  279MPD2    N1 4274   2.715   4.053   0.179  0.3105 -0.3176 -0.3432
  279MPD2    H7 4275   2.732   4.015   0.272  1.9527 -0.6780 -0.7904
  280TMC3    C1 4276   2.715   4.246   0.304 -0.3975 -1.1228  0.1805
  280TMC3    C2 4277   2.838   4.223   0.369 -0.1967 -0.4588  0.2399
  280TMC3    C3 4278   2.873   4.318   0.472  0.2617  0.0669 -0.6646
  280TMC3    C4 4279   2.639   4.361   0.333  0.3414 -0.1775 -0.1319
  280TMC3    C5 4280   2.663   4.434   0.450  0.6364  0.2630  0.0834
  280TMC3    C6 4281   2.781   4.417   0.519  0.0494  0.1346  0.0637
  280TMC3     C 4282   2.690   4.190   0.174 -0.5916  0.0096  0.1169
  280TMC3     O 4283   2.659   4.273   0.087  0.0937 -0.0605  0.1691
  280TMC3     H 4284   2.909   4.144   0.348  0.3915  0.2314 -0.3519
  280TMC3    H1 4285   2.558   4.384   0.264  1.1895  1.7566 -0.4795
  280TMC3    H2 4286   2.805   4.475   0.607 -1.2595  0.3813  0.2661
  280TMC3    C7 4287   2.577   4.537   0.497  0.1901  0.4995  1.1193
  280TMC3    C8 4288   2.991   4.305   0.552 -0.2574 -0.8089 -0.3151
  280TMC3    O1 4289   2.604   4.590   0.600 -0.0292  0.3771 -0.2428
  280TMC3    O2 4290   2.995   4.375   0.649  0.5489 -0.4168 -0.1419
  281TMC3    C1 4291   1.778   4.224  13.510 -0.2342 -1.4309 -0.2270
  281TMC3    C2 4292   1.907   4.271  13.497  0.5214 -0.4159  0.1701
  281TMC3    C3 4293   1.995   4.196  13.421 -0.2226 -0.2827 -0.4235
  281TMC3    C4 4294   1.736   4.115  13.453 -0.9241 -0.1579 -0.6038
  281TMC3    C5 4295   1.820   4.044  13.370  0.1036 -0.4014  0.1294
  281TMC3    C6 4296   1.949   4.086  13.355 -0.7454  0.6234  0.6079
  281TMC3     C 4297   1.676   4.310  13.565 -0.5460  0.1276  0.1761
  281TMC3     O 4298   1.581   4.254  13.620  0.4257  0.0147  0.3442
  281TMC3     H 4299   1.935   4.366  13.539 -1.2382  0.0540  0.2728
  281TMC3    H1 4300   1.631   4.092  13.461 -0.4188 -1.9140  1.0738
  281TMC3    H2 4301   2.009   4.032  13.283 -1.0888  0.1239  0.6880
  281TMC3    C7 4302   1.763   3.960  13.268  0.5655  0.5239  0.1701
  281TMC3    C8 4303   2.138   4.227  13.414  0.0055  0.6997 -0.0126
  281TMC3    O1 4304   1.834   3.933  13.170 -0.2274  0.7217 -0.2478
  281TMC3    O2 4305   2.207   4.129  13.445  0.4048  0.0447  0.5548
  282MPD2     C 4306   3.527   1.293  15.113 -0.3309  1.2123 -0.4597
  282MPD2    C1 4307   3.399   1.274  15.152 -0.0371 -0.5328 -0.0482
  282MPD2    C2 4308   3.305   1.278  15.053 -0.5430  0.1494 -0.7265
  282MPD2    C3 4309   3.335   1.271  14.924 -0.3003  0.8120  0.8660
  282MPD2    C4 4310   3.469   1.289  14.886 -0.1629  0.1257 -0.0135
  282MPD2    C5 4311   3.564   1.306  14.983 -0.0653 -0.7056  0.0304
  282MPD2     H 4312   3.198   1.278  15.068 -0.2917 -0.0009  0.9705
  282MPD2    H1 4313   3.497   1.291  14.781  0.2437  0.1548  0.0981
  282MPD2    H2 4314   3.610   1.303  15.182  1.3914 -2.8083 -1.9224
  282MPD2    H3 4315   3.669   1.314  14.959  0.3641 -1.8398  1.5706
  282MPD2     N 4316   3.231   1.271  14.827 -0.4239 -0.0050  0.7774
  282MPD2    H5 4317   3.139   1.292  14.863 -0.6398  0.4162 -0.0384
  282MPD2    N1 4318   3.363   1.270  15.289  0.4142  0.0049 -0.1894
  282MPD2    H7 4319   3.270   1.233  15.305 -0.2264  1.0293 -1.5752
  283TMC3    C1 4320   3.411   1.236  15.519 -0.0629 -0.0659  0.2322
  283TMC3    C2 4321   3.474   1.278  15.634 -0.0594 -1.8414 -0.5317
  283TMC3    C3 4322   3.439   1.227  15.753 -0.0106  0.3686  0.4608
  283TMC3    C4 4323   3.336   1.124  15.525 -0.6390 -0.0164  0.8301
  283TMC3    C5 4324   3.302   1.070  15.648  0.6606  0.2203  0.2377
  283TMC3    C6 4325   3.352   1.121  15.762 -0.4201 -0.6611  0.0130
  283TMC3     C 4326   3.454   1.283  15.393  0.1934  0.1574 -0.5430
  283TMC3     O 4327   3.571   1.318  15.400 -0.3290  1.0829  0.3788
  283TMC3     H 4328   3.535   1.365  15.614  0.0986 -2.1185 -1.2614
  283TMC3    H1 4329   3.282   1.093  15.437 -0.1649  1.0711  0.1464
  283TMC3    H2 4330   3.309   1.092  15.857  2.0169 -0.8078  1.0704
  283TMC3    C7 4331   3.184   0.990  15.647  0.3131  0.0342 -0.4580
  283TMC3    C8 4332   3.444   1.311  15.866  0.0768 -0.6591 -0.4639
  283TMC3    O1 4333   3.102   0.984  15.737 -0.1126 -0.4837  0.4212
  283TMC3    O2 4334   3.432   1.276  15.978 -0.2386  0.3235  0.7212
  284MPD2     C 4335   1.635   0.442  12.003  0.2968 -0.3563 -0.2420
  284MPD2    C1 4336   1.687   0.393  11.889 -0.4844  0.0420 -0.2101
  284MPD2    C2 4337   1.676   0.262  11.862  0.0972  0.5132 -0.3181
  284MPD2    C3 4338   1.611   0.181  11.946 -0.3802  0.1210 -0.0368
  284MPD2    C4 4339   1.551   0.233  12.058 -0.0529  0.3329 -0.7600
  284MPD2    C5 4340   1.568   0.362  12.090  0.2491  0.2032 -0.6717
  284MPD2     H 4341   1.728   0.213  11.781  3.3400  2.1525  0.7521
  284MPD2    H1 4342   1.477   0.173  12.109 -0.6170  0.1924 -1.7371
  284MPD2    H2 4343   1.641   0.549  12.023 -1.0242 -0.3374 -0.0032
  284MPD2    H3 4344   1.513   0.410  12.170  0.5941 -2.7971  1.3457
  284MPD2     N 4345   1.599   0.041  11.930 -1.0700 -0.0215 -0.0719
  284MPD2    H5 4346   1.583   4.720  12.010  0.1798 -0.8424 -0.4249
  284MPD2    N1 4347   1.764   0.469  11.795  0.1031 -0.5852 -0.2032
  284MPD2    H7 4348   1.803   0.416  11.719  0.3653  0.6932 -0.9465
  285TMC3    C1 4349   1.868   0.658  11.694  0.0593  0.0794  0.0968
  285TMC3    C2 4350   1.880   0.595  11.578 -0.3572 -0.1404  0.0743
  285TMC3    C3 4351   1.959   0.641  11.474 -0.3744  0.7789  0.7547
  285TMC3    C4 4352   1.936   0.778  11.704 -0.3585  0.0170  0.2515
  285TMC3    C5 4353   2.024   0.828  11.608 -1.0327 -0.2512 -0.1647
  285TMC3    C6 4354   2.039   0.756  11.494  0.7262 -0.0196 -0.2601
  285TMC3     C 4355   1.795   0.606  11.807  0.3812  0.4756 -0.4752
  285TMC3     O 4356   1.755   0.680  11.893  0.1996 -0.1037 -0.6634
  285TMC3     H 4357   1.820   0.508  11.555 -0.2657 -0.1969  0.0478
  285TMC3    H1 4358   1.938   0.822  11.803 -0.5583  1.8869 -0.5785
  285TMC3    H2 4359   2.115   0.787  11.423 -1.4660  2.1694 -1.6186
  285TMC3    C7 4360   2.071   0.967  11.606 -0.3003  0.4767 -0.5015
  285TMC3    C8 4361   1.973   0.552  11.364  0.2371 -0.0433 -0.7664
  285TMC3    O1 4362   2.064   1.025  11.496  0.3341  0.2458 -0.0956
  285TMC3    O2 4363   1.937   0.438  11.382  0.1020 -0.3006  0.2023
  286MPD2     C 4364   2.066   4.190   1.475  0.2036 -0.5640  0.6025
  286MPD2    C1 4365   1.967   4.152   1.381 -0.2385  0.5242 -0.3408
  286MPD2    C2 4366   1.968   4.020   1.337 -0.2884 -0.6424  0.8211
  286MPD2    C3 4367   2.072   3.933   1.371 -0.2610 -0.2649  0.0076
  286MPD2    C4 4368   2.172   3.972   1.458 -0.0737  0.2570 -0.4133
  286MPD2    C5 4369   2.173   4.104   1.500 -0.0839  1.0478  0.3029
  286MPD2     H 4370   1.891   3.995   1.265  0.3280  2.0271 -0.7837
  286MPD2    H1 4371   2.259   3.911   1.478  0.4538  1.2600  0.3072
  286MPD2    H2 4372   2.068   4.285   1.527 -0.9876 -0.5703  0.6691
  286MPD2    H3 4373   2.253   4.132   1.567  1.6733 -4.8177  0.6728
  286MPD2     N 4374   2.075   3.798   1.324  0.1479 -0.8415 -0.4873
  286MPD2    H5 4375   2.139   3.730   1.362  0.5891  0.5576  1.2674
  286MPD2    N1 4376   1.874   4.240   1.322 -0.1867 -0.7452  0.3368
  286MPD2    H7 4377   1.821   4.202   1.245 -1.9338 -1.1566  1.7399
  287TMC3    C1 4378   2.022   3.593   1.219  0.0117 -0.5120 -0.7413
  287TMC3    C2 4379   1.924   3.522   1.155 -0.7026  0.5985 -0.1711
  287TMC3    C3 4380   1.960   3.400   1.108 -0.1917  0.9194  0.0987
  287TMC3    C4 4381   2.155   3.557   1.229 -0.4211  0.0237 -0.6831
  287TMC3    C5 4382   2.179   3.426   1.195  0.0983 -0.8195  0.4800
  287TMC3    C6 4383   2.089   3.350   1.133  0.6285  0.4585 -0.6655
  287TMC3     C 4384   1.988   3.740   1.235 -0.8191 -0.7139 -0.4509
  287TMC3     O 4385   1.895   3.785   1.168 -0.0055  0.0409  0.2074
  287TMC3     H 4386   1.818   3.548   1.152 -0.4488  1.6191 -0.4269
  287TMC3    H1 4387   2.236   3.614   1.273  0.6178 -0.8399 -1.4825
  287TMC3    H2 4388   2.125   3.264   1.078  3.5654  1.3900 -0.2123
  287TMC3    C7 4389   2.312   3.376   1.237  0.5029 -0.1268 -0.2993
  287TMC3    C8 4390   1.878   3.320   1.018 -0.4003 -0.7268 -0.3811
  287TMC3    O1 4391   2.389   3.451   1.293 -0.0944  0.2114 -0.3158
  287TMC3    O2 4392   1.920   3.205   0.996 -0.3218  0.7638 -0.1003
  288TMC3    C1 4393   4.077   3.356  14.406  0.2749  0.4952  0.0171
  288TMC3    C2 4394   4.000   3.267  14.346 -0.2547 -0.5790  0.3623
  288TMC3    C3 4395   3.963   3.289  14.222 -0.2150 -0.1200  0.3148
  288TMC3    C4 4396   4.146   3.449  14.330  0.1360 -1.5927  0.7866
  288TMC3    C5 4397   4.111   3.477  14.198  0.2019 -0.9061 -0.8044
  288TMC3    C6 4398   4.019   3.393  14.146 -0.2305 -0.0787 -0.8346
  288TMC3     C 4399   4.077   3.356  14.554  0.3172  0.0864 -0.4720
  288TMC3     O 4400   4.049   3.249  14.610 -0.1629 -0.0565 -0.1823
  288TMC3     H 4401   3.973   3.175  14.396  2.4166 -3.3047 -3.1624
  288TMC3    H1 4402   4.209   3.517  14.387  0.0910 -0.6263 -0.3105
  288TMC3    H2 4403   3.991   3.390  14.041 -2.9614 -1.8178 -0.0468
  288TMC3    C7 4404   4.165   3.590  14.126  0.0965 -0.6463 -0.7980
  288TMC3    C8 4405   3.849   3.206  14.170 -0.7011  0.2265  0.3540
  288TMC3    O1 4406   4.254   3.654  14.183  0.1453  0.1546  0.2626
  288TMC3    O2 4407   3.844   3.175  14.053  0.2497  0.4749  0.4062
  289MPD2     C 4408   3.924   2.709  14.071  0.3589 -0.0291  0.7024
  289MPD2    C1 4409   3.879   2.725  14.197 -0.1484  0.2444  0.0189
  289MPD2    C2 4410   3.751   2.692  14.238 -0.1513  0.4106  0.8716
  289MPD2    C3 4411   3.659   2.653  14.139 -0.5749 -0.1422  0.5587
  289MPD2    C4 4412   3.710   2.639  14.006  0.2863  0.6200  0.2698
  289MPD2    C5 4413   3.843   2.664  13.971 -0.3393  0.0027  0.4114
  289MPD2     H 4414   3.720   2.710  14.341 -2.0021 -1.0908  0.5760
  289MPD2    H1 4415   3.645   2.609  13.925 -0.8391  1.6079  0.7952
  289MPD2    H2 4416   4.025   2.736  14.043 -0.1095 -0.1347 -1.1453
  289MPD2    H3 4417   3.881   2.630  13.875 -0.6917  2.3784 -0.5894
  289MPD2     N 4418   3.523   2.633  14.160 -0.4830 -0.1885 -0.1394
  289MPD2    H5 4419   3.476   2.599  14.077 -0.6874 -1.4583  0.4971
  289MPD2    N1 4420   3.976   2.780  14.292  0.0876  0.0811 -0.8023
  289MPD2    H7 4421   4.075   2.779  14.268  0.7506  2.4908  1.8359
  290TMC3    C1 4422   3.307   2.622  14.270 -0.0452  0.5713  0.1379
  290TMC3    C2 4423   3.245   2.678  14.161  0.5209  0.5901  0.7114
  290TMC3    C3 4424   3.106   2.689  14.164 -0.4665 -0.4640 -0.0219
  290TMC3    C4 4425   3.232   2.576  14.375  0.5821  0.4156  0.1852
  290TMC3    C5 4426   3.094   2.598  14.376 -1.1732  0.4609 -0.2397
  290TMC3    C6 4427   3.031   2.646  14.271  0.4852  0.5764 -0.0766
  290TMC3     C 4428   3.457   2.644  14.284 -0.4958 -0.0254  0.3699
  290TMC3     O 4429   3.496   2.661  14.398 -0.9375 -0.5522 -0.2469
  290TMC3     H 4430   3.292   2.738  14.085  0.3576  0.9738  0.9141
  290TMC3    H1 4431   3.291   2.538  14.458  0.5026  0.4499  0.2581
  290TMC3    H2 4432   2.924   2.662  14.270  0.3255 -0.4318  1.0480
  290TMC3    C7 4433   3.007   2.525  14.461  0.2122 -0.4228 -0.4639
  290TMC3    C8 4434   3.062   2.804  14.086  0.7530  0.7018 -0.4058
  290TMC3    O1 4435   2.887   2.564  14.459 -0.6781  0.1301  0.5866
  290TMC3    O2 4436   3.102   2.804  13.971 -0.6989 -0.5231  0.3104
  291MPD2     C 4437   2.727   3.235  17.418 -0.2419  0.4125 -0.3316
  291MPD2    C1 4438   2.743   3.211  17.553  0.2266  0.2604  0.1300
  291MPD2    C2 4439   2.796   3.309  17.632 -0.2043 -1.1170 -0.1480
  291MPD2    C3 4440   2.846   3.432  17.591 -0.4799  0.3894  0.5474
  291MPD2    C4 4441   2.813   3.460  17.460  0.2233 -0.5420 -0.3026
  291MPD2    C5 4442   2.761   3.359  17.378  0.2626 -0.0560 -0.8825
  291MPD2     H 4443   2.805   3.284  17.737 -1.5830  2.0572  0.7216
  291MPD2    H1 4444   2.835   3.558  17.417 -1.9323 -0.6657 -1.7083
  291MPD2    H2 4445   2.690   3.173  17.337 -0.8323  0.8131 -0.3667
  291MPD2    H3 4446   2.752   3.373  17.271  0.0898  0.6488 -0.7759
  291MPD2     N 4447   2.921   3.521  17.672  0.1427 -0.2132  0.2441
  291MPD2    H5 4448   2.945   3.609  17.628  1.3406 -0.1327  1.0596
  291MPD2    N1 4449   2.709   3.090  17.621  0.3574  0.2508  0.1425
  291MPD2    H7 4450   2.733   3.076  17.718 -1.4622  2.5786  0.9339
  292TMC3    C1 4451   2.699   2.856  17.616 -0.4511 -0.0661  0.2714
  292TMC3    C2 4452   2.808   2.848  17.700  0.1577  0.2245 -0.1164
  292TMC3    C3 4453   2.857   2.720  17.739 -0.0260  0.0203 -0.1330
  292TMC3    C4 4454   2.647   2.741  17.557 -0.1080  0.2897 -0.6582
  292TMC3    C5 4455   2.695   2.621  17.601 -0.3575  0.4638 -0.0153
  292TMC3    C6 4456   2.798   2.603  17.692  0.7702  0.5906  0.7570
  292TMC3     C 4457   2.660   2.977  17.545  0.1927 -0.4456 -0.1575
  292TMC3     O 4458   2.583   2.979  17.452  0.6326 -0.2011  0.1799
  292TMC3     H 4459   2.858   2.931  17.748 -0.7331 -0.4218  1.9229
  292TMC3    H1 4460   2.598   2.751  17.461 -0.6919 -0.6322 -0.4464
  292TMC3    H2 4461   2.835   2.502  17.707 -0.1943  0.3165  1.3025
  292TMC3    C7 4462   2.624   2.505  17.548  0.5105  0.2734  0.3563
  292TMC3    C8 4463   2.918   2.718   0.113 -0.0528 -0.4061 -0.4605
  292TMC3    O1 4464   2.682   2.397  17.563  0.4730  0.0037 -0.0277
  292TMC3    O2 4465   3.011   2.790   0.139 -0.0930  0.2234  0.0685
  293MPD2     C 4466   0.041   3.408  12.600  0.4414 -0.1328 -0.0452
  293MPD2    C1 4467   4.712   3.528  12.625  1.0315  0.4232  0.5628
  293MPD2    C2 4468   0.024   3.614  12.723  0.5589 -0.2744  0.0781
  293MPD2    C3 4469   0.125   3.573  12.808 -0.0050 -0.1984 -0.1338
  293MPD2    C4 4470   0.178   3.446  12.801 -0.5057 -0.6170 -0.1109
  293MPD2    C5 4471   0.139   3.369  12.692  0.0727  0.0223  0.2621
  293MPD2     H 4472   4.727   3.716  12.731  1.8767  0.2433 -0.5764
  293MPD2    H1 4473   0.249   3.406  12.873  0.2490  1.0591  0.0976
  293MPD2    H2 4474   0.014   3.347  12.515 -1.5696  1.7373 -0.7665
  293MPD2    H3 4475   0.196   3.280  12.668  0.9524  0.4126  0.9100
  293MPD2     N 4476   0.175   3.645  12.914 -0.5817 -0.0313  0.5823
  293MPD2    H5 4477   0.250   3.603  12.967 -0.3611 -0.6703 -0.2319
  293MPD2    N1 4478   4.609   3.563  12.536 -0.1687  0.1855  0.4702
  293MPD2    H7 4479   4.574   3.485  12.480  3.5846  0.6626 -2.5620
  294TMC3    C1 4480   4.461   3.699  12.402 -0.2443 -0.0483 -0.9863
  294TMC3    C2 4481   4.375   3.598  12.379 -0.7858 -0.3874 -0.5268
  294TMC3    C3 4482   4.284   3.615  12.275  0.4493  1.0453  0.4514
  294TMC3    C4 4483   4.452   3.821  12.335  0.7333  0.1756 -0.1920
  294TMC3    C5 4484   4.354   3.838  12.242 -0.0336  0.0893 -0.4682
  294TMC3    C6 4485   4.276   3.731  12.200  0.3248  0.4161 -0.1828
  294TMC3     C 4486   4.562   3.691  12.512  1.0471 -0.1629  0.2231
  294TMC3     O 4487   4.603   3.793  12.566 -0.0920 -0.0596  0.6066
  294TMC3     H 4488   4.374   3.509  12.441 -0.5526  0.3470  0.5138
  294TMC3    H1 4489   4.526   3.899  12.344  0.3128  0.2950  2.2767
  294TMC3    H2 4490   4.205   3.743  12.119 -0.5734 -0.6141  0.4632
  294TMC3    C7 4491   4.382   3.933  12.140  0.4826  0.3374  0.1516
  294TMC3    C8 4492   4.221   3.494  12.229  0.8405 -0.1660 -0.4002
  294TMC3    O1 4493   4.290   3.995  12.088  0.1516 -0.6794 -0.3664
  294TMC3    O2 4494   4.204   3.479  12.111  0.5755  0.8818 -0.3939
  295MPD2     C 4495   1.019   3.022   1.010  0.8385 -0.6252  0.1058
  295MPD2    C1 4496   0.947   2.942   0.921 -0.2300 -0.2151 -0.0083
  295MPD2    C2 4497   0.939   2.808   0.945 -0.0504  0.5164  0.3880
  295MPD2    C3 4498   0.990   2.758   1.062  0.3761  0.0716 -0.1265
  295MPD2    C4 4499   1.065   2.835   1.150 -0.5080 -0.8444  0.1434
  295MPD2    C5 4500   1.082   2.964   1.120 -0.7637 -0.5041 -0.1920
  295MPD2     H 4501   0.886   2.745   0.875 -2.4489  2.5154  0.4087
  295MPD2    H1 4502   1.121   2.782   1.226  0.3715  0.5419  0.4430
  295MPD2    H2 4503   1.034   3.129   0.998  1.3791 -0.6990  0.0962
  295MPD2    H3 4504   1.149   3.014   1.190  3.1814 -3.3598 -1.8960
  295MPD2     N 4505   0.986   2.619   1.101 -0.0662 -0.4953 -0.0436
  295MPD2    H5 4506   1.002   2.603   1.200 -1.9545  2.0896  0.6806
  295MPD2    N1 4507   0.900   2.986   0.795 -0.1851  0.1004  0.0157
  295MPD2    H7 4508   0.856   2.909   0.745 -0.5775  0.0818  0.3872
  296TMC3    C1 4509   0.940   2.402   1.123 -0.3350  0.1091 -0.5378
  296TMC3    C2 4510   1.059   2.385   1.190 -0.1466  0.3718  0.0347
  296TMC3    C3 4511   1.070   2.257   1.237  0.6450  0.5770  0.4745
  296TMC3    C4 4512   0.847   2.308   1.102 -0.5551  1.0952  0.4974
  296TMC3    C5 4513   0.870   2.178   1.137 -0.4396  0.4370 -0.6204
  296TMC3    C6 4514   0.986   2.150   1.203  0.0733 -0.4124 -0.7958
  296TMC3     C 4515   0.933   2.513   1.030  0.1192 -0.2635 -0.3710
  296TMC3     O 4516   0.865   2.509   0.929  0.5306  0.1859 -0.0649
  296TMC3     H 4517   1.141   2.454   1.202  1.4381 -1.6571  0.8250
  296TMC3    H1 4518   0.755   2.336   1.050  0.2366 -1.0854 -2.0965
  296TMC3    H2 4519   1.021   2.050   1.227 -0.4401 -0.6324 -0.9699
  296TMC3    C7 4520   0.775   2.079   1.091 -0.2909 -0.4901  0.3066
  296TMC3    C8 4521   1.180   2.222   1.320 -0.5412  0.6359 -0.5407
  296TMC3    O1 4522   0.723   2.111   0.986  0.0477 -0.2761 -0.2351
  296TMC3    O2 4523   1.223   2.106   1.301 -0.2443  0.1074 -0.1381
  297MPD2     C 4524   2.428   0.414  16.507 -0.5525  0.0322 -0.4153
  297MPD2    C1 4525   2.390   0.337  16.398  0.2382  0.5093 -0.1824
  297MPD2    C2 4526   2.415   0.385  16.271 -0.1353  0.4550  0.5915
  297MPD2    C3 4527   2.485   0.500  16.250 -0.3051 -0.6620 -0.2913
  297MPD2    C4 4528   2.516   0.576  16.357 -0.6856  0.4489 -0.0330
  297MPD2    C5 4529   2.489   0.529  16.482 -0.5853 -0.0740 -1.3010
  297MPD2     H 4530   2.375   0.324  16.191  3.0244 -1.0058  0.1444
  297MPD2    H1 4531   2.584   0.659  16.347 -2.2047  1.7742  0.5358
  297MPD2    H2 4532   2.396   0.393  16.608 -3.0772 -1.1635 -1.4846
  297MPD2    H3 4533   2.523   0.594  16.563  0.1561  0.3118 -1.9204
  297MPD2     N 4534   2.516   0.530  16.119  0.2188  0.2059 -0.0851
  297MPD2    H5 4535   2.516   0.458  16.047  0.7511 -0.3828  0.5006
  297MPD2    N1 4536   2.297   0.231  16.405 -0.2470 -0.3785  0.2442
  297MPD2    H7 4537   2.265   0.195  16.316  0.4837 -0.0408 -0.1531
  298TMC3    C1 4538   2.161   0.065  16.503  0.4133 -0.1872  0.3798
  298TMC3    C2 4539   2.174   4.685  16.569 -0.2582 -0.2499 -0.2306
  298TMC3    C3 4540   2.056   4.626  16.615  0.0780 -0.3085 -0.0432
  298TMC3    C4 4541   2.037   0.116  16.462 -0.1898  0.4915 -0.3404
  298TMC3    C5 4542   1.926   0.044  16.497 -0.7583 -0.1218 -0.3446
  298TMC3    C6 4543   1.938   4.676  16.580 -0.3005 -0.2744 -0.4375
  298TMC3     C 4544   2.262   0.166  16.524 -0.2709 -0.0205  0.3784
  298TMC3     O 4545   2.318   0.174  16.637  0.2070  0.0202  0.1913
  298TMC3     H 4546   2.271   4.637  16.576 -0.7929 -1.5291 -1.6449
  298TMC3    H1 4547   2.038   0.208  16.406  0.2721  0.0960 -0.9898
  298TMC3    H2 4548   1.850   4.617  16.603 -0.9071  1.4540  1.6279
  298TMC3    C7 4549   1.823   0.136  16.534  0.2194 -0.1770 -0.2886
  298TMC3    C8 4550   2.058   4.479  16.600 -0.3902  1.0774 -0.4238
  298TMC3    O1 4551   1.792   0.136  16.652 -0.1199 -1.0736 -0.0399
  298TMC3    O2 4552   1.972   4.439  16.522  0.5121  0.4823 -0.3542
  299MPD2     C 4553   3.533   4.482  10.467  0.4567  0.4097 -0.0402
  299MPD2    C1 4554   3.490   4.398  10.566  0.1415 -0.3544  0.5638
  299MPD2    C2 4555   3.373   4.321  10.550 -0.3655  0.6690  0.2480
  299MPD2    C3 4556   3.297   4.334  10.436 -0.4831 -0.2803  0.4189
  299MPD2    C4 4557   3.346   4.421  10.336  0.1389 -0.3308 -0.6979
  299MPD2    C5 4558   3.467   4.485  10.347 -0.0862  0.2345 -0.5196
  299MPD2     H 4559   3.327   4.267  10.632 -0.2219  1.8708  1.1298
  299MPD2    H1 4560   3.290   4.444  10.247  0.3616 -1.5969 -1.1563
  299MPD2    H2 4561   3.620   4.543  10.489  1.0866 -1.5783  3.1309
  299MPD2    H3 4562   3.497   4.546  10.262  1.3169  0.8808  0.4446
  299MPD2     N 4563   3.171   4.272  10.418  1.1382  0.3048  0.4041
  299MPD2    H5 4564   3.118   4.285  10.332  0.9715  2.3368  0.8157
  299MPD2    N1 4565   3.559   4.413  10.696  0.0694 -0.5475 -0.0853
  299MPD2    H7 4566   3.630   4.485  10.709 -2.7191  2.5841 -2.2307
  300TMC3    C1 4567   2.971   4.140  10.464  0.1777 -0.6908  0.0894
  300TMC3    C2 4568   2.901   4.233  10.388  0.2807  1.3512 -0.6674
  300TMC3    C3 4569   2.769   4.252  10.420  0.4906  0.1494  0.0766
  300TMC3    C4 4570   2.903   4.072  10.560  0.3994 -0.2017 -0.2672
  300TMC3    C5 4571   2.774   4.097  10.589  0.1005  0.0509 -0.1929
  300TMC3    C6 4572   2.703   4.193  10.526 -0.4096 -0.6391 -0.0242
  300TMC3     C 4573   3.102   4.192  10.513 -0.5957 -0.5415 -0.2116
  300TMC3     O 4574   3.110   4.189  10.636  0.2282 -0.1463  0.3268
  300TMC3     H 4575   2.954   4.305  10.328 -0.8023  0.1490 -3.0359
  300TMC3    H1 4576   2.952   4.003  10.628 -1.9912 -2.7906 -1.1957
  300TMC3    H2 4577   2.601   4.223  10.547  0.3208  0.7584  1.5624
  300TMC3    C7 4578   2.739   4.078  10.729  0.7754 -0.0302  0.4999
  300TMC3    C8 4579   2.691   4.345  10.344  0.6168  0.3709  0.2409
  300TMC3    O1 4580   2.775   3.977  10.787  0.0414  0.5795 -0.4408
  300TMC3    O2 4581   2.596   4.399  10.398 -0.0183 -0.1026 -0.5545
  301MPD2     C 4582   4.659   0.674   1.247 -0.5585 -0.1047 -0.2515
  301MPD2    C1 4583   4.534   0.656   1.178 -0.1651 -0.2820 -0.6377
  301MPD2    C2 4584   4.499   0.524   1.133 -0.5140  0.1621  0.3338
  301MPD2    C3 4585   4.584   0.417   1.151  0.1779 -0.2014  0.4048
  301MPD2    C4 4586   4.700   0.440   1.220 -0.9480 -0.3539  0.3754
  301MPD2    C5 4587   4.738   0.562   1.262  0.1115 -0.3141  0.7593
  301MPD2     H 4588   4.414   0.500   1.070 -0.8173  2.6489 -0.1854
  301MPD2    H1 4589   0.027   0.357   1.242 -1.3510 -1.0785 -1.1128
  301MPD2    H2 4590   4.693   0.771   1.282 -0.9164 -0.0060 -0.1775
  301MPD2    H3 4591   0.087   0.575   1.323  1.8223 -0.2083 -1.7276
  301MPD2     N 4592   4.553   0.289   1.112  0.6060 -0.0226  0.1737
  301MPD2    H5 4593   4.623   0.221   1.141 -0.2424 -1.3463 -0.9462
  301MPD2    N1 4594   4.450   0.765   1.144 -0.5035  0.2040 -0.3965
  301MPD2    H7 4595   4.358   0.735   1.112 -1.4666  1.6322  1.0549
  302TMC3    C1 4596   4.449   0.110   0.997  0.1917 -1.0443 -0.0029
  302TMC3    C2 4597   4.559   0.036   1.041  0.4856  0.0370  0.2261
  302TMC3    C3 4598   4.611   4.674   0.958 -0.2025 -0.3838  0.4186
  302TMC3    C4 4599   4.407   0.096   0.866 -0.0628  0.5093 -0.0561
  302TMC3    C5 4600   4.452   4.725   0.796  0.3000 -0.9221  0.0313
  302TMC3    C6 4601   4.546   4.644   0.842 -0.5815 -0.1402  0.7905
  302TMC3     C 4602   4.440   0.247   1.038 -0.1563 -0.4943 -0.1569
  302TMC3     O 4603   4.341   0.311   0.995  0.5885  0.0252  0.2679
  302TMC3     H 4604   4.609   0.050   1.136  0.6497 -1.2395  0.3256
  302TMC3    H1 4605   4.335   0.168   0.827 -0.3279 -1.0197 -2.4050
  302TMC3    H2 4606   4.591   4.564   0.783  1.3790  0.9750  0.7533
  302TMC3    C7 4607   4.430   4.717   0.654 -0.0943 -0.3118 -0.4548
  302TMC3    C8 4608   4.688   4.565   1.022 -0.8300  0.3301  0.4987
  302TMC3    O1 4609   4.513   4.656   0.591  0.5533  0.4915  0.3081
  302TMC3    O2 4610   0.033   4.597   1.104 -0.3053  0.3066 -0.0816
  303MPD2     C 4611   0.504   0.018  10.688 -0.3657  0.4533  0.0941
  303MPD2    C1 4612   0.503   4.624  10.680 -0.2183  0.1779  0.2717
  303MPD2    C2 4613   0.420   4.558  10.587  0.9061 -0.1578  0.1226
  303MPD2    C3 4614   0.360   4.632  10.484 -0.3750  0.9064  0.3826
  303MPD2    C4 4615   0.372   0.032  10.486  0.4211 -0.1790  0.2975
  303MPD2    C5 4616   0.448   0.089  10.588  0.1498 -0.1188  0.2437
  303MPD2     H 4617   0.415   4.450  10.599 -0.8925  0.1831  2.2654
  303MPD2    H1 4618   0.328   0.092  10.407 -1.3830 -2.5714 -0.5353
  303MPD2    H2 4619   0.553   0.069  10.770 -1.8588  1.7398  0.1880
  303MPD2    H3 4620   0.452   0.196  10.602  1.4851 -0.5781  3.1324
  303MPD2     N 4621   0.285   4.576  10.377  0.3307 -0.3709 -0.0036
  303MPD2    H5 4622   0.255   4.637  10.302  2.1508 -0.5351 -0.8636
  303MPD2    N1 4623   0.565   4.554  10.786  0.0190 -0.1302  0.4137
  303MPD2    H7 4624   0.604   4.597  10.869  0.7352 -1.4684  0.7763
  304TMC3    C1 4625   0.636   4.359  10.899 -0.3264 -0.2201 -0.8883
  304TMC3    C2 4626   0.542   4.381  10.999  0.2545 -0.7008 -0.3734
  304TMC3    C3 4627   0.526   4.281  11.093 -0.0486 -0.1560  0.6347
  304TMC3    C4 4628   0.718   4.246  10.901  0.0200  0.1832 -0.3554
  304TMC3    C5 4629   0.695   4.152  10.995  0.4489 -0.2267  0.5852
  304TMC3    C6 4630   0.606   4.172  11.101  0.4680  0.0091 -0.4593
  304TMC3     C 4631   0.616   4.426  10.770 -0.9711  0.0640 -0.2225
  304TMC3     O 4632   0.641   4.364  10.668  0.6064 -0.4964  0.1577
  304TMC3     H 4633   0.473   4.465  11.001  1.5362  0.3467  0.0552
  304TMC3    H1 4634   0.794   4.235  10.824 -0.1651  0.6771 -0.6095
  304TMC3    H2 4635   0.587   4.094  11.173 -0.6005  0.6377 -0.0600
  304TMC3    C7 4636   0.681   4.025  10.935  0.1112 -0.2136  0.5098
  304TMC3    C8 4637   0.389   4.239  11.121  0.2582 -0.2171  0.3945
  304TMC3    O1 4638   0.761   4.002  10.849  0.1210  0.1440  0.2460
  304TMC3    O2 4639   0.378   4.125  11.163  0.9201  0.6818 -0.6130
  305MPD2     C 4640   3.716   1.446  14.189  0.7532  0.3764 -1.1320
  305MPD2    C1 4641   3.722   1.316  14.156  0.4368  0.1026  0.5188
  305MPD2    C2 4642   3.656   1.270  14.044 -0.5791  0.1148  0.0614
  305MPD2    C3 4643   3.582   1.358  13.963  0.1190 -0.4774 -1.1048
  305MPD2    C4 4644   3.576   1.491  14.006  0.3337 -0.1449 -0.3808
  305MPD2    C5 4645   3.641   1.536  14.116  0.5618 -0.5391 -1.0268
  305MPD2     H 4646   3.656   1.163  14.028 -1.9700  0.1573 -0.1729
  305MPD2    H1 4647   3.529   1.572  13.952 -0.0843  0.0878  0.3331
  305MPD2    H2 4648   3.770   1.478  14.277  0.6069 -0.7221 -0.6551
  305MPD2    H3 4649   3.643   1.641  14.144 -1.4325 -0.8134  0.1580
  305MPD2     N 4650   3.498   1.313  13.855  0.0957  0.5963 -0.1802
  305MPD2    H5 4651   3.441   1.385  13.812 -1.2069 -0.6033 -0.4430
  305MPD2    N1 4652   3.792   1.236  14.250 -0.3118 -0.0869 -0.2994
  305MPD2    H7 4653   3.836   1.284  14.328  0.3201  1.9806 -1.9341
  306TMC3    C1 4654   3.854   1.047  14.376 -0.6683 -0.4660  0.0524
  306TMC3    C2 4655   3.934   0.936  14.379  1.3072 -0.7065  0.0024
  306TMC3    C3 4656   3.990   0.903  14.501  0.0229  0.1337  0.3660
  306TMC3    C4 4657   3.804   1.101  14.484 -0.0836 -0.1659  0.6477
  306TMC3    C5 4658   3.859   1.062  14.603 -1.4962 -0.1249  0.6526
  306TMC3    C6 4659   3.954   0.965  14.615 -0.5192 -0.3638  0.4442
  306TMC3     C 4660   3.809   1.100  14.251 -0.5852  0.1881  0.2733
  306TMC3     O 4661   3.769   1.016  14.169  0.4796 -0.5220 -0.3010
  306TMC3     H 4662   3.966   0.887  14.287  1.1872  2.4741 -1.7410
  306TMC3    H1 4663   3.730   1.180  14.484  1.0352  0.9038 -1.0692
  306TMC3    H2 4664   4.012   0.945  14.705  0.5087  0.5723 -0.0144
  306TMC3    C7 4665   3.851   1.170  14.701  0.6153  0.1428 -0.2243
  306TMC3    C8 4666   4.061   0.772  14.501 -0.1689  0.2645 -0.6441
  306TMC3    O1 4667   3.746   1.230  14.708 -0.0072 -0.2818  0.2190
  306TMC3    O2 4668   4.105   0.729  14.394  0.0844  0.1597  0.1592
  307MPD2     C 4669   1.248   3.967   0.443 -0.0637  0.0404 -0.6189
  307MPD2    C1 4670   1.202   4.096   0.426  0.2698 -0.2283  0.1755
  307MPD2    C2 4671   1.124   4.148   0.526 -0.3015  0.0813 -0.2262
  307MPD2    C3 4672   1.069   4.074   0.628 -0.2054  0.1488 -0.2313
  307MPD2    C4 4673   1.104   3.940   0.634  0.3132  0.6504 -0.2144
  307MPD2    C5 4674   1.197   3.891   0.547 -0.1210 -0.3507  0.2884
  307MPD2     H 4675   1.102   4.254   0.515  0.0998  0.1801 -0.0987
  307MPD2    H1 4676   1.053   3.870   0.699 -0.1621  0.9848 -0.2275
  307MPD2    H2 4677   1.311   3.919   0.369  0.7074  0.2371 -0.0973
  307MPD2    H3 4678   1.213   3.784   0.554 -0.3954 -0.2635  2.2770
  307MPD2     N 4679   0.980   4.139   0.719  0.1369 -0.2191  0.3391
  307MPD2    H5 4680   0.963   4.239   0.711  1.0511  0.0812  2.1797
  307MPD2    N1 4681   1.231   4.179   0.313  0.2060 -0.3456  0.1017
  307MPD2    H7 4682   1.225   4.279   0.329 -0.9444 -0.6901  1.8812
  308TMC3    C1 4683   0.553   4.115   0.888 -0.5142 -0.0536 -0.0177
  308TMC3    C2 4684   0.539   4.250   0.898 -0.0091 -0.4030 -1.0154
  308TMC3    C3 4685   0.657   4.317   0.894  0.4158 -0.7136 -0.5364
  308TMC3    C4 4686   0.677   4.057   0.864 -0.3207 -0.0440  0.4585
  308TMC3    C5 4687   0.787   4.135   0.855 -0.3226 -0.8284 -0.6487
  308TMC3    C6 4688   0.780   4.270   0.874  0.2645  0.1246  0.6117
  308TMC3     C 4689   0.436   4.027   0.872 -0.3050 -0.1270 -0.0659
  308TMC3     O 4690   0.461   3.913   0.909  0.3889  0.3952  0.2925
  308TMC3     H 4691   0.451   4.311   0.912  2.0146  2.6006 -1.2693
  308TMC3    H1 4692   0.677   3.951   0.841  2.6018  0.0927 -0.1503
  308TMC3    H2 4693   0.870   4.330   0.887 -0.6582  1.3400  1.3633
  308TMC3    C7 4694   0.899   4.068   0.802  0.2643  0.2055  0.5154
  308TMC3    C8 4695   0.651   4.455   0.932  0.1519 -0.3024 -0.0744
  308TMC3    O1 4696   0.900   3.952   0.820  0.4535 -0.2013  0.3412
  308TMC3    O2 4697   0.552   4.486   0.996  0.0184  0.0223 -0.2365
  309MPD2     C 4698   0.050   0.204  17.337 -0.4342 -0.2195 -0.3186
  309MPD2    C1 4699   4.721   0.190  17.219  0.2667  0.7706 -0.0722
  309MPD2    C2 4700   4.586   0.154  17.231  0.4422  0.0486  0.0545
  309MPD2    C3 4701   4.517   0.147  17.353 -0.2212 -0.2000 -0.5487
  309MPD2    C4 4702   4.592   0.165  17.468  0.1475  0.4885 -0.4515
  309MPD2    C5 4703   4.722   0.206  17.456  1.0798  0.3679  0.0421
  309MPD2     H 4704   4.537   0.137  17.136  3.7349  1.7803 -1.9580
  309MPD2    H1 4705   4.548   0.168  17.567  1.4393  1.2472  0.1043
  309MPD2    H2 4706   0.155   0.232  17.337 -0.2405 -0.9543 -0.6768
  309MPD2    H3 4707   0.038   0.211  17.549  1.6293 -2.2014 -0.1269
  309MPD2     N 4708   4.385   0.114  17.366  0.3888 -0.0672 -0.3951
  309MPD2    H5 4709   4.340   0.120  17.458  1.1894 -0.9503  0.0487
  309MPD2    N1 4710   0.047   0.194  17.096 -0.9580 -0.1752  0.4542
  309MPD2    H7 4711   4.720   0.173  17.022 -1.1470 -0.8060  0.8049
  310TMC3    C1 4712   0.218   0.189  16.922  0.6321 -0.1840 -0.5595
  310TMC3    C2 4713   0.117   0.181  16.822  0.4847 -0.2737 -0.1401
  310TMC3    C3 4714   0.160   0.148  16.697  0.0127  0.3389  0.4455
  310TMC3    C4 4715   0.349   0.159  16.901 -0.9691  0.1825 -0.2586
  310TMC3    C5 4716   0.383   0.114  16.777 -0.3729 -0.3510  0.2731
  310TMC3    C6 4717   0.286   0.104  16.678  0.1849  0.7177 -0.3202
  310TMC3     C 4718   0.185   0.203  17.066  0.0256 -0.5452  0.9446
  310TMC3     O 4719   0.279   0.211  17.145 -0.3786 -0.0837 -0.0481
  310TMC3     H 4720   0.019   0.226  16.833  0.9950  1.2735 -1.8028
  310TMC3    H1 4721   0.419   0.154  16.983 -2.4728 -2.6510  0.8567
  310TMC3    H2 4722   0.308   0.063  16.580 -1.5089  1.5987 -1.0872
  310TMC3    C7 4723   0.503   0.030  16.760 -0.3713  0.3767  0.0465
  310TMC3    C8 4724   0.053   0.111  16.599  0.6125  0.5982 -0.0648
  310TMC3    O1 4725   0.485   4.667  16.696 -0.1405 -0.3130 -0.0088
  310TMC3    O2 4726   0.103   0.105  16.484 -0.0006 -0.1604 -0.1089
  311MPD2     C 4727   2.375   1.594  12.642  0.3682 -0.1026 -0.0780
  311MPD2    C1 4728   2.297   1.596  12.759 -0.3166 -0.2839  0.3851
  311MPD2    C2 4729   2.233   1.482  12.797 -0.0173 -0.0726 -0.1911
  311MPD2    C3 4730   2.246   1.361  12.735  0.2405  0.0027  0.5003
  311MPD2    C4 4731   2.333   1.351  12.627 -0.1052 -0.3153 -0.4231
  311MPD2    C5 4732   2.391   1.475  12.576 -0.2210  0.2146  0.0043
  311MPD2     H 4733   2.170   1.490  12.885  1.4135  1.7622  0.6568
  311MPD2    H1 4734   2.342   1.266  12.561 -1.2608 -0.3899 -0.4792
  311MPD2    H2 4735   2.421   1.681  12.597  3.1406 -1.7509 -0.3882
  311MPD2    H3 4736   2.448   1.471  12.484  0.8815  1.3552  0.6439
  311MPD2     N 4737   2.176   1.249  12.793  0.2247 -0.4104  0.1998
  311MPD2    H5 4738   2.129   1.267  12.882  0.6635 -1.0660  0.5575
  311MPD2    N1 4739   2.267   1.710  12.837 -0.6609 -0.0483  0.1720
  311MPD2    H7 4740   2.214   1.697  12.922 -0.3856  0.1992  0.3829
  312TMC3    C1 4741   2.089   1.023  12.802 -0.7888  0.4238 -0.3642
  312TMC3    C2 4742   2.020   0.936  12.722  0.6267 -0.4441  0.3701
  312TMC3    C3 4743   1.895   0.890  12.762 -0.1718 -0.3464  0.2304
  312TMC3    C4 4744   2.045   1.053  12.926  0.0526  0.1671  0.0268
  312TMC3    C5 4745   1.924   1.003  12.963  0.7440 -0.6273 -0.2325
  312TMC3    C6 4746   1.847   0.922  12.885  0.6928 -0.5338  0.3400
  312TMC3     C 4747   2.169   1.123  12.734  0.7430  0.6697 -0.6504
  312TMC3     O 4748   2.221   1.081  12.631  0.3142  0.0499  0.1253
  312TMC3     H 4749   2.058   0.911  12.624  0.7297  0.8358  0.0805
  312TMC3    H1 4750   2.106   1.125  12.979  1.2811 -0.8138 -0.0426
  312TMC3    H2 4751   1.746   0.896  12.916  0.7242 -0.6950  0.3069
  312TMC3    C7 4752   1.852   1.063  13.074 -0.4320  0.1976  0.4057
  312TMC3    C8 4753   1.815   0.840  12.660  0.7094 -0.0362 -0.2698
  312TMC3    O1 4754   1.731   1.076  13.058  0.0879 -0.4585  0.8777
  312TMC3    O2 4755   1.831   0.879  12.546  0.8789 -0.1065  0.0668
  313MPD2     C 4756   1.133   0.281  11.337  0.5737 -0.1197 -0.3021
  313MPD2    C1 4757   1.231   0.354  11.271  0.8193 -0.0453 -0.1422
  313MPD2    C2 4758   1.352   0.295  11.247  0.5116  0.2245 -1.5575
  313MPD2    C3 4759   1.390   0.173  11.291 -0.2164 -0.4522  0.1681
  313MPD2    C4 4760   1.293   0.098  11.365  0.1853 -0.2405  0.1258
  313MPD2    C5 4761   1.173   0.157  11.383  0.0104  1.0084 -0.4650
  313MPD2     H 4762   1.427   0.358  11.201  0.7161  1.7972  0.8996
  313MPD2    H1 4763   1.294   4.738  11.407  3.6238 -0.8353 -1.3307
  313MPD2    H2 4764   1.032   0.315  11.351  0.1723 -1.2439 -0.4968
  313MPD2    H3 4765   1.098   0.097  11.435  0.3659  0.2776 -0.7969
  313MPD2     N 4766   1.517   0.124  11.244  0.6303  0.1011  0.0911
  313MPD2    H5 4767   1.577   0.187  11.193  0.9313 -0.9512 -0.8674
  313MPD2    N1 4768   1.217   0.490  11.236 -0.0162 -0.3779 -0.2755
  313MPD2    H7 4769   1.296   0.538  11.195 -0.4682  1.3662  0.9054
  314TMC3    C1 4770   1.104   0.680  11.140  0.4085 -0.5043  0.1856
  314TMC3    C2 4771   1.202   0.767  11.177 -0.4372  0.6752  0.0813
  314TMC3    C3 4772   1.218   0.882  11.095 -0.8311  0.2057 -0.8190
  314TMC3    C4 4773   1.028   0.704  11.033  0.3304 -1.0038 -0.3953
  314TMC3    C5 4774   1.047   0.814  10.958  0.5733 -0.3407 -0.1556
  314TMC3    C6 4775   1.141   0.912  10.988 -0.5695  0.1117  0.2325
  314TMC3     C 4776   1.097   0.545  11.201  0.1048 -0.0150 -0.4187
  314TMC3     O 4777   0.982   0.498  11.182 -0.2340  0.2729 -1.3369
  314TMC3     H 4778   1.248   0.743  11.272 -1.9189  1.9341  1.1192
  314TMC3    H1 4779   0.958   0.628  11.001 -1.5147  0.2550  0.5708
  314TMC3    H2 4780   1.155   1.005  10.934 -3.5395  0.4100 -0.0379
  314TMC3    C7 4781   0.984   0.813  10.829  0.1151  0.0595 -0.2460
  314TMC3    C8 4782   1.330   0.965  11.123 -0.7841 -1.3051  0.2277
  314TMC3    O1 4783   0.908   0.721  10.798 -0.3257  0.2567  0.2770
  314TMC3    O2 4784   1.340   1.075  11.071  0.0005  0.3935 -0.1746
  315MPD2     C 4785   1.644   4.259   0.027  0.4189  0.4436  0.3566
  315MPD2    C1 4786   1.678   4.327   0.138  0.1688 -0.1765 -0.0311
  315MPD2    C2 4787   1.709   4.460   0.129  0.1998  0.3598 -0.1931
  315MPD2    C3 4788   1.737   4.515   0.003 -0.3216  0.2858 -0.2062
  315MPD2    C4 4789   1.721   4.437  17.647 -0.1342 -0.0930 -0.0001
  315MPD2    C5 4790   1.672   4.313  17.658  0.9062  0.2940 -0.2955
  315MPD2     H 4791   1.718   4.529   0.212 -1.1039 -1.4520  1.4340
  315MPD2    H1 4792   1.744   4.477  17.549 -0.6798 -1.0539 -0.5122
  315MPD2    H2 4793   1.606   4.158   0.030  1.0642  0.2128  0.7191
  315MPD2    H3 4794   1.656   4.251  17.571  0.0237  0.5996 -0.3582
  315MPD2     N 4795   1.789   4.650  17.743 -0.1192 -0.0944 -0.1386
  315MPD2    H5 4796   1.806   4.699   0.076  1.7489 -3.2969  1.3211
  315MPD2    N1 4797   1.671   4.263   0.268 -0.9626 -0.0801  0.1439
  315MPD2    H7 4798   1.696   4.320   0.348  0.3106 -2.0771  1.1459
  316TMC3    C1 4799   1.868   0.108  17.672 -0.2183  0.1651 -0.1655
  316TMC3    C2 4800   1.963   0.105   0.013 -0.0428  0.0360 -0.4269
  316TMC3    C3 4801   2.011   0.224   0.065  1.3660  0.0021 -0.0921
  316TMC3    C4 4802   1.810   0.222  17.620 -0.3780  0.0859 -0.0831
  316TMC3    C5 4803   1.855   0.338  17.678  0.0856  0.6801 -1.0386
  316TMC3    C6 4804   1.958   0.339   0.014 -0.2050  0.4724 -0.2164
  316TMC3     C 4805   1.790   4.730  17.639 -0.1103  0.1974  0.2235
  316TMC3     O 4806   1.749   4.715  17.524  0.0488  0.0188 -0.0767
  316TMC3     H 4807   2.003   0.011   0.050  0.0030  0.9897  1.9626
  316TMC3    H1 4808   1.720   0.213  17.561  0.5937 -1.8174 -1.3037
  316TMC3    H2 4809   1.965   0.429   0.075 -2.0779  1.3603 -1.3006
  316TMC3    C7 4810   1.761   0.447  17.688 -0.1841  0.3902 -0.3166
  316TMC3    C8 4811   2.091   0.215   0.186 -0.3589  0.0222 -0.5064
  316TMC3    O1 4812   1.742   0.493   0.044 -0.2089 -0.5305 -0.1958
  316TMC3    O2 4813   2.095   0.322   0.240 -0.2815 -0.1052  0.0806
  317MPD2     C 4814   4.209   2.790  12.547  0.0230  0.2525 -0.3004
  317MPD2    C1 4815   4.226   2.654  12.551 -0.0203 -0.4276 -0.7079
  317MPD2    C2 4816   4.233   2.607  12.680 -0.1962 -0.0692  0.0635
  317MPD2    C3 4817   4.234   2.686  12.796 -0.3713  0.1818  0.3028
  317MPD2    C4 4818   4.225   2.824  12.784  0.4970 -0.3622 -0.1700
  317MPD2    C5 4819   4.214   2.876  12.660 -0.0446  0.6279 -0.3276
  317MPD2     H 4820   4.241   2.500  12.693 -0.1370  0.2892  2.9075
  317MPD2    H1 4821   4.229   2.897  12.864 -0.6819 -0.2390 -0.2173
  317MPD2    H2 4822   4.216   2.842  12.452 -1.0296 -0.9214 -1.0371
  317MPD2    H3 4823   4.210   2.984  12.648  0.8795  0.9489  2.2174
  317MPD2     N 4824   4.242   2.625  12.927 -0.0545  0.5357  0.1386
  317MPD2    H5 4825   4.250   2.525  12.915  1.7892  0.5390  1.2938
  317MPD2    N1 4826   4.236   2.576  12.437  0.6949 -0.3053 -0.1099
  317MPD2    H7 4827   4.258   2.478  12.452  1.6293  0.3218  2.5760
  318TMC3    C1 4828   4.239   2.605  13.162  0.4338 -0.0314  0.1318
  318TMC3    C2 4829   4.213   2.474  13.139 -0.0610  0.2590  0.2545
  318TMC3    C3 4830   4.247   2.390  13.248  0.3978 -0.0945 -0.3124
  318TMC3    C4 4831   4.292   2.657  13.275  1.2274 -0.3140 -0.1060
  318TMC3    C5 4832   4.332   2.566  13.373  0.7559 -0.5441 -0.1018
  318TMC3    C6 4833   4.298   2.434  13.362 -0.0986  0.4489 -0.3857
  318TMC3     C 4834   4.233   2.688  13.049 -0.6062 -0.4241  0.2379
  318TMC3     O 4835   4.230   2.811  13.075 -0.0472 -0.0680 -0.0274
  318TMC3     H 4836   4.183   2.424  13.048  1.9975  0.1367 -0.3494
  318TMC3    H1 4837   4.308   2.762  13.295  0.2173  0.2463 -2.2989
  318TMC3    H2 4838   4.323   2.363  13.440  0.7637  0.9238 -0.2334
  318TMC3    C7 4839   4.399   2.610  13.490  0.3653  0.2490  0.4528
  318TMC3    C8 4840   4.190   2.260  13.241  0.2234  0.1479  0.3195
  318TMC3    O1 4841   4.369   2.726  13.521 -0.4824  0.5097  0.1997
  318TMC3    O2 4842   4.243   2.179  13.321 -0.1408  0.0850 -0.0488
  319MPD2     C 4843   4.545   4.247  16.482 -0.1342 -0.1780  0.6202
  319MPD2    C1 4844   4.478   4.199  16.599  0.0253  1.2132 -0.0948
  319MPD2    C2 4845   4.355   4.132  16.577  0.3744  0.7775  0.3581
  319MPD2    C3 4846   4.315   4.110  16.442 -0.0584  0.3232 -0.1253
  319MPD2    C4 4847   4.378   4.156  16.336 -0.0332  0.2442 -0.5711
  319MPD2    C5 4848   4.492   4.231  16.355 -0.3279  0.7567  0.5577
  319MPD2     H 4849   4.289   4.098  16.656  1.3904  2.5449  1.9726
  319MPD2    H1 4850   4.345   4.141  16.234 -2.0480  0.3642  0.0680
  319MPD2    H2 4851   4.628   4.315  16.497 -0.6267  0.2165  1.6291
  319MPD2    H3 4852   4.541   4.276  16.270  0.3490 -0.2738  0.4161
  319MPD2     N 4853   4.197   4.043  16.411 -0.2288  0.3146 -0.6640
  319MPD2    H5 4854   4.168   4.050  16.314  3.3682 -0.2864 -1.7711
  319MPD2    N1 4855   4.523   4.223  16.736 -0.9715  0.1538 -0.3081
  319MPD2    H7 4856   4.466   4.179  16.807  1.1102  2.4768  2.7661
  320TMC3    C1 4857   3.993   3.923  16.441 -0.8272 -0.2094 -0.0764
  320TMC3    C2 4858   3.909   4.012  16.386 -0.3508 -0.1347  0.3558
  320TMC3    C3 4859   3.775   3.979  16.376 -0.0333 -0.5688 -0.0228
  320TMC3    C4 4860   3.950   3.791  16.482  0.4048  0.2227 -0.5129
  320TMC3    C5 4861   3.824   3.754  16.447 -0.3713  0.0645  0.4621
  320TMC3    C6 4862   3.730   3.848  16.400  0.2436 -0.1124  0.6537
  320TMC3     C 4863   4.116   3.973  16.502  0.9628 -0.4268 -0.1782
  320TMC3     O 4864   4.139   3.935  16.616  0.1107 -0.2318  0.2922
  320TMC3     H 4865   3.942   4.114  16.374 -1.1554 -0.0554 -1.1092
  320TMC3    H1 4866   4.018   3.716  16.521 -0.0279  1.0152  1.7572
  320TMC3    H2 4867   3.626   3.817  16.397  0.5601 -1.3208  2.3283
  320TMC3    C7 4868   3.810   3.619  16.401 -0.0586  0.1913 -0.1059
  320TMC3    C8 4869   3.694   4.067  16.302 -0.1060  0.5542 -0.6251
  320TMC3    O1 4870   3.742   3.603  16.300 -0.0686  0.2292  0.2247
  320TMC3    O2 4871   3.746   4.143  16.227  0.2910  0.5788  0.1826
  321TMC3    C1 4872   4.637   4.296  16.925  0.0546  0.0410 -1.2057
  321TMC3    C2 4873   4.582   4.192  17.000 -1.1986 -0.1861  0.4663
  321TMC3    C3 4874   4.527   4.232  17.121  0.3873  0.1527  1.0249
  321TMC3    C4 4875   4.646   4.429  16.964  0.2149 -0.3241  0.2639
  321TMC3    C5 4876   4.598   4.458  17.087  0.0854 -0.4002 -0.4235
  321TMC3    C6 4877   4.525   4.370  17.158  0.2114  0.5324 -0.0926
  321TMC3     C 4878   4.644   4.283  16.779 -0.3825 -0.8293  0.0707
  321TMC3     O 4879   4.711   4.357  16.711  0.4652  0.1365 -0.2228
  321TMC3     H 4880   4.571   4.089  16.968  1.1581 -0.8895  1.9422
  321TMC3    H1 4881   4.678   4.508  16.898  0.1520  1.1190  1.9533
  321TMC3    H2 4882   4.471   4.405  17.245 -3.4961  0.5195 -2.4236
  321TMC3    C7 4883   4.690   4.546  17.166  0.0040 -0.2099 -0.4255
  321TMC3    C8 4884   4.561   4.155  17.236  0.2501  0.3356 -0.3763
  321TMC3    O1 4885   0.031   4.611  17.101  0.9929 -0.9129  0.0443
  321TMC3    O2 4886   4.590   4.222  17.337  0.0960 -0.7158  0.2457
  322MPD2     C 4887   3.378   0.355  13.120 -1.1347 -1.3681 -0.5797
  322MPD2    C1 4888   3.383   0.310  13.252 -0.3698  0.8912 -0.4916
  322MPD2    C2 4889   3.402   0.178  13.282  0.4778  0.4636 -0.1867
  322MPD2    C3 4890   3.407   0.082  13.190  0.3776 -0.1692  0.3748
  322MPD2    C4 4891   3.410   0.121  13.059  0.2970  0.3364  0.3937
  322MPD2    C5 4892   3.402   0.257  13.027 -0.1199 -0.5902 -0.3337
  322MPD2     H 4893   3.399   0.140  13.383 -0.1852  0.2617 -0.2828
  322MPD2    H1 4894   3.406   0.043  12.984 -1.3698  0.3595  0.4687
  322MPD2    H2 4895   3.372   0.457  13.085  1.0580 -0.4847  1.6038
  322MPD2    H3 4896   3.411   0.279  12.921 -0.5918 -1.1831 -0.4976
  322MPD2     N 4897   3.429   4.683  13.230  0.0370 -0.5718  0.2046
  322MPD2    H5 4898   3.435   4.670  13.330 -2.7915 -2.3917  0.1424
  322MPD2    N1 4899   3.376   0.409  13.355 -0.1467  0.2841  0.0442
  322MPD2    H7 4900   3.377   0.507  13.327 -2.5182 -0.5055 -2.8063
  323TMC3    C1 4901   3.406   0.515  13.558 -0.4193 -0.6590  0.9247
  323TMC3    C2 4902   3.511   0.588  13.506 -0.2903 -0.2708 -0.0264
  323TMC3    C3 4903   3.588   0.654  13.599  0.0236  0.4684  0.2325
  323TMC3    C4 4904   3.392   0.508  13.692 -0.6070 -0.5697 -0.6947
  323TMC3    C5 4905   3.463   0.584  13.780 -0.1730 -0.5921 -0.9435
  323TMC3    C6 4906   3.564   0.662  13.734 -0.2632 -0.2158  0.6165
  323TMC3     C 4907   3.362   0.396  13.490 -0.7318  0.0862  0.1782
  323TMC3     O 4908   3.354   0.293  13.556 -0.5435 -0.3950  0.1156
  323TMC3     H 4909   3.537   0.593  13.401 -1.1658 -1.3363 -0.2848
  323TMC3    H1 4910   3.311   0.447  13.731 -0.6319 -0.2045 -0.1786
  323TMC3    H2 4911   3.647   0.693  13.797  0.6178 -0.5496 -0.3828
  323TMC3    C7 4912   3.493   0.509  13.906 -0.0730  0.3111 -0.0262
  323TMC3    C8 4913   3.725   0.680  13.568 -0.6766 -0.4912  0.8571
  323TMC3    O1 4914   3.445   0.396  13.926  0.1359  0.3723  0.4398
  323TMC3    O2 4915   3.814   0.638  13.641  0.3228 -0.1678 -0.2253
  324MPD2     C 4916   0.597   1.581  14.133 -0.4491  0.1556  0.2170
  324MPD2    C1 4917   0.590   1.700  14.199 -0.1999 -0.3738  0.3287
  324MPD2    C2 4918   0.471   1.755  14.240 -0.9027 -0.3270 -0.1240
  324MPD2    C3 4919   0.347   1.692  14.213 -0.2270  0.1290 -0.2398
  324MPD2    C4 4920   0.354   1.577  14.135  0.3543  0.4812 -0.0336
  324MPD2    C5 4921   0.476   1.531  14.097 -0.3440 -0.2251 -0.5363
  324MPD2     H 4922   0.473   1.846  14.299  0.7261 -1.0781  0.9695
  324MPD2    H1 4923   0.268   1.518  14.107  1.5188 -1.3594  0.2810
  324MPD2    H2 4924   0.690   1.538  14.099 -0.3409  1.1567 -0.7445
  324MPD2    H3 4925   0.471   1.434  14.049 -1.1613  0.8978 -2.7392
  324MPD2     N 4926   0.215   1.725  14.263  0.0325 -0.1491 -0.3395
  324MPD2    H5 4927   0.151   1.647  14.256  2.0864 -1.7007 -1.7358
  324MPD2    N1 4928   0.701   1.777  14.239 -0.2606 -0.4558 -0.3935
  324MPD2    H7 4929   0.685   1.874  14.262 -0.4405 -0.1201 -1.9069
  325TMC3    C1 4930   0.054   1.861  14.360  0.4224 -0.8988 -0.6413
  325TMC3    C2 4931   4.700   1.797  14.278  0.2602 -0.6916 -0.3154
  325TMC3    C3 4932   4.566   1.805  14.308 -0.2332 -0.9245 -0.0388
  325TMC3    C4 4933   0.008   1.941  14.461  0.1801  0.0234  0.0588
  325TMC3    C5 4934   4.615   1.945  14.485  0.7498  0.4125 -0.3404
  325TMC3    C6 4935   4.520   1.885  14.409 -0.4913 -0.1302  0.6074
  325TMC3     C 4936   0.195   1.849  14.323  0.6661  0.6907  0.0630
  325TMC3     O 4937   0.259   1.957  14.335 -0.0190 -0.2097 -0.1903
  325TMC3     H 4938   4.730   1.732  14.197 -1.0248 -0.8745 -0.6472
  325TMC3    H1 4939   0.078   1.972  14.538 -2.4294  3.4048  1.0821
  325TMC3    H2 4940   4.416   1.908  14.425 -0.2550  1.0241  0.4622
  325TMC3    C7 4941   4.565   2.030  14.596 -0.0000  0.1723  1.0915
  325TMC3    C8 4942   4.481   1.728  14.225 -0.7303 -0.4260 -0.3429
  325TMC3    O1 4943   4.652   2.085  14.666 -0.7048  0.1463 -0.2554
  325TMC3    O2 4944   4.533   1.646  14.151  0.2744 -0.2998  0.3085
  326MPD2     C 4945   1.397   2.727  10.962  0.2895 -0.1569  0.2017
  326MPD2    C1 4946   1.437   2.768  10.837 -0.5205  0.8497  0.2663
  326MPD2    C2 4947   1.560   2.829  10.812 -1.0626 -1.0342 -0.4767
  326MPD2    C3 4948   1.647   2.859  10.915  0.6292 -0.1671  0.3579
  326MPD2    C4 4949   1.599   2.824  11.044  0.1816  0.6679  0.6908
  326MPD2    C5 4950   1.476   2.758  11.065  0.4387 -0.4140 -0.0381
  326MPD2     H 4951   1.590   2.861  10.714 -1.7491  2.3819  0.4293
  326MPD2    H1 4952   1.656   2.839  11.135  4.0681  0.2214 -1.6692
  326MPD2    H2 4953   1.295   2.697  10.986 -0.5884  0.4656 -2.7544
  326MPD2    H3 4954   1.454   2.737  11.169  0.5631  1.0898  0.2815
  326MPD2     N 4955   1.769   2.925  10.903  0.5591 -0.1756  0.5168
  326MPD2    H5 4956   1.817   2.946  10.991  1.1109  0.2635  0.1104
  326MPD2    N1 4957   1.361   2.743  10.718  0.0060 -0.6788  0.2618
  326MPD2    H7 4958   1.396   2.785  10.632  0.3119 -2.8521 -0.6741
  327TMC3    C1 4959   1.199   2.696  10.568  0.5773 -1.0861 -0.2494
  327TMC3    C2 4960   1.127   2.807  10.531  0.0741 -0.2691 -0.9892
  327TMC3    C3 4961   1.146   2.854  10.409 -0.4427  0.7561  0.3006
  327TMC3    C4 4962   1.288   2.637  10.479  0.3021 -0.3025  0.0592
  327TMC3    C5 4963   1.299   2.689  10.357 -0.1421  0.0721 -0.2839
  327TMC3    C6 4964   1.236   2.803  10.324 -0.9236 -0.5125 -0.5592
  327TMC3     C 4965   1.231   2.696  10.710 -0.7711  0.0633 -0.3700
  327TMC3     O 4966   1.144   2.671  10.796  0.5412 -0.1536 -0.0274
  327TMC3     H 4967   1.081   2.860  10.613  1.5395  3.1488 -2.3784
  327TMC3    H1 4968   1.323   2.537  10.500  2.2270  0.5955  1.0377
  327TMC3    H2 4969   1.257   2.842  10.225 -0.5858 -1.1693 -0.7475
  327TMC3    C7 4970   1.429   2.677  10.298  0.2173 -0.8979 -0.9391
  327TMC3    C8 4971   1.090   2.981  10.376 -0.2168  0.4139  0.1687
  327TMC3    O1 4972   1.448   2.680  10.177  0.3253  0.5918  0.0437
  327TMC3    O2 4973   1.092   3.071  10.457 -0.1641  0.4222  0.4926
  328MPD2     C 4974   3.995   2.964  17.691  0.4619  0.4209 -0.0934
  328MPD2    C1 4975   3.885   2.886  17.681 -0.0838 -0.8787  0.1044
  328MPD2    C2 4976   3.817   2.868  17.558  0.7725  0.0787 -0.1237
  328MPD2    C3 4977   3.876   2.930  17.447 -0.0183 -0.0365  0.3795
  328MPD2    C4 4978   3.989   3.003  17.463 -0.4683  0.2737 -0.2187
  328MPD2    C5 4979   4.048   3.021  17.583 -0.5039 -0.0021 -0.4097
  328MPD2     H 4980   3.730   2.805  17.546  1.0160 -0.2290 -0.2787
  328MPD2    H1 4981   4.046   3.038  17.377  0.5398 -1.2537 -0.1692
  328MPD2    H2 4982   4.037   2.980   0.035  0.4379 -1.8108  0.2784
  328MPD2    H3 4983   4.133   3.088  17.590 -2.1148  1.8793  1.3536
  328MPD2     N 4984   3.816   2.920  17.315  0.1651 -0.8123 -0.3364
  328MPD2    H5 4985   3.859   2.978  17.243  0.1373  0.7939  0.9426
  328MPD2    N1 4986   3.838   2.832   0.046 -0.5676 -0.1052  0.2622
  328MPD2    H7 4987   3.890   2.865   0.128 -0.2820  1.1818 -0.4276
  329TMC3    C1 4988   3.692   2.728   0.194  0.7128  0.2597  0.1833
  329TMC3    C2 4989   3.680   2.840   0.269  0.9636 -0.0076  0.3106
  329TMC3    C3 4990   3.647   2.825   0.398 -0.7879  0.1990  0.2084
  329TMC3    C4 4991   3.677   2.602   0.243  0.1835  0.1415 -0.5186
  329TMC3    C5 4992   3.673   2.592   0.381  0.0140  0.4221 -0.4434
  329TMC3    C6 4993   3.653   2.702   0.460  0.7029 -0.5519 -0.3854
  329TMC3     C 4994   3.734   2.742   0.060  0.8500  0.0024 -0.3130
  329TMC3     O 4995   3.677   2.668  17.734 -0.4556 -0.5207 -0.4546
  329TMC3     H 4996   3.680   2.938   0.222 -1.9591  0.5349  1.4931
  329TMC3    H1 4997   3.697   2.525   0.169 -1.3239  1.5906 -2.4426
  329TMC3    H2 4998   3.627   2.693   0.565 -0.7806  1.9133 -0.5349
  329TMC3    C7 4999   3.671   2.469   0.455  0.2693 -0.2590 -0.0854
  329TMC3    C8 5000   3.583   2.929   0.478 -0.3015  0.7025 -0.1192
  329TMC3    O1 5001   3.685   2.477   0.577 -0.5945  0.4216  0.7024
  329TMC3    O2 5002   3.589   2.921   0.600  0.0830  0.1551 -0.7723
  330TMC3    C1 5003   1.131   1.668   9.114  0.0418  1.5175 -0.1297
  330TMC3    C2 5004   1.000   1.664   9.163  0.4781  0.3744 -0.7347
  330TMC3    C3 5005   0.979   1.651   9.297  0.7111 -0.1017 -0.4977
  330TMC3    C4 5006   1.241   1.658   9.199  0.1417 -0.2552 -0.1840
  330TMC3    C5 5007   1.212   1.651   9.334 -0.2460 -0.4342  1.2427
  330TMC3    C6 5008   1.084   1.645   9.385 -0.6640  0.0592  0.1889
  330TMC3     C 5009   1.163   1.712   8.977 -0.2197 -0.1087 -0.3442
  330TMC3     O 5010   1.271   1.670   8.932 -0.4559  0.1571 -0.2066
  330TMC3     H 5011   0.920   1.651   9.091 -0.0233 -0.7392  0.0294
  330TMC3    H1 5012   1.343   1.659   9.162  0.3729 -1.1878  0.4446
  330TMC3    H2 5013   1.060   1.656   9.490 -1.1841  1.4513 -0.0796
  330TMC3    C7 5014   1.322   1.620   9.425  0.0286 -0.0285 -0.3740
  330TMC3    C8 5015   0.849   1.598   9.339  0.7177 -0.0584  0.0899
  330TMC3    O1 5016   1.283   1.622   9.542 -0.0451 -0.1834  0.2887
  330TMC3    O2 5017   0.762   1.590   9.249  0.1144 -0.3930  0.6909
  331MPD2     C 5018   0.503   0.868  12.980 -0.1992 -0.4267 -0.8410
  331MPD2    C1 5019   0.368   0.861  12.944 -0.3248  0.4682  0.4278
  331MPD2    C2 5020   0.286   0.772  13.011 -0.0716 -0.4947  0.1459
  331MPD2    C3 5021   0.343   0.678  13.090  0.0867 -1.2249 -1.1391
  331MPD2    C4 5022   0.474   0.683  13.119 -0.5476  0.1355  0.3414
  331MPD2    C5 5023   0.548   0.780  13.076 -0.6009  0.1557 -0.1879
  331MPD2     H 5024   0.182   0.756  12.989 -0.2211 -1.2666  1.4222
  331MPD2    H1 5025   0.522   0.600  13.169 -1.5217  0.7223  2.2593
  331MPD2    H2 5026   0.576   0.938  12.940 -0.5479  0.5166  0.1470
  331MPD2    H3 5027   0.655   0.774  13.091 -0.7873 -0.1041  1.0346
  331MPD2     N 5028   0.265   0.568  13.129 -0.1412  0.4001 -0.0849
  331MPD2    H5 5029   0.174   0.581  13.087  0.1483 -0.3917 -0.9678
  331MPD2    N1 5030   0.329   0.950  12.839  0.1249  0.1113  0.1604
  331MPD2    H7 5031   0.395   1.001  12.782  0.2510  2.4100  2.3698
  332TMC3    C1 5032   0.197   0.343  13.147  1.1199  0.1555 -0.6849
  332TMC3    C2 5033   0.076   0.387  13.093 -0.1855  0.1415 -0.0914
  332TMC3    C3 5034   0.005   0.279  13.041 -0.0326 -0.4328 -0.4733
  332TMC3    C4 5035   0.242   0.220  13.135  0.5450 -0.4072  0.5012
  332TMC3    C5 5036   0.174   0.125  13.078 -0.3630 -0.5894  0.0268
  332TMC3    C6 5037   0.048   0.147  13.034 -0.0575 -0.1874 -0.1586
  332TMC3     C 5038   0.304   0.439  13.156  0.9091 -0.3054 -0.4082
  332TMC3     O 5039   0.417   0.396  13.170 -0.6696 -0.1620  0.2643
  332TMC3     H 5040   0.036   0.487  13.101 -0.7934  0.1764 -3.5145
  332TMC3    H1 5041   0.330   0.192  13.191  1.8258 -0.3336 -1.4554
  332TMC3    H2 5042   4.738   0.065  12.982 -1.2666  1.0840 -1.0374
  332TMC3    C7 5043   0.248   0.006  13.038  0.2061 -0.2910  0.4944
  332TMC3    C8 5044   4.621   0.317  12.981  0.3544  0.5907  0.2937
  332TMC3    O1 5045   0.184   4.644  13.029 -0.4032 -0.2994  0.2944
  332TMC3    O2 5046   4.621   0.430  12.931 -0.1382  0.2784  0.5818
  333MPD2     C 5047   4.623   1.578  11.276  0.8713  0.1355  0.6669
  333MPD2    C1 5048   4.685   1.506  11.173  0.0569 -0.4451  0.1817
  333MPD2    C2 5049   4.725   1.380  11.210  0.6513  0.3637 -0.3063
  333MPD2    C3 5050   4.704   1.323  11.338  0.5482 -0.0845  0.0828
  333MPD2    C4 5051   4.634   1.392  11.430 -0.0049 -0.2965 -0.4725
  333MPD2    C5 5052   4.596   1.519  11.398  0.3531 -0.6862 -0.5794
  333MPD2     H 5053   0.025   1.321  11.128  0.3899  0.0522 -0.2076
  333MPD2    H1 5054   4.619   1.353  11.530  1.7743  2.1591  0.7504
  333MPD2    H2 5055   4.583   1.679  11.269 -0.2816 -0.2118  2.2708
  333MPD2    H3 5056   4.547   1.593  11.461 -2.1958 -1.4070 -1.7593
  333MPD2     N 5057   0.010   1.187  11.366  0.4567  0.3918  0.4318
  333MPD2    H5 5058   0.073   1.146  11.298 -0.3734  0.1045 -0.1780
  333MPD2    N1 5059   4.683   1.559  11.041 -0.3578  0.3181  0.1637
  333MPD2    H7 5060   4.652   1.655  11.035  1.4110  0.8256 -0.7916
  334TMC3    C1 5061   4.708   1.559  10.815 -0.2471 -0.3746  1.2894
  334TMC3    C2 5062   0.044   1.504  10.716 -0.4089 -0.5949  0.0396
  334TMC3    C3 5063   0.107   1.591  10.628  0.4540 -0.6983 -1.0088
  334TMC3    C4 5064   4.689   1.692  10.820  0.5794 -0.2829 -0.5977
  334TMC3    C5 5065   0.001   1.778  10.731 -0.5610  0.0264  0.1152
  334TMC3    C6 5066   0.084   1.729  10.631  0.0767  1.0189 -0.3069
  334TMC3     C 5067   4.692   1.482  10.927 -0.0739 -0.6002 -0.1202
  334TMC3     O 5068   4.712   1.365  10.913  0.0679  0.1374 -0.3776
  334TMC3     H 5069   0.074   1.399  10.711  0.3652 -0.3293 -0.9051
  334TMC3    H1 5070   4.615   1.728  10.891  1.3092  0.8103 -0.3919
  334TMC3    H2 5071   0.113   1.795  10.550  0.7133  0.3064 -0.6570
  334TMC3    C7 5072   4.718   1.921  10.727 -0.0604 -0.3033 -0.2231
  334TMC3    C8 5073   0.215   1.543  10.551 -0.5282 -0.0278 -0.1744
  334TMC3    O1 5074   0.057   1.989  10.663  0.4643  0.3542  0.0723
  334TMC3    O2 5075   0.217   1.418  10.544  0.0427  0.6336 -0.0819
  335TMC3    C1 5076   4.473   2.941  17.347 -0.4748 -0.9907  0.4434
  335TMC3    C2 5077   4.443   2.832  17.265 -0.0112 -0.5890 -0.0633
  335TMC3    C3 5078   4.537   2.786  17.182  0.8254  1.0472 -0.8626
  335TMC3    C4 5079   4.601   2.990  17.352  0.3107  0.6668  0.6657
  335TMC3    C5 5080   4.694   2.939  17.268  0.5013  0.4368  0.3943
  335TMC3    C6 5081   4.660   2.839  17.181  0.1462 -0.0177  0.9919
  335TMC3     C 5082   4.404   2.945  17.477  0.5426 -0.4913 -0.1514
  335TMC3     O 5083   4.379   3.053  17.530 -0.1496  0.0179 -0.0326
  335TMC3     H 5084   4.342   2.791  17.270  0.2295 -1.1595  0.1421
  335TMC3    H1 5085   4.626   3.067  17.425 -2.4162  0.7354  1.5109
  335TMC3    H2 5086   4.734   2.804  17.109  1.0619  1.2476  1.3251
  335TMC3    C7 5087   0.093   2.988  17.273  0.3815 -0.4038 -0.5396
  335TMC3    C8 5088   4.500   2.701  17.068  0.0192  0.1292 -0.2955
  335TMC3    O1 5089   0.156   2.964  17.171 -0.3581  0.6663  0.0934
  335TMC3    O2 5090   4.578   2.704  16.975 -0.1278 -0.0788  0.2723
  336MPD2     C 5091   3.707   0.823  16.045 -0.5377 -0.0994 -0.0615
  336MPD2    C1 5092   3.753   0.740  15.944  0.5728 -0.0639  0.1346
  336MPD2    C2 5093   3.782   0.612  15.969  0.7565 -0.5521 -0.1286
  336MPD2    C3 5094   3.766   0.559  16.095 -1.0191  0.5329 -0.2924
  336MPD2    C4 5095   3.717   0.640  16.197  0.2261 -0.7125 -0.2490
  336MPD2    C5 5096   3.694   0.771  16.173 -0.1370 -0.1412 -0.3497
  336MPD2     H 5097   3.824   0.554  15.888  1.1706  0.4476 -0.6125
  336MPD2    H1 5098   3.712   0.601  16.298 -1.4700 -0.5637 -0.2721
  336MPD2    H2 5099   3.687   0.927  16.021  1.1958 -0.2491 -2.1427
  336MPD2    H3 5100   3.660   0.836  16.254  2.8300 -0.5106  1.2033
  336MPD2     N 5101   3.805   0.429  16.139 -0.5052  0.4576 -0.3097
  336MPD2    H5 5102   3.793   0.410  16.238  1.2095  0.0530 -0.1862
  336MPD2    N1 5103   3.769   0.785  15.815 -0.0598 -0.8535  0.1162
  336MPD2    H7 5104   3.769   0.714  15.742 -1.1055 -2.0002  1.2272
  337TMC3    C1 5105   3.773   0.941  15.635  0.4303  0.1995  0.0645
  337TMC3    C2 5106   3.670   0.889  15.558 -0.1037 -0.4649  0.7346
  337TMC3    C3 5107   3.662   0.942  15.427 -0.5038  1.0480 -0.0584
  337TMC3    C4 5108   3.850   1.040  15.582 -0.1171  0.3540 -0.3260
  337TMC3    C5 5109   3.831   1.090  15.459 -0.4654  0.2960  0.7099
  337TMC3    C6 5110   3.736   1.042  15.376 -0.0679  0.9337  0.5931
  337TMC3     C 5111   3.786   0.915  15.777 -0.2381 -0.5410  0.2740
  337TMC3     O 5112   3.833   1.001  15.851 -0.2708  0.0535 -0.0916
  337TMC3     H 5113   3.611   0.809  15.601 -1.0945 -1.0365 -1.7153
  337TMC3    H1 5114   3.931   1.080  15.641 -0.6589  0.3821  0.3971
  337TMC3    H2 5115   3.720   1.078  15.275  0.7517 -1.5554 -0.4255
  337TMC3    C7 5116   3.919   1.204  15.432  0.2788  0.4823  0.3613
  337TMC3    C8 5117   3.541   0.905  15.360  0.2108  0.1827  0.6248
  337TMC3    O1 5118   4.035   1.205  15.481  0.1384  0.0988  0.3514
  337TMC3    O2 5119   3.455   0.854  15.431  0.7296  0.5466  0.0225
  338MPD2     C 5120   4.174   4.534   1.002 -0.4991 -0.0871 -0.3846
  338MPD2    C1 5121   4.097   4.510   0.888 -0.6968  0.5908  0.9359
  338MPD2    C2 5122   3.964   4.550   0.893  0.5015  0.2681 -0.6251
  338MPD2    C3 5123   3.908   4.616   1.003 -0.7127 -0.2843  0.2154
  338MPD2    C4 5124   3.987   4.634   1.108  0.6420  0.2678  0.3133
  338MPD2    C5 5125   4.121   4.592   1.109  0.5308 -0.3569 -0.3070
  338MPD2     H 5126   3.909   4.536   0.801 -1.1052  1.6588  0.1348
  338MPD2    H1 5127   3.949   4.669   1.203  1.5778 -2.0257  1.5322
  338MPD2    H2 5128   4.279   4.509   1.009 -1.0137 -2.4799 -1.4881
  338MPD2    H3 5129   4.177   4.609   1.201 -0.8410 -0.5766  0.5840
  338MPD2     N 5130   3.775   4.657   0.994 -0.0589  0.5159  0.1196
  338MPD2    H5 5131   3.721   4.617   0.918  0.5527 -1.0857  0.5272
  338MPD2    N1 5132   4.157   4.455   0.773  0.2269  0.4825 -1.1523
  338MPD2    H7 5133   4.095   4.436   0.695 -1.5656  3.2215 -0.4164
  339TMC3    C1 5134   3.569   0.017   1.057  0.1292 -0.2762  0.1800
  339TMC3    C2 5135   3.478   0.045   1.153 -0.4489  0.5653 -0.4659
  339TMC3    C3 5136   3.379   0.140   1.127 -0.2350  0.7225  0.4762
  339TMC3    C4 5137   3.546   0.071   0.929  0.5074 -0.4284  0.4328
  339TMC3    C5 5138   3.440   0.152   0.905  0.1782  0.1876 -0.0304
  339TMC3    C6 5139   3.352   0.194   1.002  0.4292  0.2612 -0.9397
  339TMC3     C 5140   3.705   4.721   1.093  0.7501  0.3014 -0.4491
  339TMC3     O 5141   3.741   0.024   1.199 -1.1033  0.1213  0.2650
  339TMC3     H 5142   3.506   0.017   1.253  0.8877 -1.6947 -1.4721
  339TMC3    H1 5143   3.616   0.064   0.847 -0.5930 -0.4770 -0.4987
  339TMC3    H2 5144   3.275   0.268   0.983 -0.9679 -1.2714 -1.2578
  339TMC3    C7 5145   3.411   0.186   0.764 -0.1316 -0.2009  0.3339
  339TMC3    C8 5146   3.280   0.177   1.236  0.2948 -0.3058 -0.2826
  339TMC3    O1 5147   3.489   0.135   0.683  0.3685  0.4705  0.1798
  339TMC3    O2 5148   3.213   0.271   1.204 -0.6647 -0.3133  0.1032
  340MPD2     C 5149   4.220   1.699  10.164 -0.3250 -0.0049  0.4323
  340MPD2    C1 5150   4.350   1.727  10.144  0.2380 -0.2952 -0.0133
  340MPD2    C2 5151   4.422   1.819  10.221  0.5178  0.5130 -0.2751
  340MPD2    C3 5152   4.352   1.891  10.325 -0.5977 -0.7268 -0.2719
  340MPD2    C4 5153   4.221   1.849  10.352  0.5299  0.0406  0.0220
  340MPD2    C5 5154   4.164   1.755  10.273  0.7911  0.0934 -0.0234
  340MPD2     H 5155   4.526   1.837  10.196  0.2338 -0.2100 -2.0163
  340MPD2    H1 5156   4.167   1.910  10.424 -0.8092  0.2918 -1.1988
  340MPD2    H2 5157   4.164   1.638  10.092 -2.8887  0.7055  1.8363
  340MPD2    H3 5158   4.061   1.732  10.296  1.1227  0.2458  1.6178
  340MPD2     N 5159   4.421   2.005  10.372 -0.1946 -0.3467 -0.4310
  340MPD2    H5 5160   4.515   2.020  10.337  0.4737  0.1163  1.5783
  340MPD2    N1 5161   4.415   1.668  10.031 -0.0894 -0.2975  0.0436
  340MPD2    H7 5162   4.355   1.598   9.989  0.3152 -0.4526 -0.2720
  341TMC3    C1 5163   4.568   1.630   9.863  0.6209  0.2527 -0.2520
  341TMC3    C2 5164   4.511   1.511   9.845 -0.6309 -0.5713  0.6046
  341TMC3    C3 5165   4.561   1.427   9.743 -0.8082 -0.1651  0.1446
  341TMC3    C4 5166   4.667   1.679   9.777 -0.2752 -0.4517  0.1852
  341TMC3    C5 5167   4.713   1.595   9.677  0.9113 -0.1889  0.3413
  341TMC3    C6 5168   4.666   1.472   9.662 -0.8671 -0.1716 -0.2729
  341TMC3     C 5169   4.536   1.706   9.977  0.3901 -0.1358  0.0157
  341TMC3     O 5170   4.599   1.807   9.992 -0.3719 -0.2857 -0.2460
  341TMC3     H 5171   4.436   1.464   9.907 -1.3047 -0.0471  0.1879
  341TMC3    H1 5172   4.706   1.780   9.786 -0.5708 -0.4620  1.6261
  341TMC3    H2 5173   4.712   1.407   9.589 -0.4395  0.9662 -1.0138
  341TMC3    C7 5174   0.063   1.659   9.579  0.4309  0.1972  0.0037
  341TMC3    C8 5175   4.510   1.294   9.738  0.1716  0.1757 -0.4629
  341TMC3    O1 5176   0.122   1.765   9.612 -0.7013 -0.0110 -0.3364
  341TMC3    O2 5177   4.463   1.242   9.838 -0.3580  0.1411  0.1869
  342MPD2     C 5178   2.119   1.199  17.531  0.7953  0.1367  0.4889
  342MPD2    C1 5179   2.182   1.181  17.409 -0.5092 -0.3164 -0.0978
  342MPD2    C2 5180   2.224   1.293  17.345  0.1737 -0.7149  1.0934
  342MPD2    C3 5181   2.217   1.426  17.397  1.1178 -0.5353 -0.5485
  342MPD2    C4 5182   2.152   1.447  17.518  0.4353 -0.7635 -0.7744
  342MPD2    C5 5183   2.104   1.332  17.583 -0.0114  0.4044 -0.1203
  342MPD2     H 5184   2.283   1.278  17.256 -1.5391 -0.4086 -0.0879
  342MPD2    H1 5185   2.143   1.541  17.571 -1.3560 -0.3163 -1.8725
  342MPD2    H2 5186   2.074   1.117  17.586  2.2065 -1.6339 -1.0163
  342MPD2    H3 5187   2.049   1.342  17.675  0.3640  0.2811  0.1168
  342MPD2     N 5188   2.272   1.536  17.331 -0.2706  0.3014 -0.7128
  342MPD2    H5 5189   2.249   1.629  17.364 -2.0417  0.4488 -2.3387
  342MPD2    N1 5190   2.214   1.045  17.357 -0.0091 -0.4303 -0.3264
  342MPD2    H7 5191   2.237   1.052  17.259  2.6425 -2.9459  0.1297
  343TMC3    C1 5192   2.278   0.814  17.373 -0.2454 -0.0291  0.3186
  343TMC3    C2 5193   2.343   0.828  17.255  0.0395 -0.1808  0.9138
  343TMC3    C3 5194   2.394   0.717  17.193  0.4195 -0.5034 -0.3694
  343TMC3    C4 5195   2.270   0.687  17.437  0.7650 -0.6971 -0.3337
  343TMC3    C5 5196   2.329   0.584  17.370 -0.1967  0.3643  0.9024
  343TMC3    C6 5197   2.392   0.594  17.251 -0.5462  0.5222  1.0305
  343TMC3     C 5198   2.208   0.925  17.436  0.8052 -0.4730 -0.2202
  343TMC3     O 5199   2.180   0.920  17.553  0.0155  0.3325  0.4603
  343TMC3     H 5200   2.353   0.923  17.203 -1.7121 -1.7160 -2.1606
  343TMC3    H1 5201   2.220   0.676  17.533 -0.3316  2.8076 -0.5130
  343TMC3    H2 5202   2.428   0.502  17.205 -5.0074 -0.0233 -1.3707
  343TMC3    C7 5203   2.308   0.453  17.424  0.2318 -0.2961  0.0137
  343TMC3    C8 5204   2.477   0.738  17.070  0.3319 -0.6232 -0.2286
  343TMC3    O1 5205   2.297   0.364  17.342 -0.2717  0.2226 -0.3270
  343TMC3    O2 5206   2.471   0.850  17.017 -0.2333  0.1863 -0.0175
  344MPD2     C 5207   4.044   0.100  11.029 -0.1877  0.7760  0.6035
  344MPD2    C1 5208   3.924   0.087  10.950 -0.1646 -0.0261  0.2514
  344MPD2    C2 5209   3.872   0.192  10.879 -0.5489  0.4066 -0.0248
  344MPD2    C3 5210   3.942   0.309  10.873 -0.4038  0.1288  0.4378
  344MPD2    C4 5211   4.063   0.327  10.941 -0.3776  0.3264  0.8340
  344MPD2    C5 5212   4.107   0.223  11.019  0.1748  0.7125 -0.1417
  344MPD2     H 5213   3.771   0.174  10.843 -0.7771  1.0339  0.2864
  344MPD2    H1 5214   4.125   0.416  10.941 -0.1920  0.1906 -0.7340
  344MPD2    H2 5215   4.098   0.023  11.082 -0.5364  1.7272  2.3404
  344MPD2    H3 5216   4.201   0.234  11.072 -0.0911  2.5838 -0.0586
  344MPD2     N 5217   3.890   0.424  10.805 -0.1025 -0.8708  0.1677
  344MPD2    H5 5218   3.956   0.499  10.788 -0.8690  0.1263  1.5722
  344MPD2    N1 5219   3.844   4.708  10.952 -0.1459  0.0955  0.0663
  344MPD2    H7 5220   3.759   4.707  10.895  1.5103 -1.0931 -2.3796
  345TMC3    C1 5221   3.742   0.567  10.690 -0.6429  0.3598  0.2823
  345TMC3    C2 5222   3.786   0.676  10.759  0.4637 -0.2439  0.3363
  345TMC3    C3 5223   3.786   0.797  10.697  0.4610  0.6977  0.0220
  345TMC3    C4 5224   3.688   0.578  10.564  0.7849  0.0792  0.3194
  345TMC3    C5 5225   3.710   0.696  10.498  0.5144  0.2466  0.2697
  345TMC3    C6 5226   3.760   0.808  10.562 -0.1066 -0.9836 -0.2524
  345TMC3     C 5227   3.766   0.435  10.739 -0.5336  0.1769  0.4376
  345TMC3     O 5228   3.690   0.341  10.716  0.4349  0.2710  0.1082
  345TMC3     H 5229   3.820   0.679  10.861 -0.6449 -0.3512  0.7069
  345TMC3    H1 5230   3.666   0.483  10.518 -1.7013  0.6378  0.3600
  345TMC3    H2 5231   3.775   0.908  10.523  0.5832 -1.6092 -1.5891
  345TMC3    C7 5232   3.620   0.714  10.382  0.0237 -0.3891 -0.8664
  345TMC3    C8 5233   3.783   0.920  10.769 -0.1716 -0.0960 -0.4101
  345TMC3    O1 5234   3.575   0.613  10.328  0.1437 -0.0225 -0.2287
  345TMC3    O2 5235   3.867   1.005  10.736 -0.0418 -0.5915 -0.2923
  346MPD2     C 5236   3.402   1.805  14.082 -1.2485  0.0270 -0.3990
  346MPD2    C1 5237   3.524   1.868  14.090  0.2339 -0.4188 -0.3949
  346MPD2    C2 5238   3.563   1.925  14.209  0.9226  0.2102 -0.2250
  346MPD2    C3 5239   3.484   1.929  14.323 -0.2354 -0.0182 -1.1083
  346MPD2    C4 5240   3.365   1.860  14.317 -0.2824  0.7311  0.2621
  346MPD2    C5 5241   3.326   1.808  14.197  0.1699 -0.1689 -0.1486
  346MPD2     H 5242   3.665   1.962  14.215  0.8550  0.2316  0.8225
  346MPD2    H1 5243   3.293   1.844  14.397 -1.1685 -1.2869 -0.9305
  346MPD2    H2 5244   3.357   1.744  14.005 -0.3657  0.3611 -1.1769
  346MPD2    H3 5245   3.232   1.753  14.198 -0.4224  0.8126 -1.1060
  346MPD2     N 5246   3.540   1.987  14.438 -0.1018 -0.0287  0.8080
  346MPD2    H5 5247   3.634   2.027  14.435 -0.9955  1.9201 -0.5300
  346MPD2    N1 5248   3.611   1.871  13.978 -0.9458  0.1557  0.4991
  346MPD2    H7 5249   3.689   1.936  13.984 -0.2640 -0.3449 -2.6201
  347TMC3    C1 5250   3.572   2.083  14.657  0.4458 -0.4106  0.1912
  347TMC3    C2 5251   3.706   2.061  14.648  0.1112 -0.2253  0.7100
  347TMC3    C3 5252   3.785   2.133  14.737  0.5994 -0.0737 -0.2398
  347TMC3    C4 5253   3.514   2.138  14.767 -0.1367  0.3145 -0.1560
  347TMC3    C5 5254   3.596   2.203  14.857 -0.1840  0.3332  0.0922
  347TMC3    C6 5255   3.735   2.204  14.843 -0.3888  0.0592  0.2951
  347TMC3     C 5256   3.480   2.015  14.560  0.8181  0.1982 -0.2701
  347TMC3     O 5257   3.363   2.004  14.592 -0.2688  0.5021  0.2102
  347TMC3     H 5258   3.749   1.994  14.575 -0.6949  0.4549 -0.3770
  347TMC3    H1 5259   3.406   2.138  14.777 -0.0963  0.4091  0.2669
  347TMC3    H2 5260   3.799   2.232  14.925  0.8372  0.3944 -0.7772
  347TMC3    C7 5261   3.536   2.265  14.977 -0.1409  0.1715 -0.3421
  347TMC3    C8 5262   3.928   2.093  14.740 -0.4841  0.1056  0.5358
  347TMC3    O1 5263   3.427   2.222  15.013  0.0251 -0.5199 -0.3673
  347TMC3    O2 5264   3.955   1.989  14.680  0.1029 -0.1148  0.5078
  348MPD2     C 5265   1.920   2.329  11.953 -0.5164 -0.2350  0.4062
  348MPD2    C1 5266   2.038   2.348  11.884  0.0999 -0.0055 -0.3455
  348MPD2    C2 5267   2.035   2.357  11.745  0.3330  0.4119 -0.2899
  348MPD2    C3 5268   1.929   2.310  11.673 -0.5275 -0.7299  0.0050
  348MPD2    C4 5269   1.814   2.284  11.746 -0.2853 -0.8107 -0.7371
  348MPD2    C5 5270   1.804   2.301  11.881  0.2758 -1.0010 -0.1033
  348MPD2     H 5271   2.122   2.382  11.684  0.0924  2.7067  0.3010
  348MPD2    H1 5272   1.726   2.235  11.704 -0.3760 -1.8427  0.6442
  348MPD2    H2 5273   1.919   2.321  12.061  1.3750 -1.0274  0.3615
  348MPD2    H3 5274   1.714   2.270  11.932  0.5604 -1.1852  0.2900
  348MPD2     N 5275   1.944   2.283  11.535 -0.1904  0.3893 -0.9003
  348MPD2    H5 5276   2.024   2.327  11.490  1.2421 -1.7111 -0.4246
  348MPD2    N1 5277   2.176   2.364  11.934  0.4033 -0.4733  0.0728
  348MPD2    H7 5278   2.254   2.365  11.870  0.4297 -2.4140  0.0833
  349TMC3    C1 5279   2.348   2.396  12.078  0.0072  0.3837 -0.0106
  349TMC3    C2 5280   2.398   2.327  12.185  0.2860 -0.3385 -0.6756
  349TMC3    C3 5281   2.504   2.247  12.175  0.4109 -0.2057  0.1276
  349TMC3    C4 5282   2.416   2.390  11.957  0.7149  0.1897  0.6068
  349TMC3    C5 5283   2.533   2.317  11.956 -0.5809 -0.1769  0.2792
  349TMC3    C6 5284   2.572   2.240  12.060  0.2558 -0.5741 -0.2878
  349TMC3     C 5285   2.205   2.393  12.065 -1.0775 -0.0293  1.0114
  349TMC3     O 5286   2.128   2.391  12.162 -0.2128 -0.8554  0.2766
  349TMC3     H 5287   2.334   2.324  12.272 -0.0842 -2.9762 -1.0508
  349TMC3    H1 5288   2.395   2.452  11.871  0.5416 -1.3016 -0.4369
  349TMC3    H2 5289   2.654   2.174  12.033  1.7836  1.5007 -0.7017
  349TMC3    C7 5290   2.537   2.246  11.827  0.0852 -0.1180 -0.3104
  349TMC3    C8 5291   2.541   2.168  12.296  0.0970  0.2410 -0.3703
  349TMC3    O1 5292   2.639   2.217  11.767 -0.6455  0.3083  0.3740
  349TMC3    O2 5293   2.460   2.144  12.381 -0.0582  0.8755  0.2414
  350MPD2     C 5294   1.640   0.041  10.313 -0.3852 -0.2873 -0.0224
  350MPD2    C1 5295   1.577   4.666  10.363 -0.5829  0.0493  0.2077
  350MPD2    C2 5296   1.593   4.647  10.494 -0.4396  0.2831  0.8886
  350MPD2    C3 5297   1.662   4.722  10.583 -0.2512 -0.0210  0.6002
  350MPD2    C4 5298   1.703   0.107  10.538  0.4570  0.3171 -0.1152
  350MPD2    C5 5299   1.696   0.128  10.404 -0.3957 -0.8289 -0.5082
  350MPD2     H 5300   1.558   4.552  10.532 -1.5517  0.2467 -0.2392
  350MPD2    H1 5301   1.748   0.178  10.607 -0.6073 -0.1227  1.0305
  350MPD2    H2 5302   1.629   0.068  10.209  3.0863 -1.3735 -0.6659
  350MPD2    H3 5303   1.742   0.220  10.367 -0.4923 -0.3742  0.5004
  350MPD2     N 5304   1.682   4.680  10.719  0.3184  0.3102 -0.2921
  350MPD2    H5 5305   1.652   4.584  10.733 -1.4954  1.0249  0.6082
  350MPD2    N1 5306   1.501   4.580  10.279  0.5274  0.5075  0.1937
  350MPD2    H7 5307   1.484   4.623  10.189  0.1369  0.6802  0.3499
  351TMC3    C1 5308   1.375   4.400  10.205  0.0369 -0.3864 -0.8727
  351TMC3    C2 5309   1.391   4.267  10.179 -1.0967 -0.4003  0.7513
  351TMC3    C3 5310   1.360   4.214  10.054 -0.7717  0.4142 -0.2556
  351TMC3    C4 5311   1.328   4.482  10.107  0.2826 -0.2607  0.2282
  351TMC3    C5 5312   1.294   4.426   9.986  0.3777 -0.9544  0.6442
  351TMC3    C6 5313   1.314   4.292   9.953  0.7815  0.3617 -0.8277
  351TMC3     C 5314   1.448   4.455  10.317  0.5427 -0.3274  0.3294
  351TMC3     O 5315   1.464   4.377  10.415 -0.7847  0.2457 -0.5423
  351TMC3     H 5316   1.423   4.204  10.261  3.1428 -1.4872 -1.6897
  351TMC3    H1 5317   1.287   4.579  10.129 -2.6596 -1.6053  0.6793
  351TMC3    H2 5318   1.287   4.244   9.860 -1.5343 -1.9534  1.0278
  351TMC3    C7 5319   1.226   4.500   9.880 -0.1242  0.6475  0.1101
  351TMC3    C8 5320   1.374   4.069  10.026  0.0701 -0.0615  0.4536
  351TMC3    O1 5321   1.177   4.437   9.787  0.1026  0.3045  0.6416
  351TMC3    O2 5322   1.326   4.028   9.921 -0.5348 -0.6129  0.0559
  352MPD2     C 5323   4.525   1.788   1.136 -0.5705  0.4321  0.2246
  352MPD2    C1 5324   4.426   1.757   1.048  0.1059  0.1806 -0.5219
  352MPD2    C2 5325   4.383   1.623   1.041 -0.4163 -0.7023 -0.1346
  352MPD2    C3 5326   4.439   1.518   1.123 -0.0669 -0.2505 -0.7419
  352MPD2    C4 5327   4.545   1.557   1.207  0.7052  0.2673  0.4272
  352MPD2    C5 5328   4.584   1.685   1.207  0.2286 -0.2855  0.0416
  352MPD2     H 5329   4.302   1.597   0.974  0.5228  3.0344 -2.6928
  352MPD2    H1 5330   4.603   1.485   1.264  0.3927 -1.8592 -1.9688
  352MPD2    H2 5331   4.569   1.888   1.140 -3.4265  1.6846  0.3425
  352MPD2    H3 5332   4.668   1.703   1.274 -1.1792 -0.2992  1.8219
  352MPD2     N 5333   4.405   1.379   1.119  0.2498  0.3020 -0.3417
  352MPD2    H5 5334   4.456   1.318   1.182 -0.0532  1.2116  0.7978
  352MPD2    N1 5335   4.366   1.867   0.981  0.4013 -0.0971 -0.1179
  352MPD2    H7 5336   4.381   1.964   1.006  2.1307 -0.1898 -0.8273
  353TMC3    C1 5337   4.287   1.193   1.050 -0.1263 -0.1596 -0.0127
  353TMC3    C2 5338   4.383   1.115   1.109  0.0497 -0.5794 -0.0913
  353TMC3    C3 5339   4.379   0.982   1.076 -0.9027  0.2217  0.0581
  353TMC3    C4 5340   4.193   1.136   0.959  0.5998  0.4335 -0.2419
  353TMC3    C5 5341   4.201   1.010   0.933  0.3834 -0.7765 -0.0881
  353TMC3    C6 5342   4.287   0.925   0.997  0.4680  0.8097 -0.3561
  353TMC3     C 5343   4.289   1.334   1.057 -0.1324 -0.5173  0.2223
  353TMC3     O 5344   4.210   1.399   0.992  0.0189 -0.5730  0.4425
  353TMC3     H 5345   4.470   1.161   1.154  0.1314  0.3946 -1.2338
  353TMC3    H1 5346   4.127   1.202   0.904  1.1793  1.6896  0.5762
  353TMC3    H2 5347   4.309   0.829   0.952  4.9707  2.1560 -1.0137
  353TMC3    C7 5348   4.124   0.937   0.834 -0.3687  0.8080  0.0592
  353TMC3    C8 5349   4.472   0.900   1.156  0.1369  0.1025  0.0683
  353TMC3    O1 5350   4.117   0.813   0.835 -0.2732  0.0278  0.0081
  353TMC3    O2 5351   4.571   0.952   1.207 -0.5305  0.2836 -0.0665
  354TMC3    C1 5352   1.764   2.739  13.453 -0.1475 -1.1559  0.6083
  354TMC3    C2 5353   1.721   2.859  13.403  0.9787  0.0375  0.3467
  354TMC3    C3 5354   1.726   2.869  13.269  0.4138 -0.6787  0.1702
  354TMC3    C4 5355   1.851   2.663  13.374  0.0398 -0.2047 -0.2675
  354TMC3    C5 5356   1.850   2.683  13.236 -0.0642  0.0531  0.9246
  354TMC3    C6 5357   1.792   2.789  13.185 -0.1073  0.1335 -0.1125
  354TMC3     C 5358   1.726   2.704  13.587  0.2630 -0.9301 -0.4526
  354TMC3     O 5359   1.616   2.746  13.625  0.3493 -0.6597  0.1874
  354TMC3     H 5360   1.644   2.912  13.458  0.0367 -0.8348 -0.1412
  354TMC3    H1 5361   1.898   2.576  13.418  1.8877  0.1231 -1.5470
  354TMC3    H2 5362   1.796   2.805  13.078 -1.3867 -1.6717 -0.4342
  354TMC3    C7 5363   1.974   2.645  13.176 -0.2924  0.4379  0.0279
  354TMC3    C8 5364   1.739   3.012  13.236  0.4739 -0.3973  0.5766
  354TMC3    O1 5365   2.026   2.538  13.209  0.2342  0.0983 -0.0777
  354TMC3    O2 5366   1.765   3.078  13.334 -0.1344  0.3343  0.4551
  355MPD2     C 5367   1.624   3.798  11.918  0.0630 -0.5660 -0.2368
  355MPD2    C1 5368   1.742   3.742  11.871 -0.1926 -0.3672  0.2520
  355MPD2    C2 5369   1.837   3.690  11.959  0.4606  0.1129  0.2127
  355MPD2    C3 5370   1.812   3.673  12.092  0.3914  0.0261 -0.0268
  355MPD2    C4 5371   1.700   3.732  12.145 -0.6592 -0.0721 -0.6922
  355MPD2    C5 5372   1.608   3.792  12.053 -0.0803 -0.4338 -0.4152
  355MPD2     H 5373   1.935   3.657  11.926 -0.3891 -2.3274  0.1985
  355MPD2    H1 5374   1.667   3.720  12.248 -0.0159 -0.4354 -0.5263
  355MPD2    H2 5375   1.554   3.842  11.847 -2.0507 -2.7084  0.5411
  355MPD2    H3 5376   1.516   3.839  12.086  1.1176  1.1323  0.6762
  355MPD2     N 5377   1.912   3.613  12.179  0.2340  0.0891  0.8731
  355MPD2    H5 5378   1.987   3.570  12.125  0.0966 -0.2587  0.9566
  355MPD2    N1 5379   1.767   3.754  11.733 -0.1119 -0.3193  0.3518
  355MPD2    H7 5380   1.697   3.797  11.673  2.4607  2.0552 -0.9994
  356TMC3    C1 5381   2.054   3.574  12.356 -0.6315 -0.4887 -0.2299
  356TMC3    C2 5382   2.138   3.538  12.248 -0.7742  1.0010 -0.8187
  356TMC3    C3 5383   2.243   3.615  12.219 -0.0906  0.1390  0.0205
  356TMC3    C4 5384   2.085   3.674  12.444 -0.4251 -0.1793  0.6800
  356TMC3    C5 5385   2.191   3.752  12.399  0.2079 -0.5259  0.2873
  356TMC3    C6 5386   2.273   3.720  12.296 -0.2574 -0.0452  0.0054
  356TMC3     C 5387   1.914   3.595  12.315 -0.3112 -0.8363  0.5435
  356TMC3     O 5388   1.822   3.621  12.402  0.1319  0.5418 -0.2555
  356TMC3     H 5389   2.118   3.452  12.186 -1.7768  1.0680 -0.5925
  356TMC3    H1 5390   2.032   3.705  12.534  0.2962  1.2504  0.6192
  356TMC3    H2 5391   2.357   3.786  12.281  0.6633 -1.3713 -0.6602
  356TMC3    C7 5392   2.240   3.839  12.500 -0.2567 -0.6249  0.4372
  356TMC3    C8 5393   2.240   3.651  12.082 -1.0827  0.2568  0.0857
  356TMC3    O1 5394   2.222   3.803  12.614 -0.1965  0.4627  0.0500
  356TMC3    O2 5395   2.151   3.600  12.017  0.6116 -0.2508 -0.2371
  357MPD2     C 5396   1.929   3.315   1.439  0.3362  0.0689  0.3478
  357MPD2    C1 5397   1.803   3.330   1.389 -0.2354 -0.3579  0.4287
  357MPD2    C2 5398   1.734   3.449   1.421 -0.4529 -0.1310 -0.9431
  357MPD2    C3 5399   1.795   3.557   1.482  0.6723 -1.2895  0.0968
  357MPD2    C4 5400   1.921   3.539   1.524  0.3933 -0.8451 -0.6070
  357MPD2    C5 5401   1.986   3.417   1.507 -0.6276 -0.3232  0.0181
  357MPD2     H 5402   1.630   3.458   1.392 -0.6710  0.4869  0.0231
  357MPD2    H1 5403   1.982   3.608   1.581  1.7376 -1.3110 -1.4801
  357MPD2    H2 5404   1.989   3.231   1.408 -0.6188 -0.0905 -1.0781
  357MPD2    H3 5405   2.087   3.407   1.546 -0.1446 -2.7443 -1.8359
  357MPD2     N 5406   1.729   3.674   1.521 -0.1945 -0.0355  0.2361
  357MPD2    H5 5407   1.764   3.729   1.599  1.5482 -0.1592 -0.4539
  357MPD2    N1 5408   1.753   3.225   1.307 -0.0691 -0.1589  0.6631
  357MPD2    H7 5409   1.802   3.139   1.327 -0.8141 -1.3330 -2.6418
  358TMC3    C1 5410   1.615   3.093   1.172 -0.0185  0.5314  0.0875
  358TMC3    C2 5411   1.496   3.076   1.103 -0.0711 -0.3650 -0.0691
  358TMC3    C3 5412   1.483   2.965   1.032  0.0391  0.0966 -1.1961
  358TMC3    C4 5413   1.713   3.000   1.171  0.3000 -0.5338 -0.0662
  358TMC3    C5 5414   1.695   2.890   1.089 -0.1715  0.1173  0.1234
  358TMC3    C6 5415   1.574   2.865   1.024 -0.5873 -0.1225  0.0218
  358TMC3     C 5416   1.633   3.223   1.234 -0.6314 -0.6189 -0.3350
  358TMC3     O 5417   1.543   3.307   1.247 -0.2155 -0.1621 -0.0369
  358TMC3     H 5418   1.412   3.144   1.097  0.5306  0.2346 -1.9491
  358TMC3    H1 5419   1.803   3.019   1.228  0.1967  0.9154 -0.3817
  358TMC3    H2 5420   1.571   2.795   0.940  0.5531  0.5408 -0.5703
  358TMC3    C7 5421   1.778   2.776   1.124 -1.1064  0.4930  0.1560
  358TMC3    C8 5422   1.381   2.966   0.926 -0.3437  0.3523 -0.4439
  358TMC3    O1 5423   1.855   2.792   1.218  0.5223  0.3488 -0.2104
  358TMC3    O2 5424   1.348   3.080   0.890  0.1522  0.7578  0.1783
  359MPD2     C 5425   1.792   2.601  12.464 -0.0612  0.2528 -0.8235
  359MPD2    C1 5426   1.815   2.541  12.341  0.6485 -0.0235 -0.1585
  359MPD2    C2 5427   1.785   2.403  12.336  0.5176  0.5564  0.3129
  359MPD2    C3 5428   1.742   2.328  12.441  0.5755  0.8273  0.0467
  359MPD2    C4 5429   1.712   2.389  12.563  0.6170 -0.4995 -0.9656
  359MPD2    C5 5430   1.749   2.523  12.572  0.7901  0.6629 -0.0118
  359MPD2     H 5431   1.806   2.343  12.248 -0.4065  0.5402  0.1084
  359MPD2    H1 5432   1.669   2.336  12.647  1.3317  2.0028  0.9810
  359MPD2    H2 5433   1.818   2.706  12.478  1.7317 -0.3685  0.4274
  359MPD2    H3 5434   1.733   2.585  12.660 -0.9151  1.3776 -0.8184
  359MPD2     N 5435   1.712   2.188  12.439  0.5757 -0.2951  0.0553
  359MPD2    H5 5436   1.681   2.157  12.530  1.5589  0.0944  0.5268
  359MPD2    N1 5437   1.884   2.590  12.229 -0.2469  0.4423  0.6298
  359MPD2    H7 5438   1.910   2.527  12.153  0.2768  0.7995  0.5056
  360TMC3    C1 5439   2.027   2.741  12.107  0.1768  0.5679  0.2456
  360TMC3    C2 5440   2.141   2.817  12.124  0.4367  0.2490  0.3134
  360TMC3    C3 5441   2.233   2.801  12.030 -0.6141 -0.0544 -0.0881
  360TMC3    C4 5442   1.986   2.697  11.979 -0.6013 -0.6257  0.0566
  360TMC3    C5 5443   2.079   2.712  11.872 -0.3685 -0.2734 -1.1172
  360TMC3    C6 5444   2.205   2.762  11.897 -0.3091 -0.2435 -0.2740
  360TMC3     C 5445   1.949   2.718  12.229 -0.2248  0.0737  0.1868
  360TMC3     O 5446   1.969   2.802  12.318 -0.0585  0.3736 -0.0206
  360TMC3     H 5447   2.176   2.834  12.226 -1.5464 -0.7238  1.1555
  360TMC3    H1 5448   1.890   2.648  11.966 -0.7520 -0.9592  2.4656
  360TMC3    H2 5449   2.268   2.778  11.810  1.7236  0.2620  1.3059
  360TMC3    C7 5450   2.046   2.679  11.728 -0.7456  0.6061  0.6846
  360TMC3    C8 5451   2.370   2.787  12.079  0.3615  0.6017  0.1006
  360TMC3    O1 5452   2.130   2.698  11.642 -0.5384 -0.9938  0.7587
  360TMC3    O2 5453   2.391   2.786  12.200 -0.0489 -0.3068  0.1659
  361MPD2     C 5454   3.150   1.241  16.458  0.1232  0.6989 -0.0117
  361MPD2    C1 5455   3.208   1.317  16.555  0.2696 -0.5431 -0.3567
  361MPD2    C2 5456   3.334   1.279  16.600 -0.2972 -0.0409 -0.0935
  361MPD2    C3 5457   3.387   1.158  16.561 -0.3364 -0.0408  0.5031
  361MPD2    C4 5458   3.327   1.085  16.462 -1.6031 -0.2027 -0.1498
  361MPD2    C5 5459   3.213   1.128  16.411  0.3939 -0.0743 -0.2219
  361MPD2     H 5460   3.388   1.342  16.669 -2.0779 -0.6510  1.8485
  361MPD2    H1 5461   3.368   0.988  16.438  2.3497  1.5489 -0.5184
  361MPD2    H2 5462   3.060   1.277  16.409  0.5106 -2.7312 -3.2476
  361MPD2    H3 5463   3.170   1.074  16.328  1.7886 -1.2843 -0.1541
  361MPD2     N 5464   3.492   1.094  16.632  0.4585 -0.4660 -0.7630
  361MPD2    H5 5465   3.515   0.998  16.609  2.6671  0.3666 -1.9856
  361MPD2    N1 5466   3.151   1.438  16.594  0.3301 -0.1802  0.0503
  361MPD2    H7 5467   3.204   1.515  16.634 -1.3404  0.9040  0.1701
  362TMC3    C1 5468   3.001   1.607  16.599  0.3509 -0.0138  0.0212
  362TMC3    C2 5469   2.891   1.631  16.677  0.2683 -0.4535 -0.0008
  362TMC3    C3 5470   2.847   1.758  16.681 -0.5494  0.1698 -0.2697
  362TMC3    C4 5471   3.059   1.695  16.516 -0.0794 -0.4347 -0.5224
  362TMC3    C5 5472   3.006   1.822  16.524 -0.3067 -0.1253  0.5216
  362TMC3    C6 5473   2.903   1.858  16.606 -0.1562  0.0359  0.4650
  362TMC3     C 5474   3.022   1.467  16.582  0.1014 -0.5386  0.6238
  362TMC3     O 5475   2.917   1.404  16.559 -0.3048 -0.5314 -0.3825
  362TMC3     H 5476   2.841   1.550  16.730 -0.5889 -0.1292 -0.3176
  362TMC3    H1 5477   3.138   1.682  16.443  0.5197 -1.8784  0.3702
  362TMC3    H2 5478   2.859   1.958  16.609 -0.8649 -0.2454 -0.7640
  362TMC3    C7 5479   3.033   1.915  16.419  0.3293  0.3242 -0.6275
  362TMC3    C8 5480   2.708   1.766  16.709 -0.6140 -0.1730  0.1071
  362TMC3    O1 5481   3.030   2.034  16.435  0.3988  0.4582 -0.0709
  362TMC3    O2 5482   2.632   1.680  16.676  0.3231 -0.2051 -0.4111
  363TMC3    C1 5483   1.739   3.603   9.466  0.6003  0.1403  0.3287
  363TMC3    C2 5484   1.759   3.491   9.544  0.5235  0.5903  0.1824
  363TMC3    C3 5485   1.785   3.516   9.678 -0.2262  0.6643  0.1983
  363TMC3    C4 5486   1.735   3.728   9.524 -0.2692  0.1131  0.5171
  363TMC3    C5 5487   1.753   3.746   9.659 -0.2253  0.4885  0.0534
  363TMC3    C6 5488   1.780   3.637   9.744  0.2322  0.2016 -0.5537
  363TMC3     C 5489   1.708   3.584   9.330 -1.1315 -0.0776 -0.1230
  363TMC3     O 5490   1.753   3.486   9.282 -0.5086  0.6839 -0.5124
  363TMC3     H 5491   1.763   3.391   9.503  0.9277  0.5984  0.2061
  363TMC3    H1 5492   1.717   3.820   9.470 -0.2118  0.3498  0.9022
  363TMC3    H2 5493   1.788   3.645   9.851  1.8035  1.3311 -0.7500
  363TMC3    C7 5494   1.693   3.870   9.706  0.2398 -0.1534 -0.2380
  363TMC3    C8 5495   1.802   3.403   9.768  0.3835  0.2080  0.0942
  363TMC3    O1 5496   1.627   3.941   9.635 -0.5498  0.7310 -0.2804
  363TMC3    O2 5497   1.800   3.422   9.891  0.2553  0.2852  0.2522
  364MPD2     C 5498   0.891   3.317  10.043 -0.3920  0.0652 -0.0783
  364MPD2    C1 5499   0.977   3.341  10.148  0.2027 -0.0563  0.7770
  364MPD2    C2 5500   1.027   3.228  10.223 -0.4943  0.1432  0.0780
  364MPD2    C3 5501   0.990   3.099  10.189  0.0616  0.3661  0.2315
  364MPD2    C4 5502   0.915   3.077  10.077 -0.2971  0.3344  0.2327
  364MPD2    C5 5503   0.860   3.187  10.013 -0.2110  0.1000 -0.0249
  364MPD2     H 5504   1.096   3.242  10.305 -1.6592 -1.3238  1.3234
  364MPD2    H1 5505   0.882   2.981  10.039  0.2787  0.0103  0.5500
  364MPD2    H2 5506   0.854   3.403   9.989  1.0023  1.0461  0.5055
  364MPD2    H3 5507   0.798   3.158   9.929 -1.9406  1.6426  0.7054
  364MPD2     N 5508   1.038   2.985  10.249  0.7510  0.1489 -0.2543
  364MPD2    H5 5509   1.014   2.897  10.204 -1.1230  0.4660  0.1267
  364MPD2    N1 5510   1.006   3.476  10.181 -0.5152  0.0919 -0.3498
  364MPD2    H7 5511   0.947   3.545  10.136  0.6869  1.1666 -0.3116
  365TMC3    C1 5512   1.101   3.658  10.278  0.4228  0.7100 -1.0427
  365TMC3    C2 5513   0.996   3.737  10.230  0.6686  0.1478 -0.4879
  365TMC3    C3 5514   1.008   3.874  10.243  0.7238  0.3107  0.4259
  365TMC3    C4 5515   1.199   3.716  10.351 -0.4565  0.4155  0.4336
  365TMC3    C5 5516   1.197   3.848  10.374  0.1136  1.2984  0.9084
  365TMC3    C6 5517   1.101   3.931  10.321  0.8918 -0.0856  0.6698
  365TMC3     C 5518   1.117   3.515  10.261 -0.3854  0.0187  0.2668
  365TMC3     O 5519   1.198   3.449  10.331  0.0335 -0.4887  0.1738
  365TMC3     H 5520   0.912   3.702  10.172  0.5723 -2.1692  1.0719
  365TMC3    H1 5521   1.275   3.661  10.406  2.2997  1.4368 -2.3629
  365TMC3    H2 5522   1.106   4.039  10.325  3.4085 -0.1504 -1.0063
  365TMC3    C7 5523   1.307   3.909  10.458  0.1420 -0.0296  0.1919
  365TMC3    C8 5524   0.926   3.951  10.153 -0.6328  0.5006 -0.1303
  365TMC3    O1 5525   1.349   4.021  10.430  0.0708 -0.0081  0.0307
  365TMC3    O2 5526   0.898   4.063  10.189 -0.3920  0.1073  0.0768
  366MPD2     C 5527   3.199   0.132  15.539  0.4274  1.3343  0.2365
  366MPD2    C1 5528   3.291   0.134  15.440  0.6096  0.1909 -1.2399
  366MPD2    C2 5529   3.320   0.012  15.381  0.0928 -0.0739  0.4736
  366MPD2    C3 5530   3.275   4.631  15.432  0.3135 -1.1289  0.2970
  366MPD2    C4 5531   3.189   4.630  15.536  0.2533  0.6330  0.4369
  366MPD2    C5 5532   3.143   0.011  15.581  0.1562 -0.1427  0.2122
  366MPD2     H 5533   3.399   0.006  15.308 -2.0987  1.1583 -1.9758
  366MPD2    H1 5534   3.154   4.538  15.580  2.0688 -0.5745 -0.6443
  366MPD2    H2 5535   3.162   0.226  15.579  0.3836  0.8383  1.3651
  366MPD2    H3 5536   3.067   0.005  15.658 -0.7858 -1.3420 -0.8126
  366MPD2     N 5537   3.347   4.521  15.384 -0.2668 -1.0986 -0.2521
  366MPD2    H5 5538   3.409   4.545  15.307  0.0663  1.8323  0.9232
  366MPD2    N1 5539   3.352   0.248  15.384  0.1206 -0.2583 -0.5154
  366MPD2    H7 5540   3.432   0.240  15.322 -0.2406 -1.5272 -0.8172
  367TMC3    C1 5541   3.435   0.469  15.384 -0.0983 -0.3009  0.2302
  367TMC3    C2 5542   3.538   0.494  15.470 -0.5155 -0.0150  0.0441
  367TMC3    C3 5543   3.655   0.523  15.415 -0.1395  0.0599  0.0898
  367TMC3    C4 5544   3.454   0.478  15.251 -0.4337 -0.0496 -0.3371
  367TMC3    C5 5545   3.576   0.502  15.199 -0.3573  0.2366 -0.2781
  367TMC3    C6 5546   3.680   0.523  15.278 -0.2395 -0.0539 -0.4324
  367TMC3     C 5547   3.328   0.375  15.425  0.9757  0.7942  0.2531
  367TMC3     O 5548   3.250   0.419  15.503 -0.0327 -0.4210 -0.0377
  367TMC3     H 5549   3.526   0.480  15.577  2.4763  1.2187  0.5149
  367TMC3    H1 5550   3.376   0.432  15.191 -1.3449  2.6020 -1.1593
  367TMC3    H2 5551   3.782   0.525  15.243 -0.1806  2.9873 -0.0329
  367TMC3    C7 5552   3.594   0.500  15.059 -0.4920 -0.1383  0.7197
  367TMC3    C8 5553   3.760   0.542  15.519 -0.3835 -0.6735 -0.4207
  367TMC3    O1 5554   3.497   0.529  14.993 -0.5180 -0.7382 -0.4412
  367TMC3    O2 5555   3.736   0.516  15.638  0.0621  0.8562  0.2603
  368MPD2     C 5556   0.607   1.040  13.309  0.2551  0.1608  0.5679
  368MPD2    C1 5557   0.592   1.112  13.193  0.0055  0.2352  0.8737
  368MPD2    C2 5558   0.689   1.105  13.095 -0.4758  0.1955 -0.1173
  368MPD2    C3 5559   0.805   1.046  13.115 -0.3751  0.0250 -1.1138
  368MPD2    C4 5560   0.815   0.966  13.228 -0.1473 -0.3105 -0.5497
  368MPD2    C5 5561   0.718   0.964  13.323  0.5601  0.6028  0.3918
  368MPD2     H 5562   0.679   1.169  13.008  3.3912  0.7482 -0.1635
  368MPD2    H1 5563   0.912   0.920  13.240  0.5559  1.0812 -0.8525
  368MPD2    H2 5564   0.532   1.037  13.388  1.8075 -0.4008  2.0374
  368MPD2    H3 5565   0.727   0.895  13.406 -1.8728  0.2456  0.3654
  368MPD2     N 5566   0.908   1.038  13.013 -0.0447 -0.3055 -0.7291
  368MPD2    H5 5567   1.001   1.006  13.036  0.1035 -0.9378 -2.2275
  368MPD2    N1 5568   0.469   1.180  13.175  0.4141  0.6022 -0.0030
  368MPD2    H7 5569   0.416   1.192  13.261  0.5998  0.0027  0.1957
  369TMC3    C1 5570   0.339   1.361  13.085 -0.1779 -0.0362 -0.0686
  369TMC3    C2 5571   0.346   1.461  12.984 -0.6595 -0.3946 -0.2356
  369TMC3    C3 5572   0.238   1.475  12.911  0.0490 -0.3560  0.5806
  369TMC3    C4 5573   0.218   1.297  13.111 -0.1007  0.6010 -0.0928
  369TMC3    C5 5574   0.116   1.316  13.026 -0.3603 -0.0768 -0.6855
  369TMC3    C6 5575   0.121   1.411  12.931  0.0039  0.8143  0.8903
  369TMC3     C 5576   0.449   1.264  13.065 -0.1994  0.0637  0.2644
  369TMC3     O 5577   0.497   1.269  12.950  0.7505  0.5108 -0.1074
  369TMC3     H 5578   0.441   1.510  12.968 -0.4907 -1.1099 -1.4344
  369TMC3    H1 5579   0.217   1.206  13.170  1.9958 -0.2102 -1.3017
  369TMC3    H2 5580   0.035   1.441  12.872  0.5651 -0.1672 -0.4028
  369TMC3    C7 5581   4.727   1.301  13.084  0.4309 -0.0112 -0.9588
  369TMC3    C8 5582   0.274   1.515  12.778 -0.4287  1.3616  0.4341
  369TMC3    O1 5583   4.734   1.281  13.203  0.2154 -0.2763 -0.2939
  369TMC3    O2 5584   0.184   1.548  12.703  0.3195  0.3250 -0.3121
  370TMC3    C1 5585   4.610   2.306  16.106 -0.2513 -0.1513  0.1573
  370TMC3    C2 5586   4.531   2.238  16.199  0.5360  0.5075  0.4956
  370TMC3    C3 5587   4.493   2.110  16.164  0.0304 -0.1135 -0.6044
  370TMC3    C4 5588   4.626   2.270  15.975 -0.2595 -0.3985  0.1220
  370TMC3    C5 5589   4.575   2.144  15.948  0.0141 -0.7841 -0.0086
  370TMC3    C6 5590   4.532   2.056  16.047  0.4335  0.0892 -0.4264
  370TMC3     C 5591   4.673   2.421  16.162  1.2484  0.2147 -0.0607
  370TMC3     O 5592   4.678   2.428  16.284  0.1878 -0.0861 -0.5518
  370TMC3     H 5593   4.491   2.282  16.289 -0.2849 -0.3139  0.5339
  370TMC3    H1 5594   4.687   2.321  15.900 -0.8108  2.1321  1.3809
  370TMC3    H2 5595   4.483   1.962  16.023 -1.1429  0.6874  0.4928
  370TMC3    C7 5596   4.627   2.083  15.832  0.3852 -0.1243  0.1561
  370TMC3    C8 5597   4.493   2.016  16.272 -0.1180  0.0008  0.0657
  370TMC3    O1 5598   4.618   2.138  15.723  0.4036  0.1299  0.5700
  370TMC3    O2 5599   4.532   1.904  16.248  0.3261 -0.2608 -0.1429
  371TMC3    C1 5600   1.048   0.581  15.162  0.3129  0.6399  0.0637
  371TMC3    C2 5601   0.938   0.560  15.243 -0.1898  0.3880 -0.6660
  371TMC3    C3 5602   0.872   0.673  15.288 -0.2866 -0.4250  0.0543
  371TMC3    C4 5603   1.092   0.703  15.128  0.1345  0.2327 -0.7510
  371TMC3    C5 5604   1.023   0.815  15.175 -0.1682  0.4626 -0.4099
  371TMC3    C6 5605   0.913   0.801  15.254 -0.3692 -0.0415 -0.7517
  371TMC3     C 5606   1.122   0.465  15.104 -0.2053  0.5425  0.4820
  371TMC3     O 5607   1.195   0.482  15.008  0.7032  0.6890 -0.1480
  371TMC3     H 5608   0.922   0.463  15.288 -1.4628  0.6515 -0.5288
  371TMC3    H1 5609   1.183   0.717  15.071  1.0765  0.2514  0.7495
  371TMC3    H2 5610   0.862   0.890  15.289  3.1508  0.7245  2.4050
  371TMC3    C7 5611   1.077   0.941  15.153  0.0506  0.4506  0.1638
  371TMC3    C8 5612   0.770   0.649  15.386 -0.4971  0.2667  0.1683
  371TMC3    O1 5613   1.043   1.035  15.221 -0.5119  0.0283 -0.4677
  371TMC3    O2 5614   0.757   0.533  15.418 -0.4350  0.4998  0.1604
  372MPD2     C 5615   0.943   1.527  12.835 -0.1539 -0.3478  0.6802
  372MPD2    C1 5616   1.052   1.524  12.927  0.2681 -0.1726 -0.5310
  372MPD2    C2 5617   1.042   1.481  13.064  0.1745  0.6172  0.4928
  372MPD2    C3 5618   0.924   1.432  13.107  0.1831  0.3986 -0.2212
  372MPD2    C4 5619   0.817   1.422  13.021 -0.5706 -0.6841  0.7101
  372MPD2    C5 5620   0.828   1.475  12.892  0.0081  0.1330 -0.1842
  372MPD2     H 5621   1.135   1.479  13.120  1.2542  0.7172 -1.3073
  372MPD2    H1 5622   0.726   1.372  13.052 -0.7319 -0.6757  0.2517
  372MPD2    H2 5623   0.951   1.568  12.735  0.1229  0.8270  1.1899
  372MPD2    H3 5624   0.744   1.480  12.824 -2.7674  0.1337  3.2792
  372MPD2     N 5625   0.929   1.381  13.241  0.1383  0.1668 -0.1378
  372MPD2    H5 5626   1.012   1.388  13.300  0.5765  1.2100 -0.8773
  372MPD2    N1 5627   1.180   1.571  12.906 -0.0104  0.2472 -0.0302
  372MPD2    H7 5628   1.237   1.579  12.990  2.6272  1.9181 -1.9807
  373TMC3    C1 5629   0.820   1.271  13.418 -0.7504  0.3549  0.9210
  373TMC3    C2 5630   0.713   1.264  13.499 -1.0752  0.1471  0.5417
  373TMC3    C3 5631   0.720   1.186  13.608  0.2084 -0.1977  0.1364
  373TMC3    C4 5632   0.928   1.191  13.440 -0.7043  0.0724 -0.8963
  373TMC3    C5 5633   0.931   1.109  13.549  0.4028  1.4902  0.4430
  373TMC3    C6 5634   0.824   1.103  13.636 -0.2730  0.1231  0.1519
  373TMC3     C 5635   0.813   1.365  13.309  0.9257 -0.2952 -0.3326
  373TMC3     O 5636   0.709   1.425  13.293  0.1725  0.2825  0.0144
  373TMC3     H 5637   0.619   1.304  13.462 -0.1257  1.6068 -0.3312
  373TMC3    H1 5638   1.005   1.186  13.365 -0.4267  0.5167 -0.6399
  373TMC3    H2 5639   0.802   1.034  13.716 -0.2450  1.1985  1.0850
  373TMC3    C7 5640   1.045   1.023  13.556  0.3916  0.3853  0.4461
  373TMC3    C8 5641   0.593   1.154  13.663  0.1303  0.1462  0.3117
  373TMC3    O1 5642   1.101   1.001  13.452  0.0335 -0.2014 -0.0447
  373TMC3    O2 5643   0.558   1.040  13.644 -0.7950  0.0652 -0.0783
  374TMC3    C1 5644   1.074   2.360   9.263  0.2849  0.6504  0.1394
  374TMC3    C2 5645   1.166   2.296   9.337 -0.1042  1.3546  0.4404
  374TMC3    C3 5646   1.175   2.161   9.318 -0.5809  0.3575  1.0776
  374TMC3    C4 5647   0.989   2.292   9.179  0.1535  0.0776  0.4005
  374TMC3    C5 5648   1.011   2.159   9.162 -0.1073  0.2302  0.8262
  374TMC3    C6 5649   1.098   2.088   9.235 -0.5636  0.0945 -0.7901
  374TMC3     C 5650   1.055   2.502   9.264  0.3478 -0.3554 -0.3220
  374TMC3     O 5651   0.944   2.539   9.234  0.2914 -0.0135  0.3460
  374TMC3     H 5652   1.234   2.352   9.400  0.2590  2.9962 -1.4331
  374TMC3    H1 5653   0.903   2.342   9.134 -0.3001 -0.4719  0.6594
  374TMC3    H2 5654   1.109   1.981   9.227  0.1704  0.1571 -0.6013
  374TMC3    C7 5655   0.918   2.071   9.087 -1.0142  0.1706  0.4084
  374TMC3    C8 5656   1.270   2.078   9.388  0.2828  0.6630  0.5599
  374TMC3    O1 5657   0.906   1.953   9.113  0.5650  0.0854  0.3088
  374TMC3    O2 5658   1.288   1.965   9.357 -0.4362 -0.0437 -0.1102
  375MPD2     C 5659   0.975   2.460  17.031 -0.0233  0.6628  0.3837
  375MPD2    C1 5660   1.081   2.557  17.033  0.1755 -0.2115  0.1574
  375MPD2    C2 5661   1.200   2.515  16.979 -0.5685 -0.6352 -0.9558
  375MPD2    C3 5662   1.222   2.388  16.927  0.2943 -0.0778 -0.4280
  375MPD2    C4 5663   1.118   2.298  16.932  0.3701  0.2348 -0.3009
  375MPD2    C5 5664   0.996   2.333  16.985  0.5077  0.3606 -0.5247
  375MPD2     H 5665   1.276   2.591  16.967  1.3706 -2.0875  2.1665
  375MPD2    H1 5666   1.139   2.204  16.882 -1.6249 -0.7566  0.7269
  375MPD2    H2 5667   0.870   2.474  17.054  0.1124  1.5263  0.4871
  375MPD2    H3 5668   0.919   2.259  17.004  0.7802 -0.1076 -1.2422
  375MPD2     N 5669   1.347   2.349  16.860  0.4089 -0.4865 -0.3009
  375MPD2    H5 5670   1.358   2.254  16.826 -0.3883 -1.8721  3.3146
  375MPD2    N1 5671   1.056   2.694  17.071  0.2282 -0.7047  0.3140
  375MPD2    H7 5672   1.129   2.758  17.041  0.7124 -0.8198  1.2355
  376TMC3    C1 5673   1.560   2.362  16.769  0.2974  0.9305  0.8462
  376TMC3    C2 5674   1.694   2.393  16.775  0.1206 -0.2282  0.5621
  376TMC3    C3 5675   1.775   2.344  16.674  0.3430  0.0628  0.4647
  376TMC3    C4 5676   1.508   2.287  16.659  0.1987 -0.5835  0.3973
  376TMC3    C5 5677   1.595   2.238  16.563 -0.6594  0.0191  0.3345
  376TMC3    C6 5678   1.732   2.253  16.575 -0.2837 -0.5534 -0.1475
  376TMC3     C 5679   1.465   2.417  16.858  0.0666 -0.2073  0.7262
  376TMC3     O 5680   1.511   2.517  16.920 -0.5013 -0.0787  0.2704
  376TMC3     H 5681   1.737   2.450  16.857 -1.7875  1.3403  0.4929
  376TMC3    H1 5682   1.400   2.282  16.646 -0.2709  4.2717  2.3397
  376TMC3    H2 5683   1.793   2.204  16.500  1.4327  1.5584 -0.1492
  376TMC3    C7 5684   1.545   2.239  16.427 -0.2422 -0.5663 -0.4047
  376TMC3    C8 5685   1.921   2.369  16.680 -0.5491  0.0702  0.3756
  376TMC3    O1 5686   1.441   2.305  16.409  0.0909  0.3203 -0.1736
  376TMC3    O2 5687   1.961   2.416  16.784  0.6709 -0.2655 -0.6206
  377MPD2     C 5688   4.361   1.636  12.921  0.2254  0.0607 -0.1717
  377MPD2    C1 5689   4.294   1.717  12.831 -0.0266 -1.1043 -0.0803
  377MPD2    C2 5690   4.157   1.728  12.842  0.4231  0.2189 -0.0868
  377MPD2    C3 5691   4.085   1.663  12.943 -0.0955 -0.4162 -0.9027
  377MPD2    C4 5692   4.159   1.583  13.033  0.6937  0.2366  0.2150
  377MPD2    C5 5693   4.294   1.579  13.021 -0.2173  0.6906  0.0912
  377MPD2     H 5694   4.105   1.784  12.765 -1.6360  0.8542  1.7390
  377MPD2    H1 5695   4.108   1.522  13.107  0.4863 -2.8155 -2.4754
  377MPD2    H2 5696   4.466   1.615  12.902  0.7425  1.9331  0.6537
  377MPD2    H3 5697   4.354   1.519  13.089 -2.1071  0.7367  1.8121
  377MPD2     N 5698   3.942   1.648  12.941  0.5293 -0.0912  0.0830
  377MPD2    H5 5699   3.896   1.581  13.002  1.9160  0.8482  2.1627
  377MPD2    N1 5700   4.357   1.750  12.710 -0.3109 -0.2887 -0.0809
  377MPD2    H7 5701   4.452   1.716  12.701  0.9722  3.5971 -1.6296
  378TMC3    C1 5702   4.390   1.876  12.257  0.9971 -0.4393 -0.0068
  378TMC3    C2 5703   4.325   1.885  12.370  0.1057  0.1394 -0.1185
  378TMC3    C3 5704   4.379   1.822  12.480  0.5312  0.0360  0.0201
  378TMC3    C4 5705   4.508   1.806  12.244  0.4211 -0.2858  0.2296
  378TMC3    C5 5706   4.564   1.758  12.361  0.6908  0.2017 -0.0334
  378TMC3    C6 5707   4.500   1.755  12.478 -0.1431  0.1196  0.6943
  378TMC3     C 5708   4.294   1.889  12.144 -0.5306 -0.0402  0.0357
  378TMC3     O 5709   4.176   1.895  12.165 -0.0307  0.2905 -0.6996
  378TMC3     H 5710   4.239   1.949  12.382 -0.6735 -0.5255 -2.1464
  378TMC3    H1 5711   4.559   1.778  12.152  1.0147  0.1407  0.4284
  378TMC3    H2 5712   4.534   1.692  12.559  0.2198  0.6666  0.9663
  378TMC3    C7 5713   4.702   1.706  12.354 -0.2982  0.3157 -0.3774
  378TMC3    C8 5714   4.302   1.828  12.602  0.2080  0.3760 -0.1282
  378TMC3    O1 5715   0.008   1.624  12.433  0.3467 -0.0921  0.3245
  378TMC3    O2 5716   4.195   1.884  12.593 -0.4894 -0.2618  0.2100
  379MPD2     C 5717   4.405   4.589  16.398 -0.2806  0.2194 -0.8135
  379MPD2    C1 5718   4.483   4.685  16.346  0.1617 -0.5662 -0.4478
  379MPD2    C2 5719   4.573   0.010  16.434 -0.0903  0.4332  0.6915
  379MPD2    C3 5720   4.591   4.710  16.562  0.6125  0.1952  0.3386
  379MPD2    C4 5721   4.509   4.613  16.618  0.0555  0.4014  0.0849
  379MPD2    C5 5722   4.419   4.550  16.531  0.2797 -0.0559 -0.0083
  379MPD2     H 5723   4.632   0.094  16.401 -0.3939  1.1035  1.8468
  379MPD2    H1 5724   4.502   4.588  16.723  1.3599  0.3171  0.1512
  379MPD2    H2 5725   4.325   4.546  16.339  0.9790 -1.9799 -0.9268
  379MPD2    H3 5726   4.368   4.460  16.565  0.5874  0.7617  2.5794
  379MPD2     N 5727   4.681   0.046  16.647 -0.1007  0.2917  0.0143
  379MPD2    H5 5728   4.670   0.045  16.748  0.2535  0.2263  0.0521
  379MPD2    N1 5729   4.459   4.720  16.212 -0.2509  0.2789 -0.4475
  379MPD2    H7 5730   4.403   4.658  16.154  1.0157  0.4399 -1.8324
  380TMC3    C1 5731   4.432   0.141  16.028  0.1681 -0.6378 -0.5614
  380TMC3    C2 5732   4.432   0.032  15.941  0.3450 -0.1562  0.5647
  380TMC3    C3 5733   4.376   0.056  15.812  0.0214  0.1494  0.9579
  380TMC3    C4 5734   4.385   0.268  15.990 -0.4253  0.1191  0.2062
  380TMC3    C5 5735   4.319   0.277  15.869  0.1258 -0.3931  0.6009
  380TMC3    C6 5736   4.319   0.173  15.775  0.1264  0.4880  0.4108
  380TMC3     C 5737   4.466   0.111  16.170  0.5587  0.2349  0.7750
  380TMC3     O 5738   4.506   0.209  16.230 -0.1011 -0.2826 -0.4860
  380TMC3     H 5739   4.480   4.677  15.964 -0.2188 -0.5318  0.2144
  380TMC3    H1 5740   4.402   0.358  16.048 -0.7658 -0.9232  1.9540
  380TMC3    H2 5741   4.278   0.192  15.676 -3.1127  0.3106  1.7181
  380TMC3    C7 5742   4.301   0.418  15.829 -0.3643 -0.8663  0.0152
  380TMC3    C8 5743   4.405   4.710  15.699  0.3275  0.2683  0.2286
  380TMC3    O1 5744   4.381   0.504  15.869 -0.4188 -0.2118 -0.4355
  380TMC3    O2 5745   4.347   4.736  15.596  0.2104  0.0298 -0.1516
  381TMC3    C1 5746   4.589   1.363  16.065 -0.0657 -0.5385 -0.2106
  381TMC3    C2 5747   4.643   1.486  16.046  0.2934  0.6071 -0.3796
  381TMC3    C3 5748   4.664   1.559  16.161  0.1845  0.4193 -0.3551
  381TMC3    C4 5749   4.538   1.331  16.185  0.0333  0.1877 -0.0893
  381TMC3    C5 5750   4.537   1.418  16.291 -0.3552  0.9399 -0.7013
  381TMC3    C6 5751   4.609   1.529  16.286 -0.4098  0.7213 -0.7130
  381TMC3     C 5752   4.602   1.261  15.970 -0.1439 -0.0396  0.2139
  381TMC3     O 5753   4.591   1.144  16.006  0.0428  0.0909  0.1108
  381TMC3     H 5754   4.697   1.520  15.959 -0.5574  1.2442 -0.6567
  381TMC3    H1 5755   4.495   1.234  16.205  2.3652 -0.3105  2.4045
  381TMC3    H2 5756   4.653   1.562  16.379  0.5863 -1.1034 -0.5259
  381TMC3    C7 5757   4.492   1.374  16.427  0.0950 -0.1078  0.5016
  381TMC3    C8 5758   0.058   1.623  16.162  0.0343  0.1455  0.0265
  381TMC3    O1 5759   4.462   1.259  16.442  0.3504 -0.2913  0.4109
  381TMC3    O2 5760   0.143   1.577  16.089 -0.2407 -0.0923 -0.3479
  382MPD2     C 5761   3.771   3.698  17.048  0.5717 -0.4289 -0.6285
  382MPD2    C1 5762   3.807   3.739  17.173 -0.1777  0.9995  0.7413
  382MPD2    C2 5763   3.850   3.642  17.265  0.0649  0.1635  0.1823
  382MPD2    C3 5764   3.844   3.512  17.226  0.1807 -0.0891  0.4627
  382MPD2    C4 5765   3.806   3.475  17.101  0.8340 -1.1186  0.4508
  382MPD2    C5 5766   3.771   3.571  17.011  0.2096  0.3154  0.3490
  382MPD2     H 5767   3.886   3.673  17.362 -2.9163  2.8064  0.4421
  382MPD2    H1 5768   3.781   3.373  17.075  2.2022 -1.1569 -0.7127
  382MPD2    H2 5769   3.743   3.770  16.972 -0.3008 -0.1725 -0.0690
  382MPD2    H3 5770   3.733   3.547  16.913 -0.0988  1.1334  0.2697
  382MPD2     N 5771   3.857   3.405  17.319  0.0252  0.0263  0.1348
  382MPD2    H5 5772   3.826   3.317  17.280  0.1803  0.3651 -0.7719
  382MPD2    N1 5773   3.790   3.870  17.227 -0.3940  0.2760 -0.5247
  382MPD2    H7 5774   3.809   3.890  17.325  1.6998  2.4928 -1.3942
  383TMC3    C1 5775   3.852   3.301  17.530  0.0205 -0.6070 -0.1872
  383TMC3    C2 5776   3.754   3.228  17.469 -0.1460  0.2382  0.2270
  383TMC3    C3 5777   3.664   3.163  17.552 -0.1324 -0.2915  0.4969
  383TMC3    C4 5778   3.874   3.307  17.664  0.1445 -0.1081 -0.5814
  383TMC3    C5 5779   3.793   3.225  17.740 -0.0932 -0.4517  0.4757
  383TMC3    C6 5780   3.689   3.161  17.686  0.2336  0.0134 -0.1924
  383TMC3     C 5781   3.894   3.417  17.449  0.8011 -0.0840  0.5466
  383TMC3     O 5782   3.942   3.510  17.512 -0.0577  0.3334 -0.7779
  383TMC3     H 5783   3.749   3.217  17.361 -1.5826  1.7128  0.1459
  383TMC3    H1 5784   3.953   3.368  17.705 -1.5627  1.5354  0.2743
  383TMC3    H2 5785   3.621   3.105  17.749 -0.1966  0.3248 -0.3738
  383TMC3    C7 5786   3.797   3.225   0.128 -0.5671  0.4586 -0.2179
  383TMC3    C8 5787   3.528   3.148  17.508  0.1743  0.2205  0.8715
  383TMC3    O1 5788   3.691   3.192   0.183 -0.3140  0.6691  0.3735
  383TMC3    O2 5789   3.486   3.228  17.421  0.0701 -0.3879 -0.3452
  384MPD2     C 5790   0.403   4.662  12.249 -0.2273  0.3630  0.2039
  384MPD2    C1 5791   0.508   4.731  12.191  0.2808 -0.3749 -0.3909
  384MPD2    C2 5792   0.626   4.661  12.160 -0.1979  0.0253 -0.5629
  384MPD2    C3 5793   0.637   4.522  12.185  0.8304 -0.2326 -0.1731
  384MPD2    C4 5794   0.529   4.464  12.249  0.2267 -0.1367  0.1220
  384MPD2    C5 5795   0.410   4.534  12.270 -0.1993  1.3703  1.0519
  384MPD2     H 5796   0.708   4.717  12.116 -0.6419  0.1085 -1.2811
  384MPD2    H1 5797   0.532   4.357  12.265 -1.8141 -0.0917  0.7105
  384MPD2    H2 5798   0.322   4.727  12.282 -0.4445  0.5351 -0.6680
  384MPD2    H3 5799   0.319   4.489  12.308 -0.2248  0.7090  0.2155
  384MPD2     N 5800   0.756   4.452  12.146  0.0523 -0.1484 -0.0811
  384MPD2    H5 5801   0.754   4.352  12.162 -0.5896 -0.0586  0.3871
  384MPD2    N1 5802   0.504   0.133  12.210 -0.2460  0.6596  0.2251
  384MPD2    H7 5803   0.427   0.169  12.264  1.4447  2.2959  1.5404
  385TMC3    C1 5804   0.977   4.391  12.119  0.2571 -0.2247  0.6123
  385TMC3    C2 5805   1.097   4.429  12.072  0.7251  0.3192  0.2607
  385TMC3    C3 5806   1.212   4.416  12.148 -0.1718  0.3052 -0.4834
  385TMC3    C4 5807   0.973   4.313  12.228  0.5737 -0.2415  0.4738
  385TMC3    C5 5808   1.084   4.299  12.312 -0.5136 -0.0371 -0.0096
  385TMC3    C6 5809   1.200   4.361  12.271  0.0976 -0.5918 -0.0510
  385TMC3     C 5810   0.878   4.499  12.113  0.5334  0.4129  0.2829
  385TMC3     O 5811   0.916   4.611  12.095 -0.2267  0.6797  0.0715
  385TMC3     H 5812   1.100   4.495  11.986 -1.1583 -1.3963 -1.1057
  385TMC3    H1 5813   0.878   4.266  12.250 -0.1477  0.6077 -0.8138
  385TMC3    H2 5814   1.292   4.354  12.327  0.2324 -2.3869 -0.4919
  385TMC3    C7 5815   1.062   4.328  12.453  0.1288  0.1916 -0.3368
  385TMC3    C8 5816   1.338   4.400  12.089 -0.1151  0.0380 -0.3985
  385TMC3    O1 5817   1.130   4.411  12.512  0.5375  0.0806  0.1907
  385TMC3    O2 5818   1.438   4.392  12.161 -0.3185  0.4119 -0.1030
  386TMC3    C1 5819   1.171   1.998  11.428 -0.1283  0.2108  0.0836
  386TMC3    C2 5820   1.154   2.060  11.306  0.2707  0.5256  0.2310
  386TMC3    C3 5821   1.026   2.097  11.273  0.1412 -0.2839  0.0015
  386TMC3    C4 5822   1.063   1.979  11.512 -0.9591 -0.1091  0.3986
  386TMC3    C5 5823   0.941   2.019  11.482  0.0100  0.1203  0.1539
  386TMC3    C6 5824   0.916   2.073  11.353 -0.4798 -0.3084  1.1620
  386TMC3     C 5825   1.303   1.968  11.473 -0.4573  0.1490 -0.3937
  386TMC3     O 5826   1.391   2.029  11.415  0.1640 -0.4200 -0.4375
  386TMC3     H 5827   1.230   2.077  11.231  1.3638 -2.6392  0.6169
  386TMC3    H1 5828   1.090   1.928  11.604  2.6656 -1.7012 -1.5540
  386TMC3    H2 5829   0.816   2.103  11.322  0.4532  0.3988 -1.1427
  386TMC3    C7 5830   0.852   2.065  11.590 -0.0717 -0.3272 -0.2033
  386TMC3    C8 5831   1.007   2.146  11.133  0.2170  0.0062 -0.4186
  386TMC3    O1 5832   0.834   1.990  11.687  0.1497  0.2611 -0.1895
  386TMC3    O2 5833   1.111   2.167  11.069  0.3939 -0.1266 -0.4828
  387MPD2     C 5834   3.111   2.278   9.935  0.2614 -0.3515  0.3732
  387MPD2    C1 5835   3.166   2.264  10.058 -0.2428 -0.1602 -0.9334
  387MPD2    C2 5836   3.192   2.136  10.104 -0.2763 -0.1934  0.5275
  387MPD2    C3 5837   3.149   2.025  10.038 -0.3877  0.5131 -0.5777
  387MPD2    C4 5838   3.082   2.034   9.924  0.1034  0.2349 -0.0772
  387MPD2    C5 5839   3.071   2.161   9.868 -0.6117 -0.1943  0.0621
  387MPD2     H 5840   3.234   2.127  10.204 -0.8800 -0.6262  0.7426
  387MPD2    H1 5841   3.054   1.947   9.866 -0.4277  0.1511  0.3103
  387MPD2    H2 5842   3.081   2.368   9.884 -0.3665  0.0482  1.4481
  387MPD2    H3 5843   3.025   2.172   9.771 -0.7170  0.5306  0.1905
  387MPD2     N 5844   3.179   1.901  10.098 -0.4694 -0.2284  0.0104
  387MPD2    H5 5845   3.217   1.906  10.192 -0.8475  0.7452  0.1096
  387MPD2    N1 5846   3.246   2.365  10.118  0.0946  0.1643 -0.4655
  387MPD2    H7 5847   3.303   2.334  10.195 -1.2135 -1.0899 -0.0234
  388TMC3    C1 5848   3.384   2.548  10.126 -0.1702  0.5632  0.6077
  388TMC3    C2 5849   3.396   2.687  10.144 -0.5773  0.4406 -0.0036
  388TMC3    C3 5850   3.524   2.723  10.183 -0.1733  0.0950 -0.3311
  388TMC3    C4 5851   3.489   2.461  10.131  0.0597  0.0094  0.0006
  388TMC3    C5 5852   3.610   2.508  10.175 -0.2642  0.6057  0.3234
  388TMC3    C6 5853   3.630   2.637  10.203 -0.1204 -0.0511  0.5251
  388TMC3     C 5854   3.265   2.496  10.071 -0.5457 -0.3446  0.1688
  388TMC3     O 5855   3.194   2.564   9.996 -0.3911 -0.3325 -0.6888
  388TMC3     H 5856   3.310   2.753  10.148 -0.4063  0.6612  0.0240
  388TMC3    H1 5857   3.476   2.367  10.079 -1.1874  0.8391 -1.1945
  388TMC3    H2 5858   3.733   2.660  10.227 -0.3138 -0.2659  1.5698
  388TMC3    C7 5859   3.702   2.414  10.231  0.3533  0.0018  0.0023
  388TMC3    C8 5860   3.548   2.857  10.209  0.4003 -0.3555 -0.3879
  388TMC3    O1 5861   3.793   2.452  10.297  0.1733  0.4528 -0.3953
  388TMC3    O2 5862   3.649   2.891  10.269  0.6300  0.0031 -1.2014
  389MPD2     C 5863   2.502   0.318  10.918  0.1757 -0.4355 -0.1215
  389MPD2    C1 5864   2.595   0.220  10.900  0.6230  0.5255  1.3228
  389MPD2    C2 5865   2.671   0.179  10.999 -0.1568  0.7124 -0.1446
  389MPD2    C3 5866   2.651   0.231  11.127  0.2840 -0.1917 -0.4898
  389MPD2    C4 5867   2.564   0.325  11.150  0.0208  0.6529  0.1380
  389MPD2    C5 5868   2.489   0.373  11.045  0.1371 -0.4562 -0.2888
  389MPD2     H 5869   2.752   0.108  10.990  0.3111  1.0078  1.6160
  389MPD2    H1 5870   2.523   0.355  11.246 -1.0732  1.2583 -0.5144
  389MPD2    H2 5871   2.453   0.366  10.835 -0.3383  0.9927  1.0128
  389MPD2    H3 5872   2.416   0.453  11.059  0.4712 -0.3426  0.7839
  389MPD2     N 5873   2.694   0.156  11.246  0.4571  0.2791  0.0654
  389MPD2    H5 5874   2.677   0.204  11.334  1.0004  0.5813  0.0083
  389MPD2    N1 5875   2.626   0.172  10.770  0.0457 -0.9991 -0.0288
  389MPD2    H7 5876   2.703   0.106  10.762  1.7749  0.7202  2.1675
  390TMC3    C1 5877   2.789   0.008  11.388 -0.2853  0.6009 -0.4418
  390TMC3    C2 5878   2.750   4.625  11.428 -0.7360  0.0488  0.6452
  390TMC3    C3 5879   2.701   4.620  11.558  0.0790 -0.2693 -0.1370
  390TMC3    C4 5880   2.786   0.117  11.468 -0.4852 -0.9563 -0.1386
  390TMC3    C5 5881   2.722   0.115  11.594 -0.1673 -0.2150 -0.8059
  390TMC3    C6 5882   2.692   4.727  11.647 -0.6755  0.4187  0.4351
  390TMC3     C 5883   2.767   0.038  11.247  0.1354 -0.1833  0.0494
  390TMC3     O 5884   2.772   4.689  11.167  0.2016 -0.4518  0.2918
  390TMC3     H 5885   2.743   4.544  11.356  1.4695 -0.4126  0.9518
  390TMC3    H1 5886   2.836   0.207  11.434  1.3048 -2.3631 -1.2533
  390TMC3    H2 5887   2.646   4.713  11.744 -1.1922  0.6262  0.2187
  390TMC3    C7 5888   2.599   0.190  11.580  0.0513  0.4362 -0.1530
  390TMC3    C8 5889   2.612   4.508  11.581 -0.4499  0.1229 -0.1683
  390TMC3    O1 5890   2.592   0.264  11.482 -0.1753  0.1832 -0.0351
  390TMC3    O2 5891   2.571   4.447  11.485 -0.2386  0.1962 -0.2583
  391MPD2     C 5892   1.432   2.199  10.888 -0.6201 -0.0793 -0.1928
  391MPD2    C1 5893   1.566   2.217  10.869  0.5438 -0.0534  0.1708
  391MPD2    C2 5894   1.603   2.248  10.741  0.7459 -0.8143 -0.2366
  391MPD2    C3 5895   1.512   2.263  10.639  0.2456  0.1101 -0.3057
  391MPD2    C4 5896   1.377   2.245  10.656  0.3454  0.1305 -0.2879
  391MPD2    C5 5897   1.342   2.209  10.785 -0.6455 -0.3822  0.3102
  391MPD2     H 5898   1.706   2.268  10.714  1.2312 -2.4101  0.4692
  391MPD2    H1 5899   1.300   2.263  10.582  0.5881  0.3472 -0.4901
  391MPD2    H2 5900   1.397   2.182  10.989 -2.5452  1.5975 -0.5730
  391MPD2    H3 5901   1.236   2.199  10.805 -0.7036 -0.8022 -0.2221
  391MPD2     N 5902   1.574   2.288  10.518  0.3466  0.2463 -0.6073
  391MPD2    H5 5903   1.676   2.292  10.518  0.3282  0.7497  1.1951
  391MPD2    N1 5904   1.651   2.167  10.977 -0.0225  0.1733 -0.1300
  391MPD2    H7 5905   1.599   2.129  11.055  1.6933 -0.8015  0.5402
  392TMC3    C1 5906   1.609   2.326  10.295 -0.3867  0.2281 -0.5263
  392TMC3    C2 5907   1.553   2.344  10.174  0.9028  0.3761 -0.1318
  392TMC3    C3 5908   1.637   2.321  10.066  0.3235 -0.4540  0.6907
  392TMC3    C4 5909   1.739   2.296  10.310  1.2818  0.5840  0.0396
  392TMC3    C5 5910   1.819   2.282  10.202 -0.3229  0.2368 -0.0568
  392TMC3    C6 5911   1.771   2.288  10.075  0.0799 -0.4327  0.2644
  392TMC3     C 5912   1.514   2.309  10.400 -0.6539 -0.2927  0.4730
  392TMC3     O 5913   1.398   2.343  10.387  0.2660  0.3357  0.0050
  392TMC3     H 5914   1.445   2.349  10.165  0.8299 -0.0002  0.5886
  392TMC3    H1 5915   1.784   2.269  10.405  0.3843 -0.5722  0.1249
  392TMC3    H2 5916   1.828   2.273   9.985 -0.2961  0.2692 -0.0904
  392TMC3    C7 5917   1.965   2.277  10.228  1.0258 -0.3833 -0.5038
  392TMC3    C8 5918   1.569   2.297   9.936 -0.3698  0.0367  0.3098
  392TMC3    O1 5919   2.006   2.235  10.335 -0.1416  0.2955  0.1304
  392TMC3    O2 5920   1.464   2.356   9.919 -0.1071  0.4978  0.6011
  393TMC3    C1 5921   0.741   4.646  11.235 -0.3971  0.9671 -0.2399
  393TMC3    C2 5922   0.615   4.618  11.288 -0.6114 -0.4081  0.8002
  393TMC3    C3 5923   0.602   4.513  11.370 -0.0126  0.6902  0.5266
  393TMC3    C4 5924   0.855   4.575  11.257 -0.3122  0.2517 -0.0155
  393TMC3    C5 5925   0.836   4.455  11.322  0.4153 -1.0393  0.0830
  393TMC3    C6 5926   0.710   4.424  11.380 -0.3609  0.3081 -0.7692
  393TMC3     C 5927   0.746   4.709  11.111 -0.6398  0.1973 -0.2619
  393TMC3     O 5928   0.662   4.679  11.025  0.0751 -0.1471 -0.1851
  393TMC3     H 5929   0.539   4.688  11.255 -2.7331 -2.8572  0.5430
  393TMC3    H1 5930   0.943   4.603  11.201  0.3502 -0.6268  0.6073
  393TMC3    H2 5931   0.692   4.330  11.431  1.8248  1.2332  1.7069
  393TMC3    C7 5932   0.922   4.338  11.296  0.4669 -0.2447  0.0228
  393TMC3    C8 5933   0.475   4.467  11.417  0.7398 -0.0551 -0.0455
  393TMC3    O1 5934   0.874   4.224  11.284  0.0508 -0.4303  0.0861
  393TMC3    O2 5935   0.460   4.346  11.434  0.6805 -0.6770 -0.3158
  394TMC3    C1 5936   2.630   0.111  10.544  0.0610 -0.5072  0.4269
  394TMC3    C2 5937   2.553   0.066  10.442 -0.0052 -0.5401  0.2066
  394TMC3    C3 5938   2.601   0.066  10.319  0.6718 -0.0105 -0.4349
  394TMC3    C4 5939   2.765   0.128  10.531 -0.1396  0.4727 -0.2817
  394TMC3    C5 5940   2.817   0.110  10.405  0.5041  0.3813 -0.1826
  394TMC3    C6 5941   2.739   0.076  10.298  1.1088 -0.1078  0.0876
  394TMC3     C 5942   2.555   0.184  10.651 -0.4362  0.7021  0.2177
  394TMC3     O 5943   2.439   0.221  10.632  0.4961  0.0595 -0.8009
  394TMC3     H 5944   2.448   0.046  10.462 -0.3671  1.6615  0.4873
  394TMC3    H1 5945   2.823   0.174  10.610  0.3663 -1.1716  0.2985
  394TMC3    H2 5946   2.782   0.085  10.198  4.1904  2.2907  1.6139
  394TMC3    C7 5947   2.924   0.204  10.370 -0.2761 -0.0051  0.3083
  394TMC3    C8 5948   2.503   0.083  10.209 -0.3892 -0.5067  0.7401
  394TMC3    O1 5949   2.902   0.286  10.285 -0.0483 -0.1335  0.5755
  394TMC3    O2 5950   2.396   0.132  10.245 -0.3751 -0.1442 -0.2906
  395TMC3    C1 5951   2.316   2.172  14.915  0.1319  0.0518  0.0281
  395TMC3    C2 5952   2.205   2.213  14.854 -0.4134  0.8993  0.0627
  395TMC3    C3 5953   2.211   2.324  14.776 -0.1787 -0.2778 -0.9542
  395TMC3    C4 5954   2.436   2.239  14.902 -0.2824  0.2527 -0.0232
  395TMC3    C5 5955   2.445   2.343  14.812  0.0950  0.5308  0.1597
  395TMC3    C6 5956   2.329   2.393  14.749 -0.2899 -0.6381 -0.2561
  395TMC3     C 5957   2.293   2.103  15.046 -0.3020  0.1201  0.5337
  395TMC3     O 5958   2.389   2.105  15.120  0.3538 -0.4819  0.0287
  395TMC3     H 5959   2.110   2.161  14.862 -0.3775  1.1700  2.2588
  395TMC3    H1 5960   2.524   2.186  14.939 -1.5272  0.1494  2.7944
  395TMC3    H2 5961   2.328   2.484  14.690 -1.4720  0.1740  1.0111
  395TMC3    C7 5962   2.554   2.440  14.812  0.1139 -0.2726 -0.1621
  395TMC3    C8 5963   2.092   2.364  14.695 -1.0283  0.1231 -1.2662
  395TMC3    O1 5964   2.570   2.520  14.719  0.0975  0.3720  0.0235
  395TMC3    O2 5965   2.108   2.475  14.634  0.2356 -0.5442 -0.4286
  396MPD2     C 5966   1.305   3.084  16.834 -0.2604  1.3253  0.0153
  396MPD2    C1 5967   1.332   3.209  16.873 -0.1721 -0.7418 -0.1336
  396MPD2    C2 5968   1.423   3.293  16.807 -0.3901  0.4268 -0.2552
  396MPD2    C3 5969   1.499   3.238  16.700  0.3386  0.4017 -0.2025
  396MPD2    C4 5970   1.469   3.113  16.656 -0.2305  0.7391  0.0978
  396MPD2    C5 5971   1.375   3.036  16.726 -0.2804  0.5173  0.2442
  396MPD2     H 5972   1.445   3.393  16.843  2.5363 -0.5370  0.5772
  396MPD2    H1 5973   1.508   3.077  16.561  0.6733 -0.3328  0.8786
  396MPD2    H2 5974   1.225   3.020  16.870  1.4799 -1.5497 -1.2043
  396MPD2    H3 5975   1.357   2.935  16.692 -0.8964  0.8051 -0.2947
  396MPD2     N 5976   1.605   3.312  16.645 -0.0396  0.2520  0.6113
  396MPD2    H5 5977   1.605   3.412  16.662 -0.0065  0.4196 -0.3555
  396MPD2    N1 5978   1.251   3.251  16.981 -0.2475  0.5768 -0.4802
  396MPD2    H7 5979   1.207   3.184  17.043  0.0242  1.5702  0.8025
  397TMC3    C1 5980   1.193   3.388  17.167 -0.4956  0.7559 -1.5088
  397TMC3    C2 5981   1.289   3.462  17.234  0.3219  0.4152  0.0530
  397TMC3    C3 5982   1.358   3.413  17.334 -0.6659  0.3865 -0.3325
  397TMC3    C4 5983   1.158   3.266  17.220  0.0535 -0.0543  0.2942
  397TMC3    C5 5984   1.224   3.220  17.333 -0.5543 -0.1936  0.8830
  397TMC3    C6 5985   1.320   3.296  17.392 -0.4812  0.4053  0.1765
  397TMC3     C 5986   1.250   3.381  17.033 -0.2032 -0.2991 -0.6722
  397TMC3     O 5987   1.275   3.484  16.973  0.6448  0.2643 -0.1019
  397TMC3     H 5988   1.318   3.555  17.186 -0.8849  0.6412 -0.2278
  397TMC3    H1 5989   1.080   3.205  17.176 -2.0345  1.1769  2.2898
  397TMC3    H2 5990   1.367   3.266  17.485  1.9147 -2.5694 -1.9863
  397TMC3    C7 5991   1.182   3.090  17.385  0.7095 -0.1874  0.2492
  397TMC3    C8 5992   1.501   3.392  17.319 -0.1122  0.6792  0.0666
  397TMC3    O1 5993   1.064   3.067  17.373  0.4020 -0.7174 -0.5016
  397TMC3    O2 5994   1.539   3.283  17.345 -0.4085  0.0961 -0.3187
  398MPD2     C 5995   0.256   0.395   0.441  0.2146  0.6412  0.4875
  398MPD2    C1 5996   0.347   0.302   0.389  0.3901 -0.5477  0.4483
  398MPD2    C2 5997   0.477   0.327   0.371  0.9302 -0.0004  0.7381
  398MPD2    C3 5998   0.528   0.451   0.405 -0.7086 -0.3490  0.7556
  398MPD2    C4 5999   0.450   0.541   0.461  0.5411  0.3031 -0.1573
  398MPD2    C5 6000   0.312   0.510   0.483 -0.8420 -0.5715  0.2157
  398MPD2     H 6001   0.537   0.249   0.327  0.6264  0.5362 -0.6301
  398MPD2    H1 6002   0.484   0.642   0.481  1.7159 -0.3244  1.0366
  398MPD2    H2 6003   0.151   0.383   0.462 -0.5971  1.6150 -2.9742
  398MPD2    H3 6004   0.253   0.592   0.523 -1.1597 -1.0562  0.7509
  398MPD2     N 6005   0.668   0.465   0.402  0.4094 -0.2044 -0.0242
  398MPD2    H5 6006   0.724   0.381   0.386  0.4560 -0.3321  0.8242
  398MPD2    N1 6007   0.306   0.166   0.366 -0.0085  0.4993  0.6692
  398MPD2    H7 6008   0.377   0.103   0.330 -0.1041 -0.4682  2.1825
  399TMC3    C1 6009   0.191   4.706   0.358  0.0919  0.3737  0.6382
  399TMC3    C2 6010   0.303   4.632   0.392  0.0293 -0.7496  0.1346
  399TMC3    C3 6011   0.299   4.496   0.376  0.4383  0.5380 -0.9011
  399TMC3    C4 6012   0.076   4.640   0.317 -0.2508 -0.2605  0.7899
  399TMC3    C5 6013   0.073   4.504   0.321 -0.0873  0.1610 -0.3808
  399TMC3    C6 6014   0.183   4.436   0.346 -0.1191  0.6703  0.5055
  399TMC3     C 6015   0.182   0.111   0.379  0.3038  0.2309  0.4989
  399TMC3     O 6016   0.078   0.164   0.399 -0.2108  0.5194 -0.1504
  399TMC3     H 6017   0.393   4.670   0.438 -0.5002 -1.5533  1.8342
  399TMC3    H1 6018   4.725   4.698   0.295  0.7058 -0.0514 -2.6559
  399TMC3    H2 6019   0.185   4.327   0.347  0.8984  0.6597 -1.4804
  399TMC3    C7 6020   4.729   4.437   0.224  0.6187  0.7513 -0.2925
  399TMC3    C8 6021   0.429   4.425   0.398  0.0190 -0.5294 -0.0589
  399TMC3    O1 6022   4.728   4.313   0.232 -0.1814  0.2810  0.0766
  399TMC3    O2 6023   0.532   4.497   0.413 -0.6308 -0.0630 -0.0580
  400TMC3    C1 6024   3.673   2.862  17.141 -0.5141 -0.0014 -0.1345
  400TMC3    C2 6025   3.634   2.760  17.060 -0.0326 -0.2053  0.7474
  400TMC3    C3 6026   3.592   2.779  16.931 -0.1500 -0.3633 -0.0901
  400TMC3    C4 6027   3.664   2.992  17.097 -0.1051 -0.0437  0.1641
  400TMC3    C5 6028   3.608   3.008  16.967 -0.0451  0.3200 -0.2978
  400TMC3    C6 6029   3.576   2.908  16.881  0.2548  0.5498 -0.3404
  400TMC3     C 6030   3.714   2.835  17.278  0.6202  0.2470  0.4627
  400TMC3     O 6031   3.701   2.724  17.323  0.1074 -0.3134 -0.0192
  400TMC3     H 6032   3.636   2.660  17.104 -2.9488 -1.4277 -1.9586
  400TMC3    H1 6033   3.684   3.078  17.159 -0.2226 -0.5270  0.8667
  400TMC3    H2 6034   3.536   2.925  16.782  0.0875  3.8299  0.2842
  400TMC3    C7 6035   3.598   3.156  16.929  0.1565  0.5791 -0.4434
  400TMC3    C8 6036   3.582   2.657  16.860 -0.2296 -1.0631 -1.1585
  400TMC3    O1 6037   3.589   3.241  17.014 -0.3382 -0.2297  0.3473
  400TMC3    O2 6038   3.617   2.551  16.913 -0.0010 -0.0164 -0.0986
  401MPD2     C 6039   1.817   2.432   0.561  0.1387 -0.0201  0.8758
  401MPD2    C1 6040   1.892   2.343   0.636  0.0436  0.1893  0.0685
  401MPD2    C2 6041   1.850   2.207   0.656 -0.1797  0.6370 -0.1060
  401MPD2    C3 6042   1.735   2.165   0.595  0.7745  0.0535  0.0794
  401MPD2    C4 6043   1.660   2.253   0.526 -0.0293  0.4460  0.6166
  401MPD2    C5 6044   1.701   2.381   0.508  0.3113  0.3990 -0.0445
  401MPD2     H 6045   1.904   2.142   0.723 -0.0139 -0.5906 -1.4382
  401MPD2    H1 6046   1.567   2.217   0.483  0.7642  0.5102 -1.1486
  401MPD2    H2 6047   1.838   2.536   0.538  1.7824 -0.2348  1.3709
  401MPD2    H3 6048   1.629   2.444   0.458 -0.4154  1.2473  2.0718
  401MPD2     N 6049   1.701   2.027   0.615 -0.5569 -0.1229  0.6438
  401MPD2    H5 6050   1.757   1.969   0.677  0.9769 -0.0367 -0.6621
  401MPD2    N1 6051   2.021   2.373   0.691  0.4933 -0.1674  0.2989
  401MPD2    H7 6052   2.074   2.295   0.729  0.0730 -1.3486 -1.5276
  402TMC3    C1 6053   1.584   1.826   0.594 -0.3886 -0.4256  0.2384
  402TMC3    C2 6054   1.644   1.778   0.701  0.3428  0.1133 -0.1255
  402TMC3    C3 6055   1.651   1.640   0.707  0.1010  0.2422  0.1046
  402TMC3    C4 6056   1.550   1.755   0.479  0.3481  0.0215 -0.2735
  402TMC3    C5 6057   1.570   1.621   0.488  0.0143 -0.4968 -0.1993
  402TMC3    C6 6058   1.618   1.561   0.600  0.4091 -1.0070  0.2044
  402TMC3     C 6059   1.585   1.965   0.567  0.3906  0.2481  0.0818
  402TMC3     O 6060   1.501   2.008   0.488 -0.0208  0.5315 -0.0221
  402TMC3     H 6061   1.659   1.853   0.778 -0.7426 -0.9500  1.1223
  402TMC3    H1 6062   1.504   1.793   0.389 -0.5603 -4.6666 -1.7806
  402TMC3    H2 6063   1.630   1.453   0.596  1.0410 -0.9523  0.7721
  402TMC3    C7 6064   1.476   1.535   0.410 -0.4156  0.2743 -1.1071
  402TMC3    C8 6065   1.739   1.587   0.810  0.7974 -0.2160  0.4924
  402TMC3    O1 6066   1.365   1.580   0.401 -0.4326  0.1281  0.4958
  402TMC3    O2 6067   1.798   1.486   0.785  0.5072  1.0596 -0.2227
  403MPD2     C 6068   0.377   4.440  13.258  0.1135  0.6135  0.5685
  403MPD2    C1 6069   0.431   4.327  13.305 -0.6579  0.3093  0.5881
  403MPD2    C2 6070   0.537   4.344  13.395 -0.0789 -0.5762 -0.4320
  403MPD2    C3 6071   0.579   4.469  13.440  0.0573  0.0534 -0.2474
  403MPD2    C4 6072   0.521   4.577  13.386  0.1418  0.0210  0.2061
  403MPD2    C5 6073   0.423   4.563  13.294  0.0102 -0.6045 -0.0095
  403MPD2     H 6074   0.589   4.255  13.429 -0.5884 -0.8662 -0.4115
  403MPD2    H1 6075   0.543   4.676  13.422  1.2072  0.3159 -1.2312
  403MPD2    H2 6076   0.296   4.436  13.185 -0.2271  1.1164  0.9176
  403MPD2    H3 6077   0.381   4.655  13.253 -1.8881 -1.8975 -0.9624
  403MPD2     N 6078   0.666   4.488  13.554 -0.9251 -0.0397  0.0211
  403MPD2    H5 6079   0.681   4.583  13.586  0.4731 -0.7490  1.4677
  403MPD2    N1 6080   0.396   4.192  13.269 -0.2741  0.9687  0.5094
  403MPD2    H7 6081   0.452   4.118  13.309 -1.5949  0.9333  2.2854
  404TMC3    C1 6082   0.266   4.020  13.186 -0.2133 -0.1167  0.3551
  404TMC3    C2 6083   0.300   3.945  13.300  0.0005 -0.1145 -0.8676
  404TMC3    C3 6084   0.287   3.810  13.281  0.4422  0.3179 -0.5700
  404TMC3    C4 6085   0.211   3.961  13.073  0.4891  0.3521  0.0743
  404TMC3    C5 6086   0.204   3.822  13.061 -0.2755 -0.1755  0.8079
  404TMC3    C6 6087   0.247   3.746  13.166 -0.7779 -0.8068 -0.4288
  404TMC3     C 6088   0.296   4.164  13.182  0.4486  1.3261 -0.0129
  404TMC3     O 6089   0.231   4.236  13.110  0.0238 -0.1305  0.2745
  404TMC3     H 6090   0.332   3.992  13.392 -1.2893  0.0049 -0.4818
  404TMC3    H1 6091   0.179   4.022  12.989  3.0735 -0.3088 -1.3893
  404TMC3    H2 6092   0.258   3.638  13.162 -0.0147 -0.7196 -0.7427
  404TMC3    C7 6093   0.122   3.769  12.958 -0.2600 -0.0916 -0.1341
  404TMC3    C8 6094   0.305   3.723  13.395 -0.3383 -1.0553  0.1462
  404TMC3    O1 6095   0.040   3.847  12.908 -0.7918 -0.3965 -0.0217
  404TMC3    O2 6096   0.359   3.613  13.387  0.0396  0.5099 -0.0084
  405MPD2     C 6097   0.217   0.277  14.598 -0.1284 -0.7904  0.7990
  405MPD2    C1 6098   0.308   0.203  14.537  0.3546  0.6223 -0.8935
  405MPD2    C2 6099   0.370   0.247  14.427  1.6259  0.4001 -0.0120
  405MPD2    C3 6100   0.359   0.381  14.400  0.1046  0.5322  0.4781
  405MPD2    C4 6101   0.287   0.470  14.485 -0.5184  0.2149 -0.2733
  405MPD2    C5 6102   0.209   0.412  14.578 -0.4048 -0.4285 -0.8218
  405MPD2     H 6103   0.441   0.187  14.370  0.4836 -0.0704 -0.9278
  405MPD2    H1 6104   0.271   0.576  14.466 -3.2064  0.0176  0.8337
  405MPD2    H2 6105   0.160   0.233  14.679 -0.8578  0.2553  0.8526
  405MPD2    H3 6106   0.144   0.467  14.646  1.7135 -0.5421  1.2963
  405MPD2     N 6107   0.424   0.424  14.286  0.0568  0.1004  0.0982
  405MPD2    H5 6108   0.472   0.350  14.236 -1.4232  0.2056 -1.4731
  405MPD2    N1 6109   0.316   0.066  14.582  0.2068 -0.4271  0.3596
  405MPD2    H7 6110   0.256   0.036  14.659 -0.6258  2.6421  0.9152
  406TMC3    C1 6111   0.333   0.480  13.887 -0.1056 -0.6682  0.1360
  406TMC3    C2 6112   0.395   0.359  13.884  0.2682 -0.3571 -0.0911
  406TMC3    C3 6113   0.505   0.335  13.964  0.1416 -0.3176  0.2448
  406TMC3    C4 6114   0.368   0.567  13.984  0.0416 -0.3207  0.6014
  406TMC3    C5 6115   0.462   0.539  14.076  0.1665 -0.2168 -0.4460
  406TMC3    C6 6116   0.536   0.424  14.063 -0.2803 -0.6173 -0.1713
  406TMC3     C 6117   0.201   0.488  13.843  0.2433  0.3639  0.0899
  406TMC3     O 6118   0.167   0.588  13.784  0.3024 -0.1627 -0.1385
  406TMC3     H 6119   0.369   0.296  13.799 -0.4103 -1.7990  1.1875
  406TMC3    H1 6120   0.298   0.648  14.001  1.0778  0.5679  0.6308
  406TMC3    H2 6121   0.623   0.405  14.125 -0.5363 -0.8081  0.1291
  406TMC3    C7 6122   0.411   0.545  14.213  0.2800  0.5108  0.7461
  406TMC3    C8 6123   0.516   0.195  14.016 -0.0957  0.0033 -0.3830
  406TMC3    O1 6124   0.341   0.640  14.241  0.3905 -0.0123  0.2769
  406TMC3    O2 6125   0.492   0.191  14.136  0.1364  0.4219  0.2740
  407MPD2     C 6126   2.895   1.174   9.667  0.0485 -0.7625  0.1896
  407MPD2    C1 6127   2.987   1.238   9.751 -0.0680 -0.4125 -0.3865
  407MPD2    C2 6128   2.954   1.361   9.806 -0.0732 -0.4800  0.5590
  407MPD2    C3 6129   2.825   1.412   9.793  0.8257 -0.2625 -0.1953
  407MPD2    C4 6130   2.743   1.351   9.703 -0.5964 -0.2840 -0.1162
  407MPD2    C5 6131   2.778   1.235   9.643 -0.1162 -0.5888  0.3350
  407MPD2     H 6132   3.036   1.397   9.868 -0.1990 -0.7856  0.9012
  407MPD2    H1 6133   2.647   1.391   9.675  0.0821  0.2417 -1.6883
  407MPD2    H2 6134   2.909   1.076   9.622 -0.0998 -0.7576  0.1330
  407MPD2    H3 6135   2.721   1.193   9.560 -1.9243  0.3294  1.1012
  407MPD2     N 6136   2.778   1.539   9.842  0.6019  1.1370 -0.5698
  407MPD2    H5 6137   2.691   1.582   9.813 -1.1762 -2.3472 -0.3647
  407MPD2    N1 6138   3.118   1.186   9.778 -0.3241  0.3600 -0.0539
  407MPD2    H7 6139   3.180   1.250   9.827 -0.3034 -1.9370  2.8694
  408TMC3    C1 6140   3.327   1.076   9.736  0.2632  0.2789  0.3685
  408TMC3    C2 6141   3.396   1.185   9.790  0.4649 -0.8284  0.1799
  408TMC3    C3 6142   3.532   1.177   9.820  0.0867  0.6021 -0.7837
  408TMC3    C4 6143   3.390   0.960   9.733 -0.6972 -0.1309  0.1103
  408TMC3    C5 6144   3.520   0.945   9.776 -0.2545  0.6614 -0.3705
  408TMC3    C6 6145   3.589   1.053   9.824  0.7559 -0.2351 -0.0699
  408TMC3     C 6146   3.177   1.081   9.715  0.0821  0.5173 -0.8216
  408TMC3     O 6147   3.130   0.988   9.649 -0.1093  0.2529 -0.3385
  408TMC3     H 6148   3.356   1.285   9.795  0.4127 -0.6876 -2.8189
  408TMC3    H1 6149   3.332   0.882   9.685 -1.5508  1.4687 -1.4361
  408TMC3    H2 6150   3.694   1.047   9.850  0.6095  2.1360  1.0837
  408TMC3    C7 6151   3.570   0.806   9.784  1.0410  0.8298  0.7789
  408TMC3    C8 6152   3.614   1.295   9.853  1.0996  0.2182 -0.3412
  408TMC3    O1 6153   3.500   0.724   9.729  0.0204 -0.0412 -0.2128
  408TMC3    O2 6154   3.731   1.274   9.870  0.1071 -0.6147 -0.2124
  409MPD2     C 6155   2.403   2.964  16.691 -0.1020  0.4853 -0.3878
  409MPD2    C1 6156   2.494   2.872  16.727 -0.4533 -0.0994  0.7138
  409MPD2    C2 6157   2.631   2.908  16.720 -0.0745  0.1488 -0.5480
  409MPD2    C3 6158   2.683   3.028  16.686  0.6077 -0.1363 -0.3117
  409MPD2    C4 6159   2.586   3.116  16.647 -0.2230  0.1951  0.2849
  409MPD2    C5 6160   2.449   3.084  16.646 -0.9691  0.1834  0.0911
  409MPD2     H 6161   2.695   2.827  16.755  0.1352  0.1022 -1.0373
  409MPD2    H1 6162   2.621   3.217  16.629 -0.7380  0.3091 -0.1017
  409MPD2    H2 6163   2.299   2.956  16.721 -0.3667  2.3366 -0.7978
  409MPD2    H3 6164   2.382   3.168  16.630  1.0013  2.1336  1.9345
  409MPD2     N 6165   2.820   3.056  16.684  0.0398  0.1166 -0.1050
  409MPD2    H5 6166   2.852   3.149  16.659 -0.2344  0.0469 -0.7120
  409MPD2    N1 6167   2.465   2.756  16.798 -0.1824 -0.2668 -0.0295
  409MPD2    H7 6168   2.546   2.699  16.820 -0.4319  0.3844  2.5915
  410TMC3    C1 6169   3.049   3.039  16.741  0.0165 -0.2366  0.7071
  410TMC3    C2 6170   3.107   3.008  16.868 -0.1436 -0.5195 -0.4466
  410TMC3    C3 6171   3.188   3.102  16.922  0.3938  0.0557 -0.1968
  410TMC3    C4 6172   3.067   3.160  16.680  0.5296 -0.3408 -0.4840
  410TMC3    C5 6173   3.138   3.253  16.752  0.2506 -0.2795 -0.7019
  410TMC3    C6 6174   3.206   3.222  16.863  0.3887  0.3805  0.3023
  410TMC3     C 6175   2.921   2.975  16.731 -0.3661 -0.0429  0.7464
  410TMC3     O 6176   2.926   2.858  16.761 -0.0699  0.7075 -0.1728
  410TMC3     H 6177   3.082   2.915  16.917 -3.8882  0.5742 -0.2875
  410TMC3    H1 6178   3.049   3.166  16.574  0.5119 -2.0852 -0.5839
  410TMC3    H2 6179   3.265   3.295  16.917  1.9820  0.7995 -2.0124
  410TMC3    C7 6180   3.148   3.387  16.696  0.3024 -0.8735  0.0788
  410TMC3    C8 6181   3.258   3.080  17.046 -0.1228 -0.9707 -0.5280
  410TMC3    O1 6182   3.217   3.463  16.759  0.0368 -0.1412 -0.3164
  410TMC3    O2 6183   3.308   3.183  17.091 -0.7596  0.1164  0.2785
  411MPD2     C 6184   2.757   3.149  14.335  0.2442  0.5789 -0.4265
  411MPD2    C1 6185   2.788   3.194  14.465 -0.0653  0.0820  0.4876
  411MPD2    C2 6186   2.742   3.120  14.577 -0.4720 -0.7014 -0.5943
  411MPD2    C3 6187   2.650   3.020  14.555 -0.3034 -0.0472  0.3951
  411MPD2    C4 6188   2.622   2.982  14.427  0.4584 -0.3068  0.5221
  411MPD2    C5 6189   2.683   3.035  14.316  0.1115 -0.1812 -0.0751
  411MPD2     H 6190   2.771   3.150  14.677  1.4607 -1.1500 -1.0285
  411MPD2    H1 6191   2.561   2.894  14.412 -0.5289  0.4280  0.1740
  411MPD2    H2 6192   2.792   3.190  14.240  1.7959 -0.9036 -0.4728
  411MPD2    H3 6193   2.664   2.988  14.221  1.6062 -0.9815  0.0270
  411MPD2     N 6194   2.572   2.965  14.663 -0.4186 -0.1212 -0.6793
  411MPD2    H5 6195   2.508   2.891  14.636  0.3863 -1.0633 -0.0026
  411MPD2    N1 6196   2.871   3.310  14.467  0.4812 -0.5974 -0.4070
  411MPD2    H7 6197   2.887   3.347  14.374 -1.0363 -0.6644 -0.6938
  412TMC3    C1 6198   2.463   2.940  14.871 -0.8789 -0.5216 -0.0474
  412TMC3    C2 6199   2.389   3.044  14.923  0.2462  0.2413 -0.1832
  412TMC3    C3 6200   2.257   3.042  14.885  0.5730 -0.2715 -0.3327
  412TMC3    C4 6201   2.406   2.825  14.833  0.1747  0.8892  0.3415
  412TMC3    C5 6202   2.274   2.811  14.816  0.8635 -0.9218 -0.0726
  412TMC3    C6 6203   2.201   2.929  14.837  0.1198  0.0913  0.1255
  412TMC3     C 6204   2.574   3.000  14.797 -0.0334  0.2318 -0.5263
  412TMC3     O 6205   2.643   3.087  14.854 -0.8354 -0.0469  0.2152
  412TMC3     H 6206   2.444   3.132  14.953  0.8790  0.0126 -0.6802
  412TMC3    H1 6207   2.477   2.751  14.797  0.4336  1.2437  0.1132
  412TMC3    H2 6208   2.094   2.927  14.821 -0.0210 -0.4662  1.1788
  412TMC3    C7 6209   2.254   2.770  14.676 -0.2043 -0.2557 -0.0001
  412TMC3    C8 6210   2.240   3.133  14.773 -0.0322 -0.2384  0.2007
  412TMC3    O1 6211   2.359   2.770  14.608  0.0897  0.1110 -0.7940
  412TMC3    O2 6212   2.164   3.106  14.682  0.5755  0.2240  0.1755
  413MPD2     C 6213   4.644   0.744  15.720 -0.8462 -0.5004 -0.1011
  413MPD2    C1 6214   4.658   0.782  15.594  0.2223 -0.5538  0.4784
  413MPD2    C2 6215   0.023   0.727  15.522  0.4398 -0.5728  0.2038
  413MPD2    C3 6216   0.111   0.637  15.572 -0.4224 -0.9756 -0.4008
  413MPD2    C4 6217   0.090   0.596  15.698  0.0182  0.1652 -0.3862
  413MPD2    C5 6218   4.729   0.655  15.773 -0.0491 -0.3966 -0.2478
  413MPD2     H 6219   0.042   0.765  15.422 -2.1971  1.5204  0.5087
  413MPD2    H1 6220   0.153   0.526  15.752 -0.0536  0.2189 -0.2330
  413MPD2    H2 6221   4.574   0.785  15.791 -0.2133 -0.5971  0.5757
  413MPD2    H3 6222   4.715   0.627  15.877  1.8449 -2.1395 -0.4543
  413MPD2     N 6223   0.205   0.582  15.481 -0.0065  1.0871  0.2782
  413MPD2    H5 6224   0.210   0.621  15.387 -1.0322 -1.8578 -1.0389
  413MPD2    N1 6225   4.575   0.890  15.553 -0.3628  0.1565 -0.1590
  413MPD2    H7 6226   4.515   0.933  15.623 -0.9239 -0.7798 -0.0654
  414TMC3    C1 6227   0.358   0.421  15.407  0.2591  0.1139 -0.1180
  414TMC3    C2 6228   0.353   0.291  15.372  0.0524  0.0602  0.3115
  414TMC3    C3 6229   0.387   0.264  15.242 -0.2603  0.0900  0.1555
  414TMC3    C4 6230   0.395   0.518  15.327 -0.4588 -0.1315 -0.2741
  414TMC3    C5 6231   0.432   0.490  15.196  0.7275  0.0637 -0.2416
  414TMC3    C6 6232   0.432   0.360  15.154  0.2564  0.2779  0.1728
  414TMC3     C 6233   0.267   0.464  15.510 -0.2506  0.2793  0.2905
  414TMC3     O 6234   0.256   0.390  15.605  0.5742 -0.3465 -0.6748
  414TMC3     H 6235   0.315   0.208  15.430  1.2921 -0.5828  0.2198
  414TMC3    H1 6236   0.420   0.612  15.376 -1.3275  0.0282 -0.1264
  414TMC3    H2 6237   0.455   0.325  15.055 -0.6124 -1.7804  0.7128
  414TMC3    C7 6238   0.472   0.597  15.110  0.9004  0.0980 -0.0709
  414TMC3    C8 6239   0.366   0.138  15.191 -0.1534  0.1194  0.2979
  414TMC3    O1 6240   0.502   0.700  15.169 -0.3334 -0.0646  0.2409
  414TMC3    O2 6241   0.334   0.131  15.071 -0.0246  0.2782  0.2350
  415TMC3    C1 6242   0.183   4.403  10.243 -0.5835  0.1754  0.4981
  415TMC3    C2 6243   0.182   4.483  10.133 -0.1037  0.2730  0.8598
  415TMC3    C3 6244   0.089   4.456  10.032  1.0658 -0.5870 -0.2363
  415TMC3    C4 6245   0.095   4.295  10.255 -0.3958 -0.0914  0.1567
  415TMC3    C5 6246   0.007   4.267  10.155 -0.2882 -0.1494  0.3892
  415TMC3    C6 6247   0.001   4.350  10.042  0.5831  0.2960 -0.1447
  415TMC3     C 6248   0.242   4.445  10.362  0.3393  0.2035 -0.4330
  415TMC3     O 6249   0.246   4.360  10.453  0.5576 -0.8939  0.0264
  415TMC3     H 6250   0.253   4.564  10.119  1.5000 -1.0044  1.6243
  415TMC3    H1 6251   0.094   4.232  10.343  1.6700  0.0484  0.2691
  415TMC3    H2 6252   4.660   4.336   9.971  0.6643 -1.1260  0.0325
  415TMC3    C7 6253   4.629   4.184  10.174  0.2706 -0.5698 -0.4035
  415TMC3    C8 6254   0.079   4.524   9.902  0.3475 -0.2504  0.3792
  415TMC3    O1 6255   4.587   4.132  10.071  0.6377 -0.2258 -0.2657
  415TMC3    O2 6256   4.709   4.528   9.847 -0.3870 -0.1321 -0.1008
  416MPD2     C 6257   2.372   3.007  11.319 -1.2898 -0.0083 -0.0875
  416MPD2    C1 6258   2.260   2.979  11.245 -0.7783  0.2056  0.0102
  416MPD2    C2 6259   2.266   2.915  11.121 -0.3261 -0.0376  0.1628
  416MPD2    C3 6260   2.391   2.887  11.072 -0.1604  0.3423 -0.0572
  416MPD2    C4 6261   2.498   2.923  11.145  0.1056  0.8448 -0.3163
  416MPD2    C5 6262   2.494   2.988  11.267 -0.9745  0.8129 -0.6383
  416MPD2     H 6263   2.179   2.894  11.060 -0.1187 -0.7954  0.1352
  416MPD2    H1 6264   2.600   2.894  11.126 -0.8702 -1.9420 -1.3125
  416MPD2    H2 6265   2.363   3.056  11.415  1.4987  0.5316 -0.1219
  416MPD2    H3 6266   2.585   3.018  11.317  0.9524 -0.1463 -3.5622
  416MPD2     N 6267   2.417   2.819  10.952  0.2943  0.1027  0.7370
  416MPD2    H5 6268   2.517   2.812  10.934  0.1101  1.7599 -0.9377
  416MPD2    N1 6269   2.131   2.987  11.309  0.3530 -0.0891 -1.0502
  416MPD2    H7 6270   2.133   3.028  11.402  1.0753 -0.1759 -1.0307
  417TMC3    C1 6271   1.903   2.995  11.349 -0.1087  0.5095  0.9770
  417TMC3    C2 6272   1.926   3.006  11.481 -0.3857  0.4925 -0.1047
  417TMC3    C3 6273   1.820   3.052  11.549 -0.0698  0.7154  0.5517
  417TMC3    C4 6274   1.784   3.034  11.285 -0.6884 -0.0662 -0.1502
  417TMC3    C5 6275   1.684   3.085  11.366 -0.0102 -0.6233 -0.4024
  417TMC3    C6 6276   1.706   3.103  11.500  0.0899 -0.5730  0.4887
  417TMC3     C 6277   2.006   2.954  11.260  0.1448 -0.5346  0.1859
  417TMC3     O 6278   1.966   2.910  11.151 -0.1157 -0.0887  0.1911
  417TMC3     H 6279   2.006   2.952  11.530  0.2003  1.2230 -0.2531
  417TMC3    H1 6280   1.766   3.024  11.179 -0.8952  2.1455 -0.3351
  417TMC3    H2 6281   1.637   3.153  11.567 -1.6902  0.7670 -2.3227
  417TMC3    C7 6282   1.626   3.205  11.308 -1.0694 -0.2399 -0.2446
  417TMC3    C8 6283   1.831   3.063  11.690 -0.7798  0.1682  0.2637
  417TMC3    O1 6284   1.652   3.317  11.348 -0.0173 -0.1459  0.3684
  417TMC3    O2 6285   1.732   3.046  11.761  0.0181 -0.3984 -0.4465
  418TMC3    C1 6286   1.073   0.447   0.378 -0.6764  0.3027 -0.0046
  418TMC3    C2 6287   0.970   0.533   0.366  0.2202  0.6514  0.6105
  418TMC3    C3 6288   0.874   0.529   0.463 -0.3826  0.4200 -0.6721
  418TMC3    C4 6289   1.083   0.349   0.474 -0.0727  0.8628  0.3658
  418TMC3    C5 6290   0.982   0.342   0.560 -0.1729  0.2162 -0.0622
  418TMC3    C6 6291   0.879   0.430   0.559 -0.0253 -0.2219  0.2696
  418TMC3     C 6292   1.154   0.445   0.259  0.5951  0.1372 -0.5479
  418TMC3     O 6293   1.136   0.534   0.179 -0.1492 -0.0384 -0.3843
  418TMC3     H 6294   0.948   0.593   0.278  2.0723 -0.6655 -0.7585
  418TMC3    H1 6295   1.165   0.281   0.492 -0.8553 -0.0423  0.5150
  418TMC3    H2 6296   0.795   0.410   0.626 -0.6847 -1.3964 -0.9024
  418TMC3    C7 6297   0.964   0.219   0.639  0.0812 -0.6843  0.3748
  418TMC3    C8 6298   0.746   0.572   0.417  0.2673 -0.0042  0.4231
  418TMC3    O1 6299   0.995   0.112   0.590  0.5288 -0.5143 -0.2366
  418TMC3    O2 6300   0.717   0.686   0.447 -0.3346  0.0912  0.0716
  419MPD2     C 6301   4.657   2.539  12.247  0.3486  0.0277 -0.2453
  419MPD2    C1 6302   4.569   2.649  12.238  0.4759 -0.4949 -0.0369
  419MPD2    C2 6303   4.539   2.727  12.346  0.0229  0.0078  0.1667
  419MPD2    C3 6304   4.594   2.699  12.467 -0.1257 -0.0693  0.2516
  419MPD2    C4 6305   4.675   2.590  12.483  0.3344  0.2420 -0.4381
  419MPD2    C5 6306   4.704   2.509  12.371 -0.4421 -0.3793 -0.2469
  419MPD2     H 6307   4.480   2.817  12.332  0.4503 -0.1808 -2.9851
  419MPD2    H1 6308   4.725   2.572  12.577  0.0221 -0.9196 -0.4952
  419MPD2    H2 6309   4.697   2.491  12.158 -0.5226 -1.7617  0.3192
  419MPD2    H3 6310   0.034   2.427  12.381  1.8554  1.5424 -0.4211
  419MPD2     N 6311   4.568   2.790  12.577 -0.2108  0.3324 -0.4256
  419MPD2    H5 6312   4.512   2.870  12.551  0.9741  0.5897 -2.2012
  419MPD2    N1 6313   4.513   2.703  12.120  0.5903 -1.0412  0.1727
  419MPD2    H7 6314   4.461   2.790  12.131  0.2009 -1.2097 -0.4028
  420TMC3    C1 6315   4.554   2.889  12.792  0.1255 -0.5463 -0.8595
  420TMC3    C2 6316   4.531   3.012  12.737 -0.2540 -0.3650  0.1002
  420TMC3    C3 6317   4.496   3.113  12.819 -0.0103 -0.7063  0.9358
  420TMC3    C4 6318   4.559   2.868  12.926 -0.5104 -0.1434 -0.0960
  420TMC3    C5 6319   4.530   2.975  13.008 -0.3191  0.4073 -0.6407
  420TMC3    C6 6320   4.494   3.095  12.949  0.3192 -1.1462  0.4247
  420TMC3     C 6321   4.604   2.779  12.707  0.2145  0.4237  0.2114
  420TMC3     O 6322   4.658   2.687  12.766  0.5946  0.1714  0.2741
  420TMC3     H 6323   4.517   3.028  12.631  1.7687  0.4209 -0.0603
  420TMC3    H1 6324   4.606   2.778  12.964 -1.7520 -0.2443  1.1938
  420TMC3    H2 6325   4.428   3.164  13.001  1.3081 -0.0603  0.2511
  420TMC3    C7 6326   4.559   2.972  13.155  0.5180 -0.3582 -0.8611
  420TMC3    C8 6327   4.419   3.217  12.754  0.0372 -0.3813 -0.5184
  420TMC3    O1 6328   4.569   2.862  13.214 -0.6999  0.2920  0.8221
  420TMC3    O2 6329   4.339   3.190  12.663 -0.0852  0.3591  0.4762
  421TMC3    C1 6330   0.773   4.427  13.752 -0.4591 -0.0370  0.5415
  421TMC3    C2 6331   0.790   4.560  13.783  0.7300 -0.4446 -0.0665
  421TMC3    C3 6332   0.839   4.579  13.909  0.1703 -0.3440  0.2607
  421TMC3    C4 6333   0.809   4.315  13.821 -0.8699 -0.1742  0.3359
  421TMC3    C5 6334   0.871   4.346  13.943 -0.3528  0.3372 -0.4138
  421TMC3    C6 6335   0.874   4.476  13.990 -0.5876  0.5710 -0.5622
  421TMC3     C 6336   0.726   4.387  13.618  0.7993  0.1737 -0.4177
  421TMC3     O 6337   0.752   4.275  13.576  0.7545 -0.2431 -0.2211
  421TMC3     H 6338   0.757   4.646  13.726 -0.0445 -0.5761  0.1830
  421TMC3    H1 6339   0.791   4.216  13.782  0.8921 -0.3806  0.0447
  421TMC3    H2 6340   0.943   4.490  14.072 -0.3221 -1.1079 -0.4891
  421TMC3    C7 6341   0.993   4.269  13.969 -0.4908 -0.3938  0.0759
  421TMC3    C8 6342   0.853   4.711  13.966  0.3014  0.3003 -0.1195
  421TMC3    O1 6343   1.086   4.332  14.015 -0.2124 -0.1790  0.2984
  421TMC3    O2 6344   0.857   0.071  13.897  0.0439 -0.0813 -0.2137
  422TMC3    C1 6345   2.321   2.167  12.925  0.3738  0.0878  0.3286
  422TMC3    C2 6346   2.316   2.150  13.064 -0.8518 -0.3608  0.8845
  422TMC3    C3 6347   2.309   2.023  13.115  0.3241 -0.1903  0.3707
  422TMC3    C4 6348   2.327   2.052  12.850  0.0367  0.6087 -0.3768
  422TMC3    C5 6349   2.291   1.934  12.903 -0.1973  0.1520  0.3712
  422TMC3    C6 6350   2.290   1.912  13.037 -0.0418 -0.0382  0.1928
  422TMC3     C 6351   2.425   2.257  12.876 -0.5676  0.2657  0.1481
  422TMC3     O 6352   2.531   2.242  12.936 -0.2697 -0.2279  0.3679
  422TMC3     H 6353   2.348   2.230  13.130  0.6921  1.6731 -2.3341
  422TMC3    H1 6354   2.351   2.064  12.745 -3.0810  1.2811 -1.0161
  422TMC3    H2 6355   2.312   1.811  13.071  0.7974  0.1034  0.0781
  422TMC3    C7 6356   2.337   1.829  12.820 -0.2423  0.0243  0.2187
  422TMC3    C8 6357   2.377   2.017  13.240  0.2433 -0.5514 -0.1100
  422TMC3    O1 6358   2.435   1.851  12.748  0.1992  0.1861 -0.1964
  422TMC3    O2 6359   2.333   1.936  13.324  0.4388  0.7573  0.2180
  423MPD2     C 6360   4.029   2.371   0.297 -0.2835 -0.0922 -0.1879
  423MPD2    C1 6361   4.088   2.252   0.317  0.4874  0.4783 -1.0161
  423MPD2    C2 6362   4.099   2.158   0.212  0.5560  0.4878  0.1135
  423MPD2    C3 6363   4.047   2.188   0.083  0.4613 -0.0095 -0.0194
  423MPD2    C4 6364   3.991   2.309   0.069  0.6635  0.2056 -0.1288
  423MPD2    C5 6365   3.985   2.396   0.172 -0.3726 -0.0160 -0.1080
  423MPD2     H 6366   4.153   2.065   0.227 -0.0965 -0.1592 -1.5709
  423MPD2    H1 6367   3.955   2.339  17.726 -0.1546 -1.3284 -0.3006
  423MPD2    H2 6368   4.016   2.431   0.387 -1.8597 -1.4209  0.4579
  423MPD2    H3 6369   3.953   2.499   0.161  2.4316  1.0966  2.1788
  423MPD2     N 6370   4.082   2.112  17.723 -0.7327  0.1566  0.4518
  423MPD2    H5 6371   4.061   2.151  17.631 -0.1856 -0.2313  0.1659
  423MPD2    N1 6372   4.126   2.224   0.450  0.5783  0.4795 -0.0718
  423MPD2    H7 6373   4.102   2.301   0.511  0.5329 -0.0593  0.5818
  424TMC3    C1 6374   4.165   2.107   0.651  0.6925  0.4089  0.1533
  424TMC3    C2 6375   4.191   1.985   0.711  0.5894  0.7754  0.4405
  424TMC3    C3 6376   4.225   1.986   0.838 -0.4991 -0.5552 -0.6216
  424TMC3    C4 6377   4.170   2.225   0.721  0.0116  0.7177 -0.6510
  424TMC3    C5 6378   4.189   2.216   0.859 -0.2730 -0.7326 -0.1232
  424TMC3    C6 6379   4.217   2.096   0.918 -0.1401  0.6207 -0.1711
  424TMC3     C 6380   4.162   2.101   0.503  0.7451 -0.6218  0.2972
  424TMC3     O 6381   4.178   1.997   0.442 -0.5056 -0.2118 -0.3453
  424TMC3     H 6382   4.205   1.896   0.652 -2.0281  0.4838  0.2533
  424TMC3    H1 6383   4.148   2.323   0.681  2.3775  0.7144 -1.9358
  424TMC3    H2 6384   4.233   2.099   1.025  2.6155 -2.4993 -0.4717
  424TMC3    C7 6385   4.175   2.332   0.945  0.2778  0.4262  0.5573
  424TMC3    C8 6386   4.270   1.858   0.882  0.3045  0.2158  0.1856
  424TMC3    O1 6387   4.236   2.325   1.050  0.2834  0.3737 -0.4974
  424TMC3    O2 6388   4.219   1.754   0.835 -0.3066  0.0097  0.5034
  425MPD2     C 6389   3.147   1.505  16.940  0.5039 -0.4366  0.4013
  425MPD2    C1 6390   3.051   1.417  16.956 -0.2161  0.2007  0.3951
  425MPD2    C2 6391   2.930   1.460  17.003 -0.1527 -0.4425  0.0933
  425MPD2    C3 6392   2.906   1.596  17.025 -0.4209 -1.2710  0.4649
  425MPD2    C4 6393   3.010   1.688  17.009 -0.0373  0.2307  0.0369
  425MPD2    C5 6394   3.126   1.638  16.961  0.6815 -0.2516 -0.1277
  425MPD2     H 6395   2.846   1.392  17.011 -0.5425 -0.0971 -0.9844
  425MPD2    H1 6396   2.994   1.792  17.035 -1.1736  0.1180 -0.2039
  425MPD2    H2 6397   3.249   1.472  16.924  0.3360 -0.1141 -1.3019
  425MPD2    H3 6398   3.208   1.706  16.941  3.0690 -3.0202  0.2868
  425MPD2     N 6399   2.776   1.633  17.062 -0.3306 -0.4530  0.2625
  425MPD2    H5 6400   2.705   1.561  17.060 -0.8343  0.0847 -0.7080
  425MPD2    N1 6401   3.085   1.278  16.943  0.5143 -0.3450 -0.5292
  425MPD2    H7 6402   3.182   1.252  16.931 -0.2182 -2.5643 -1.7526
  426TMC3    C1 6403   3.057   1.034  16.938  0.5377 -0.4289 -0.0419
  426TMC3    C2 6404   3.106   0.996  16.818  0.4005  0.5099 -0.3090
  426TMC3    C3 6405   3.125   0.858  16.803  0.4740 -0.2997  0.3560
  426TMC3    C4 6406   3.019   0.939  17.032 -0.4836 -0.1168 -0.1771
  426TMC3    C5 6407   3.037   0.810  17.012 -0.0840  0.4576 -0.2650
  426TMC3    C6 6408   3.096   0.762  16.896  0.0265 -0.2302  0.0291
  426TMC3     C 6409   2.996   1.174  16.961 -1.2139  0.1251 -0.5341
  426TMC3     O 6410   2.888   1.164  17.026  0.2195  0.3553 -0.0129
  426TMC3     H 6411   3.124   1.065  16.736  1.4761  0.3370 -0.2161
  426TMC3    H1 6412   2.976   0.985  17.121 -0.5222  1.4701 -1.0051
  426TMC3    H2 6413   3.092   0.656  16.872  0.4076 -0.4289  0.8445
  426TMC3    C7 6414   2.966   0.709  17.095 -0.0808  0.1183  0.2588
  426TMC3    C8 6415   3.141   0.807  16.670 -0.3835  0.0883 -0.8928
  426TMC3    O1 6416   2.996   0.592  17.074 -0.1697 -0.0961  0.2971
  426TMC3    O2 6417   3.207   0.702  16.668 -0.6699  0.0328  0.1193
  427MPD2     C 6418   2.125   3.450  14.896  0.0526 -0.4009 -0.0311
  427MPD2    C1 6419   2.077   3.405  15.021 -0.2583  1.0874 -0.6703
  427MPD2    C2 6420   1.941   3.425  15.054  0.1358 -0.5654 -0.5549
  427MPD2    C3 6421   1.857   3.484  14.962 -0.3582  0.4461 -0.1909
  427MPD2    C4 6422   1.904   3.529  14.840 -1.4505 -0.6872  0.0834
  427MPD2    C5 6423   2.041   3.506  14.801 -0.6544 -0.2256  0.3590
  427MPD2     H 6424   1.909   3.405  15.155 -1.3535  1.2131 -0.6823
  427MPD2    H1 6425   1.843   3.562  14.757 -2.0811 -0.0269  0.8238
  427MPD2    H2 6426   2.227   3.437  14.862 -0.0449  1.0620 -0.8899
  427MPD2    H3 6427   2.073   3.539  14.703 -0.0474 -1.2931  0.2067
  427MPD2     N 6428   1.718   3.483  14.977 -0.0038  0.2226 -0.7368
  427MPD2    H5 6429   1.655   3.512  14.903 -0.7432  0.0968 -0.1650
  427MPD2    N1 6430   2.155   3.345  15.119  0.4539  0.3787 -0.4482
  427MPD2    H7 6431   2.107   3.329  15.207 -0.7223  0.5611 -1.0659
  428TMC3    C1 6432   2.342   3.260  15.237 -0.1676  0.3681 -0.8178
  428TMC3    C2 6433   2.283   3.146  15.292  0.0942 -0.3510  0.3259
  428TMC3    C3 6434   2.352   3.092  15.403  0.0625 -0.4106  0.3481
  428TMC3    C4 6435   2.468   3.302  15.280  0.1929 -0.0112 -0.9194
  428TMC3    C5 6436   2.530   3.241  15.385 -0.8744 -0.0842 -0.1035
  428TMC3    C6 6437   2.469   3.142  15.449 -0.2231 -0.2295 -0.2891
  428TMC3     C 6438   2.293   3.327  15.122  0.0931 -0.3415  0.4726
  428TMC3     O 6439   2.368   3.340  15.023 -0.0974 -0.2580 -0.3312
  428TMC3     H 6440   2.191   3.106  15.252 -1.1866 -1.2793  4.2215
  428TMC3    H1 6441   2.513   3.385  15.228 -0.8319  1.3505  0.3558
  428TMC3    H2 6442   2.517   3.113  15.542  0.7266  0.8333 -0.4531
  428TMC3    C7 6443   2.652   3.296  15.439  0.2386  0.5616  0.5290
  428TMC3    C8 6444   2.341   2.946  15.430  0.2018  0.1156 -0.5614
  428TMC3    O1 6445   2.677   3.279  15.556  0.0656  0.1492  0.9886
  428TMC3    O2 6446   2.237   2.881  15.406  0.1248  0.0567 -0.1237
  429MPD2     C 6447   3.302   3.662  17.690 -0.9637  0.0960 -0.2875
  429MPD2    C1 6448   3.278   3.571  17.591  0.1925  0.0573  0.0099
  429MPD2    C2 6449   3.265   3.617  17.461 -0.1058 -0.0427 -0.3320
  429MPD2    C3 6450   3.273   3.752  17.432  0.4515 -0.1767 -0.2560
  429MPD2    C4 6451   3.316   3.845  17.527  0.1641  0.4667 -0.1511
  429MPD2    C5 6452   3.329   3.795  17.661  1.1887 -0.1240 -0.1663
  429MPD2     H 6453   3.223   3.553  17.384  3.3447 -1.3099 -1.1555
  429MPD2    H1 6454   3.334   3.950  17.509 -2.6728  1.3143  2.0168
  429MPD2    H2 6455   3.315   3.627   0.037  0.3504  0.5183 -0.3172
  429MPD2    H3 6456   3.354   3.869  17.736 -0.7528  0.7022 -0.3309
  429MPD2     N 6457   3.255   3.785  17.292  0.0011 -0.3028 -0.1604
  429MPD2    H5 6458   3.235   3.703  17.235 -0.1815  0.2444 -0.8800
  429MPD2    N1 6459   3.260   3.428  17.601 -0.7239 -0.0220 -0.3948
  429MPD2    H7 6460   3.238   3.381  17.514 -0.1986 -1.0508  0.0301
  430TMC3    C1 6461   3.301   3.912  17.091 -0.2033  0.0905 -0.5397
  430TMC3    C2 6462   3.228   3.994  17.010  0.0115  0.3788  0.3854
  430TMC3    C3 6463   3.236   3.970  16.873 -0.4402  0.4142  0.7508
  430TMC3    C4 6464   3.378   3.812  17.045 -0.5154 -0.0012  0.1317
  430TMC3    C5 6465   3.395   3.799  16.910 -0.1265  0.1931 -0.4467
  430TMC3    C6 6466   3.320   3.874  16.823  0.2274 -0.1116 -0.1807
  430TMC3     C 6467   3.275   3.909  17.234  0.2886 -0.7360 -0.1463
  430TMC3     O 6468   3.286   4.019  17.291  0.1217 -1.2111 -0.0339
  430TMC3     H 6469   3.176   4.077  17.056  0.6506  0.6561  0.6119
  430TMC3    H1 6470   3.445   3.765  17.116 -1.3008  0.5998  1.2715
  430TMC3    H2 6471   3.307   3.865  16.716  0.9037  1.9211 -0.4210
  430TMC3    C7 6472   3.447   3.669  16.872 -0.5068 -0.2804 -0.0169
  430TMC3    C8 6473   3.120   3.986  16.789  0.2108  0.1687  0.2496
  430TMC3    O1 6474   3.432   3.586  16.962  0.0675  0.0773 -0.9173
  430TMC3    O2 6475   3.124   3.974  16.669  0.2811 -0.1642 -0.6376
  431MPD2     C 6476   4.086   3.220  12.431 -0.3367 -0.4436 -0.5827
  431MPD2    C1 6477   4.134   3.286  12.320  0.3041 -0.2900 -0.1377
  431MPD2    C2 6478   4.166   3.202  12.210 -1.5687  0.1296 -0.2336
  431MPD2    C3 6479   4.130   3.070  12.205 -0.1053 -0.1297  0.2496
  431MPD2    C4 6480   4.059   3.011  12.313 -0.2196  0.3179 -0.1983
  431MPD2    C5 6481   4.051   3.091  12.427 -0.5054 -0.8565  0.3169
  431MPD2     H 6482   4.225   3.241  12.129  0.8825 -2.7299  0.1722
  431MPD2    H1 6483   4.028   2.908  12.320 -0.1466  0.2296 -1.1402
  431MPD2    H2 6484   4.068   3.274  12.523  1.5182 -0.9252  0.0562
  431MPD2    H3 6485   4.008   3.047  12.517  2.9614 -0.8137  2.0006
  431MPD2     N 6486   4.182   2.982  12.100 -0.0176  0.7009  0.1070
  431MPD2    H5 6487   4.167   2.882  12.108  2.0945  0.3931  0.1007
  431MPD2    N1 6488   4.168   3.420  12.334  0.1845 -0.0528 -0.2912
  431MPD2    H7 6489   4.156   3.466  12.424 -0.2075  1.9604 -1.3766
  432TMC3    C1 6490   4.296   2.916  11.900  0.2275  0.0177  0.7453
  432TMC3    C2 6491   4.335   2.952  11.773  0.1875 -0.3833 -0.5448
  432TMC3    C3 6492   4.446   2.887  11.723 -0.0527 -0.6758  0.1317
  432TMC3    C4 6493   4.351   2.814  11.971  0.5116 -0.4753  0.0778
  432TMC3    C5 6494   4.451   2.746  11.909 -0.3646 -0.1344 -0.5688
  432TMC3    C6 6495   4.505   2.779  11.789 -0.0279 -0.1609 -0.0774
  432TMC3     C 6496   4.231   3.026  11.982  0.2091 -0.7288  0.8523
  432TMC3     O 6497   4.236   3.140  11.932 -0.0516 -0.0419  0.1059
  432TMC3     H 6498   4.295   3.031  11.710 -1.0674 -1.5171 -1.1799
  432TMC3    H1 6499   4.295   2.772  12.054 -1.4246 -0.1738 -1.0632
  432TMC3    H2 6500   4.594   2.727  11.754 -0.7329 -1.4913  0.0869
  432TMC3    C7 6501   4.517   2.648  11.995 -0.3786  0.4387 -0.0558
  432TMC3    C8 6502   4.491   2.939  11.599 -0.0168 -0.4413  0.0648
  432TMC3    O1 6503   4.580   2.553  11.941 -0.3140 -0.0631  0.0871
  432TMC3    O2 6504   4.419   2.964  11.506  0.1650  0.0538 -0.0468
  433MPD2     C 6505   2.762   2.174  10.722  0.5525 -0.2011  0.0090
  433MPD2    C1 6506   2.721   2.077  10.812 -0.1883  0.4058  0.2054
  433MPD2    C2 6507   2.745   2.111  10.944 -0.6066  0.2273  0.1890
  433MPD2    C3 6508   2.796   2.232  10.989  0.8762  0.3458 -0.4673
  433MPD2    C4 6509   2.824   2.324  10.900  0.1565  0.2267  0.2366
  433MPD2    C5 6510   2.814   2.284  10.766 -0.1912  0.2590 -0.4462
  433MPD2     H 6511   2.731   2.037  11.022  1.5240  0.8004  1.1206
  433MPD2    H1 6512   2.862   2.423  10.922  1.9664  0.0679 -2.1055
  433MPD2    H2 6513   2.745   2.160  10.616 -0.8029  0.4921  0.1351
  433MPD2    H3 6514   2.858   2.344  10.688  3.1498 -1.8736 -0.1834
  433MPD2     N 6515   2.816   2.249  11.131  0.5405 -0.5562  0.6137
  433MPD2    H5 6516   2.792   2.170  11.189 -1.3908  0.0539  0.6378
  433MPD2    N1 6517   2.666   1.956  10.765  0.1583 -0.0153  0.0922
  433MPD2    H7 6518   2.646   1.958  10.666 -0.0145 -4.6889  0.0043
  434TMC3    C1 6519   2.637   1.718  10.758 -0.8596  0.0726 -0.1948
  434TMC3    C2 6520   2.669   1.614  10.838 -0.4839 -0.4014  0.2140
  434TMC3    C3 6521   2.747   1.513  10.789  0.0759 -0.3727  0.5384
  434TMC3    C4 6522   2.672   1.713  10.628 -0.5916  0.5053  0.5789
  434TMC3    C5 6523   2.746   1.611  10.577  0.4787  0.3456 -0.0806
  434TMC3    C6 6524   2.778   1.510  10.656 -0.2690  0.1301 -0.3465
  434TMC3     C 6525   2.650   1.840  10.842 -0.2696  0.0444 -0.4157
  434TMC3     O 6526   2.661   1.826  10.963 -0.7464  0.4883  0.0009
  434TMC3     H 6527   2.629   1.609  10.938 -0.4604 -3.3559  0.0680
  434TMC3    H1 6528   2.646   1.789  10.556 -0.7368 -1.2553 -1.2195
  434TMC3    H2 6529   2.838   1.432  10.611 -0.5151 -0.1856 -0.1219
  434TMC3    C7 6530   2.721   1.589  10.434  0.2880  0.8776 -0.2530
  434TMC3    C8 6531   2.814   1.435  10.887  0.4834  0.5947  0.4121
  434TMC3    O1 6532   2.724   1.679  10.353 -0.1813  0.3524 -1.0241
  434TMC3    O2 6533   2.749   1.403  10.987  0.5292 -0.0369 -0.2878
  435MPD2     C 6534   0.124   2.232  15.310  0.1167 -0.0277  0.2839
  435MPD2    C1 6535   0.090   2.228  15.444 -0.1640  0.0987 -0.5069
  435MPD2    C2 6536   0.182   2.171  15.530  0.5703 -0.2426 -0.1489
  435MPD2    C3 6537   0.309   2.138  15.496 -0.5121 -0.0674  0.0986
  435MPD2    C4 6538   0.338   2.130  15.362 -0.3775  0.6742 -0.4389
  435MPD2    C5 6539   0.249   2.191  15.277 -0.1449  0.3171 -0.5921
  435MPD2     H 6540   0.139   2.152  15.628  0.0355  0.8155 -0.1832
  435MPD2    H1 6541   0.433   2.094  15.323 -0.7024  0.8332 -1.3879
  435MPD2    H2 6542   0.064   2.279  15.233 -0.4590  0.7825  1.2220
  435MPD2    H3 6543   0.272   2.210  15.173  2.3389  2.5665  0.3892
  435MPD2     N 6544   0.390   2.075  15.595  0.6625 -0.0388 -0.0864
  435MPD2    H5 6545   0.349   2.085  15.687  0.4938 -2.0576  0.0690
  435MPD2    N1 6546   4.699   2.252  15.486 -0.0693 -0.0568  0.1877
  435MPD2    H7 6547   4.674   2.232  15.582  0.8263 -0.4014  0.3516
  436TMC3    C1 6548   4.413   2.386  15.712 -0.0845  0.2104  0.9092
  436TMC3    C2 6549   4.503   2.393  15.606  0.5858 -0.1019 -0.1221
  436TMC3    C3 6550   4.475   2.333  15.493  0.3659  0.3701 -0.9751
  436TMC3    C4 6551   4.304   2.304  15.710  0.0466 -0.1702 -0.0953
  436TMC3    C5 6552   4.273   2.251  15.587 -0.7875  0.5605  0.8466
  436TMC3    C6 6553   4.364   2.255  15.486 -0.4910  0.2065  0.2818
  436TMC3     C 6554   4.432   2.481  15.828  0.0828  0.0992  0.1972
  436TMC3     O 6555   4.528   2.559  15.825  0.8028 -0.5373 -0.5681
  436TMC3     H 6556   4.589   2.459  15.615 -0.8106  1.1970  3.7152
  436TMC3    H1 6557   4.248   2.293  15.802  0.8350  0.8452  0.5004
  436TMC3    H2 6558   4.348   2.202  15.393  0.9219  1.4436 -0.6704
  436TMC3    C7 6559   4.171   2.146  15.582  0.4630  0.3089  0.2778
  436TMC3    C8 6560   4.597   2.306  15.411 -0.0480  0.1095 -0.3102
  436TMC3    O1 6561   4.151   2.093  15.476  0.3381  0.2177 -0.0528
  436TMC3    O2 6562   4.586   2.297  15.288 -0.3514 -0.0906  0.2347
  437TMC3    C1 6563   3.396   4.465  12.331 -1.1257  0.0899  0.8669
  437TMC3    C2 6564   3.334   4.442  12.211 -0.3012 -0.2270  0.1955
  437TMC3    C3 6565   3.398   4.496  12.102  0.2577  0.6822  0.5788
  437TMC3    C4 6566   3.521   4.514  12.345  0.2744  0.3186  0.0074
  437TMC3    C5 6567   3.586   4.559  12.235 -0.3768  0.9002  0.1554
  437TMC3    C6 6568   3.521   4.556  12.110 -0.4692  0.1188  0.2425
  437TMC3     C 6569   3.348   4.414  12.453  0.3904 -0.3859  0.3016
  437TMC3     O 6570   3.435   4.402  12.534  0.8511  0.0258 -0.4026
  437TMC3     H 6571   3.241   4.391  12.190  0.3359 -1.0281 -0.6610
  437TMC3    H1 6572   3.568   4.538  12.440  0.6526  0.1472 -0.1353
  437TMC3    H2 6573   3.572   4.594  12.022  1.2956  1.6490  1.9319
  437TMC3    C7 6574   3.701   4.647  12.236  0.3692 -0.2748  0.8974
  437TMC3    C8 6575   3.324   4.505  11.980  0.3336  0.0331  0.1774
  437TMC3    O1 6576   3.717   4.724  12.143  0.0984 -0.0930  0.2581
  437TMC3    O2 6577   3.203   4.500  11.983  0.3784  0.2784  0.0576
  438MPD2     C 6578   1.041   0.337  16.808 -0.2643  0.1603  0.5577
  438MPD2    C1 6579   1.133   0.265  16.880  0.4300 -0.5678  0.1582
  438MPD2    C2 6580   1.139   0.280  17.015 -0.6133  0.1338  0.3076
  438MPD2    C3 6581   1.044   0.356  17.089  1.1711 -0.0337 -0.4901
  438MPD2    C4 6582   0.940   0.412  17.016  0.5610 -0.0585 -0.3051
  438MPD2    C5 6583   0.946   0.402  16.880 -0.0657  0.4873  0.0548
  438MPD2     H 6584   1.218   0.226  17.066 -1.9285 -0.4896  1.7009
  438MPD2    H1 6585   0.862   0.472  17.060 -1.9863 -2.8038 -1.0737
  438MPD2    H2 6586   1.028   0.343  16.700 -1.2599 -1.4393  0.5884
  438MPD2    H3 6587   0.878   0.470  16.830  2.0318  3.6167  1.4197
  438MPD2     N 6588   1.018   0.364  17.232  0.5268  0.4194 -0.3564
  438MPD2    H5 6589   0.937   0.418  17.259 -1.0499 -0.6370 -2.9632
  438MPD2    N1 6590   1.220   0.177  16.819  0.1336  0.1417 -0.4980
  438MPD2    H7 6591   1.293   0.142  16.880  0.0112  2.6085  1.0623
  439TMC3    C1 6592   1.361   0.082  16.646 -0.0093 -0.0701  0.4516
  439TMC3    C2 6593   1.380   0.054  16.513 -0.0753  0.2136 -0.8128
  439TMC3    C3 6594   1.490   4.718  16.481  0.1748  1.0341  0.4436
  439TMC3    C4 6595   1.429   0.022  16.747 -1.2277 -0.0375  0.1324
  439TMC3    C5 6596   1.523   4.671  16.711 -0.5400  0.8784 -0.0752
  439TMC3    C6 6597   1.556   4.650  16.580  0.0969  0.2796  0.8554
  439TMC3     C 6598   1.234   0.151  16.681 -0.0417  0.6196  0.3444
  439TMC3     O 6599   1.161   0.183  16.586  0.3615  0.5864 -0.2342
  439TMC3     H 6600   1.316   0.102  16.440  0.2941  0.4785 -0.9625
  439TMC3    H1 6601   1.424   0.043  16.853 -2.1520  0.4473 -0.0079
  439TMC3    H2 6602   1.642   4.588  16.558 -0.3189  0.4563 -1.3439
  439TMC3    C7 6603   1.620   4.618  16.811 -0.8339  0.2127 -0.3099
  439TMC3    C8 6604   1.514   4.664  16.347 -0.0696 -0.4433 -0.4918
  439TMC3    O1 6605   1.619   4.676  16.919  0.0367 -0.1603 -0.1123
  439TMC3    O2 6606   1.605   4.583  16.328  0.5359  0.6585 -0.7949
  440MPD2     C 6607   4.623   0.291  14.538  0.0960  0.4527 -0.0067
  440MPD2    C1 6608   4.572   0.315  14.667 -0.0890  0.8892  1.0938
  440MPD2    C2 6609   4.558   0.208  14.750  0.2690 -0.8114  0.3012
  440MPD2    C3 6610   4.583   0.079  14.704 -0.1927 -0.5637 -0.2649
  440MPD2    C4 6611   4.642   0.060  14.580  0.0600  0.3758  0.0319
  440MPD2    C5 6612   4.666   0.164  14.500  0.0761 -0.3267  0.1936
  440MPD2     H 6613   4.517   0.222  14.850 -0.9148  1.5232 -0.4993
  440MPD2    H1 6614   4.683   4.703  14.550 -2.8534 -0.4308 -1.4410
  440MPD2    H2 6615   4.642   0.375  14.472 -3.2539  2.2911  1.3917
  440MPD2    H3 6616   4.710   0.141  14.404  1.2872 -0.9145  0.8887
  440MPD2     N 6617   4.543   4.700  14.766  0.6844  0.2653 -0.2178
  440MPD2    H5 6618   4.592   4.618  14.733  0.3810 -0.4474  1.1083
  440MPD2    N1 6619   4.548   0.442  14.724 -0.1361  0.3235 -0.7115
  440MPD2    H7 6620   4.528   0.436  14.823  1.0760 -0.8259 -0.5330
  441TMC3    C1 6621   4.485   4.570  14.946 -0.2411  0.1322 -0.1384
  441TMC3    C2 6622   4.609   4.506  14.937 -0.4261  0.0510 -0.2286
  441TMC3    C3 6623   4.617   4.378  14.991 -0.1520 -0.6649 -0.2672
  441TMC3    C4 6624   4.387   4.513  15.027  0.1848 -0.4526  0.2858
  441TMC3    C5 6625   4.414   4.393  15.095 -0.0934  0.2982 -0.0743
  441TMC3    C6 6626   4.515   4.309  15.057  0.5417 -0.1783  0.5817
  441TMC3     C 6627   4.464   4.694  14.878 -0.3624 -0.3258  0.0865
  441TMC3     O 6628   4.392   0.036  14.931  0.4686 -0.6319 -0.2852
  441TMC3     H 6629   4.689   4.557  14.884  0.1816 -2.0362 -1.2905
  441TMC3    H1 6630   4.296   4.568  15.050  0.7574  1.1015 -1.1567
  441TMC3    H2 6631   4.525   4.213  15.106 -1.8186  0.2117  1.8301
  441TMC3    C7 6632   4.419   4.417  15.242  0.2330 -0.7612 -0.9057
  441TMC3    C8 6633   0.012   4.350  15.050 -0.5286 -0.1585 -0.6682
  441TMC3    O1 6634   4.338   4.504  15.274 -0.5350 -0.2973 -0.4528
  441TMC3    O2 6635   0.028   4.245  15.109  0.0113  0.2711 -0.1126
  442MPD2     C 6636   3.001   1.379  16.117 -0.0181  0.0134 -0.3730
  442MPD2    C1 6637   2.860   1.365  16.103 -0.4023 -0.1093 -0.7580
  442MPD2    C2 6638   2.811   1.257  16.028  0.1926 -0.5459  0.1981
  442MPD2    C3 6639   2.894   1.155  15.991 -0.0217 -0.1788  0.8987
  442MPD2    C4 6640   3.030   1.169  16.004 -0.1497  0.2515  0.2092
  442MPD2    C5 6641   3.084   1.281  16.066 -0.0899 -0.0808 -0.2903
  442MPD2     H 6642   2.703   1.258  16.015  0.5058  0.1125 -2.2830
  442MPD2    H1 6643   3.097   1.093  15.968 -2.9495 -1.4255 -1.5168
  442MPD2    H2 6644   3.049   1.472  16.148 -1.3061 -0.1351  2.1555
  442MPD2    H3 6645   3.189   1.305  16.074 -0.0215 -0.0616 -1.2951
  442MPD2     N 6646   2.853   1.040  15.928 -0.2111 -0.0614  0.0078
  442MPD2    H5 6647   2.925   0.968  15.927  1.2339  1.3883  0.2479
  442MPD2    N1 6648   2.769   1.461  16.159 -0.2744 -0.2159 -0.5222
  442MPD2    H7 6649   2.670   1.443  16.146 -0.9807  0.8327  3.4551
  443TMC3    C1 6650   2.674   1.631  16.267  0.0962 -0.1200 -0.0321
  443TMC3    C2 6651   2.588   1.643  16.159 -0.5761 -0.1967 -0.5859
  443TMC3    C3 6652   2.456   1.616  16.180  0.7454 -0.4085  0.8795
  443TMC3    C4 6653   2.633   1.582  16.384 -0.5380  0.6392  0.2177
  443TMC3    C5 6654   2.499   1.547  16.395 -0.4283 -0.1513 -0.0129
  443TMC3    C6 6655   2.407   1.572  16.298 -0.3046 -0.7627  0.2916
  443TMC3     C 6656   2.798   1.568  16.238  0.3746  0.6541  0.3595
  443TMC3     O 6657   2.904   1.610  16.281 -0.0985 -0.2402 -0.0778
  443TMC3     H 6658   2.628   1.660  16.060  0.0098 -1.1885 -0.5120
  443TMC3    H1 6659   2.703   1.560  16.463 -0.8547  0.1602  0.3655
  443TMC3    H2 6660   2.308   1.529  16.307 -0.9349  0.8576  1.1204
  443TMC3    C7 6661   2.442   1.457  16.495 -0.3025 -0.5754 -0.1003
  443TMC3    C8 6662   2.388   1.565  16.059  0.2525 -0.0279  0.0724
  443TMC3    O1 6663   2.338   1.396  16.468 -0.6833  0.2834  0.4948
  443TMC3    O2 6664   2.457   1.548  15.961  0.3452  0.2843  0.1821
  444MPD2     C 6665   2.678   0.745  16.857  0.0271 -0.2677 -0.0801
  444MPD2    C1 6666   2.637   0.631  16.922 -0.0281  0.3762 -0.0749
  444MPD2    C2 6667   2.682   0.512  16.874 -0.7254 -0.4621  0.0034
  444MPD2    C3 6668   2.772   0.499  16.767 -0.4811  0.1401  0.4938
  444MPD2    C4 6669   2.811   0.621  16.702 -0.5504 -0.2755  0.2729
  444MPD2    C5 6670   2.762   0.741  16.748 -0.3280  0.5211  0.8479
  444MPD2     H 6671   2.656   0.417  16.918  0.9900 -0.8425  0.1924
  444MPD2    H1 6672   2.873   0.612  16.614 -1.0828  1.2383 -0.2406
  444MPD2    H2 6673   2.661   0.846  16.894  0.9560 -0.1956  0.1592
  444MPD2    H3 6674   2.784   0.837  16.703 -0.0162 -0.5911 -1.3864
  444MPD2     N 6675   2.818   0.365  16.736 -0.9661 -0.2844  0.2208
  444MPD2    H5 6676   2.774   0.286  16.782 -1.7163  0.4779  0.7874
  444MPD2    N1 6677   2.543   0.629  17.025 -1.0727 -0.0554 -0.5614
  444MPD2    H7 6678   2.537   0.546  17.082  2.3474  0.9748  1.3726
  445TMC3    C1 6679   2.948   0.194  16.647 -0.4232 -0.5189 -0.1609
  445TMC3    C2 6680   2.835   0.122  16.618 -0.0042  0.0265 -0.4617
  445TMC3    C3 6681   2.855   4.724  16.613 -0.0271 -0.0724  0.3826
  445TMC3    C4 6682   3.075   0.140  16.646  0.4788 -0.2169 -0.0843
  445TMC3    C5 6683   3.090   0.010  16.650  0.2055  0.0119  0.6126
  445TMC3    C6 6684   2.984   4.671  16.624  0.2271 -0.3458  0.1783
  445TMC3     C 6685   2.935   0.336  16.665  0.2134  0.3943 -0.1850
  445TMC3     O 6686   3.025   0.405  16.619 -0.5780 -0.7466  0.4124
  445TMC3     H 6687   2.736   0.166  16.609 -0.9395 -2.1371 -0.8738
  445TMC3    H1 6688   3.157   0.203  16.678  1.1315 -0.5168 -1.1437
  445TMC3    H2 6689   2.992   4.563  16.629  0.3357 -0.3103  0.7869
  445TMC3    C7 6690   3.220   4.688  16.664  0.5431  0.1519 -0.7010
  445TMC3    C8 6691   2.754   4.641  16.554  0.5101  0.5879  0.1789
  445TMC3    O1 6692   3.236   4.578  16.719 -0.8590 -0.2185 -0.5339
  445TMC3    O2 6693   2.760   4.517  16.572  0.2572 -0.3015 -0.3385
  446MPD2     C 6694   2.408   1.659  11.435  0.1638 -0.2056  0.3358
  446MPD2    C1 6695   2.399   1.647  11.302 -0.6295  0.0304 -0.3984
  446MPD2    C2 6696   2.513   1.691  11.232  0.0917  0.5627 -0.0140
  446MPD2    C3 6697   2.632   1.711  11.295 -0.3385  0.7935  0.2185
  446MPD2    C4 6698   2.634   1.715  11.434 -0.0626  0.2376  0.0635
  446MPD2    C5 6699   2.520   1.691  11.500  0.7647  0.7689  0.4310
  446MPD2     H 6700   2.515   1.688  11.123  1.4880 -1.7551  0.0620
  446MPD2    H1 6701   2.726   1.730  11.489  0.0004 -0.7914  0.2397
  446MPD2    H2 6702   2.322   1.635  11.497 -1.2665  3.8292 -0.1308
  446MPD2    H3 6703   2.521   1.689  11.609  2.3312  0.1998  0.4015
  446MPD2     N 6704   2.751   1.734  11.218 -0.2783 -0.0603 -0.1612
  446MPD2    H5 6705   2.727   1.743  11.120 -1.0212 -0.4733 -0.0175
  446MPD2    N1 6706   2.275   1.618  11.232  0.4295 -0.3058 -0.1423
  446MPD2    H7 6707   2.271   1.630  11.131  0.2192 -0.4212 -0.1483
  447TMC3    C1 6708   2.979   1.722  11.152  0.8953  0.1798  0.5436
  447TMC3    C2 6709   2.966   1.800  11.035  0.0045  0.4420 -0.3100
  447TMC3    C3 6710   3.071   1.794  10.949  0.1486 -0.2393  0.3137
  447TMC3    C4 6711   3.102   1.660  11.187  0.9494  0.4487  0.2529
  447TMC3    C5 6712   3.197   1.666  11.088  0.7499 -0.6698 -0.5497
  447TMC3    C6 6713   3.183   1.726  10.965  0.1621  0.0901  0.2910
  447TMC3     C 6714   2.882   1.728  11.265  0.4262  0.1292 -0.4392
  447TMC3     O 6715   2.922   1.688  11.375 -0.4646 -0.2153 -0.0474
  447TMC3     H 6716   2.876   1.854  11.006 -0.2299 -0.0085 -0.4152
  447TMC3    H1 6717   3.110   1.592  11.270 -2.7602  0.2641  0.4788
  447TMC3    H2 6718   3.263   1.719  10.892  0.6957 -0.0863  0.8954
  447TMC3    C7 6719   3.338   1.640  11.123  0.1706  0.8925 -0.0007
  447TMC3    C8 6720   3.033   1.812  10.812 -0.0086  0.0277  0.2011
  447TMC3    O1 6721   3.417   1.620  11.033 -0.2360  0.1755 -0.3720
  447TMC3    O2 6722   2.979   1.720  10.751  0.1339  0.3972  0.4214
  448TMC3    C1 6723   0.274   0.895  17.496 -0.2473  0.4268 -0.3080
  448TMC3    C2 6724   0.342   0.868  17.383 -0.1187 -0.0205 -0.3216
  448TMC3    C3 6725   0.471   0.906  17.372 -0.0772  0.2903  0.2568
  448TMC3    C4 6726   0.327   0.981  17.589 -0.5851  0.3694  1.2476
  448TMC3    C5 6727   0.462   1.020  17.568 -0.6178 -0.3254 -0.1064
  448TMC3    C6 6728   0.525   0.991  17.455  0.3336 -0.2096  0.1020
  448TMC3     C 6729   0.209   0.775  17.552  0.3297  0.0468  0.6289
  448TMC3     O 6730   0.240   0.672  17.501 -0.4205 -0.9424  0.0609
  448TMC3     H 6731   0.306   0.797  17.309 -1.3826  0.8037 -0.4902
  448TMC3    H1 6732   0.270   0.993  17.681 -1.1483 -0.2532  0.9756
  448TMC3    H2 6733   0.620   1.039  17.432  0.9393 -0.4774  2.0404
  448TMC3    C7 6734   0.507   1.132  17.650 -0.1983  0.0470  0.0946
  448TMC3    C8 6735   0.548   0.855  17.264 -0.2147 -0.0012  0.0767
  448TMC3    O1 6736   0.594   1.200  17.596 -0.0969  0.0753 -0.8427
  448TMC3    O2 6737   0.663   0.819  17.299  0.4407  0.2283  0.0979
  449MPD2     C 6738   2.838   4.739  13.678 -0.2286 -0.1602  0.6366
  449MPD2    C1 6739   2.709   0.045  13.690 -0.4746  0.2387 -0.1271
  449MPD2    C2 6740   2.612   4.705  13.734  0.0908 -0.3612  0.3247
  449MPD2    C3 6741   2.643   4.578  13.770 -0.5693  0.1589 -0.3430
  449MPD2    C4 6742   2.772   4.528  13.756  0.6040 -0.5810 -0.3653
  449MPD2    C5 6743   2.865   4.614  13.717  0.1651 -0.1590 -0.8347
  449MPD2     H 6744   2.512   0.004  13.756  1.0948  1.3608  1.9443
  449MPD2    H1 6745   2.807   4.428  13.783 -1.3963 -0.9312  0.8974
  449MPD2    H2 6746   2.924   0.047  13.632  0.8119 -0.9042  1.8008
  449MPD2    H3 6747   2.960   4.566  13.695  0.8621  0.6318  0.5028
  449MPD2     N 6748   2.537   4.497  13.810  0.0291 -0.0261 -0.0497
  449MPD2    H5 6749   2.446   4.533  13.785  0.2194  0.7020  0.3316
  449MPD2    N1 6750   2.665   0.172  13.647  0.7568 -0.6484 -0.0109
  449MPD2    H7 6751   2.567   0.197  13.662 -0.0353 -0.7991 -4.9105
  450TMC3    C1 6752   2.664   0.369  13.538 -1.1731  0.3454  0.3792
  450TMC3    C2 6753   2.660   0.386  13.399 -0.1365 -0.7630 -0.2381
  450TMC3    C3 6754   2.538   0.402  13.334 -0.1375 -0.0940 -0.1862
  450TMC3    C4 6755   2.544   0.377  13.603 -0.5252  0.0159  0.0889
  450TMC3    C5 6756   2.425   0.400  13.542  0.6470  0.5956 -0.0670
  450TMC3    C6 6757   2.424   0.410  13.405  0.2182 -0.6841  0.5011
  450TMC3     C 6758   2.745   0.263  13.579 -0.3754 -1.0567 -0.0944
  450TMC3     O 6759   2.860   0.257  13.536 -0.3566 -0.1556 -0.2161
  450TMC3     H 6760   2.752   0.376  13.342  0.1389  1.1413 -0.1279
  450TMC3    H1 6761   2.545   0.370  13.711  4.0125 -0.8013  0.0320
  450TMC3    H2 6762   2.327   0.402  13.358  0.8466 -0.0531 -0.8944
  450TMC3    C7 6763   2.337   0.302  13.607 -0.2873  0.2126  0.2429
  450TMC3    C8 6764   2.537   0.388  13.191  0.6276 -0.7830 -0.3089
  450TMC3    O1 6765   2.401   0.207  13.653  0.2378  0.2944  0.1846
  450TMC3    O2 6766   2.432   0.429  13.140  0.0249 -0.1389  0.1928
  451MPD2     C 6767   4.068   4.184   1.107 -0.3802 -0.1700  0.9247
  451MPD2    C1 6768   3.980   4.089   1.156 -0.6418  0.6522  0.3902
  451MPD2    C2 6769   3.997   3.965   1.106 -0.2566 -0.5243 -0.2210
  451MPD2    C3 6770   4.094   3.935   1.007 -0.5645  0.3483 -0.5246
  451MPD2    C4 6771   4.176   4.029   0.955 -0.2298 -0.6351 -0.1206
  451MPD2    C5 6772   4.164   4.160   1.016 -0.1459  0.2437  0.2557
  451MPD2     H 6773   3.938   3.880   1.139 -1.6424  0.1729 -0.9099
  451MPD2    H1 6774   4.245   4.001   0.876 -0.6248  1.7706 -1.3197
  451MPD2    H2 6775   4.057   4.290   1.127 -1.4412  0.0682 -0.8411
  451MPD2    H3 6776   4.232   4.238   0.982 -0.5533  0.1546 -0.7726
  451MPD2     N 6777   4.103   3.803   0.952 -0.0024 -0.4851 -0.0237
  451MPD2    H5 6778   4.179   3.796   0.885 -1.2834 -0.8692 -1.4467
  451MPD2    N1 6779   3.880   4.139   1.247  0.2598  0.6234  0.2212
  451MPD2    H7 6780   3.870   4.239   1.263 -2.9619  0.2991  0.2372
  452TMC3    C1 6781   4.005   3.597   0.877 -0.7092  0.4266  0.4851
  452TMC3    C2 6782   3.907   3.501   0.907 -0.8650 -0.5007 -0.4709
  452TMC3    C3 6783   3.830   3.447   0.810 -0.1523 -0.2654 -0.1205
  452TMC3    C4 6784   4.016   3.637   0.746  0.1346  0.5164 -0.9318
  452TMC3    C5 6785   3.934   3.580   0.653  0.5165  0.2426 -0.1353
  452TMC3    C6 6786   3.841   3.481   0.677  0.4657  0.4785  0.1477
  452TMC3     C 6787   4.020   3.696   0.983 -0.2618  0.3479 -1.1790
  452TMC3     O 6788   3.949   3.671   1.076 -0.4185 -0.6094  0.4983
  452TMC3     H 6789   3.917   3.436   0.993  2.4122  1.1552  0.4308
  452TMC3    H1 6790   4.078   3.724   0.725  0.9195  0.3075  0.5117
  452TMC3    H2 6791   3.783   3.430   0.601  2.8849 -1.0808 -0.6241
  452TMC3    C7 6792   3.954   3.626   0.515 -0.4916 -0.0601  0.5816
  452TMC3    C8 6793   3.696   3.474   0.844  0.2920 -0.0748 -0.5575
  452TMC3    O1 6794   4.066   3.671   0.489  0.1762 -0.1052 -0.5555
  452TMC3    O2 6795   3.609   3.429   0.768 -0.2801 -0.9576  0.1673
  453TMC3    C1 6796   0.512   0.872  11.725  0.9068 -0.0085 -0.5788
  453TMC3    C2 6797   0.462   0.750  11.764 -0.6393 -0.3779 -0.3894
  453TMC3    C3 6798   0.326   0.755  11.791 -0.1586 -0.5822  0.1491
  453TMC3    C4 6799   0.443   0.996  11.717  0.2371 -0.1518  0.2108
  453TMC3    C5 6800   0.312   0.991  11.743 -0.6054  0.0739  0.1423
  453TMC3    C6 6801   0.257   0.869  11.766 -0.1402 -1.0818 -0.1210
  453TMC3     C 6802   0.654   0.878  11.695  0.1763  0.3216  0.0761
  453TMC3     O 6803   0.719   0.982  11.706  0.2610 -0.4853 -0.2679
  453TMC3     H 6804   0.518   0.676  11.819 -3.3651 -0.2704  2.4812
  453TMC3    H1 6805   0.500   1.087  11.703  0.4952 -0.2674  0.4967
  453TMC3    H2 6806   0.150   0.871  11.782 -0.1406  0.9011 -0.3810
  453TMC3    C7 6807   0.231   1.113  11.761 -0.0328  0.0153  0.9333
  453TMC3    C8 6808   0.253   0.646  11.849  0.0758 -0.1226 -0.4331
  453TMC3    O1 6809   0.138   1.114  11.841 -0.5090 -0.0777 -0.7887
  453TMC3    O2 6810   0.148   0.678  11.902  0.1975  1.0091 -0.1273
  454MPD2     C 6811   3.675   4.461  16.223  0.3284 -0.5784  0.1257
  454MPD2    C1 6812   3.644   4.569  16.140  0.4335 -0.6387  0.2072
  454MPD2    C2 6813   3.531   4.646  16.167 -0.1250 -0.0561 -0.4265
  454MPD2    C3 6814   3.443   4.609  16.265  0.3296 -0.7446  0.1252
  454MPD2    C4 6815   3.477   4.509  16.352  0.1340  0.6707  0.0830
  454MPD2    C5 6816   3.589   4.431  16.329  0.5134  0.4131 -0.0572
  454MPD2     H 6817   3.510   4.723  16.093 -0.8476 -1.2320 -1.4324
  454MPD2    H1 6818   3.403   4.489  16.429  0.6005 -0.7503  0.1682
  454MPD2    H2 6819   3.764   4.400  16.214  2.0509  1.8925  0.1982
  454MPD2    H3 6820   3.612   4.342  16.386 -2.2320  0.6248  1.3381
  454MPD2     N 6821   3.321   4.673  16.282 -0.1219 -0.1596  0.2951
  454MPD2    H5 6822   3.252   4.621  16.336 -0.8181 -0.8299 -1.2571
  454MPD2    N1 6823   3.725   4.595  16.026 -0.0417 -0.0461  0.3329
  454MPD2    H7 6824   3.807   4.535  16.023 -0.6437 -0.8013 -0.9657
  455TMC3    C1 6825   3.148   0.088  16.241 -0.5273 -0.0270 -0.5656
  455TMC3    C2 6826   3.108   0.221  16.237 -0.0903 -0.2251  0.4924
  455TMC3    C3 6827   2.978   0.251  16.202  0.5565  0.5140 -0.2361
  455TMC3    C4 6828   3.068   4.733  16.185  0.1365 -0.5091  0.4956
  455TMC3    C5 6829   2.940   0.029  16.159 -0.4462 -0.3454  0.0678
  455TMC3    C6 6830   2.889   0.158  16.161 -0.1802 -0.0633  0.3137
  455TMC3     C 6831   3.290   0.054  16.230  0.6002 -0.2614  0.1693
  455TMC3     O 6832   3.370   0.142  16.202  0.3079 -0.3642 -0.4879
  455TMC3     H 6833   3.180   0.286  16.285  1.4078 -0.7675 -1.0212
  455TMC3    H1 6834   3.101   4.635  16.155 -1.1766 -1.1978  1.2880
  455TMC3    H2 6835   2.783   0.174  16.149 -0.0908 -1.1447 -1.9778
  455TMC3    C7 6836   2.857   4.664  16.109  0.4669  0.8615 -0.1688
  455TMC3    C8 6837   2.927   0.387  16.212  0.5120  0.6679 -0.8224
  455TMC3    O1 6838   2.840   4.568  16.184  0.0024 -0.2918  0.3086
  455TMC3    O2 6839   2.812   0.394  16.171 -0.1189  0.0491  0.8087
  456MPD2     C 6840   1.610   0.332  16.306 -0.2261  0.0621  0.0440
  456MPD2    C1 6841   1.655   0.284  16.427  0.6536 -0.2913 -0.2944
  456MPD2    C2 6842   1.583   0.329  16.541 -0.7742  0.7691  0.2180
  456MPD2    C3 6843   1.487   0.427  16.530  0.2224  1.0821  0.8419
  456MPD2    C4 6844   1.456   0.481  16.407 -0.7418 -0.2214  0.0876
  456MPD2    C5 6845   1.516   0.428  16.297  0.0773  0.4523 -0.7326
  456MPD2     H 6846   1.620   0.300  16.638  0.1069  0.5044 -0.1920
  456MPD2    H1 6847   1.393   0.566  16.386  2.0387  1.5597 -0.9721
  456MPD2    H2 6848   1.654   0.304  16.212 -0.2293  0.0613  0.0428
  456MPD2    H3 6849   1.491   0.479  16.204  0.7501 -0.6120 -1.5043
  456MPD2     N 6850   1.425   0.464  16.651 -0.6062  0.5254  0.0847
  456MPD2    H5 6851   1.445   0.399  16.727 -0.2976  0.8962  0.3168
  456MPD2    N1 6852   1.762   0.198  16.426 -0.8860 -0.0135  0.1050
  456MPD2    H7 6853   1.808   0.172  16.339  0.6366  1.2998  0.5134
  457TMC3    C1 6854   1.284   0.571  16.800  1.0994 -0.1518  0.2238
  457TMC3    C2 6855   1.157   0.626  16.823  0.1130  0.0209  0.2946
  457TMC3    C3 6856   1.120   0.668  16.950 -0.0913 -0.4167  0.0987
  457TMC3    C4 6857   1.375   0.569  16.901 -0.4464 -0.2079  0.5975
  457TMC3    C5 6858   1.331   0.613  17.027  0.5783 -0.2107  0.1222
  457TMC3    C6 6859   1.208   0.667  17.054 -1.3525  0.2446 -0.3014
  457TMC3     C 6860   1.317   0.543  16.664  0.2012 -0.0693  0.2694
  457TMC3     O 6861   1.245   0.585  16.575  0.2716  0.1909 -0.2592
  457TMC3     H 6862   1.089   0.626  16.739  0.2834 -0.9256  0.1573
  457TMC3    H1 6863   1.477   0.538  16.884 -1.0881 -0.7226 -2.3264
  457TMC3    H2 6864   1.175   0.686  17.156 -0.6872  2.3533 -0.4847
  457TMC3    C7 6865   1.418   0.578  17.137 -0.4769 -0.0459 -0.0111
  457TMC3    C8 6866   0.991   0.739  16.980 -0.1185 -0.4530 -0.3398
  457TMC3    O1 6867   1.481   0.474  17.137  0.2678 -0.4085 -0.1360
  457TMC3    O2 6868   0.983   0.777  17.098  0.1383 -0.3204  0.4427
  458MPD2     C 6869   4.120   0.121  12.442 -0.7343 -0.5470  1.5660
  458MPD2    C1 6870   4.094   4.738  12.508  0.0552 -0.1051 -0.4751
  458MPD2    C2 6871   3.980   4.664  12.488 -0.6339 -0.0107  0.1880
  458MPD2    C3 6872   3.899   4.712  12.387  0.1221 -0.0332  0.7118
  458MPD2    C4 6873   3.926   0.089  12.319  0.1691  0.6725 -0.2756
  458MPD2    C5 6874   4.031   0.173  12.351 -0.5415 -0.3681 -0.1135
  458MPD2     H 6875   3.966   4.569  12.539 -2.0202 -0.1265 -0.3949
  458MPD2    H1 6876   3.858   0.110  12.238 -4.1011 -1.3133  2.7648
  458MPD2    H2 6877   4.205   0.180  12.475 -2.5084  1.4355  2.5846
  458MPD2    H3 6878   4.058   0.262  12.296  1.0766 -1.0432 -0.4070
  458MPD2     N 6879   3.784   4.627  12.349 -0.1496 -0.0012 -0.3612
  458MPD2    H5 6880   3.768   4.541  12.402 -0.7453  0.3741  0.0616
  458MPD2    N1 6881   4.198   4.698  12.592  0.4903 -0.3089  0.2635
  458MPD2    H7 6882   4.277   0.020  12.575  1.4511 -1.9237 -1.0053
  459TMC3    C1 6883   4.342   4.579  12.739 -0.8327 -0.0525  0.6140
  459TMC3    C2 6884   4.441   4.664  12.689 -0.5202  0.7631  0.4371
  459TMC3    C3 6885   4.552   4.657  12.769  0.2311  0.4211  0.2685
  459TMC3    C4 6886   4.351   4.497  12.852  0.8540 -0.5675  0.1823
  459TMC3    C5 6887   4.464   4.494  12.915 -0.0108  0.1803  0.2093
  459TMC3    C6 6888   4.566   4.584  12.886 -0.6852 -0.4174 -0.2882
  459TMC3     C 6889   4.206   4.587  12.673 -0.3446 -0.4186 -0.2229
  459TMC3     O 6890   4.121   4.508  12.703 -0.1892  0.4531  0.4132
  459TMC3     H 6891   4.435   4.724  12.599 -0.5722  1.6717  1.0504
  459TMC3    H1 6892   4.263   4.446  12.888  0.7116 -1.0914 -0.8921
  459TMC3    H2 6893   4.670   4.573  12.916 -0.2358 -0.1230 -1.7427
  459TMC3    C7 6894   4.485   4.397  13.020  0.1817 -0.5253 -0.1657
  459TMC3    C8 6895   4.661   0.011  12.731 -0.6057  0.3903 -0.1806
  459TMC3    O1 6896   4.414   4.298  13.021  0.7069 -0.3100 -0.0097
  459TMC3    O2 6897   0.039   4.725  12.742 -0.1687  0.6711  0.2092
  460MPD2     C 6898   3.075   2.119  10.616  0.3539  0.0085  0.2489
  460MPD2    C1 6899   3.032   1.992  10.642 -0.3393 -0.3088  0.5010
  460MPD2    C2 6900   2.953   1.928  10.551  0.4828 -0.6525 -0.6492
  460MPD2    C3 6901   2.923   1.992  10.428  0.3668  0.7955 -0.0360
  460MPD2    C4 6902   2.984   2.113  10.403 -0.4683  0.3901  0.0943
  460MPD2    C5 6903   3.064   2.176  10.496 -0.1561 -0.4789  0.0765
  460MPD2     H 6904   2.910   1.828  10.560  1.2288 -0.9698 -0.5725
  460MPD2    H1 6905   2.966   2.160  10.307  1.1016  1.3939  0.2751
  460MPD2    H2 6906   3.124   2.180  10.691 -0.2081  0.4460  0.2607
  460MPD2    H3 6907   3.115   2.271  10.488 -2.6357  0.9935  1.6833
  460MPD2     N 6908   2.837   1.937  10.331  0.4538 -0.6189 -0.2484
  460MPD2    H5 6909   2.803   1.842  10.339  1.0545 -0.8908 -0.9828
  460MPD2    N1 6910   3.055   1.940  10.773  0.0133 -0.0994 -0.0718
  460MPD2    H7 6911   3.108   1.997  10.838 -0.9897 -0.7951  1.3673
  461TMC3    C1 6912   2.745   1.916  10.105 -0.4940 -0.2678  0.5917
  461TMC3    C2 6913   2.817   1.806  10.076  0.5872  0.2197  0.4815
  461TMC3    C3 6914   2.790   1.739   9.958 -0.1976 -0.1601  0.3945
  461TMC3    C4 6915   2.671   1.978  10.003  0.0742 -0.4518  0.2086
  461TMC3    C5 6916   2.667   1.918   9.880  0.2592 -0.0595  0.2618
  461TMC3    C6 6917   2.722   1.794   9.848 -0.8354 -0.3414 -0.1839
  461TMC3     C 6918   2.799   2.002  10.213 -0.5883  0.0421  0.0106
  461TMC3     O 6919   2.787   2.124  10.196  0.0381 -0.2261  0.3961
  461TMC3     H 6920   2.892   1.761  10.141 -1.2408 -0.7196  1.9195
  461TMC3    H1 6921   2.634   2.077  10.028 -0.9259 -0.6883 -0.3444
  461TMC3    H2 6922   2.715   1.743   9.753  2.4157  1.1899 -1.2386
  461TMC3    C7 6923   2.608   1.991   9.774 -0.2205  0.0630 -0.2530
  461TMC3    C8 6924   2.843   1.606   9.941  0.0733 -0.4986  0.2502
  461TMC3    O1 6925   2.589   2.106   9.803 -0.2530  0.4036  0.0291
  461TMC3    O2 6926   2.927   1.559  10.018  0.0776 -0.1537 -0.3202
  462TMC3    C1 6927   3.089   3.830   0.158  0.2700 -0.1354  0.4233
  462TMC3    C2 6928   3.175   3.789   0.257  0.1729  1.2461  0.3845
  462TMC3    C3 6929   3.175   3.658   0.277  0.6620 -0.3603 -0.5275
  462TMC3    C4 6930   3.017   3.737   0.084  0.2288 -0.3097  0.1388
  462TMC3    C5 6931   3.020   3.608   0.114 -0.1868  0.0402 -0.0828
  462TMC3    C6 6932   3.087   3.565   0.225 -0.2334 -0.0451  0.5450
  462TMC3     C 6933   3.097   3.972   0.124 -0.1707 -0.6138  0.1398
  462TMC3     O 6934   3.117   4.046   0.218  0.7147 -0.0626  0.8862
  462TMC3     H 6935   3.247   3.861   0.294  4.7522 -1.8026 -2.8011
  462TMC3    H1 6936   2.971   3.775  17.748  2.6266  1.6747 -0.2271
  462TMC3    H2 6937   3.101   3.462   0.255 -3.6955  0.0107  2.2818
  462TMC3    C7 6938   2.956   3.497   0.049 -0.3403  0.0814 -1.2333
  462TMC3    C8 6939   3.270   3.595   0.379 -0.6173 -0.3549 -0.0024
  462TMC3    O1 6940   2.944   3.395   0.111 -0.5295  0.6571  0.6158
  462TMC3    O2 6941   3.308   3.665   0.472  0.5386 -0.0989  0.5785
  463MPD2     C 6942   4.737   0.790   1.718 -0.3939  0.2296 -0.1830
  463MPD2    C1 6943   4.725   0.891   1.620 -0.4822  0.1931  0.7063
  463MPD2    C2 6944   0.094   0.979   1.589 -0.3599 -0.4026 -0.3478
  463MPD2    C3 6945   0.214   0.966   1.656  0.1211 -0.7684 -0.2807
  463MPD2    C4 6946   0.233   0.866   1.746 -0.2549 -0.4964  0.2242
  463MPD2    C5 6947   0.128   0.780   1.778  0.1372  0.2987  0.6300
  463MPD2     H 6948   0.070   1.056   1.517  4.4106 -0.1136 -1.6438
  463MPD2    H1 6949   0.331   0.847   1.788 -0.1682  1.9840  1.1234
  463MPD2    H2 6950   4.662   0.717   1.742  1.6598 -2.7323 -2.7095
  463MPD2    H3 6951   0.161   0.697   1.840  2.1204 -0.2639 -1.1510
  463MPD2     N 6952   0.323   1.044   1.625 -0.2179 -0.1519 -0.9150
  463MPD2    H5 6953   0.409   1.032   1.678 -0.2098  0.7904 -0.7298
  463MPD2    N1 6954   4.597   0.907   1.559  0.3317 -0.2109  0.0161
  463MPD2    H7 6955   4.595   0.991   1.501 -0.4369 -1.0243 -1.1226
  464TMC3    C1 6956   4.368   0.874   1.489  0.0625  0.2975  1.2218
  464TMC3    C2 6957   4.353   1.008   1.499  0.1085  0.0579 -0.2347
  464TMC3    C3 6958   4.248   1.070   1.433 -0.6215  0.6456  0.1525
  464TMC3    C4 6959   4.283   0.793   1.417  0.0022 -0.2439 -0.1362
  464TMC3    C5 6960   4.171   0.856   1.360  0.3354  0.3048  0.5061
  464TMC3    C6 6961   4.163   0.995   1.352  0.1630  0.0260 -0.6790
  464TMC3     C 6962   4.490   0.819   1.553 -0.4258 -0.4238 -0.1640
  464TMC3     O 6963   4.493   0.699   1.576  0.3528 -0.2576  0.0103
  464TMC3     H 6964   4.409   1.067   1.570  2.1508 -0.8322 -1.1004
  464TMC3    H1 6965   4.284   0.685   1.412  1.9220 -0.2342  0.0784
  464TMC3    H2 6966   4.091   1.046   1.288  1.3701  3.2554  0.5049
  464TMC3    C7 6967   4.102   0.777   1.258  0.0060  0.2850  0.3639
  464TMC3    C8 6968   4.213   1.212   1.441 -0.2390  0.0731 -0.5978
  464TMC3    O1 6969   4.159   0.679   1.212 -0.1126  0.0310  0.2778
  464TMC3    O2 6970   4.104   1.242   1.387  0.1078  0.4999 -0.1058
  465MPD2     C 6971   0.586   0.360  16.661 -0.2881  0.4179  0.6835
  465MPD2    C1 6972   0.478   0.419  16.720 -0.5354  0.7294 -0.0073
  465MPD2    C2 6973   0.370   0.442  16.645  0.5406  0.6304  0.0230
  465MPD2    C3 6974   0.368   0.400  16.515  0.1870  0.5705 -0.0054
  465MPD2    C4 6975   0.467   0.324  16.458  0.7665  0.0225 -0.5158
  465MPD2    C5 6976   0.583   0.316  16.532 -0.1796  0.0071 -0.0059
  465MPD2     H 6977   0.282   0.492  16.682 -1.0303 -1.2574 -1.1482
  465MPD2    H1 6978   0.457   0.266  16.366  2.1094  0.5848 -1.0143
  465MPD2    H2 6979   0.685   0.356  16.704  0.0369  0.0731 -0.0875
  465MPD2    H3 6980   0.665   0.254  16.497  0.1738  0.4084  0.1241
  465MPD2     N 6981   0.244   0.421  16.448 -0.7030  0.1828 -0.1786
  465MPD2    H5 6982   0.163   0.451  16.500 -1.1294  0.9025 -1.2534
  465MPD2    N1 6983   0.469   0.464  16.850  0.3572  0.0864  0.0737
  465MPD2    H7 6984   0.394   0.530  16.870  2.9241  3.5856 -1.7379
  466TMC3    C1 6985   4.624   0.533  16.347  0.4347  0.1942 -0.4592
  466TMC3    C2 6986   4.636   0.633  16.253 -0.0261 -0.7083  0.3609
  466TMC3    C3 6987   0.006   0.629  16.174 -1.0461 -0.2901  0.1589
  466TMC3    C4 6988   4.726   0.437  16.354  0.1583  0.5319  0.1663
  466TMC3    C5 6989   0.098   0.444  16.273  0.6333  0.7710  0.4504
  466TMC3    C6 6990   0.103   0.540  16.176 -0.1832  0.3989 -0.0616
  466TMC3     C 6991   4.503   0.530  16.428 -0.6389 -0.8012  0.2083
  466TMC3     O 6992   4.434   0.631  16.433  0.1524 -0.0668 -0.0702
  466TMC3     H 6993   4.554   0.704  16.240  0.8017 -0.2036 -2.1584
  466TMC3    H1 6994   4.725   0.360  16.431 -1.8878  2.5113  2.1277
  466TMC3    H2 6995   0.189   0.546  16.111  0.3630  0.2238  0.6402
  466TMC3    C7 6996   0.229   0.407  16.315  0.1433 -0.0597 -1.0595
  466TMC3    C8 6997   0.060   0.757  16.151  0.4123  0.0399  0.5130
  466TMC3    O1 6998   0.313   0.386  16.226 -0.6269  0.3150  0.3491
  466TMC3    O2 6999   0.146   0.765  16.065 -0.4266 -0.1722 -0.0451
  467TMC3    C1 7000   1.301   3.279  13.517  0.4443  0.0021 -0.6746
  467TMC3    C2 7001   1.282   3.367  13.410  0.4662 -0.7207  0.0017
  467TMC3    C3 7002   1.191   3.463  13.433  0.0368  0.4855  0.1848
  467TMC3    C4 7003   1.212   3.274  13.622  1.0848  0.2739 -0.6941
  467TMC3    C5 7004   1.120   3.371  13.637 -0.0775  0.0405  0.2826
  467TMC3    C6 7005   1.111   3.467  13.537 -0.2015 -0.0441 -0.2016
  467TMC3     C 7006   1.434   3.223  13.534 -0.3323  0.5077  0.7243
  467TMC3     O 7007   1.524   3.275  13.469 -0.2487 -0.5260  0.4155
  467TMC3     H 7008   1.355   3.357  13.330 -0.4443  1.3831 -1.0760
  467TMC3    H1 7009   1.232   3.212  13.708 -0.1096 -0.9094 -1.2845
  467TMC3    H2 7010   1.034   3.543  13.543  0.1481  0.2319  0.8462
  467TMC3    C7 7011   1.143   3.422  13.766 -0.3378  0.3443 -0.4846
  467TMC3    C8 7012   1.217   3.590  13.380 -0.2107  0.2795  0.1158
  467TMC3    O1 7013   1.255   3.424  13.811  0.2540  0.6386 -0.3675
  467TMC3    O2 7014   1.214   3.682  13.463  0.0844  0.0877 -0.1185
  468MPD2     C 7015   4.472   2.362  10.803 -0.3867  0.3017  0.0376
  468MPD2    C1 7016   4.607   2.330  10.808 -0.9668 -0.0868  0.0599
  468MPD2    C2 7017   4.647   2.199  10.812  0.6295 -1.0098 -0.3803
  468MPD2    C3 7018   4.560   2.096  10.800  0.6397 -0.1471  0.1847
  468MPD2    C4 7019   4.428   2.129  10.822 -0.1036  0.5457 -0.1627
  468MPD2    C5 7020   4.382   2.259  10.823 -0.0444 -0.0236 -0.6502
  468MPD2     H 7021   0.012   2.168  10.809  1.1727  0.5555  1.9292
  468MPD2    H1 7022   4.354   2.051  10.837 -0.9069  1.6023  1.4080
  468MPD2    H2 7023   4.434   2.463  10.790  0.1329 -0.0416 -3.9163
  468MPD2    H3 7024   4.275   2.272  10.822  0.0370  0.5807 -2.3280
  468MPD2     N 7025   4.599   1.961  10.777 -0.5123  0.4862 -0.0881
  468MPD2    H5 7026   4.525   1.897  10.806  0.9589 -0.9137  0.6239
  468MPD2    N1 7027   4.709   2.419  10.816 -0.1123 -0.1607  0.6068
  468MPD2    H7 7028   0.063   2.379  10.825  1.3673  2.8477 -1.5160
  469TMC3    C1 7029   0.072   2.614  10.890 -0.3912 -0.2987 -0.2639
  469TMC3    C2 7030   0.189   2.562  10.843 -0.2615  0.0458 -0.2541
  469TMC3    C3 7031   0.290   2.563  10.935  0.0253  0.1563  0.2603
  469TMC3    C4 7032   0.056   2.636  11.023  0.5451 -0.1291  0.2767
  469TMC3    C5 7033   0.160   2.633  11.107  1.0811  0.2298  0.4951
  469TMC3    C6 7034   0.282   2.607  11.066 -0.2172 -0.2355  0.5344
  469TMC3     C 7035   4.695   2.551  10.828 -0.1293  0.8394  0.3618
  469TMC3     O 7036   4.590   2.616  10.811  0.2932  0.1496  0.4486
  469TMC3     H 7037   0.208   2.526  10.742  1.3919 -1.9761  0.7774
  469TMC3    H1 7038   4.694   2.649  11.061  0.2981 -2.7064  0.4948
  469TMC3    H2 7039   0.368   2.621  11.130  0.7440  1.0593 -1.0333
  469TMC3    C7 7040   0.123   2.622  11.252 -0.3115  0.1550 -0.1981
  469TMC3    C8 7041   0.419   2.525  10.886  0.4492 -0.2985 -0.3395
  469TMC3    O1 7042   0.016   2.571  11.274  0.1382 -0.1577 -0.2110
  469TMC3    O2 7043   0.441   2.541  10.767  0.0396 -0.4599  0.5274
  470TMC3    C1 7044   2.050   3.009   0.618  0.0255  0.5417 -0.1501
  470TMC3    C2 7045   2.037   3.139   0.667 -0.0579 -0.0433  0.0717
  470TMC3    C3 7046   2.148   3.176   0.734 -0.5024  0.0394  0.6191
  470TMC3    C4 7047   2.146   2.924   0.653 -0.1751 -0.3206  0.3240
  470TMC3    C5 7048   2.247   2.965   0.723 -0.7016  0.2684 -0.0335
  470TMC3    C6 7049   2.250   3.097   0.767  0.2681 -0.4190  0.3359
  470TMC3     C 7050   1.971   2.987   0.496 -0.9055  0.5787 -0.3468
  470TMC3     O 7051   1.926   3.080   0.429 -0.0391  0.4654 -0.0439
  470TMC3     H 7052   1.952   3.203   0.646 -0.4782 -0.5879  0.1334
  470TMC3    H1 7053   2.150   2.816   0.640 -0.2073 -0.2837  0.0140
  470TMC3    H2 7054   2.332   3.125   0.833 -0.0643  0.3670  0.4224
  470TMC3    C7 7055   2.330   2.875   0.787  0.3523  0.0199  0.8422
  470TMC3    C8 7056   2.166   3.312   0.780 -0.1701 -0.2329 -0.3004
  470TMC3    O1 7057   2.274   2.781   0.846  0.3793  0.3939  0.6078
  470TMC3    O2 7058   2.272   3.340   0.838  0.8542 -0.5395  0.4651
  471MPD2     C 7059   2.612   3.889  16.772  0.6951 -0.0727  0.2891
  471MPD2    C1 7060   2.705   3.890  16.668  0.4287  0.5650 -0.0008
  471MPD2    C2 7061   2.838   3.931  16.699  0.4757  0.1663 -0.4572
  471MPD2    C3 7062   2.880   3.957  16.830  0.3694  0.2674 -1.0222
  471MPD2    C4 7063   2.788   3.957  16.929  0.5948 -0.5920  0.5112
  471MPD2    C5 7064   2.653   3.934  16.896 -0.0494  0.0667  0.0876
  471MPD2     H 7065   2.903   3.946  16.613 -0.5227  1.8725 -0.8995
  471MPD2    H1 7066   2.809   3.980  17.032 -1.0590  0.0962  0.7027
  471MPD2    H2 7067   2.508   3.859  16.766  0.1073  1.5621  2.4447
  471MPD2    H3 7068   2.585   3.939  16.980 -0.4729  0.0945 -0.2559
  471MPD2     N 7069   3.011   3.978  16.872 -0.0045  0.1404 -0.9669
  471MPD2    H5 7070   3.022   3.972  16.973 -0.1441  0.2513 -0.9438
  471MPD2    N1 7071   2.670   3.874  16.532 -1.3962 -0.6265  0.0338
  471MPD2    H7 7072   2.743   3.889  16.464 -3.1877  3.5847 -0.9505
  472TMC3    C1 7073   2.530   3.810  16.345  1.1308 -0.3018 -0.4385
  472TMC3    C2 7074   2.417   3.740  16.308 -0.0991  0.3896  0.5668
  472TMC3    C3 7075   2.435   3.668  16.187  0.2374  0.8463  0.6826
  472TMC3    C4 7076   2.645   3.827  16.269  0.1757 -0.4197  0.4845
  472TMC3    C5 7077   2.667   3.734  16.170  0.4417 -0.4707 -0.8000
  472TMC3    C6 7078   2.559   3.661  16.125  0.4618  0.8033 -0.2133
  472TMC3     C 7079   2.542   3.839  16.487 -0.4372  0.3291 -0.4217
  472TMC3     O 7080   2.441   3.815  16.555  0.0895 -0.7261  0.0454
  472TMC3     H 7081   2.328   3.732  16.369  0.9094 -2.0307  1.7259
  472TMC3    H1 7082   2.712   3.904  16.305  0.7264 -0.2421 -0.9050
  472TMC3    H2 7083   2.579   3.575  16.062 -1.3070 -0.5652  1.0948
  472TMC3    C7 7084   2.769   3.651  16.217 -0.1132  0.3661  0.1581
  472TMC3    C8 7085   2.339   3.560  16.159  0.3303 -0.3304  0.3186
  472TMC3    O1 7086   2.714   3.551  16.264 -0.2246  0.0164  1.0922
  472TMC3    O2 7087   2.302   3.550  16.044  0.0495  0.1629  0.4568
  473MPD2     C 7088   3.382   1.037  14.144 -0.3077 -0.5910  0.2288
  473MPD2    C1 7089   3.288   1.126  14.106  0.5402 -0.1309  0.7964
  473MPD2    C2 7090   3.279   1.240  14.182  0.1417  0.3363 -0.0659
  473MPD2    C3 7091   3.353   1.270  14.297 -0.3812 -0.1369  0.2385
  473MPD2    C4 7092   3.448   1.176  14.332 -0.0790 -0.3342  0.0414
  473MPD2    C5 7093   3.462   1.072  14.250  0.3925 -0.9496  0.1455
  473MPD2     H 7094   3.202   1.312  14.156 -1.9929 -1.5713  0.9060
  473MPD2    H1 7095   3.508   1.179  14.422  0.1326 -0.6332 -0.0891
  473MPD2    H2 7096   3.390   0.936  14.104 -0.8098  0.0679 -1.5207
  473MPD2    H3 7097   3.541   1.004  14.281 -0.1861 -1.1946  1.0873
  473MPD2     N 7098   3.342   1.400  14.372 -0.0191  0.5507  0.6850
  473MPD2    H5 7099   3.402   1.393  14.453 -1.4142  2.4239  1.8803
  473MPD2    N1 7100   3.188   1.091  14.008  0.2708  0.0545 -0.1368
  473MPD2    H7 7101   3.105   1.149  13.998 -0.4696 -1.3716 -2.2627
  474TMC3    C1 7102   3.246   1.587  14.487 -0.1045  0.1177  0.2917
  474TMC3    C2 7103   3.134   1.667  14.512 -0.1273  0.0343 -0.5918
  474TMC3    C3 7104   3.153   1.750  14.617  0.7641 -0.5484  0.7807
  474TMC3    C4 7105   3.361   1.597  14.562 -0.3563  0.3544  0.0392
  474TMC3    C5 7106   3.373   1.688  14.664  0.7097 -0.1548 -0.2507
  474TMC3    C6 7107   3.258   1.763  14.707  0.0784  1.1038 -0.4386
  474TMC3     C 7108   3.244   1.499  14.370 -0.4530  0.3712 -0.0446
  474TMC3     O 7109   3.151   1.516  14.289  0.3044 -0.5039  0.3862
  474TMC3     H 7110   3.063   1.690  14.433 -1.1034  1.4295  0.6980
  474TMC3    H1 7111   3.454   1.550  14.533  0.3844  1.3004  0.8640
  474TMC3    H2 7112   3.249   1.819  14.799  0.8928  1.4488 -0.5702
  474TMC3    C7 7113   3.502   1.711  14.725  0.1120 -0.3913  0.5991
  474TMC3    C8 7114   3.043   1.833  14.642  0.0170 -0.4694 -0.3962
  474TMC3    O1 7115   3.603   1.669  14.671 -0.3362  0.2526  0.3746
  474TMC3    O2 7116   2.931   1.789  14.627 -0.2973  0.0873 -0.0057
  475MPD2     C 7117   1.403   4.191  11.125 -0.0709  0.7559 -0.5209
  475MPD2    C1 7118   1.406   4.320  11.175  0.9721  0.3769  0.1078
  475MPD2    C2 7119   1.288   4.374  11.221  0.2407 -0.8822  0.0110
  475MPD2    C3 7120   1.173   4.307  11.233  0.0108 -0.5174  0.3143
  475MPD2    C4 7121   1.166   4.176  11.182  0.1893 -0.2322  0.2110
  475MPD2    C5 7122   1.280   4.125  11.128 -0.2507 -0.5558 -0.1179
  475MPD2     H 7123   1.279   4.478  11.252  0.0785 -1.2294  1.1214
  475MPD2    H1 7124   1.075   4.118  11.171 -0.1633  0.1609  1.0484
  475MPD2    H2 7125   1.487   4.131  11.092 -1.2255 -0.2260 -1.7022
  475MPD2    H3 7126   1.265   4.028  11.084 -0.1859  0.2758 -1.9500
  475MPD2     N 7127   1.053   4.379  11.273 -0.0882  0.0953 -0.2405
  475MPD2    H5 7128   1.061   4.479  11.286  2.0024  0.1224 -1.8307
  475MPD2    N1 7129   1.520   4.398  11.165 -0.1526  0.3204  0.8816
  475MPD2    H7 7130   1.521   4.488  11.213 -0.4877 -0.2411  1.9527
  476TMC3    C1 7131   1.697   4.492  11.079 -0.0187  0.2965  0.1607
  476TMC3    C2 7132   1.720   4.549  10.959 -0.4785 -0.4933  0.2208
  476TMC3    C3 7133   1.709   4.686  10.956  0.5058 -0.3935 -0.2954
  476TMC3    C4 7134   1.698   4.569  11.192  0.0667  0.1277  0.4945
  476TMC3    C5 7135   1.681   4.705  11.185  0.2843 -0.3046 -0.3449
  476TMC3    C6 7136   1.684   0.027  11.068 -0.0821  0.3224 -0.6452
  476TMC3     C 7137   1.623   4.378  11.081 -0.4598  0.2935  0.1592
  476TMC3     O 7138   1.621   4.311  10.978  0.5354  0.3951 -0.2561
  476TMC3     H 7139   1.747   4.494  10.870  0.5240 -2.4760  1.7726
  476TMC3    H1 7140   1.687   4.528  11.292  0.4820 -0.3553  0.3381
  476TMC3    H2 7141   1.654   0.131  11.062  0.0095  0.5100  2.0497
  476TMC3    C7 7142   1.570   0.001  11.278  0.1514  0.4277 -0.0534
  476TMC3    C8 7143   1.715   0.022  10.831 -0.1516 -0.9937 -0.2001
  476TMC3    O1 7144   1.510   4.650  11.339  0.0418  0.3169  0.4351
  476TMC3    O2 7145   1.725   0.143  10.843  0.2012 -0.5950 -0.1361
  477MPD2     C 7146   3.657   1.352  11.915  0.5905 -0.6654  0.2140
  477MPD2    C1 7147   3.573   1.242  11.917  0.0683  0.6178 -0.1191
  477MPD2    C2 7148   3.614   1.127  11.979 -0.4628 -0.1434  0.6096
  477MPD2    C3 7149   3.748   1.117  12.020 -0.4220  0.3133  0.4860
  477MPD2    C4 7150   3.831   1.235  12.017 -0.2233  0.1821 -0.6076
  477MPD2    C5 7151   3.784   1.345  11.963  0.1793  0.1285 -0.0968
  477MPD2     H 7152   3.555   1.036  11.975  0.7051 -0.8492 -0.7208
  477MPD2    H1 7153   3.933   1.230  12.056 -1.2604  2.2268  2.3867
  477MPD2    H2 7154   3.621   1.448  11.880  1.9187 -0.4148 -0.4774
  477MPD2    H3 7155   3.836   1.440  11.973  0.0238  0.1718  0.3149
  477MPD2     N 7156   3.790   0.994  12.067  0.7112 -0.1917  0.4143
  477MPD2    H5 7157   3.713   0.939  12.104  1.9023 -1.3354  1.2067
  477MPD2    N1 7158   3.453   1.249  11.847  0.1064 -0.1263  0.6819
  477MPD2    H7 7159   3.424   1.344  11.823 -2.2868 -1.2159 -0.6868
  478TMC3    C1 7160   3.259   1.190  11.732  0.5751 -0.2506  0.1112
  478TMC3    C2 7161   3.198   1.291  11.796 -0.2208 -0.0624 -0.9731
  478TMC3    C3 7162   3.118   1.378  11.725  0.2282  0.3280 -1.1444
  478TMC3    C4 7163   3.232   1.154  11.606 -0.0354  0.0726  0.4186
  478TMC3    C5 7164   3.160   1.245  11.531  0.7223 -0.9581 -0.0354
  478TMC3    C6 7165   3.103   1.358  11.585  0.6512 -0.4639  0.5597
  478TMC3     C 7166   3.384   1.142  11.792 -0.9356  1.0036  0.0359
  478TMC3     O 7167   3.435   1.040  11.738  0.3374  0.7519 -0.0909
  478TMC3     H 7168   3.218   1.312  11.900 -3.3652  1.6655 -0.7422
  478TMC3    H1 7169   3.286   1.067  11.568 -0.7472  0.2691 -1.0510
  478TMC3    H2 7170   3.052   1.433  11.526  0.3069 -0.5608  0.7327
  478TMC3    C7 7171   3.188   1.230  11.387 -0.2768 -0.2661 -0.0725
  478TMC3    C8 7172   3.042   1.466  11.801 -0.7104  0.4290  0.2849
  478TMC3    O1 7173   3.271   1.148  11.352  0.0582 -0.3285 -0.5541
  478TMC3    O2 7174   3.016   1.432  11.914 -0.1616 -0.0688  0.4487
  479MPD2     C 7175   2.969   3.294  15.254 -0.5707  0.4452  0.5034
  479MPD2    C1 7176   2.878   3.342  15.349  0.1068  0.3835  0.3056
  479MPD2    C2 7177   2.918   3.406  15.467 -0.7264  0.8758  0.2644
  479MPD2    C3 7178   3.045   3.462  15.476  0.1834  0.5454 -0.6464
  479MPD2    C4 7179   3.131   3.422  15.379 -0.0429 -0.2498 -0.0282
  479MPD2    C5 7180   3.100   3.335  15.273 -0.4923 -0.1835  0.1729
  479MPD2     H 7181   2.849   3.431  15.546 -1.4289 -0.1339 -0.0326
  479MPD2    H1 7182   3.238   3.443  15.383  0.1267 -1.1642  0.0849
  479MPD2    H2 7183   2.939   3.234  15.169  1.2321 -1.0412  0.8969
  479MPD2    H3 7184   3.187   3.303  15.218  1.2348 -0.0306  2.8064
  479MPD2     N 7185   3.092   3.562  15.556 -0.0702  0.1982 -0.2208
  479MPD2    H5 7186   3.188   3.588  15.534  0.2623  0.0959  1.1249
  479MPD2    N1 7187   2.740   3.307  15.335  0.5540  0.0126 -0.5360
  479MPD2    H7 7188   2.708   3.278  15.243 -2.8489 -0.7888  0.8909
  480TMC3    C1 7189   2.684   3.593  15.771  0.0521  0.1211 -0.6600
  480TMC3    C2 7190   2.610   3.631  15.665  0.7329 -0.2767  0.3028
  480TMC3    C3 7191   2.675   3.671  15.548  1.2088  0.0311  0.2706
  480TMC3    C4 7192   2.822   3.607  15.777  0.0650  0.0934 -0.0014
  480TMC3    C5 7193   2.885   3.643  15.661  0.4666  0.2778  0.0896
  480TMC3    C6 7194   2.816   3.682  15.550  0.5208 -1.0781  0.1723
  480TMC3     C 7195   2.646   3.461  15.828  0.4589  0.3156 -0.4397
  480TMC3     O 7196   2.719   3.405  15.910  0.3059 -1.1261 -0.5890
  480TMC3     H 7197   2.502   3.627  15.663  0.5816  4.3104 -0.5752
  480TMC3    H1 7198   2.881   3.571  15.860  0.4321 -0.0662 -0.3353
  480TMC3    H2 7199   2.869   3.699  15.458 -0.3595 -1.2648 -0.3711
  480TMC3    C7 7200   3.030   3.642  15.653 -0.0120 -0.2442  0.6683
  480TMC3    C8 7201   2.609   3.638  15.427  0.1820  0.0851  0.4568
  480TMC3    O1 7202   3.090   3.703  15.738  0.1818  0.4167 -0.3470
  480TMC3    O2 7203   2.507   3.569  15.433 -0.1032 -0.4088  0.1982
  481MPD2     C 7204   4.506   2.405  14.216  0.2454 -0.0072  0.1976
  481MPD2    C1 7205   4.430   2.515  14.239 -0.7195  0.6831 -0.1377
  481MPD2    C2 7206   4.408   2.557  14.366 -0.1605 -0.4471  0.1273
  481MPD2    C3 7207   4.456   2.488  14.475 -0.3037  0.4113 -0.5946
  481MPD2    C4 7208   4.542   2.383  14.450  0.0485  0.0823 -0.3832
  481MPD2    C5 7209   4.568   2.348  14.323  0.6259  0.0538 -0.0608
  481MPD2     H 7210   4.339   2.637  14.393 -0.0584 -0.6629  1.0160
  481MPD2    H1 7211   4.587   2.322  14.527  1.9875  0.2694 -1.3662
  481MPD2    H2 7212   4.524   2.376  14.113  0.6112  0.5409  0.1050
  481MPD2    H3 7213   4.624   2.262  14.290  2.2897  1.9320 -2.0817
  481MPD2     N 7214   4.430   2.530  14.604 -1.3823 -0.7406  0.4651
  481MPD2    H5 7215   4.498   2.491  14.669 -1.1151 -1.6876 -0.3747
  481MPD2    N1 7216   4.384   2.577  14.126  0.0223 -1.0589 -0.3432
  481MPD2    H7 7217   4.417   2.541  14.038 -0.9581 -1.0317 -0.7243
  482TMC3    C1 7218   4.280   2.721  13.993 -0.2389  0.3287 -0.0890
  482TMC3    C2 7219   4.227   2.622  13.917 -0.2846 -0.1074  0.7032
  482TMC3    C3 7220   4.195   2.662  13.791 -0.0602 -0.7863  0.0230
  482TMC3    C4 7221   4.316   2.846  13.954 -0.0679  0.2766  0.6286
  482TMC3    C5 7222   4.287   2.871  13.825  0.1963  0.3234 -0.4458
  482TMC3    C6 7223   4.227   2.785  13.741  0.3129  0.3366 -0.4737
  482TMC3     C 7224   4.305   2.689  14.125 -0.8238 -0.1225  0.1161
  482TMC3     O 7225   4.250   2.755  14.212  0.4838  0.2486 -0.1483
  482TMC3     H 7226   4.197   2.526  13.959  0.8766 -0.0089  1.7559
  482TMC3    H1 7227   4.367   2.910  14.025 -0.2340 -0.2661  1.2426
  482TMC3    H2 7228   4.213   2.817  13.639 -1.3832 -0.3195 -0.4565
  482TMC3    C7 7229   4.343   3.000  13.775  0.3539  0.0544 -0.0003
  482TMC3    C8 7230   4.124   2.564  13.709  0.2550 -0.2095 -0.3025
  482TMC3    O1 7231   4.386   3.082  13.851  0.3923  0.3129  0.0469
  482TMC3    O2 7232   4.115   2.451  13.760 -0.3097 -0.4409  0.3464
  483TMC3    C1 7233   2.215   2.496   0.726 -0.6583  0.7035  0.2257
  483TMC3    C2 7234   2.306   2.546   0.644 -0.0716  0.3579 -0.3428
  483TMC3    C3 7235   2.433   2.532   0.692 -0.1197 -0.2402  0.6211
  483TMC3    C4 7236   2.241   2.423   0.842 -0.0670  0.0807 -0.6579
  483TMC3    C5 7237   2.371   2.403   0.876 -0.1991  0.7892 -0.3426
  483TMC3    C6 7238   2.473   2.456   0.798 -0.3410  0.0556  0.2469
  483TMC3     C 7239   2.078   2.503   0.684  0.0969  0.1810  0.3214
  483TMC3     O 7240   2.040   2.605   0.630 -0.8200 -0.1937  0.1785
  483TMC3     H 7241   2.284   2.607   0.557  1.1678  2.9660  1.1511
  483TMC3    H1 7242   2.160   2.397   0.909  0.2741 -1.4713 -0.8683
  483TMC3    H2 7243   2.577   2.431   0.811 -0.5014 -0.7140  0.0350
  483TMC3    C7 7244   2.412   2.277   0.929 -0.6481  0.2570 -0.4055
  483TMC3    C8 7245   2.531   2.566   0.591  0.7896 -0.0579  0.1096
  483TMC3    O1 7246   2.534   2.257   0.925  0.3818  0.8118  0.2259
  483TMC3    O2 7247   2.489   2.609   0.483  0.2380  0.7552 -0.2838
  484MPD2     C 7248   4.630   0.360  12.600 -0.0523 -0.9256  0.2187
  484MPD2    C1 7249   4.700   0.246  12.633  0.1299  0.2094  0.4687
  484MPD2    C2 7250   0.101   0.234  12.608  0.1832  0.1598  0.0916
  484MPD2    C3 7251   0.162   0.342  12.550  0.2630 -0.0018 -0.3330
  484MPD2    C4 7252   0.090   0.446  12.500  0.0283 -0.0213 -0.3804
  484MPD2    C5 7253   4.699   0.460  12.532  0.5274  0.1884 -0.0933
  484MPD2     H 7254   0.157   0.146  12.637  0.2494 -0.0713 -0.7306
  484MPD2    H1 7255   0.139   0.519  12.437 -1.0930  1.1965  0.1373
  484MPD2    H2 7256   4.526   0.375  12.627  0.0679 -0.0738  0.1956
  484MPD2    H3 7257   4.650   0.547  12.490  0.4776  0.3745  0.3476
  484MPD2     N 7258   0.300   0.353  12.535  0.4234  0.1059 -0.0481
  484MPD2    H5 7259   0.340   0.438  12.497  2.2923 -0.3718  0.8454
  484MPD2    N1 7260   4.618   0.138  12.688  0.7119 -0.2674 -0.0681
  484MPD2    H7 7261   4.517   0.146  12.678  0.6707  2.3732  2.4823
  485TMC3    C1 7262   0.523   0.287  12.515  0.1597  0.0489  0.6791
  485TMC3    C2 7263   0.618   0.210  12.567  0.2843 -0.0833 -0.4897
  485TMC3    C3 7264   0.733   0.179  12.491 -0.1072 -0.4995 -0.7417
  485TMC3    C4 7265   0.530   0.332  12.383  0.0202  0.2211  0.1506
  485TMC3    C5 7266   0.640   0.295  12.308  0.0399 -0.3849  0.9279
  485TMC3    C6 7267   0.752   0.232  12.367  0.0394  0.4460  0.0574
  485TMC3     C 7268   0.390   0.249  12.553  0.7439 -0.0731  0.3253
  485TMC3     O 7269   0.378   0.134  12.588  0.2528 -0.2420 -0.0861
  485TMC3     H 7270   0.597   0.185  12.671 -0.0470  0.8921 -0.3259
  485TMC3    H1 7271   0.442   0.371  12.334 -0.9132  0.9273  2.4030
  485TMC3    H2 7272   0.830   0.201  12.298 -0.0688 -0.4419  0.3422
  485TMC3    C7 7273   0.613   0.215  12.193 -0.7491  0.0051  0.4505
  485TMC3    C8 7274   0.798   0.054  12.513  0.5553 -0.1900  0.0631
  485TMC3    O1 7275   0.706   0.199  12.119 -0.2558  0.4991 -0.5343
  485TMC3    O2 7276   0.911   0.045  12.468  0.0991  0.6106  0.1986
  486MPD2     C 7277   2.518   3.924  13.155  0.6795  0.0437 -0.0019
  486MPD2    C1 7278   2.426   3.831  13.103  0.6475  0.2002 -0.1453
  486MPD2    C2 7279   2.305   3.875  13.053 -0.4331 -0.0876  0.1257
  486MPD2    C3 7280   2.277   4.009  13.050  0.3048  0.2828  0.0725
  486MPD2    C4 7281   2.369   4.098  13.093 -0.7239  0.2081 -0.0229
  486MPD2    C5 7282   2.483   4.054  13.148 -0.5429  0.3134  0.0214
  486MPD2     H 7283   2.227   3.807  13.021  0.7091 -0.0454 -2.7942
  486MPD2    H1 7284   2.352   4.205  13.087 -0.1296  0.4306  2.1917
  486MPD2    H2 7285   2.619   3.889  13.175 -0.1037 -0.9716  2.2088
  486MPD2    H3 7286   2.564   4.120  13.177 -0.2923 -1.5453  3.5510
  486MPD2     N 7287   2.150   4.049  12.984  0.1970  0.2255 -0.1760
  486MPD2    H5 7288   2.096   3.972  12.946 -0.2531  0.0191  0.8827
  486MPD2    N1 7289   2.464   3.697  13.105  0.1206 -0.4729 -0.1433
  486MPD2    H7 7290   2.557   3.678  13.141  0.4256  0.9004 -0.2461
  487TMC3    C1 7291   2.467   3.465  13.091  0.3888 -0.5116  0.0659
  487TMC3    C2 7292   2.413   3.361  13.028  0.9958 -0.0816  0.2156
  487TMC3    C3 7293   2.465   3.240  13.052 -0.7543 -0.8281 -0.1258
  487TMC3    C4 7294   2.569   3.453  13.179  0.5119 -0.0353 -0.3643
  487TMC3    C5 7295   2.608   3.330  13.200  0.7557  0.2484  0.3613
  487TMC3    C6 7296   2.567   3.217  13.136 -1.0028 -0.2597 -0.7884
  487TMC3     C 7297   2.393   3.588  13.064  0.5328 -0.6608  0.0895
  487TMC3     O 7298   2.272   3.579  13.033 -0.1261 -0.0323  0.8069
  487TMC3     H 7299   2.332   3.378  12.958  0.8060 -1.3493  0.1170
  487TMC3    H1 7300   2.619   3.532  13.235  0.6228  0.0692 -0.6090
  487TMC3    H2 7301   2.571   3.117  13.176 -1.7884  0.1952  0.4530
  487TMC3    C7 7302   2.695   3.306  13.315 -0.6969  0.3380  0.2124
  487TMC3    C8 7303   2.378   3.129  13.034 -0.1059  0.3724  0.1999
  487TMC3    O1 7304   2.693   3.388  13.406  0.1136  0.2555  0.0831
  487TMC3    O2 7305   2.255   3.153  13.028 -0.5782  0.3368  0.0026
  488MPD2     C 7306   2.183   0.566  15.906 -0.9808 -0.4140  0.0486
  488MPD2    C1 7307   2.209   0.694  15.938  0.1616  0.1234  0.3984
  488MPD2    C2 7308   2.187   0.725  16.070  0.2360  0.3324 -0.1059
  488MPD2    C3 7309   2.161   0.625  16.170  0.1671 -0.0118 -0.2971
  488MPD2    C4 7310   2.156   0.493  16.130 -0.0714 -0.5669  0.6533
  488MPD2    C5 7311   2.164   0.471  16.001  0.0847 -0.7673 -0.1488
  488MPD2     H 7312   2.203   0.825  16.108 -0.7337  0.7809 -0.8655
  488MPD2    H1 7313   2.148   0.409  16.198 -1.4048 -1.2378 -0.3308
  488MPD2    H2 7314   2.176   0.529  15.804 -0.6717 -1.4295  0.3919
  488MPD2    H3 7315   2.158   0.369  15.964  0.8480 -1.0694  0.5717
  488MPD2     N 7316   2.171   0.664  16.305 -0.1093 -0.1664 -0.0894
  488MPD2    H5 7317   2.178   0.764  16.318  0.1625 -0.1150 -0.6587
  488MPD2    N1 7318   2.252   0.789  15.846  0.1630 -0.1226  0.6784
  488MPD2    H7 7319   2.250   0.886  15.875 -3.7828 -0.0003 -0.0753
  489TMC3    C1 7320   2.171   0.657  16.538  0.4564 -0.0290  0.1880
  489TMC3    C2 7321   2.228   0.784  16.541 -0.5455 -0.3209 -0.0378
  489TMC3    C3 7322   2.271   0.831  16.663 -0.0456 -0.8542 -0.9338
  489TMC3    C4 7323   2.150   0.584  16.652 -0.5992 -0.4464  0.2140
  489TMC3    C5 7324   2.194   0.640  16.771  0.2511 -0.2030 -0.1929
  489TMC3    C6 7325   2.257   0.762  16.778  0.3077  0.0225 -0.8657
  489TMC3     C 7326   2.149   0.584  16.414 -0.8965 -0.0630  0.0237
  489TMC3     O 7327   2.116   0.468  16.413  0.3969 -0.4090  0.3784
  489TMC3     H 7328   2.253   0.844  16.454 -2.0036  0.0254 -0.2152
  489TMC3    H1 7329   2.098   0.491  16.635  1.5053 -1.9988  2.2030
  489TMC3    H2 7330   2.301   0.802  16.870  0.3120 -1.7941 -0.0776
  489TMC3    C7 7331   2.171   0.566  16.898  0.1605 -0.4605  1.2613
  489TMC3    C8 7332   2.329   0.964  16.659  0.0590 -0.1030  0.6472
  489TMC3    O1 7333   2.188   0.614  17.008  0.0001  0.4200  0.0849
  489TMC3    O2 7334   2.319   1.023  16.555 -0.4831  0.4473 -0.2819
  490MPD2     C 7335   2.359   4.635  17.183 -0.4006 -0.3447  0.1196
  490MPD2    C1 7336   2.419   4.554  17.276  0.4489  0.1908 -0.2181
  490MPD2    C2 7337   2.491   4.611  17.374  0.8455  1.0563  0.0873
  490MPD2    C3 7338   2.524   0.010  17.370 -0.3688 -0.3066  0.3276
  490MPD2    C4 7339   2.453   0.090  17.285 -0.2375  0.1733 -0.1610
  490MPD2    C5 7340   2.370   0.033  17.197  0.4329 -0.5245  0.3693
  490MPD2     H 7341   2.535   4.549  17.451  3.2964  2.6376 -0.0201
  490MPD2    H1 7342   2.489   0.193  17.281  0.4898 -0.1231 -1.1869
  490MPD2    H2 7343   2.290   4.601  17.107  1.3557  1.4627 -2.2951
  490MPD2    H3 7344   2.317   0.090  17.122  0.5042  1.1267  1.5578
  490MPD2     N 7345   2.616   0.065  17.466  0.5400 -0.0651 -0.6375
  490MPD2    H5 7346   2.640   0.162  17.450 -0.0280 -0.0429 -1.3856
  490MPD2    N1 7347   2.431   4.410  17.267 -0.4456  0.3820  0.6556
  490MPD2    H7 7348   2.479   4.357  17.340  0.2211  0.4719  0.2785
  491TMC3    C1 7349   2.428   4.194  17.172  0.0273  0.6208 -0.2368
  491TMC3    C2 7350   2.524   4.164  17.257  0.4988 -0.5246  0.1294
  491TMC3    C3 7351   2.530   4.037  17.296  0.1607  0.5445 -0.5325
  491TMC3    C4 7352   2.334   4.108  17.124 -0.2899  1.0560  0.3110
  491TMC3    C5 7353   2.353   3.974  17.159 -0.3488  0.0733  0.4377
  491TMC3    C6 7354   2.452   3.932  17.242  0.4130 -0.3534 -0.1022
  491TMC3     C 7355   2.389   4.336  17.161  0.2328 -0.0390  0.9201
  491TMC3     O 7356   2.312   4.366  17.072  0.1699  0.0071  0.5354
  491TMC3     H 7357   2.611   4.229  17.259  0.6878 -0.7041 -2.1855
  491TMC3    H1 7358   2.260   4.138  17.051 -0.6222  2.7439  1.3357
  491TMC3    H2 7359   2.458   3.828  17.270  0.1745 -0.7700 -1.5662
  491TMC3    C7 7360   2.245   3.885  17.118 -0.9278  0.3931 -0.4037
  491TMC3    C8 7361   2.595   4.033  17.426 -0.7873  0.8208 -0.2033
  491TMC3    O1 7362   2.268   3.767  17.095 -0.3015 -0.3423  0.0564
  491TMC3    O2 7363   2.606   4.144  17.480 -0.1580  0.2226  0.1362
  492MPD2     C 7364   3.846   4.195  11.546  0.3567  0.5608 -0.2430
  492MPD2    C1 7365   3.722   4.203  11.484  0.0430  0.4016 -0.1882
  492MPD2    C2 7366   3.613   4.166  11.556 -0.0983  0.8178 -0.2937
  492MPD2    C3 7367   3.627   4.104  11.681 -0.3605 -0.3738  0.0610
  492MPD2    C4 7368   3.749   4.090  11.738  0.4133  0.6860 -0.3677
  492MPD2    C5 7369   3.858   4.139  11.677 -0.4310  0.5169  0.0799
  492MPD2     H 7370   3.515   4.193  11.520 -0.3818  3.2953  2.3098
  492MPD2    H1 7371   3.754   4.048  11.838  1.5268  2.3838  0.2733
  492MPD2    H2 7372   3.936   4.223  11.492 -0.7601 -0.5541 -2.6428
  492MPD2    H3 7373   3.953   4.145  11.728  0.4390  2.5286 -1.7856
  492MPD2     N 7374   3.518   4.078  11.762 -0.0685  0.8724  0.1005
  492MPD2    H5 7375   3.535   4.048  11.858  1.7246 -1.3082 -0.9047
  492MPD2    N1 7376   3.717   4.258  11.352  0.0204 -0.2914 -0.0673
  492MPD2    H7 7377   3.805   4.273  11.304 -0.4869 -1.7408 -1.4835
  493TMC3    C1 7378   3.625   4.340  11.154 -1.2285 -0.9448  0.4116
  493TMC3    C2 7379   3.718   4.446  11.152  0.3323  0.6450 -0.1042
  493TMC3    C3 7380   3.761   4.504  11.035 -0.2323  0.4834  0.0072
  493TMC3    C4 7381   3.556   4.315  11.041  0.1403 -0.4758 -0.2461
  493TMC3    C5 7382   3.599   4.377  10.929 -0.2420 -0.1938  0.7056
  493TMC3    C6 7383   3.696   4.473  10.922 -0.0004 -0.3482 -1.0999
  493TMC3     C 7384   3.609   4.253  11.270 -1.0236 -0.3932  0.2783
  493TMC3     O 7385   3.514   4.175  11.273 -0.2929 -0.4935  0.6533
  493TMC3     H 7386   3.773   4.470  11.242  0.2918 -1.5754  0.5276
  493TMC3    H1 7387   3.478   4.240  11.036  0.0243 -0.5091  1.9545
  493TMC3    H2 7388   3.730   4.515  10.829  0.9790  1.7808  0.2227
  493TMC3    C7 7389   3.528   4.338  10.807  0.1711  0.4739  0.8724
  493TMC3    C8 7390   3.862   4.606  11.041  0.6374 -0.1831 -0.3344
  493TMC3    O1 7391   3.467   4.233  10.814 -0.1520 -0.1237 -0.1032
  493TMC3    O2 7392   3.951   4.598  11.128 -0.5548 -0.2260 -0.1389
  494TMC3    C1 7393   3.684   1.479   0.314  0.1176  0.4861 -0.5103
  494TMC3    C2 7394   3.665   1.352   0.285 -0.2571  0.3210  0.8518
  494TMC3    C3 7395   3.647   1.327   0.149  0.1319  0.0148  0.5426
  494TMC3    C4 7396   3.711   1.578   0.217  0.0896  0.7291 -0.1500
  494TMC3    C5 7397   3.669   1.555   0.093  0.1107 -0.0507  0.2793
  494TMC3    C6 7398   3.647   1.428   0.052  0.3806  0.2950  0.4559
  494TMC3     C 7399   3.695   1.520   0.455  0.0774 -0.4408 -0.3478
  494TMC3     O 7400   3.723   1.637   0.463 -0.7997 -0.1626  0.0439
  494TMC3     H 7401   3.653   1.274   0.359  0.6604 -3.3776 -2.9235
  494TMC3    H1 7402   3.740   1.680   0.243 -0.3783  1.0551 -0.9004
  494TMC3    H2 7403   3.608   1.412  17.707 -0.8382 -2.9922  1.4498
  494TMC3    C7 7404   3.723   1.643  17.739 -0.0527  0.6216 -0.1193
  494TMC3    C8 7405   3.629   1.184   0.118  0.3020  0.0932  0.4952
  494TMC3    O1 7406   3.751   1.599  17.626 -0.0115  0.0687  0.3090
  494TMC3    O2 7407   3.652   1.110   0.213  0.1427 -0.7867  0.4520
  495TMC3    C1 7408   2.941   3.514  14.564 -0.7791 -0.4453 -0.5160
  495TMC3    C2 7409   2.884   3.576  14.458  1.1312 -0.2036  0.3060
  495TMC3    C3 7410   2.829   3.698  14.477 -0.5727 -0.2756 -0.4315
  495TMC3    C4 7411   2.961   3.585  14.685 -0.2796  0.5010 -0.8550
  495TMC3    C5 7412   2.911   3.708  14.696  0.4887 -0.8792 -0.1955
  495TMC3    C6 7413   2.832   3.765  14.599 -0.4343 -0.5598 -0.2149
  495TMC3     C 7414   2.901   3.377  14.581  0.3948  0.1512  0.3184
  495TMC3     O 7415   2.897   3.342  14.696 -0.4732  0.2968 -0.1759
  495TMC3     H 7416   2.874   3.521  14.366  0.9703 -0.4728  0.4839
  495TMC3    H1 7417   3.017   3.535  14.763 -0.3548  2.2553  0.3354
  495TMC3    H2 7418   2.798   3.866  14.624 -0.4980 -1.0448  1.6252
  495TMC3    C7 7419   2.857   3.718  14.826  0.4494 -0.1184  0.1245
  495TMC3    C8 7420   2.780   3.755  14.352  0.3265  0.2160  0.6507
  495TMC3    O1 7421   2.921   3.659  14.910  0.4361  0.3473 -0.3635
  495TMC3    O2 7422   2.844   3.713  14.254 -0.2294 -0.1560  0.0121
  496MPD2     C 7423   4.706   3.979  15.657  0.0896  0.7037 -0.0534
  496MPD2    C1 7424   4.621   3.887  15.595 -0.3040  0.0775 -0.6731
  496MPD2    C2 7425   4.486   3.907  15.610 -0.3589  0.3124 -0.5866
  496MPD2    C3 7426   4.437   4.013  15.691 -0.0282 -0.2794 -0.1772
  496MPD2    C4 7427   4.522   4.104  15.748  0.0811 -0.4865 -0.9016
  496MPD2    C5 7428   4.657   4.089  15.738 -0.1215 -0.0316  0.1543
  496MPD2     H 7429   4.422   3.845  15.549 -1.6280  1.0766 -0.0320
  496MPD2    H1 7430   4.478   4.186  15.804 -1.5606 -0.4632 -2.2190
  496MPD2    H2 7431   0.075   3.968  15.661  0.0873  0.2152 -1.5356
  496MPD2    H3 7432   4.731   4.153  15.786  0.9325 -0.6211 -0.6764
  496MPD2     N 7433   4.296   4.028  15.724  0.1792 -0.0999 -0.7101
  496MPD2    H5 7434   4.260   4.076  15.806  0.3981 -2.0729  0.5457
  496MPD2    N1 7435   4.676   3.783  15.515 -0.2162  0.2723  0.1681
  496MPD2    H7 7436   0.034   3.786  15.484 -0.2838  2.9605  0.2828
  497TMC3    C1 7437   4.074   3.947  15.714 -0.3362 -0.5045  0.0500
  497TMC3    C2 7438   3.965   3.970  15.642 -0.5172  0.7564 -0.2987
  497TMC3    C3 7439   3.863   3.875  15.637  0.0524  0.2468  0.2755
  497TMC3    C4 7440   4.071   3.839  15.791  0.2884 -0.1862  0.2801
  497TMC3    C5 7441   3.969   3.748  15.786  0.2669 -0.0360  0.8536
  497TMC3    C6 7442   3.866   3.751  15.699 -0.1069  0.0492  0.6537
  497TMC3     C 7443   4.199   3.962  15.650  0.0738 -0.0271 -0.2366
  497TMC3     O 7444   4.210   3.928  15.533 -0.1236  0.7239 -0.0658
  497TMC3     H 7445   3.963   4.064  15.588 -3.0427  0.3373 -0.9386
  497TMC3    H1 7446   4.165   3.821  15.841 -1.4698 -1.6785  3.0587
  497TMC3    H2 7447   3.800   3.669  15.674  1.0117 -0.7554  0.3621
  497TMC3    C7 7448   3.985   3.633  15.870 -0.1799 -0.1826 -0.3339
  497TMC3    C8 7449   3.770   3.906  15.527 -0.3219 -0.8454 -0.1404
  497TMC3    O1 7450   3.939   3.522  15.837 -0.1498  0.0384  0.3601
  497TMC3    O2 7451   3.799   3.996  15.450  0.2093  0.1905  0.2878
  498MPD2     C 7452   0.273   0.120   9.578 -0.4620 -0.2182 -0.5403
  498MPD2    C1 7453   0.373   0.082   9.659  0.9018  0.5625 -0.5876
  498MPD2    C2 7454   0.343   4.717   9.748 -0.0156  0.4438 -0.5366
  498MPD2    C3 7455   0.211   4.673   9.765 -0.0890 -0.8103 -0.1652
  498MPD2    C4 7456   0.113   4.718   9.683  0.2736 -0.1666  0.1529
  498MPD2    C5 7457   0.160   0.053   9.578  0.1621  0.3670 -0.0328
  498MPD2     H 7458   0.423   4.666   9.801  0.3460  1.8125  0.2231
  498MPD2    H1 7459   0.010   4.685   9.689  0.2086  0.0854  0.4371
  498MPD2    H2 7460   0.292   0.187   9.495  2.6352  0.1951  0.5151
  498MPD2    H3 7461   0.084   0.067   9.502  0.0096 -1.4085 -0.1921
  498MPD2     N 7462   0.195   4.584   9.867  0.3216 -0.3644 -0.6701
  498MPD2    H5 7463   0.280   4.573   9.921 -0.4795  1.2306  0.9230
  498MPD2    N1 7464   0.499   0.144   9.657 -0.0031 -0.3554 -0.4937
  498MPD2    H7 7465   0.575   0.110   9.714 -0.6823 -3.4570 -1.4666
  499TMC3    C1 7466   0.664   0.312   9.642  0.1297  0.2150  0.4987
  499TMC3    C2 7467   0.718   0.277   9.763 -0.1423 -0.3383  0.1416
  499TMC3    C3 7468   0.814   0.361   9.825  0.4965 -0.1683 -0.4371
  499TMC3    C4 7469   0.704   0.424   9.574  0.0387  0.3654  0.2993
  499TMC3    C5 7470   0.795   0.507   9.642  0.4423 -0.1687  0.0736
  499TMC3    C6 7471   0.848   0.474   9.765 -0.7591 -0.7338 -0.8592
  499TMC3     C 7472   0.533   0.266   9.595 -0.1412  0.5617  0.5841
  499TMC3     O 7473   0.464   0.333   9.518  0.2994 -0.4508 -0.4345
  499TMC3     H 7474   0.679   0.191   9.815  1.4817 -0.7061  0.7337
  499TMC3    H1 7475   0.654   0.442   9.480  0.0416  1.0698  0.4311
  499TMC3    H2 7476   0.913   0.546   9.814 -0.8416  0.1038 -1.9935
  499TMC3    C7 7477   0.807   0.639   9.597  0.3872 -0.4305  0.0027
  499TMC3    C8 7478   0.877   0.320   9.943  0.1898 -0.5024  0.3682
  499TMC3    O1 7479   0.900   0.711   9.622 -0.0460 -0.0039  0.2663
  499TMC3    O2 7480   0.943   0.406  10.003  0.7533 -0.3597 -0.0373
  500MPD2     C 7481   2.033   0.707  10.597  0.1602 -0.3890  0.3743
  500MPD2    C1 7482   2.068   0.738  10.467 -0.2118  0.3080  0.1923
  500MPD2    C2 7483   1.968   0.792  10.385 -0.3977 -0.0096 -0.8019
  500MPD2    C3 7484   1.841   0.814  10.433  0.3009  0.0351 -0.6500
  500MPD2    C4 7485   1.816   0.792  10.566  0.2240 -0.3646  0.5062
  500MPD2    C5 7486   1.913   0.740  10.653 -0.5575 -0.4276  0.2343
  500MPD2     H 7487   1.988   0.788  10.279 -0.8451  0.5939 -0.9132
  500MPD2    H1 7488   1.719   0.816  10.609 -0.4353 -0.8800 -0.6976
  500MPD2    H2 7489   2.108   0.669  10.665 -0.3904 -1.6026  0.2991
  500MPD2    H3 7490   1.897   0.734  10.760  0.8442  0.6321  0.4980
  500MPD2     N 7491   1.740   0.871  10.352 -0.3931 -0.2038  0.2029
  500MPD2    H5 7492   1.646   0.862  10.390 -0.7380 -1.8615 -1.0294
  500MPD2    N1 7493   2.188   0.709  10.398  0.3433 -0.0118 -0.1258
  500MPD2    H7 7494   2.193   0.715  10.297  0.8098 -1.0866 -0.1652
  501TMC3    C1 7495   2.418   0.667  10.395 -0.5587  0.3592 -0.0105
  501TMC3    C2 7496   2.450   0.781  10.339  0.4099  0.3703  0.2967
  501TMC3    C3 7497   2.583   0.826  10.347  0.4935 -0.5508  0.4975
  501TMC3    C4 7498   2.510   0.590  10.454 -0.1796 -0.2541  0.1916
  501TMC3    C5 7499   2.638   0.635  10.463 -0.1829  0.1289  0.0902
  501TMC3    C6 7500   2.677   0.759  10.418  0.2325  0.2806  0.2682
  501TMC3     C 7501   2.292   0.644  10.455  0.1261 -0.6581  0.4129
  501TMC3     O 7502   2.312   0.591  10.569  0.5600 -0.2728 -0.5203
  501TMC3     H 7503   2.375   0.848  10.298 -1.0903 -0.6762  1.3656
  501TMC3    H1 7504   2.490   0.487  10.477 -2.2040  0.0602 -0.1771
  501TMC3    H2 7505   2.777   0.800  10.421  0.0774  0.8030 -1.7467
  501TMC3    C7 7506   2.731   0.566  10.546  0.6921 -0.9211  0.0286
  501TMC3    C8 7507   2.610   0.968  10.329 -0.1723  0.3429  0.2833
  501TMC3    O1 7508   2.713   0.449  10.563  0.6531  0.0306  0.3521
  501TMC3    O2 7509   2.700   1.006  10.402 -0.4264  0.5187  0.2903
  502TMC3    C1 7510   1.704   4.291  14.769  0.4856 -0.5131  0.0086
  502TMC3    C2 7511   1.713   4.419  14.720  0.1473  0.4695  0.4740
  502TMC3    C3 7512   1.600   4.500  14.705 -0.9646 -0.5716  0.3827
  502TMC3    C4 7513   1.580   4.242  14.795  0.5191  0.4487 -0.6068
  502TMC3    C5 7514   1.471   4.329  14.781  0.7136 -0.7217  0.6972
  502TMC3    C6 7515   1.473   4.459  14.739 -0.2764  0.2863 -0.3683
  502TMC3     C 7516   1.813   4.236  14.840  0.3119 -0.6686 -0.7646
  502TMC3     O 7517   1.926   4.268  14.804  0.1898 -0.0240 -0.1772
  502TMC3     H 7518   1.811   4.460  14.700 -0.2083  0.2011 -1.8679
  502TMC3    H1 7519   1.563   4.141  14.830  2.6479  0.1677 -0.3406
  502TMC3    H2 7520   1.382   4.513  14.717 -0.5137  0.4456  1.0231
  502TMC3    C7 7521   1.360   4.281  14.869  0.0526 -0.0681 -0.7892
  502TMC3    C8 7522   1.629   4.643  14.698 -0.9077  0.4679 -0.3838
  502TMC3    O1 7523   1.347   4.166  14.907 -0.1909 -0.1915  0.9585
  502TMC3    O2 7524   1.748   4.666  14.682  0.1161  0.2473  0.0879
  503MPD2     C 7525   3.692   0.423  16.779  0.3117  0.5022 -0.2027
  503MPD2    C1 7526   3.728   0.476  16.904  0.3368 -0.0552  0.6109
  503MPD2    C2 7527   3.779   0.398  17.005 -0.4960 -0.4476  0.3731
  503MPD2    C3 7528   3.798   0.264  16.982  0.1946  0.3808  0.5118
  503MPD2    C4 7529   3.754   0.206  16.862  0.3895  0.0044  0.3776
  503MPD2    C5 7530   3.707   0.286  16.767  0.6484 -0.7071  0.4069
  503MPD2     H 7531   3.809   0.440  17.100  0.4993 -1.1378  0.3675
  503MPD2    H1 7532   3.758   0.098  16.847 -1.3567 -0.3995  2.8889
  503MPD2    H2 7533   3.664   0.479  16.691 -0.4746 -0.7962 -0.7813
  503MPD2    H3 7534   3.686   0.250  16.667  0.4947  1.2526 -0.2676
  503MPD2     N 7535   3.856   0.183  17.083 -0.1726 -0.0463 -0.7089
  503MPD2    H5 7536   3.893   0.223  17.169  0.0126 -1.0054 -0.3520
  503MPD2    N1 7537   3.707   0.614  16.934 -0.0750 -1.2388  0.1433
  503MPD2    H7 7538   3.742   0.649  17.023  2.6930 -1.8107 -0.7262
  504TMC3    C1 7539   3.966   0.014  17.185 -0.1066  0.1164 -0.7671
  504TMC3    C2 7540   3.949   4.635  17.252 -0.4108 -0.5394  0.0012
  504TMC3    C3 7541   4.035   4.607  17.352  0.4935  0.1055  0.6304
  504TMC3    C4 7542   4.072   0.098  17.213 -0.0204  0.7087  0.2699
  504TMC3    C5 7543   4.167   0.059  17.303  0.4973  0.3647 -0.3436
  504TMC3    C6 7544   4.143   4.684  17.379  0.1355  0.1864  0.5594
  504TMC3     C 7545   3.884   0.050  17.075 -0.4279 -0.3734 -0.7984
  504TMC3     O 7546   3.863   4.699  16.991 -1.0744  0.6998  0.3323
  504TMC3     H 7547   3.865   4.572  17.225 -1.6392  0.3812  1.6853
  504TMC3    H1 7548   4.099   0.172  17.139  1.4624  0.7177  0.8134
  504TMC3    H2 7549   4.228   4.645  17.434 -0.8178 -1.1905  1.0462
  504TMC3    C7 7550   4.295   0.093  17.267  0.7837 -0.6067 -0.1587
  504TMC3    C8 7551   4.023   4.476  17.414 -0.4251  0.3886 -0.3442
  504TMC3    O1 7552   4.312   0.111  17.149 -0.3445  0.2562 -0.5140
  504TMC3    O2 7553   3.971   4.387  17.345 -0.5107  0.2935 -0.2997
  505MPD2     C 7554   4.614   4.272  11.142 -0.6384  0.6302 -0.4467
  505MPD2    C1 7555   4.701   4.172  11.114 -0.6434  0.0437  0.5639
  505MPD2    C2 7556   0.096   4.188  11.096 -0.7884 -0.1988 -0.8770
  505MPD2    C3 7557   0.151   4.313  11.108 -0.1425 -0.3029 -0.2052
  505MPD2    C4 7558   0.062   4.421  11.130  0.1605  0.6352  0.1781
  505MPD2    C5 7559   4.669   4.399  11.154  0.2882  0.3529 -0.9706
  505MPD2     H 7560   0.167   4.112  11.064 -0.0607 -0.0048  0.2682
  505MPD2    H1 7561   0.099   4.523  11.142  3.1537 -0.3790 -0.3017
  505MPD2    H2 7562   4.506   4.260  11.149 -0.7900  1.6336 -1.0170
  505MPD2    H3 7563   4.612   4.488  11.180 -1.6640 -1.5381  1.3423
  505MPD2     N 7564   0.293   4.334  11.096  0.2731  0.7076 -0.1756
  505MPD2    H5 7565   0.322   4.431  11.086  0.9899  0.2965 -1.9669
  505MPD2    N1 7566   4.649   4.043  11.091  0.7367 -0.8904  0.0129
  505MPD2    H7 7567   4.551   4.038  11.066 -0.0666  0.4867  2.9773
  506TMC3    C1 7568   4.661   3.814  11.048  0.7261 -0.7790 -0.3533
  506TMC3    C2 7569   4.580   3.829  10.934 -0.0005  0.3900 -0.0435
  506TMC3    C3 7570   4.582   3.719  10.856 -0.3252  0.1835 -0.0592
  506TMC3    C4 7571   4.731   3.701  11.076  0.6602 -0.3698  0.5649
  506TMC3    C5 7572   4.730   3.595  10.992  0.3457  0.4377 -0.7399
  506TMC3    C6 7573   4.643   3.600  10.888  0.1171  0.3720  0.5129
  506TMC3     C 7574   4.724   3.927  11.100  0.2451  0.3060  0.1010
  506TMC3     O 7575   0.099   3.903  11.140  0.5089 -0.2835  0.0433
  506TMC3     H 7576   4.526   3.919  10.910 -0.5757  0.5005  1.6246
  506TMC3    H1 7577   0.043   3.696  11.172  1.1764 -1.4760  0.2348
  506TMC3    H2 7578   4.660   3.531  10.806  0.1379 -1.6387  2.2129
  506TMC3    C7 7579   0.123   3.556  10.944 -0.2843  0.2590  0.4697
  506TMC3    C8 7580   4.525   3.736  10.723  0.0066  0.0055 -0.2873
  506TMC3    O1 7581   0.141   3.462  10.870 -0.4276 -0.2276  0.3803
  506TMC3    O2 7582   4.504   3.635  10.659  0.6000  0.1647 -0.1161
  507TMC3    C1 7583   0.174   4.410  14.542  0.4132  0.4648 -1.0192
  507TMC3    C2 7584   0.247   4.326  14.466  0.0363 -0.5536 -0.6120
  507TMC3    C3 7585   0.378   4.367  14.435  0.4058 -0.1654  0.5010
  507TMC3    C4 7586   0.230   4.528  14.592  0.0508 -0.8440 -0.3840
  507TMC3    C5 7587   0.356   4.571  14.568  0.0326 -0.3292 -0.1994
  507TMC3    C6 7588   0.430   4.486  14.487  0.0646 -0.3770  0.7465
  507TMC3     C 7589   0.056   4.366  14.609  0.1817  0.2736  0.1567
  507TMC3     O 7590   4.710   4.451  14.638 -0.7139 -0.6072  0.3165
  507TMC3     H 7591   0.211   4.241  14.410 -0.9505 -1.8937  2.0730
  507TMC3    H1 7592   0.162   4.595  14.644  0.0579 -0.2193 -1.1774
  507TMC3    H2 7593   0.536   4.499  14.467 -0.3276  1.6499  0.0020
  507TMC3    C7 7594   0.392   4.708  14.523  0.2393 -1.0259  0.1819
  507TMC3    C8 7595   0.412   4.354  14.302  0.2780  0.4898 -0.1248
  507TMC3    O1 7596   0.476   4.716  14.434 -0.1934  0.7362 -0.0033
  507TMC3    O2 7597   0.397   4.248  14.241 -0.3774  0.5015  0.3013
  508MPD2     C 7598   1.665   2.043  16.138 -0.0399 -0.8413  0.0120
  508MPD2    C1 7599   1.607   2.147  16.205 -0.5944  0.4548 -0.7923
  508MPD2    C2 7600   1.538   2.238  16.135 -0.3401  0.0897  0.1148
  508MPD2    C3 7601   1.531   2.235  15.996  0.5487 -0.0038  0.6024
  508MPD2    C4 7602   1.588   2.126  15.930 -0.7447 -1.0026  0.7291
  508MPD2    C5 7603   1.649   2.026  15.999 -0.4024 -0.8841  0.0236
  508MPD2     H 7604   1.490   2.321  16.184  0.6622  2.0385 -2.1948
  508MPD2    H1 7605   1.578   2.106  15.824 -0.7565  1.6930  0.2166
  508MPD2    H2 7606   1.712   1.968  16.201  1.1415 -1.2423 -1.3351
  508MPD2    H3 7607   1.681   1.937  15.946 -0.0420  0.0026 -1.2491
  508MPD2     N 7608   1.471   2.343  15.927 -0.7332  0.4308  0.5096
  508MPD2    H5 7609   1.470   2.431  15.979 -0.3175  1.0026 -0.4549
  508MPD2    N1 7610   1.616   2.157  16.344  0.1314 -0.5056  0.0412
  508MPD2    H7 7611   1.671   2.085  16.390 -1.7333 -0.9039  1.6832
  509TMC3    C1 7612   1.365   2.566  15.540  0.6493 -0.8790 -0.0172
  509TMC3    C2 7613   1.459   2.661  15.569  1.0229 -0.5496  0.6444
  509TMC3    C3 7614   1.528   2.659  15.688 -0.3093  0.4810 -0.3272
  509TMC3    C4 7615   1.334   2.468  15.626 -0.3864 -0.6021 -0.3752
  509TMC3    C5 7616   1.406   2.463  15.741 -0.0500  0.1627 -0.3756
  509TMC3    C6 7617   1.502   2.555  15.775 -0.3034 -0.0558  0.1604
  509TMC3     C 7618   1.300   2.563  15.411 -0.1355 -0.2885 -0.2751
  509TMC3     O 7619   1.250   2.457  15.378 -0.6836  0.2396 -0.2613
  509TMC3     H 7620   1.490   2.726  15.488 -1.7567 -0.1656 -0.1445
  509TMC3    H1 7621   1.257   2.396  15.601 -1.7008  0.3055  1.0756
  509TMC3    H2 7622   1.577   2.534  15.850  0.2761  0.5452 -0.2532
  509TMC3    C7 7623   1.424   2.335  15.800  0.0324  0.0463 -0.5124
  509TMC3    C8 7624   1.657   2.725  15.686 -0.1075 -0.4780  0.0759
  509TMC3    O1 7625   1.419   2.240  15.722 -0.2971 -0.1133 -0.1791
  509TMC3    O2 7626   1.749   2.673  15.752 -0.6749 -0.1888  0.0537
  510MPD2     C 7627   4.048   4.164  14.277  0.6327 -0.1200 -0.2824
  510MPD2    C1 7628   4.091   4.096  14.385 -0.5537 -0.2695 -0.0177
  510MPD2    C2 7629   4.220   4.048  14.383 -0.4856  0.7396 -0.1443
  510MPD2    C3 7630   4.303   4.074  14.275  0.7713  0.3838 -0.0719
  510MPD2    C4 7631   4.252   4.131  14.163 -0.0500  0.3014  0.0941
  510MPD2    C5 7632   4.128   4.180  14.166  0.1514  0.3497 -0.7409
  510MPD2     H 7633   4.269   3.997  14.464  0.0357 -1.0268 -1.5822
  510MPD2    H1 7634   4.315   4.154  14.078 -0.0026 -1.0566 -0.2367
  510MPD2    H2 7635   3.960   4.227  14.282  1.4396  0.9614  0.2161
  510MPD2    H3 7636   4.081   4.228  14.080 -2.6402  0.3264  0.8085
  510MPD2     N 7637   4.441   4.032  14.281  0.6615 -0.2114 -0.8398
  510MPD2    H5 7638   4.465   3.980  14.365 -0.5963  0.8782  0.1930
  510MPD2    N1 7639   3.994   4.073  14.488  0.4394  0.2290 -0.1368
  510MPD2    H7 7640   3.899   4.106  14.473 -0.4361 -1.9320  0.5939
  511TMC3    C1 7641   3.919   3.993  14.695  0.4569  0.1567 -0.1105
  511TMC3    C2 7642   3.788   4.031  14.680  0.2047  0.1092  0.5435
  511TMC3    C3 7643   3.698   3.983  14.767  0.1547  0.0272 -0.0439
  511TMC3    C4 7644   3.957   3.938  14.817  0.5808  0.0184  0.2990
  511TMC3    C5 7645   3.866   3.898  14.908 -0.4758  0.0425  0.5682
  511TMC3    C6 7646   3.735   3.927  14.884  0.0830 -0.0811 -0.2763
  511TMC3     C 7647   4.021   3.994  14.599 -0.0524 -0.2960  0.8582
  511TMC3     O 7648   4.122   3.931  14.626  0.0754  0.3792  0.3613
  511TMC3     H 7649   3.749   4.084  14.594 -0.6426 -2.1925 -0.5006
  511TMC3    H1 7650   4.061   3.924  14.845  1.0121 -1.2723 -1.9291
  511TMC3    H2 7651   3.664   3.899  14.960 -0.4777  2.6006  0.1761
  511TMC3    C7 7652   3.910   3.858  15.040  0.0630  0.8566  0.5145
  511TMC3    C8 7653   3.565   4.048  14.773  0.0841  0.4338 -0.6375
  511TMC3    O1 7654   4.016   3.903  15.083  0.3464 -0.2397  0.0181
  511TMC3    O2 7655   3.558   4.164  14.742  0.0977  0.1969  0.4757
  512TMC3    C1 7656   2.962   3.334  13.031  0.4219 -0.3635 -0.0406
  512TMC3    C2 7657   3.028   3.321  13.154  0.4416  0.7015  0.2933
  512TMC3    C3 7658   3.107   3.212  13.179  0.6936 -0.3950  0.4514
  512TMC3    C4 7659   2.972   3.246  12.930 -0.1298  0.2094 -0.1152
  512TMC3    C5 7660   3.052   3.136  12.954 -0.5264  0.5028  0.1515
  512TMC3    C6 7661   3.120   3.118  13.077 -0.5720 -0.2333  0.2432
  512TMC3     C 7662   2.865   3.436  13.007 -0.9360 -0.2201 -0.0132
  512TMC3     O 7663   2.774   3.412  12.926 -0.3770 -0.2356  0.2458
  512TMC3     H 7664   2.992   3.387  13.232 -2.4285  1.3271 -1.5480
  512TMC3    H1 7665   2.917   3.254  12.838  0.7466 -0.8680 -0.7379
  512TMC3    H2 7666   3.190   3.037  13.097  0.1533  0.2300 -0.3927
  512TMC3    C7 7667   3.018   3.014  12.880 -0.1249 -0.1817 -0.3188
  512TMC3    C8 7668   3.168   3.192  13.310 -0.5148  0.0315  0.4226
  512TMC3    O1 7669   2.948   3.030  12.786  0.0808  0.3601  0.1915
  512TMC3    O2 7670   3.180   3.076  13.347  0.3824 -0.2008  0.2149
  513MPD2     C 7671   0.118   3.080  12.921  0.6821  1.1131 -0.2961
  513MPD2    C1 7672   0.178   2.955  12.911 -0.0802  0.6114 -0.9762
  513MPD2    C2 7673   0.229   2.896  13.027 -0.1564 -0.4165 -0.1334
  513MPD2    C3 7674   0.244   2.966  13.140 -0.5690  0.8131  0.7190
  513MPD2    C4 7675   0.184   3.089  13.150  0.7658 -0.7523  0.3631
  513MPD2    C5 7676   0.122   3.145  13.043 -0.0913  0.3992 -0.6548
  513MPD2     H 7677   0.298   2.813  13.023 -0.0014 -0.3790  1.6874
  513MPD2    H1 7678   0.183   3.153  13.238 -0.0119 -1.3875  0.8145
  513MPD2    H2 7679   0.087   3.138  12.835 -1.8774  1.5705  0.9399
  513MPD2    H3 7680   0.082   3.244  13.062  2.7767  1.9818 -2.7306
  513MPD2     N 7681   0.326   2.914  13.245  0.0655  0.1956 -0.7637
  513MPD2    H5 7682   0.348   2.815  13.250 -0.6635 -0.0661 -2.7425
  513MPD2    N1 7683   0.192   2.885  12.791 -0.1444 -0.4237  1.2737
  513MPD2    H7 7684   0.233   2.793  12.800  0.9242 -0.0265  0.3729
  514TMC3    C1 7685   0.195   2.824  12.569  0.1439  0.5862 -0.6998
  514TMC3    C2 7686   0.283   2.883  12.480  0.4469 -0.0255 -0.3726
  514TMC3    C3 7687   0.410   2.837  12.488  0.1077 -0.7062  0.0712
  514TMC3    C4 7688   0.226   2.703  12.628 -0.3779  0.6119 -0.8591
  514TMC3    C5 7689   0.354   2.658  12.625  0.3733 -0.6297 -1.0150
  514TMC3    C6 7690   0.448   2.726  12.558  0.1745 -0.0225 -0.1623
  514TMC3     C 7691   0.151   2.923  12.662 -0.2009  0.4345  0.0274
  514TMC3     O 7692   0.113   3.025  12.611 -0.0337 -0.1424  0.6215
  514TMC3     H 7693   0.262   2.982  12.442 -0.4152 -0.2938 -0.5988
  514TMC3    H1 7694   0.150   2.655  12.689 -1.4523 -0.0748 -2.7394
  514TMC3    H2 7695   0.553   2.708  12.579 -0.0042 -0.2088  0.5862
  514TMC3    C7 7696   0.392   2.598  12.748  0.3135 -0.6052 -0.2415
  514TMC3    C8 7697   0.521   2.927  12.449  1.1860 -0.2636  0.3548
  514TMC3    O1 7698   0.317   2.630  12.842  0.2339 -0.1802  0.2348
  514TMC3    O2 7699   0.619   2.929  12.525  0.0940  0.0401  0.5088
  515MPD2     C 7700   3.440   0.086  14.386 -0.1420  0.4703 -0.4025
  515MPD2    C1 7701   3.354   0.148  14.302  0.0887  0.2878  0.2149
  515MPD2    C2 7702   3.345   0.285  14.307  0.0281 -0.2532  0.2321
  515MPD2    C3 7703   3.421   0.356  14.399 -0.5754 -0.1289 -0.0542
  515MPD2    C4 7704   3.510   0.292  14.476 -0.2248 -0.2514 -0.4394
  515MPD2    C5 7705   3.521   0.154  14.466  0.2521 -0.4156 -0.2097
  515MPD2     H 7706   3.270   0.343  14.254  1.4386  2.2349  0.9403
  515MPD2    H1 7707   3.559   0.345  14.557 -0.8710  1.0463 -0.8940
  515MPD2    H2 7708   3.450   4.717  14.380  0.1421  0.5037 -0.5362
  515MPD2    H3 7709   3.579   0.097  14.538  0.1828  1.8030  1.5867
  515MPD2     N 7710   3.429   0.497  14.412  0.4100 -0.3473  0.3138
  515MPD2    H5 7711   3.494   0.533  14.481  0.6514  0.5906 -0.4037
  515MPD2    N1 7712   3.255   0.079  14.231  0.0788 -0.5086  0.4974
  515MPD2    H7 7713   3.198   0.126  14.162  1.8009  1.2770  0.2954
  516TMC3    C1 7714   3.122   4.638  14.164  0.5533 -0.4117 -0.3741
  516TMC3    C2 7715   3.021   4.724  14.118  0.3324  0.0618 -0.1458
  516TMC3    C3 7716   2.900   4.670  14.076 -0.0277  0.1959 -1.1817
  516TMC3    C4 7717   3.097   4.502  14.167  0.1201 -0.2846  0.3480
  516TMC3    C5 7718   2.976   4.452  14.129  0.0365  1.3348 -0.4166
  516TMC3    C6 7719   2.878   4.535  14.080  0.5349 -0.0931  0.4466
  516TMC3     C 7720   3.225   4.682  14.251  1.1724  0.1165  0.1575
  516TMC3     O 7721   3.252   4.608  14.347 -0.1170  0.1617 -0.8971
  516TMC3     H 7722   3.024   0.092  14.129  2.9548 -0.0046 -0.0261
  516TMC3    H1 7723   3.176   4.433  14.193  1.2908  1.4117  1.2863
  516TMC3    H2 7724   2.787   4.498  14.035  1.2801 -1.9677  0.4816
  516TMC3    C7 7725   2.939   4.354  14.223  0.3598  0.3115  0.8326
  516TMC3    C8 7726   2.782   0.017  14.057  0.0229  0.0208  0.1229
  516TMC3    O1 7727   2.996   4.359  14.332 -0.2695 -0.4641  0.2864
  516TMC3    O2 7728   2.667   4.715  14.082  0.0089 -0.0576  0.2189
  517MPD2     C 7729   2.233   2.276  17.330 -0.0424  0.6537  0.8214
  517MPD2    C1 7730   2.363   2.224  17.349 -0.6323  0.0579  0.2204
  517MPD2    C2 7731   2.451   2.308  17.411  0.2385  0.0917 -0.1365
  517MPD2    C3 7732   2.415   2.437  17.439  0.6831 -0.5021 -0.0085
  517MPD2    C4 7733   2.286   2.482  17.420  0.5459  0.2057 -0.4901
  517MPD2    C5 7734   2.193   2.395  17.369 -0.7944 -0.3100 -0.2381
  517MPD2     H 7735   2.554   2.276  17.414  0.3407  0.6388  1.8516
  517MPD2    H1 7736   2.261   2.581  17.454 -0.3771 -0.1503 -0.1436
  517MPD2    H2 7737   2.160   2.220  17.272 -1.1110 -0.2706  3.0738
  517MPD2    H3 7738   2.090   2.426  17.375  0.2739  3.1924  0.1426
  517MPD2     N 7739   2.503   2.536  17.491 -0.5814  0.3005  0.7021
  517MPD2    H5 7740   2.463   2.627  17.511 -0.2881  0.5029  0.3557
  517MPD2    N1 7741   2.409   2.090  17.313  0.1100 -0.0067  0.2007
  517MPD2    H7 7742   2.506   2.069  17.335  0.7486  1.7881 -0.8652
  518TMC3    C1 7743   2.409   1.885  17.204 -0.5177 -0.0191 -0.3735
  518TMC3    C2 7744   2.329   1.775  17.189  0.1839  1.0945  0.0896
  518TMC3    C3 7745   2.395   1.656  17.174  0.8574  0.2779 -0.1970
  518TMC3    C4 7746   2.547   1.885  17.186  0.4397  0.2354 -0.3405
  518TMC3    C5 7747   2.606   1.764  17.158 -0.4397 -0.0317  0.8597
  518TMC3    C6 7748   2.530   1.648  17.158  0.2204 -0.5944 -0.5962
  518TMC3     C 7749   2.333   2.006  17.240 -0.7849  0.7930  0.5368
  518TMC3     O 7750   2.211   2.010  17.218  0.0729 -0.2694  0.3704
  518TMC3     H 7751   2.222   1.774  17.205  0.4612 -0.2673  1.8893
  518TMC3    H1 7752   2.607   1.974  17.201  1.4416 -1.0042  2.9193
  518TMC3    H2 7753   2.572   1.549  17.149  2.0796  0.1665 -0.2925
  518TMC3    C7 7754   2.743   1.761  17.110  0.5561  0.4631  0.0653
  518TMC3    C8 7755   2.341   1.522  17.211  0.4407  0.0161  0.2985
  518TMC3    O1 7756   2.805   1.866  17.113 -0.2644  0.3359  0.0364
  518TMC3    O2 7757   2.383   1.430  17.141  0.4026 -0.4742 -0.2415
  519MPD2     C 7758   4.040   4.667  14.045 -0.1675  0.0705 -0.4877
  519MPD2    C1 7759   4.101   0.012  13.954  0.3665 -0.7414  0.4124
  519MPD2    C2 7760   4.227   4.718  13.911 -0.0133 -0.0304 -0.1794
  519MPD2    C3 7761   4.287   4.607  13.963  0.0397 -0.4293 -0.4825
  519MPD2    C4 7762   4.224   4.531  14.054  0.6088  0.8114  1.0309
  519MPD2    C5 7763   4.103   4.559  14.096 -0.2702  0.0282 -0.3150
  519MPD2     H 7764   4.275   0.041  13.837  1.7958 -0.2125  0.8540
  519MPD2    H1 7765   4.284   4.451  14.097 -0.9965 -0.7088  0.4601
  519MPD2    H2 7766   3.934   4.678  14.061 -0.0333 -1.0515  1.1492
  519MPD2    H3 7767   4.053   4.494  14.166 -0.8715 -0.5607 -1.2919
  519MPD2     N 7768   4.407   4.558  13.913  0.5803  0.0081  0.2920
  519MPD2    H5 7769   4.445   4.484  13.972  1.6926  1.4070  1.3294
  519MPD2    N1 7770   4.025   0.109  13.890  0.1202 -0.0020 -0.2817
  519MPD2    H7 7771   3.925   0.109  13.909  0.2753  1.0249  0.4629
  520TMC3    C1 7772   4.575   4.507  13.757  0.6265  0.8113 -0.3022
  520TMC3    C2 7773   4.516   4.428  13.660 -0.9154  0.6373 -0.3166
  520TMC3    C3 7774   4.536   4.291  13.663 -0.0234 -0.8381  1.2335
  520TMC3    C4 7775   4.657   4.452  13.855  0.5331  0.1317 -0.8071
  520TMC3    C5 7776   4.679   4.318  13.845 -0.3813  0.7468 -0.5603
  520TMC3    C6 7777   4.622   4.236  13.755  0.4314  0.2023  0.2282
  520TMC3     C 7778   4.470   4.601  13.791 -0.6447  0.5724  1.0339
  520TMC3     O 7779   4.433   4.679  13.705  0.4852  0.2335  0.0273
  520TMC3     H 7780   4.441   4.472  13.595  0.8268  1.0729 -2.0288
  520TMC3    H1 7781   4.707   4.512  13.930  1.0713 -0.7216 -0.4776
  520TMC3    H2 7782   4.646   4.131  13.746 -1.1894 -0.2260  0.8064
  520TMC3    C7 7783   0.063   4.267  13.889 -0.1641  0.8157  0.6671
  520TMC3    C8 7784   4.437   4.200  13.606  0.2354  0.6606 -0.0736
  520TMC3    O1 7785   0.097   4.285  14.004  0.3700 -0.5408 -0.6468
  520TMC3    O2 7786   4.468   4.080  13.607 -0.2128 -0.2556  0.4931
  521MPD2     C 7787   0.282   3.125  17.559 -0.4923 -1.1373  0.8099
  521MPD2    C1 7788   0.267   3.095  17.426 -0.2900 -0.1218  0.4564
  521MPD2    C2 7789   0.376   3.087  17.346 -0.2901  0.1672 -0.1549
  521MPD2    C3 7790   0.505   3.088  17.398 -0.0361  0.2520  1.0915
  521MPD2    C4 7791   0.516   3.117  17.531 -0.2454 -0.2516  0.0602
  521MPD2    C5 7792   0.409   3.137  17.611  0.5706  0.0548 -0.5161
  521MPD2     H 7793   0.369   3.069  17.239 -2.0170  2.8145 -0.4646
  521MPD2    H1 7794   0.614   3.132  17.576  0.9668 -0.7007 -2.4361
  521MPD2    H2 7795   0.200   3.145  17.627 -0.1450  0.4374  0.7683
  521MPD2    H3 7796   0.428   3.168  17.713 -0.3264  2.8246 -1.1902
  521MPD2     N 7797   0.624   3.074  17.325 -0.0256 -0.4387  0.2217
  521MPD2    H5 7798   0.710   3.056  17.374 -1.0070 -2.5532  1.1607
  521MPD2    N1 7799   0.134   3.044  17.390 -0.3080 -0.0896  0.2308
  521MPD2    H7 7800   0.073   3.049  17.471 -1.7864 -0.6133 -0.8673
  522TMC3    C1 7801   0.772   3.058  17.144 -0.1624  0.7074  0.2102
  522TMC3    C2 7802   0.834   2.946  17.195 -0.0812  0.0609  0.1402
  522TMC3    C3 7803   0.944   2.888  17.133 -0.0810 -0.5660 -0.2216
  522TMC3    C4 7804   0.801   3.113  17.024  1.0134  0.4021  0.0127
  522TMC3    C5 7805   0.909   3.059  16.962 -0.4442  0.0259  0.3217
  522TMC3    C6 7806   0.984   2.954  17.010  0.3332  0.8402 -0.2136
  522TMC3     C 7807   0.636   3.084  17.190  0.4595 -0.6654 -0.3220
  522TMC3     O 7808   0.557   3.115  17.105  0.0114  0.1596  0.2853
  522TMC3     H 7809   0.794   2.897  17.283 -2.9281 -1.3357 -1.9376
  522TMC3    H1 7810   0.763   3.212  17.002 -0.6438 -0.2600 -0.1356
  522TMC3    H2 7811   1.067   2.907  16.959  0.1083 -1.9815  2.0491
  522TMC3    C7 7812   0.886   3.037  16.821  0.4461 -0.9121  0.4208
  522TMC3    C8 7813   0.946   2.742  17.130  0.0829 -0.2232  0.1472
  522TMC3    O1 7814   0.969   2.971  16.761  0.4910  0.0376  0.2983
  522TMC3    O2 7815   0.850   2.673  17.172  0.1519  0.1750 -0.0081
  523MPD2     C 7816   2.553   1.913   9.413 -0.2407 -0.9782 -0.3352
  523MPD2    C1 7817   2.535   1.979   9.536 -0.7275 -0.8017 -0.4882
  523MPD2    C2 7818   2.443   2.082   9.537 -0.4213 -0.0311 -0.3835
  523MPD2    C3 7819   2.383   2.138   9.424 -0.1579 -0.8709 -0.3985
  523MPD2    C4 7820   2.413   2.071   9.303 -0.1835 -0.4790  0.2039
  523MPD2    C5 7821   2.487   1.958   9.298  0.3647  0.2929 -0.0518
  523MPD2     H 7822   2.424   2.127   9.634  0.2220  0.2237 -0.3757
  523MPD2    H1 7823   2.362   2.096   9.210  0.5012 -0.8436 -0.2668
  523MPD2    H2 7824   2.616   1.825   9.410  0.3235 -0.5260 -1.6605
  523MPD2    H3 7825   2.500   1.905   9.204 -1.2653  0.2399 -0.2520
  523MPD2     N 7826   2.292   2.249   9.416 -0.0554  0.6111 -0.8836
  523MPD2    H5 7827   2.264   2.285   9.325 -0.3600 -0.1658 -1.0981
  523MPD2    N1 7828   2.604   1.930   9.652  0.0050  0.1067  0.0328
  523MPD2    H7 7829   2.643   1.837   9.642 -0.3184  0.0777 -0.9398
  524TMC3    C1 7830   2.165   2.430   9.489 -0.3479  0.0602 -0.3212
  524TMC3    C2 7831   2.090   2.434   9.379 -0.2765  0.0034 -0.0779
  524TMC3    C3 7832   2.003   2.536   9.353 -0.4865 -0.3670  0.1097
  524TMC3    C4 7833   2.150   2.535   9.578 -0.2414  0.0200  0.0974
  524TMC3    C5 7834   2.064   2.637   9.551 -0.0166 -0.3166  1.0537
  524TMC3    C6 7835   1.999   2.647   9.430  0.0926 -0.1491 -0.0041
  524TMC3     C 7836   2.246   2.317   9.527 -0.0411  0.3173  0.4718
  524TMC3     O 7837   2.270   2.305   9.647 -0.3464  0.6090  0.2135
  524TMC3     H 7838   2.067   2.339   9.333 -0.7564 -0.6547  1.5262
  524TMC3    H1 7839   2.215   2.534   9.665  1.7563 -0.8069 -1.4046
  524TMC3    H2 7840   1.923   2.722   9.415 -1.1425 -1.1613  1.2246
  524TMC3    C7 7841   2.036   2.717   9.667 -0.3977 -0.1055 -0.1798
  524TMC3    C8 7842   1.914   2.526   9.233 -0.1227 -0.0299  0.4551
  524TMC3    O1 7843   2.070   2.673   9.772  0.4935  0.3629 -0.2173
  524TMC3    O2 7844   1.824   2.607   9.223  0.1110  0.0952 -0.2444
  525MPD2     C 7845   0.858   4.197  14.796  0.0206  0.8877 -0.5870
  525MPD2    C1 7846   0.971   4.134  14.739  0.2099 -0.1130 -0.6366
  525MPD2    C2 7847   1.046   4.208  14.659  0.2775 -0.2751  0.3257
  525MPD2    C3 7848   1.028   4.341  14.635 -0.5587  0.2468 -0.6166
  525MPD2    C4 7849   0.919   4.403  14.688 -1.1135  0.3533 -1.2734
  525MPD2    C5 7850   0.838   4.328  14.764  0.4236 -0.4503  0.7704
  525MPD2     H 7851   1.130   4.163  14.608  0.6798  1.7723 -0.8053
  525MPD2    H1 7852   0.887   4.506  14.680 -0.0507  0.5526 -2.9605
  525MPD2    H2 7853   0.788   4.145  14.860  0.9664  2.1013  1.4408
  525MPD2    H3 7854   0.750   4.370  14.812  1.8732  2.8071  0.5484
  525MPD2     N 7855   1.100   4.410  14.537 -0.6014 -0.1938  0.7412
  525MPD2    H5 7856   1.062   4.492  14.491 -1.3566 -0.3447  1.0887
  525MPD2    N1 7857   1.003   3.993  14.763  0.0457  0.8239  0.6034
  525MPD2    H7 7858   1.086   3.955  14.718 -1.2878 -1.0654 -0.2591
  526TMC3    C1 7859   1.009   3.803  14.903 -0.0057 -0.5141 -0.1848
  526TMC3    C2 7860   0.937   3.770  15.019  0.2660  0.7091 -0.0537
  526TMC3    C3 7861   0.996   3.766  15.141 -0.6595  0.8451 -0.2756
  526TMC3    C4 7862   1.142   3.834  14.919 -0.2019 -0.4839  0.2335
  526TMC3    C5 7863   1.196   3.816  15.044 -0.9222 -0.4943 -0.0123
  526TMC3    C6 7864   1.130   3.788  15.156  0.2676 -0.6825 -0.6357
  526TMC3     C 7865   0.935   3.905  14.840  0.7509  0.0412  0.3314
  526TMC3     O 7866   0.816   3.909  14.863  0.1138  0.0042  1.6765
  526TMC3     H 7867   0.835   3.734  15.007  0.1906  0.4337  1.3308
  526TMC3    H1 7868   1.199   3.859  14.830 -2.1107 -1.0802 -1.1382
  526TMC3    H2 7869   1.174   3.785  15.254 -1.3735 -2.0163  0.0706
  526TMC3    C7 7870   1.344   3.815  15.050 -0.1735  0.2008 -0.5064
  526TMC3    C8 7871   0.918   3.843  15.237 -0.1934 -0.3612 -0.2100
  526TMC3    O1 7872   1.394   3.775  15.155  0.0838  0.4229 -0.3886
  526TMC3    O2 7873   0.959   3.845  15.352 -0.5257 -0.4206 -0.2358
  527MPD2     C 7874   3.921   2.750   1.090 -0.4040  0.0659 -0.4678
  527MPD2    C1 7875   3.843   2.665   1.014 -0.6507  0.3135  0.6614
  527MPD2    C2 7876   3.894   2.559   0.944  0.3704  0.3882 -0.6535
  527MPD2    C3 7877   4.023   2.521   0.973  0.2124 -0.5346  0.0670
  527MPD2    C4 7878   4.092   2.588   1.080  0.2751  0.8905 -0.4962
  527MPD2    C5 7879   4.042   2.702   1.124  0.2223 -0.4663  0.0618
  527MPD2     H 7880   3.840   2.489   0.882 -0.8420 -0.8382  1.7862
  527MPD2    H1 7881   4.192   2.558   1.107  0.5623  2.2888 -0.0520
  527MPD2    H2 7882   3.894   2.839   1.145  2.9774  1.5180 -1.1142
  527MPD2    H3 7883   4.094   2.763   1.197  2.5457  0.1391 -2.0837
  527MPD2     N 7884   4.065   2.406   0.904  0.1271  0.2797  0.2627
  527MPD2    H5 7885   4.018   2.375   0.820  2.1650  1.3362 -1.2739
  527MPD2    N1 7886   3.702   2.676   1.015 -0.4462  0.2656 -0.4927
  527MPD2    H7 7887   3.642   2.610   0.966  0.2542 -1.0622  0.4193
  528TMC3    C1 7888   3.486   2.767   1.059 -0.4251 -0.3592 -0.1581
  528TMC3    C2 7889   3.451   2.745   0.928  0.4283  0.1838 -0.2182
  528TMC3    C3 7890   3.329   2.776   0.892  0.4047  0.2052 -0.2429
  528TMC3    C4 7891   3.401   2.821   1.145  0.4189  0.2714  0.7267
  528TMC3    C5 7892   3.270   2.839   1.112  0.7068  0.1192 -1.1498
  528TMC3    C6 7893   3.234   2.811   0.983  0.0899  0.3607 -0.2729
  528TMC3     C 7894   3.625   2.757   1.093  0.2320 -0.2329 -0.0306
  528TMC3     O 7895   3.662   2.837   1.178  0.5601 -0.4843  0.2523
  528TMC3     H 7896   3.523   2.727   0.848  1.1492 -3.4590  1.2665
  528TMC3    H1 7897   3.416   2.824   1.252  3.3310  2.1043  0.2512
  528TMC3    H2 7898   3.128   2.820   0.962  0.0713 -0.5623 -0.5871
  528TMC3    C7 7899   3.172   2.895   1.197  0.1300 -0.1683 -0.6757
  528TMC3    C8 7900   3.306   2.816   0.754  0.0394  0.4822 -0.0723
  528TMC3    O1 7901   3.059   2.914   1.155 -0.1698  0.0889 -0.5223
  528TMC3    O2 7902   3.373   2.757   0.669  0.2825 -0.0779  0.3913
  529MPD2     C 7903   0.525   0.705   1.448 -0.1941 -0.0928 -0.8865
  529MPD2    C1 7904   0.610   0.741   1.343  0.5683 -1.0152  1.1556
  529MPD2    C2 7905   0.578   0.846   1.255  0.2390  0.2596 -0.3933
  529MPD2    C3 7906   0.445   0.901   1.263 -0.0046  0.3487 -0.0882
  529MPD2    C4 7907   0.358   0.851   1.360 -0.1341 -0.7188  0.7259
  529MPD2    C5 7908   0.396   0.751   1.445 -0.6305  0.1140  0.1923
  529MPD2     H 7909   0.648   0.867   1.175 -0.0253 -2.5348 -1.3706
  529MPD2    H1 7910   0.257   0.889   1.361  0.2801  0.4505 -2.7327
  529MPD2    H2 7911   0.548   0.630   1.523 -1.9077 -1.3362 -1.5947
  529MPD2    H3 7912   0.321   0.715   1.514 -0.3465 -1.2681 -0.2322
  529MPD2     N 7913   0.394   0.992   1.171 -0.1898 -0.0508 -0.0981
  529MPD2    H5 7914   0.293   0.994   1.162 -0.2977  2.2411  1.6482
  529MPD2    N1 7915   0.732   0.674   1.328 -0.6071 -0.5027 -0.1174
  529MPD2    H7 7916   0.798   0.724   1.270  0.6508 -1.2490  0.6846
  530TMC3    C1 7917   0.898   0.511   1.354  0.4591 -0.6747 -0.1560
  530TMC3    C2 7918   0.985   0.609   1.350 -0.0452  0.5091  0.0197
  530TMC3    C3 7919   1.110   0.583   1.287  0.1978  0.0750  0.2360
  530TMC3    C4 7920   0.936   0.395   1.290  0.2577 -0.4748  0.3695
  530TMC3    C5 7921   1.060   0.359   1.241  0.7246  0.0257 -0.1356
  530TMC3    C6 7922   1.149   0.460   1.239 -0.0846  0.6404  0.2857
  530TMC3     C 7923   0.757   0.543   1.360 -0.8851 -0.3671  0.1963
  530TMC3     O 7924   0.671   0.456   1.365 -0.8988 -0.0956 -0.4125
  530TMC3     H 7925   0.974   0.706   1.398  1.0586  0.1852  0.9385
  530TMC3    H1 7926   0.859   0.318   1.282 -0.0573 -0.3012  1.6492
  530TMC3    H2 7927   1.245   0.439   1.192 -1.1140 -0.6790 -1.2304
  530TMC3    C7 7928   1.096   0.223   1.202 -0.4545 -0.5749  0.0995
  530TMC3    C8 7929   1.200   0.700   1.284 -0.1500  0.1178 -0.1109
  530TMC3    O1 7930   1.213   0.215   1.165 -0.2998 -0.0346  0.3103
  530TMC3    O2 7931   1.149   0.809   1.306  0.3270 -0.1818 -0.2236
  531MPD2     C 7932   0.750   2.407  13.062 -0.2150  0.6857 -0.0057
  531MPD2    C1 7933   0.646   2.500  13.084  0.1586  0.1919  0.0139
  531MPD2    C2 7934   0.559   2.531  12.980 -0.4223 -0.1447 -0.7495
  531MPD2    C3 7935   0.573   2.475  12.856 -0.3750  0.2751  0.4390
  531MPD2    C4 7936   0.681   2.398  12.833 -0.4568  0.4700  0.2963
  531MPD2    C5 7937   0.763   2.351  12.943 -0.9434  0.7573  0.3264
  531MPD2     H 7938   0.479   2.601  12.999  1.2368  1.4218  0.4277
  531MPD2    H1 7939   0.698   2.355  12.734 -0.2423 -1.7298  1.2791
  531MPD2    H2 7940   0.810   2.377  13.148  1.0316 -0.0651 -1.1449
  531MPD2    H3 7941   0.845   2.281  12.930  0.2102  1.8964  1.3099
  531MPD2     N 7942   0.490   2.511  12.743  0.8184  0.8250  0.5506
  531MPD2    H5 7943   0.540   2.485  12.659  0.1899  1.3691  0.0106
  531MPD2    N1 7944   0.635   2.555  13.214  0.0753  0.5080 -0.3592
  531MPD2    H7 7945   0.711   2.543  13.281 -0.6101  0.1376  0.3576
  532TMC3    C1 7946   0.535   2.678  13.385 -0.1943 -0.3733  0.7245
  532TMC3    C2 7947   0.430   2.768  13.392  0.1565  0.0503  0.4812
  532TMC3    C3 7948   0.452   2.898  13.431  0.5038 -0.3545 -0.1554
  532TMC3    C4 7949   0.664   2.709  13.417  0.1572  0.1727  0.4622
  532TMC3    C5 7950   0.682   2.840  13.449  0.8075 -0.0863 -0.0690
  532TMC3    C6 7951   0.581   2.933  13.447  0.0983  0.1897  0.0229
  532TMC3     C 7952   0.516   2.600  13.269 -0.2098  0.3649  0.0922
  532TMC3     O 7953   0.407   2.618  13.213 -0.1427 -0.0338 -0.9933
  532TMC3     H 7954   0.333   2.720  13.407  0.8828 -1.4404  0.4435
  532TMC3    H1 7955   0.753   2.648  13.419  0.6132  0.7678 -1.4544
  532TMC3    H2 7956   0.602   3.039  13.451  2.1559 -0.2304  0.7194
  532TMC3    C7 7957   0.816   2.892  13.433 -0.2798  0.7994  0.1468
  532TMC3    C8 7958   0.370   2.987  13.353  0.1709  0.1597  0.6497
  532TMC3    O1 7959   0.833   2.984  13.357  0.3035 -0.4988  0.2123
  532TMC3    O2 7960   0.373   3.109  13.366  0.0670 -0.8138 -0.8685
  533TMC3    C1 7961   1.254   4.471  14.384 -0.4578  0.3193 -0.1343
  533TMC3    C2 7962   1.387   4.516  14.382  0.2125 -0.2213  0.1262
  533TMC3    C3 7963   1.406   4.647  14.339  0.1844 -0.1466 -0.3122
  533TMC3    C4 7964   1.156   4.560  14.332  0.0652 -0.4135 -0.5631
  533TMC3    C5 7965   1.179   4.694  14.309  0.0755 -0.4973 -0.3064
  533TMC3    C6 7966   1.306   4.734  14.301 -0.5190  0.1572 -0.0718
  533TMC3     C 7967   1.220   4.373  14.483 -0.0284 -0.4861  0.0371
  533TMC3     O 7968   1.304   4.300  14.539  0.3364  0.1673 -0.1108
  533TMC3     H 7969   1.466   4.475  14.444 -0.8762 -2.0299  0.3082
  533TMC3    H1 7970   1.054   4.522  14.323  0.6640 -2.1973  0.1730
  533TMC3    H2 7971   1.335   0.099  14.297  1.1715 -0.2443  1.9352
  533TMC3    C7 7972   1.103   0.026  14.415 -0.4430  0.3790 -0.2388
  533TMC3    C8 7973   1.543   4.691  14.365  0.0991  0.0804 -0.4425
  533TMC3    O1 7974   1.062   4.694  14.500 -0.0821 -0.3455 -0.2034
  533TMC3    O2 7975   1.553   0.072  14.369 -0.6615  0.5871 -0.1781
  534MPD2     C 7976   3.932   0.677   1.022  0.1183  0.3929 -0.2688
  534MPD2    C1 7977   3.900   0.783   1.109  0.5441  0.5330  0.8547
  534MPD2    C2 7978   3.790   0.854   1.073 -0.3681 -0.1261  0.4600
  534MPD2    C3 7979   3.729   0.828   0.948 -0.2813 -1.0895  0.4391
  534MPD2    C4 7980   3.766   0.723   0.869  0.3599  0.0262 -0.5261
  534MPD2    C5 7981   3.866   0.646   0.909 -0.5075  0.3898  0.7057
  534MPD2     H 7982   3.753   0.934   1.137  2.5890  1.9788 -0.4453
  534MPD2    H1 7983   3.710   0.699   0.779 -1.6908 -1.1646  1.0521
  534MPD2    H2 7984   4.030   0.632   1.028 -0.7772 -1.2790  1.7149
  534MPD2    H3 7985   3.896   0.559   0.851  1.0383  1.8203 -0.6371
  534MPD2     N 7986   3.619   0.906   0.900  0.0974  0.2215  0.8907
  534MPD2    H5 7987   3.586   0.890   0.806  0.0445  2.0049  0.6086
  534MPD2    N1 7988   3.977   0.829   1.218 -0.1012  1.0132  0.4604
  534MPD2    H7 7989   3.941   0.903   1.277 -1.2198  0.6569  0.2401
  535TMC3    C1 7990   3.447   1.061   0.910  1.1460  0.3608  0.1029
  535TMC3    C2 7991   3.360   1.129   0.987 -0.7288 -0.4286  0.0550
  535TMC3    C3 7992   3.286   1.217   0.918 -0.5347  0.3808  0.3296
  535TMC3    C4 7993   3.461   1.087   0.775 -0.3555  0.3981 -0.0896
  535TMC3    C5 7994   3.394   1.190   0.716  0.5049  0.7669  0.3499
  535TMC3    C6 7995   3.297   1.256   0.790  0.1759  0.0569 -0.2116
  535TMC3     C 7996   3.549   0.987   0.987 -0.9260 -0.9319 -0.3522
  535TMC3     O 7997   3.549   0.985   1.108  0.2530  0.4955 -0.1664
  535TMC3     H 7998   3.336   1.107   1.090 -1.6247  2.1661  0.3971
  535TMC3    H1 7999   3.537   1.039   0.714  0.0641  1.6174 -0.5495
  535TMC3    H2 8000   3.236   1.337   0.750  0.6195  0.7951  0.6133
  535TMC3    C7 8001   3.404   1.222   0.577  0.0076  0.6149  0.0830
  535TMC3    C8 8002   3.162   1.265   0.979 -0.4030 -0.2393 -0.2267
  535TMC3    O1 8003   3.440   1.134   0.498 -0.0831  0.5218  0.3031
  535TMC3    O2 8004   3.059   1.248   0.917  0.3617  0.7168 -0.4386
  536MPD2     C 8005   2.008   3.427  15.910  0.5456  0.2944  0.1728
  536MPD2    C1 8006   1.964   3.511  16.008 -0.4898  0.4769 -0.1719
  536MPD2    C2 8007   1.923   3.638  15.969 -0.9369  0.3556  0.1262
  536MPD2    C3 8008   1.923   3.678  15.838 -0.3235 -0.5978 -0.2415
  536MPD2    C4 8009   1.973   3.594  15.742  0.1851  1.1078  0.9699
  536MPD2    C5 8010   2.019   3.472  15.782  0.4234  0.1661 -0.3601
  536MPD2     H 8011   1.894   3.705  16.049  2.0495 -0.8411  2.2083
  536MPD2    H1 8012   2.004   3.631  15.645 -1.2962  0.5950  0.3041
  536MPD2    H2 8013   2.017   3.320  15.925 -1.8227  0.1389  0.5187
  536MPD2    H3 8014   2.044   3.407  15.699  0.1679  0.0944 -0.3826
  536MPD2     N 8015   1.884   3.810  15.803 -0.1787  0.1372  0.0764
  536MPD2    H5 8016   1.897   3.840  15.707  0.8982  0.9509  0.4837
  536MPD2    N1 8017   1.953   3.463  16.146 -0.2506 -0.7220  0.1755
  536MPD2    H7 8018   1.969   3.366  16.169 -0.7170 -1.0459 -0.8769
  537TMC3    C1 8019   1.951   3.462  16.383 -0.3486  0.4743  0.1820
  537TMC3    C2 8020   1.994   3.536  16.485  0.0067 -0.5158 -0.7182
  537TMC3    C3 8021   1.947   3.521  16.611 -0.2604  0.1994 -0.2367
  537TMC3    C4 8022   1.861   3.365  16.406  0.8007 -0.1880  0.3822
  537TMC3    C5 8023   1.809   3.348  16.533  1.0189 -0.2608  0.0950
  537TMC3    C6 8024   1.847   3.435  16.636 -0.4520  0.4134  0.0272
  537TMC3     C 8025   1.941   3.539  16.259 -0.3229 -0.0233 -0.5773
  537TMC3     O 8026   1.953   3.664  16.268 -0.2264 -0.1388  0.5810
  537TMC3     H 8027   2.046   3.629  16.467 -0.6844  0.2075  1.0271
  537TMC3    H1 8028   1.826   3.294  16.331  1.9192  0.9955 -1.2639
  537TMC3    H2 8029   1.808   3.428  16.737  0.4039  1.4731  0.4259
  537TMC3    C7 8030   1.696   3.258  16.557 -0.2763 -0.1456  0.9993
  537TMC3    C8 8031   1.996   3.620  16.710  0.0918 -0.3480 -0.3981
  537TMC3    O1 8032   1.702   3.154  16.500  0.0878  0.1845 -0.2712
  537TMC3    O2 8033   2.112   3.655  16.706 -0.4303  0.1508 -0.2090
  538TMC3    C1 8034   3.501   2.148  10.721 -0.2635 -0.1516  0.5506
  538TMC3    C2 8035   3.633   2.179  10.746 -0.0951 -0.8516 -0.2496
  538TMC3    C3 8036   3.690   2.265  10.666  0.2843  0.3186  0.2689
  538TMC3    C4 8037   3.438   2.195  10.611 -0.1469  0.2078  0.2847
  538TMC3    C5 8038   3.498   2.287  10.536  0.4788 -0.3265  0.7617
  538TMC3    C6 8039   3.625   2.333  10.565  0.1647 -0.3476  0.2673
  538TMC3     C 8040   3.414   2.113  10.829  0.1741 -0.0554  0.2441
  538TMC3     O 8041   3.304   2.156  10.812 -0.1121 -0.1424 -0.0365
  538TMC3     H 8042   3.685   2.131  10.828  0.9517  1.4772  0.4167
  538TMC3    H1 8043   3.336   2.164  10.591  0.1367 -0.8703  0.5341
  538TMC3    H2 8044   3.676   2.412  10.511  0.6350  0.1843  1.5012
  538TMC3    C7 8045   3.405   2.370  10.461 -0.2785  0.7119 -0.7052
  538TMC3    C8 8046   3.817   2.315  10.718 -0.2594 -0.1314 -0.2948
  538TMC3    O1 8047   3.353   2.320  10.364  0.4888  0.0696  0.2496
  538TMC3    O2 8048   3.836   2.302  10.838  0.2671 -0.2230 -0.4055
  539MPD2     C 8049   2.865   1.692  11.902 -0.5220  0.2695 -1.0050
  539MPD2    C1 8050   2.926   1.689  11.776  0.1143  0.0615 -0.7191
  539MPD2    C2 8051   2.917   1.804  11.699 -0.0458  0.3620 -0.1166
  539MPD2    C3 8052   2.843   1.914  11.740  0.5891 -0.1262 -0.3013
  539MPD2    C4 8053   2.784   1.913  11.854 -0.0609  0.1491  0.2469
  539MPD2    C5 8054   2.796   1.802  11.937 -0.6308 -0.0232 -0.5763
  539MPD2     H 8055   2.979   1.796  11.611  0.3628 -0.5230  0.2587
  539MPD2    H1 8056   2.731   2.001  11.890  2.4832  0.9905  1.8811
  539MPD2    H2 8057   2.861   1.602  11.963  2.1428  2.8051  2.9330
  539MPD2    H3 8058   2.730   1.803  12.022  1.0694 -2.0125  0.7521
  539MPD2     N 8059   2.843   2.038  11.672  0.4238  0.8651  0.3081
  539MPD2    H5 8060   2.782   2.109  11.712  0.5277  1.7155 -1.0539
  539MPD2    N1 8061   3.007   1.580  11.733  0.0713 -0.0085 -0.1345
  539MPD2    H7 8062   3.038   1.586  11.637 -2.6570 -1.1319 -1.0857
  540TMC3    C1 8063   2.875   2.196  11.507  0.1422 -0.4186 -0.0365
  540TMC3    C2 8064   2.889   2.220  11.373 -0.0243  0.0906  0.3584
  540TMC3    C3 8065   2.864   2.343  11.323 -0.2571 -0.2823  0.2432
  540TMC3    C4 8066   2.861   2.297  11.597  0.3841 -0.3414  0.0448
  540TMC3    C5 8067   2.837   2.425  11.546  0.2001  0.6052 -0.2264
  540TMC3    C6 8068   2.822   2.443  11.412 -0.1579  0.4533  0.5620
  540TMC3     C 8069   2.915   2.064  11.556 -0.1348  0.0612 -0.2067
  540TMC3     O 8070   2.972   1.994  11.476 -0.2293  0.4139 -1.2778
  540TMC3     H 8071   2.921   2.136  11.313 -1.3810 -1.4874  1.8423
  540TMC3    H1 8072   2.861   2.275  11.703 -0.3168 -0.6456 -0.0220
  540TMC3    H2 8073   2.809   2.544  11.374 -1.3250  0.2084  0.3278
  540TMC3    C7 8074   2.770   2.522  11.633  0.3216  0.5065  0.5052
  540TMC3    C8 8075   2.857   2.367  11.188 -0.2114 -0.3434 -0.3614
  540TMC3    O1 8076   2.683   2.596  11.586 -0.0415  0.0388 -0.2173
  540TMC3    O2 8077   2.872   2.475  11.137 -0.2648 -0.5685  0.0863
  541MPD2     C 8078   1.734   3.290  13.155 -0.1537 -0.0734  0.3702
  541MPD2    C1 8079   1.721   3.183  13.066  0.1259 -0.5192  0.7535
  541MPD2    C2 8080   1.699   3.207  12.932 -0.5335  0.3655 -0.6819
  541MPD2    C3 8081   1.691   3.337  12.886 -0.3677 -0.1102  0.0264
  541MPD2    C4 8082   1.720   3.443  12.973  0.0410 -0.7710 -0.1892
  541MPD2    C5 8083   1.734   3.416  13.104  0.8400 -0.1478  0.5064
  541MPD2     H 8084   1.696   3.117  12.873  0.8438  1.0838 -1.8405
  541MPD2    H1 8085   1.727   3.544  12.937 -1.7139  0.3286  2.5249
  541MPD2    H2 8086   1.733   3.293  13.263 -1.2617  2.1916  0.3017
  541MPD2    H3 8087   1.748   3.491  13.181  1.4539  0.2218  0.0334
  541MPD2     N 8088   1.663   3.375  12.751  0.2362  0.5371  0.1565
  541MPD2    H5 8089   1.658   3.474  12.731 -0.8861  0.6509  1.0405
  541MPD2    N1 8090   1.738   3.045  13.103 -0.1245  0.3005 -0.0701
  541MPD2    H7 8091   1.724   2.970  13.036  0.9317  0.9733 -1.0495
  542TMC3    C1 8092   1.621   3.356  12.530  0.0999  0.4076  0.4243
  542TMC3    C2 8093   1.666   3.291  12.417  0.0414 -0.1895  0.0464
  542TMC3    C3 8094   1.629   3.347  12.297 -0.3000  0.0367 -0.1978
  542TMC3    C4 8095   1.532   3.466  12.530  0.7290  0.6910  0.2052
  542TMC3    C5 8096   1.488   3.503  12.405 -0.4889  0.9575 -0.4521
  542TMC3    C6 8097   1.538   3.454  12.290  0.2146 -0.1449 -0.3068
  542TMC3     C 8098   1.658   3.292  12.649 -0.3410  0.1127 -0.1745
  542TMC3     O 8099   1.678   3.173  12.645 -0.9366  0.1498 -0.0416
  542TMC3     H 8100   1.731   3.206  12.434  1.7277  1.3006  1.0360
  542TMC3    H1 8101   1.485   3.493  12.624 -0.6582 -0.4324 -0.1612
  542TMC3    H2 8102   1.532   3.517  12.202 -1.5252 -1.7648 -1.3482
  542TMC3    C7 8103   1.399   3.618  12.399  0.7089 -0.0497  0.3117
  542TMC3    C8 8104   1.689   3.292  12.173 -0.9363  0.2951 -0.5880
  542TMC3    O1 8105   1.379   3.672  12.508 -0.3492  0.6653  0.8925
  542TMC3    O2 8106   1.633   3.305  12.065  0.5515 -0.2050  0.5943
  543TMC3    C1 8107   1.050   0.284  17.454 -0.0395  0.1878  0.8182
  543TMC3    C2 8108   1.085   0.159  17.499  0.0835 -0.8692  0.3647
  543TMC3    C3 8109   1.047   0.121  17.623 -0.1310  0.2311 -0.2931
  543TMC3    C4 8110   0.984   0.371  17.530 -0.8570  0.3092 -0.9106
  543TMC3    C5 8111   0.935   0.324  17.653  0.2701  0.7144 -0.4246
  543TMC3    C6 8112   0.967   0.198  17.704  0.7622 -0.0390 -0.1866
  543TMC3     C 8113   1.103   0.317  17.325  0.1348 -0.3444 -0.0052
  543TMC3     O 8114   1.207   0.253  17.307  0.9967 -0.0985 -0.1179
  543TMC3     H 8115   1.148   0.093  17.441 -0.3811 -0.8339 -0.1849
  543TMC3    H1 8116   0.954   0.466  17.487  0.3816  1.0855 -0.0728
  543TMC3    H2 8117   0.936   0.179   0.052  1.0626  0.9911  0.0965
  543TMC3    C7 8118   0.846   0.406  17.737  0.3947 -0.2145 -0.5030
  543TMC3    C8 8119   1.043   4.716  17.648  0.2061  0.3253  0.1798
  543TMC3    O1 8120   0.786   0.350   0.076 -0.6535 -0.4016  0.5562
  543TMC3    O2 8121   1.088   4.653  17.555  0.1994 -0.0238 -0.7232
  544MPD2     C 8122   0.886   4.291   0.123  0.0415  0.2492 -0.1096
  544MPD2    C1 8123   0.887   4.324  17.745 -0.3383  0.0667  0.3436
  544MPD2    C2 8124   0.930   4.454  17.713 -0.3608 -0.0326  0.1318
  544MPD2    C3 8125   0.961   4.547   0.058 -0.2880  0.1334  0.4435
  544MPD2    C4 8126   0.954   4.508   0.197  0.9895  0.0431  0.1257
  544MPD2    C5 8127   0.921   4.379   0.228  0.1854  0.1546 -0.0031
  544MPD2     H 8128   0.937   4.471  17.606  1.3552  1.9558  0.5696
  544MPD2    H1 8129   0.993   4.575   0.273 -0.3040 -0.4111  1.1909
  544MPD2    H2 8130   0.867   4.189   0.153 -1.2180  0.8649  1.2287
  544MPD2    H3 8131   0.921   4.346   0.331 -2.0537 -2.4432 -0.8378
  544MPD2     N 8132   1.006   4.679   0.024 -0.2708  0.0042  0.3257
  544MPD2    H5 8133   1.014   0.009   0.099  0.5443 -0.4802  0.6831
  544MPD2    N1 8134   0.850   4.220  17.647  0.0382  0.0958  0.1291
  544MPD2    H7 8135   0.812   4.138  17.693  0.3636 -0.0859  0.0785
  545TMC3    C1 8136   0.776   4.127  17.443  0.7200 -0.8207  0.5289
  545TMC3    C2 8137   0.730   4.164  17.321  0.1812  0.3111 -0.3293
  545TMC3    C3 8138   0.638   4.081  17.257 -0.4520  0.5135  0.6519
  545TMC3    C4 8139   0.747   4.009  17.502  0.2353 -0.4881 -0.5498
  545TMC3    C5 8140   0.638   3.940  17.442 -0.1956  0.5094 -0.1767
  545TMC3    C6 8141   0.589   3.971  17.319 -0.5380 -0.3981  0.6091
  545TMC3     C 8142   0.861   4.226  17.510 -0.4419 -0.1132  0.0969
  545TMC3     O 8143   0.912   4.306  17.437 -0.4728 -0.1827 -0.0700
  545TMC3     H 8144   0.763   4.259  17.279 -0.2069 -0.4359 -2.3467
  545TMC3    H1 8145   0.782   3.977  17.599 -1.3898 -1.2038 -0.1980
  545TMC3    H2 8146   0.521   3.899  17.276  0.7746 -3.1719  3.2459
  545TMC3    C7 8147   0.569   3.835  17.520 -0.6218 -0.4096 -0.2021
  545TMC3    C8 8148   0.555   4.133  17.139 -0.3500 -0.1632 -0.2872
  545TMC3    O1 8149   0.449   3.830  17.511 -0.3455  0.1992 -0.0492
  545TMC3    O2 8150   0.503   4.054  17.061  0.4469  0.3203  0.1779
  546MPD2     C 8151   2.403   0.069  17.740  0.7626  0.5489  0.8335
  546MPD2    C1 8152   2.316   0.083  17.639  0.4674 -0.2369  0.0527
  546MPD2    C2 8153   2.303   0.205  17.581  0.5204  0.2180 -0.4222
  546MPD2    C3 8154   2.367   0.316  17.623  0.8789  0.2853 -0.2463
  546MPD2    C4 8155   2.457   0.304  17.727 -0.0733 -0.2213 -0.0609
  546MPD2    C5 8156   2.476   0.179   0.032 -0.5880  0.4653 -0.9774
  546MPD2     H 8157   2.234   0.206  17.497 -0.3651 -0.8416  0.2915
  546MPD2    H1 8158   2.508   0.390   0.015 -0.5565  0.9809 -1.9001
  546MPD2    H2 8159   2.433   4.714   0.029  0.4916  0.2895  0.4543
  546MPD2    H3 8160   2.531   0.176   0.125  2.9261  0.3398 -3.0421
  546MPD2     N 8161   2.350   0.442  17.556  0.2186 -0.7600 -0.0576
  546MPD2    H5 8162   2.384   0.528  17.598 -2.0521 -0.4541  1.1818
  546MPD2    N1 8163   2.261   4.701  17.604  0.0455 -0.0869 -0.1668
  546MPD2    H7 8164   2.299   4.622  17.656 -0.1549 -0.0950 -0.0302
  547TMC3    C1 8165   2.125   4.544  17.498 -0.4455  0.5499  0.7448
  547TMC3    C2 8166   2.085   4.494  17.383  0.4436  0.0772 -0.2161
  547TMC3    C3 8167   2.034   4.369  17.371 -0.7934 -0.4570  0.5661
  547TMC3    C4 8168   2.098   4.471  17.616  0.2674  0.2114 -0.5467
  547TMC3    C5 8169   2.054   4.341  17.597 -0.0833  0.0527 -0.0913
  547TMC3    C6 8170   2.019   4.290  17.476 -0.3547  0.2250 -0.3975
  547TMC3     C 8171   2.164   4.684  17.508  0.0175 -0.3935 -0.1223
  547TMC3     O 8172   2.094   0.019  17.446  0.0180 -0.3619  0.1604
  547TMC3     H 8173   2.095   4.553  17.293  1.8630  0.7816  0.3953
  547TMC3    H1 8174   2.103   4.510  17.717  2.8831 -2.4113  0.3547
  547TMC3    H2 8175   1.974   4.193  17.456 -2.2952  0.4831  2.7400
  547TMC3    C7 8176   2.053   4.247  17.708  0.0175 -0.1046 -0.4846
  547TMC3    C8 8177   2.026   4.306  17.242 -0.6106  0.4385 -0.4331
  547TMC3    O1 8178   1.989   4.146  17.713 -0.4273  0.1118 -0.0755
  547TMC3    O2 8179   2.064   4.190  17.227  0.4373  0.6319 -0.1434
  548MPD2     C 8180   2.088   0.386  12.012 -0.0018 -0.6784 -0.5869
  548MPD2    C1 8181   2.106   0.375  12.143  0.6561  0.7504  0.1298
  548MPD2    C2 8182   2.211   0.286  12.187  0.0029 -0.8465 -0.3976
  548MPD2    C3 8183   2.300   0.227  12.100  0.4305 -1.1377  0.7346
  548MPD2    C4 8184   2.276   0.247  11.965 -0.2466  0.2256 -0.8984
  548MPD2    C5 8185   2.169   0.322  11.921 -0.2159  1.3068  0.6068
  548MPD2     H 8186   2.221   0.280  12.295 -0.9055 -0.9189 -0.3167
  548MPD2    H1 8187   2.328   0.199  11.883  3.1936 -1.2719  2.1854
  548MPD2    H2 8188   2.002   0.434  11.966 -0.9493  0.4307  2.3911
  548MPD2    H3 8189   2.146   0.336  11.816  0.5718  0.3136  0.2939
  548MPD2     N 8190   2.409   0.149  12.146  0.0885  0.0955  0.1359
  548MPD2    H5 8191   2.434   0.166  12.243  0.4539 -1.5514  0.3388
  548MPD2    N1 8192   2.019   0.438  12.233 -0.8093  0.0510  1.0309
  548MPD2    H7 8193   1.959   0.506  12.190  1.0822  1.9425  1.3575
  549TMC3    C1 8194   1.856   0.443  12.411 -0.1136  0.3209 -0.4613
  549TMC3    C2 8195   1.806   0.557  12.350  0.2308 -0.1037  0.8923
  549TMC3    C3 8196   1.674   0.584  12.364 -0.1172 -0.5248  0.1166
  549TMC3    C4 8197   1.777   0.351  12.476 -0.0622  0.1027  0.7010
  549TMC3    C5 8198   1.638   0.377  12.464 -0.0920  0.0729 -0.5250
  549TMC3    C6 8199   1.583   0.490  12.416 -0.6039  0.9942 -0.0998
  549TMC3     C 8200   1.983   0.390  12.359 -0.1293  1.1655  0.1140
  549TMC3     O 8201   2.028   0.291  12.408  0.4127 -0.2897 -0.2352
  549TMC3     H 8202   1.876   0.634  12.320 -0.1687  0.1252  0.5421
  549TMC3    H1 8203   1.811   0.250  12.492 -0.9191 -0.5695 -1.6936
  549TMC3    H2 8204   1.476   0.500  12.404 -0.5595 -0.0480 -1.3341
  549TMC3    C7 8205   1.548   0.265  12.498 -0.1316 -0.3369  0.8981
  549TMC3    C8 8206   1.629   0.698  12.287  0.2492 -0.6238  0.1224
  549TMC3    O1 8207   1.434   0.285  12.464 -0.0030 -0.3503 -0.1027
  549TMC3    O2 8208   1.522   0.687  12.226 -0.5724 -0.5311 -0.1125
  550TMC3    C1 8209   1.299   2.762  12.088  0.3634  0.4402 -0.8657
  550TMC3    C2 8210   1.303   2.860  12.181  0.3576  0.3357  0.3629
  550TMC3    C3 8211   1.343   2.986  12.145  0.1164 -0.3960 -0.2171
  550TMC3    C4 8212   1.368   2.791  11.970 -0.3119 -0.1239  0.2600
  550TMC3    C5 8213   1.414   2.913  11.937  0.1855  0.7054  0.4804
  550TMC3    C6 8214   1.396   3.021  12.030  0.4002 -0.2544 -0.3199
  550TMC3     C 8215   1.181   2.684  12.076 -0.0267  0.7806  0.0033
  550TMC3     O 8216   1.122   2.644  12.178  0.1269  0.2830  0.2579
  550TMC3     H 8217   1.266   2.842  12.282 -1.2058  0.1003 -0.2412
  550TMC3    H1 8218   1.377   2.710  11.898 -0.9589 -0.7181  0.8472
  550TMC3    H2 8219   1.436   3.120  12.009 -1.8029  0.6240 -0.3983
  550TMC3    C7 8220   1.367   2.947  11.809 -0.0468  0.1172 -0.1856
  550TMC3    C8 8221   1.285   3.092  12.227 -0.2080 -0.2223 -0.0549
  550TMC3    O1 8222   1.290   2.868  11.762 -0.0482 -0.4518 -0.0744
  550TMC3    O2 8223   1.246   3.193  12.167 -0.7657 -0.1520  0.5224
  551TMC3    C1 8224   3.222   1.215  13.556  0.2868  0.5424 -0.5442
  551TMC3    C2 8225   3.242   1.104  13.474  0.2494 -0.2279  0.4501
  551TMC3    C3 8226   3.347   1.020  13.496  0.0214 -0.6694  0.1445
  551TMC3    C4 8227   3.308   1.246  13.659  0.0908  0.3806 -0.2258
  551TMC3    C5 8228   3.410   1.158  13.683  0.7932  0.2752  0.1133
  551TMC3    C6 8229   3.431   1.043  13.606 -0.9001 -0.0458  0.1079
  551TMC3     C 8230   3.112   1.294  13.520 -0.1656  0.4484  0.6520
  551TMC3     O 8231   3.018   1.240  13.466 -0.0886 -0.1746  0.1209
  551TMC3     H 8232   3.183   1.094  13.384  2.0959 -0.2317 -0.7645
  551TMC3    H1 8233   3.291   1.338  13.714  0.1164 -1.1791  2.3772
  551TMC3    H2 8234   3.517   0.977  13.621 -0.4309  0.2187 -1.3513
  551TMC3    C7 8235   3.507   1.189  13.792  0.0210  0.3159  0.8178
  551TMC3    C8 8236   3.421   0.983  13.382 -0.5988 -0.7877 -0.1071
  551TMC3    O1 8237   3.590   1.094  13.797 -0.2351 -0.3618  0.3501
  551TMC3    O2 8238   3.490   0.883  13.382 -0.4524  0.1539 -0.2200
  552MPD2     C 8239   0.445   3.096  13.887 -0.2209  0.2505  0.1112
  552MPD2    C1 8240   0.486   2.989  13.957  0.1447 -0.5946  0.8670
  552MPD2    C2 8241   0.602   2.981  14.032  0.3502  0.7465 -0.1451
  552MPD2    C3 8242   0.694   3.089  14.031  0.0492  0.2225 -0.4746
  552MPD2    C4 8243   0.653   3.197  13.946  0.0754  0.2798  0.4527
  552MPD2    C5 8244   0.534   3.204  13.887 -0.0459 -0.1224 -0.8103
  552MPD2     H 8245   0.618   2.893  14.094  0.0427  1.6045  1.1436
  552MPD2    H1 8246   0.721   3.281  13.935  0.4730 -0.0433  0.4497
  552MPD2    H2 8247   0.358   3.100  13.823  1.2068 -0.8972 -1.8833
  552MPD2    H3 8248   0.505   3.292  13.829 -1.1942  0.5998  0.8455
  552MPD2     N 8249   0.811   3.098  14.111 -0.6028  0.1538  0.0703
  552MPD2    H5 8250   0.865   3.184  14.104  1.0269 -1.0786 -2.7777
  552MPD2    N1 8251   0.415   2.865  13.947  0.4833 -0.1806 -0.2439
  552MPD2    H7 8252   0.465   2.792  13.996  0.5233  0.2514  0.3549
  553TMC3    C1 8253   0.261   2.690  13.889  0.6889 -0.2333  0.4331
  553TMC3    C2 8254   0.241   2.617  13.776  0.0980 -0.5046  0.1913
  553TMC3    C3 8255   0.275   2.481  13.769  0.1369 -0.2280  0.2777
  553TMC3    C4 8256   0.328   2.626  13.989  0.4189  0.6227 -0.5367
  553TMC3    C5 8257   0.367   2.497  13.982 -0.2880 -0.0488  0.0827
  553TMC3    C6 8258   0.333   2.420  13.877 -0.2822 -0.4480 -0.5254
  553TMC3     C 8259   0.310   2.824  13.866 -0.3160  0.2939  0.8466
  553TMC3     O 8260   0.255   2.885  13.775 -0.0370 -0.1403 -0.2131
  553TMC3     H 8261   0.227   2.666  13.680  0.2052  0.7350  0.8130
  553TMC3    H1 8262   0.349   2.680  14.081  0.7475  1.7108 -1.2519
  553TMC3    H2 8263   0.364   2.317  13.885  1.3402  0.1099  0.3468
  553TMC3    C7 8264   0.511   2.500  13.999  0.4021  0.3069 -0.1294
  553TMC3    C8 8265   0.367   2.471  13.658  0.0083  0.4857 -0.1264
  553TMC3    O1 8266   0.552   2.536  14.109  0.2436 -0.7412  0.0133
  553TMC3    O2 8267   0.438   2.570  13.645 -0.0950 -0.6350 -0.2081
  554TMC3    C1 8268   1.901   2.218  11.319 -0.7592  0.0736 -0.0898
  554TMC3    C2 8269   1.812   2.195  11.221 -0.2881  0.2420 -0.1927
  554TMC3    C3 8270   1.849   2.137  11.104 -0.0656  0.3990 -0.7568
  554TMC3    C4 8271   2.036   2.197  11.301 -0.1598  0.5983 -0.0242
  554TMC3    C5 8272   2.073   2.162  11.174  0.7317  0.2597  0.0805
  554TMC3    C6 8273   1.979   2.124  11.081 -0.1332 -0.6351 -0.1941
  554TMC3     C 8274   1.846   2.235  11.453  0.0490 -0.1663 -0.3309
  554TMC3     O 8275   1.728   2.208  11.474  0.0579 -0.8824  0.1939
  554TMC3     H 8276   1.709   2.225  11.232 -0.4474 -1.2891  2.3928
  554TMC3    H1 8277   2.110   2.199  11.381 -0.3258 -1.6200  0.1802
  554TMC3    H2 8278   2.006   2.075  10.989  2.9136 -2.0935  1.4670
  554TMC3    C7 8279   2.212   2.182  11.131  1.1592 -0.0487 -0.4337
  554TMC3    C8 8280   1.792   2.180  10.979  0.7193  0.3027 -0.6954
  554TMC3    O1 8281   2.221   2.156  11.012  0.3231  0.0005  0.2394
  554TMC3    O2 8282   1.863   2.239  10.900 -0.1455 -0.2578 -0.4346
  555TMC3    C1 8283   1.264   1.789  15.181 -0.2634  0.1367  0.4510
  555TMC3    C2 8284   1.250   1.817  15.314  0.3399  0.5004 -0.1653
  555TMC3    C3 8285   1.224   1.717  15.401 -0.5188  0.1382 -0.6554
  555TMC3    C4 8286   1.292   1.669  15.132  0.3300 -0.0602 -0.0717
  555TMC3    C5 8287   1.268   1.568  15.220  0.1386  0.1975 -0.2264
  555TMC3    C6 8288   1.235   1.591  15.356  0.3558  0.2229 -0.4769
  555TMC3     C 8289   1.317   1.902  15.105  0.1760 -0.1047  0.5550
  555TMC3     O 8290   1.408   1.967  15.155 -0.1635 -0.4713  0.6776
  555TMC3     H 8291   1.226   1.920  15.339  0.0653 -0.0332  1.7448
  555TMC3    H1 8292   1.328   1.657  15.031 -0.5857  1.1394 -0.5507
  555TMC3    H2 8293   1.201   1.508  15.418 -1.8998  2.0456  0.7181
  555TMC3    C7 8294   1.265   1.424  15.188  0.1476  0.1065 -0.0865
  555TMC3    C8 8295   1.167   1.746  15.526 -0.2740 -0.6993  0.6573
  555TMC3    O1 8296   1.220   1.348  15.274  0.0294  0.1823  0.1100
  555TMC3    O2 8297   1.113   1.853  15.541  0.0406  0.2722  0.0141
  556MPD2     C 8298   4.198   3.566  10.762  0.2587 -0.6619  0.2124
  556MPD2    C1 8299   4.185   3.434  10.798  0.2727 -0.2626 -0.1601
  556MPD2    C2 8300   4.131   3.345  10.706  0.6834  0.9258 -0.6105
  556MPD2    C3 8301   4.103   3.380  10.575 -0.0987  0.2109  0.6600
  556MPD2    C4 8302   4.109   3.516  10.544 -0.0910 -0.2690 -0.4639
  556MPD2    C5 8303   4.160   3.602  10.640  0.5179  0.1345  0.4154
  556MPD2     H 8304   4.125   3.241  10.735  1.3904  1.0226 -0.1159
  556MPD2    H1 8305   4.092   3.573  10.453 -0.8864  0.7169  0.2916
  556MPD2    H2 8306   4.243   3.637  10.830 -1.3789 -0.0382  0.6461
  556MPD2    H3 8307   4.183   3.704  10.610  0.1399 -0.0351 -0.4493
  556MPD2     N 8308   4.080   3.276  10.484 -0.6395 -0.2803 -0.5595
  556MPD2    H5 8309   4.081   3.184  10.527 -0.1639  1.2488  2.7356
  556MPD2    N1 8310   4.232   3.379  10.919 -0.2888  0.3144  0.4372
  556MPD2    H7 8311   4.232   3.278  10.930  1.0014  0.0797 -1.7087
  557TMC3    C1 8312   4.003   3.163  10.297  0.0131  0.7502  0.3538
  557TMC3    C2 8313   3.944   3.165  10.174  0.9440 -0.0562  0.1330
  557TMC3    C3 8314   3.908   3.048  10.115 -0.8080 -0.0401 -0.1828
  557TMC3    C4 8315   4.042   3.046  10.357 -0.5052  0.0640  0.3997
  557TMC3    C5 8316   4.014   2.928  10.290  0.2694  0.1396 -0.2777
  557TMC3    C6 8317   3.949   2.927  10.166  0.3339  0.2817 -1.1467
  557TMC3     C 8318   4.048   3.290  10.351  0.2685 -0.3834 -0.0375
  557TMC3     O 8319   4.059   3.393  10.284 -0.5124 -0.0293  0.5430
  557TMC3     H 8320   3.918   3.258  10.124 -0.1869 -0.9005 -0.8279
  557TMC3    H1 8321   4.083   3.048  10.458 -1.8895 -0.2908  0.9585
  557TMC3    H2 8322   3.931   2.838  10.107  0.4540 -0.1350 -0.5537
  557TMC3    C7 8323   4.006   2.795  10.358  0.4408  0.6249  0.7034
  557TMC3    C8 8324   3.811   3.054  10.009  0.6975 -0.4256  0.5118
  557TMC3    O1 8325   3.945   2.709  10.292 -0.2257 -0.2040 -0.1991
  557TMC3    O2 8326   3.799   3.164   9.953 -0.3988 -0.4900  0.2582
  558TMC3    C1 8327   1.636   0.986  10.176  0.5624 -0.0456 -0.2963
  558TMC3    C2 8328   1.517   0.961  10.229 -0.3440 -0.4862  1.2082
  558TMC3    C3 8329   1.407   0.988  10.145  0.0278 -0.8990  1.1057
  558TMC3    C4 8330   1.655   1.044  10.053  0.0551 -0.7701  0.2035
  558TMC3    C5 8331   1.548   1.048   9.971  0.0154 -0.3039 -0.1929
  558TMC3    C6 8332   1.420   1.022  10.010  0.0430  0.1897 -0.0454
  558TMC3     C 8333   1.754   0.939  10.234  0.4988 -1.1684  0.4740
  558TMC3     O 8334   1.859   0.955  10.173  0.3819 -0.2042  0.7561
  558TMC3     H 8335   1.503   0.907  10.323 -0.4452 -1.5153  0.6051
  558TMC3    H1 8336   1.751   1.072  10.011  0.5143 -2.6620 -0.0284
  558TMC3    H2 8337   1.335   1.045   9.946 -0.0300  1.0475  0.3588
  558TMC3    C7 8338   1.572   1.085   9.834  0.1916  0.1606  0.2362
  558TMC3    C8 8339   1.275   0.993  10.196 -0.0317  0.0717  0.6165
  558TMC3    O1 8340   1.691   1.112   9.814 -0.2289 -0.1863 -0.1785
  558TMC3    O2 8341   1.190   1.017  10.111  0.1789  0.2429 -0.1401
  559MPD2     C 8342   1.684   1.946  10.510  0.1066 -0.2172  0.3416
  559MPD2    C1 8343   1.591   1.881  10.583 -0.3168  0.0217 -0.7526
  559MPD2    C2 8344   1.631   1.818  10.699 -0.2861  0.6569  0.4050
  559MPD2    C3 8345   1.759   1.825  10.744  0.4377 -0.2546 -0.5276
  559MPD2    C4 8346   1.843   1.910  10.676 -0.1284  0.5379 -0.6647
  559MPD2    C5 8347   1.810   1.956  10.555 -0.2530 -0.3003  0.2735
  559MPD2     H 8348   1.561   1.765  10.762  1.2256 -0.0384  1.5107
  559MPD2    H1 8349   1.944   1.931  10.711 -1.0074  1.4213  1.3532
  559MPD2    H2 8350   1.670   1.997  10.416  0.4871 -0.8619 -0.0686
  559MPD2    H3 8351   1.875   2.019  10.495 -3.0104  0.5425 -1.8296
  559MPD2     N 8352   1.779   1.757  10.868 -0.2628  0.2594  0.2921
  559MPD2    H5 8353   1.713   1.684  10.894  0.6013 -0.0601  1.5817
  559MPD2    N1 8354   1.458   1.878  10.541  0.9607  0.4836 -0.3817
  559MPD2    H7 8355   1.433   1.943  10.467  1.0072  0.5489 -0.3407
  560TMC3    C1 8356   1.900   1.671  11.054 -0.0042 -0.5842 -0.2776
  560TMC3    C2 8357   1.813   1.571  11.063 -0.3167  0.2017  0.4903
  560TMC3    C3 8358   1.827   1.471  11.154  0.0198 -0.5502  1.0573
  560TMC3    C4 8359   2.018   1.664  11.123  0.4122  0.4957  0.2983
  560TMC3    C5 8360   2.040   1.553  11.208  0.2688 -0.3192 -0.7470
  560TMC3    C6 8361   1.942   1.463  11.232  0.0478  0.1443 -0.8085
  560TMC3     C 8362   1.895   1.762  10.944 -0.1530  0.1991  0.7700
  560TMC3     O 8363   1.995   1.825  10.913 -0.1314 -0.6443 -0.6562
  560TMC3     H 8364   1.716   1.574  11.014 -0.1154  2.2692  0.2143
  560TMC3    H1 8365   2.086   1.749  11.118 -0.1138  1.0612  2.9325
  560TMC3    H2 8366   1.961   1.394  11.313  1.3886  0.7663 -0.5832
  560TMC3    C7 8367   2.160   1.566  11.295  0.1012 -0.4483  0.7826
  560TMC3    C8 8368   1.724   1.362  11.168 -0.5077  0.4441  0.2007
  560TMC3    O1 8369   2.146   1.532  11.411 -0.3751 -0.2774  0.0867
  560TMC3    O2 8370   1.640   1.360  11.076  0.4408  0.2426  0.1061
  561TMC3    C1 8371   0.201   0.832  11.419 -0.6374  0.5457  0.3573
  561TMC3    C2 8372   0.133   0.728  11.475 -0.9177 -0.1547 -0.9332
  561TMC3    C3 8373   0.007   0.753  11.519 -0.7433  0.0155 -0.1464
  561TMC3    C4 8374   0.162   0.961  11.433  0.9583 -0.3283 -0.7184
  561TMC3    C5 8375   0.034   0.981  11.480  0.6217 -0.3314  0.2004
  561TMC3    C6 8376   4.694   0.882  11.528 -0.7804 -0.1334  0.4883
  561TMC3     C 8377   0.339   0.812  11.377 -0.3970  0.2822 -0.7029
  561TMC3     O 8378   0.388   0.708  11.419 -0.1559  0.0550 -0.1568
  561TMC3     H 8379   0.168   0.626  11.467 -0.5893 -0.2707  1.7854
  561TMC3    H1 8380   0.221   1.041  11.389  1.2994 -0.5569 -0.6844
  561TMC3    H2 8381   4.598   0.903  11.573 -0.4083 -0.6323  1.5148
  561TMC3    C7 8382   4.713   1.114  11.478  0.2147  0.4057  0.0319
  561TMC3    C8 8383   4.694   0.646  11.601 -0.5178 -0.0589  0.0762
  561TMC3    O1 8384   4.621   1.136  11.555  0.4468 -0.1865  0.0761
  561TMC3    O2 8385   4.739   0.538  11.572  0.4110 -0.4795  0.0771
  562TMC3    C1 8386   1.170   2.293  16.175  0.2789 -0.0110  0.0787
  562TMC3    C2 8387   1.127   2.307  16.048 -0.1008 -0.1682 -0.2250
  562TMC3    C3 8388   1.135   2.194  15.966  0.2506  0.2598  0.2989
  562TMC3    C4 8389   1.228   2.186  16.230 -0.1647  0.5592 -0.2156
  562TMC3    C5 8390   1.232   2.071  16.151  0.0830  0.3560  0.6954
  562TMC3    C6 8391   1.185   2.078  16.022  0.1844 -0.7376  0.1720
  562TMC3     C 8392   1.118   2.391  16.260 -0.0935 -0.2807 -0.5298
  562TMC3     O 8393   0.998   2.420  16.245 -0.0781 -0.6247  0.2485
  562TMC3     H 8394   1.059   2.386  16.016 -2.9078 -1.3861  2.7024
  562TMC3    H1 8395   1.264   2.191  16.332 -1.2816  0.5591  0.1799
  562TMC3    H2 8396   1.164   1.987  15.967  3.6833 -0.3339 -1.7890
  562TMC3    C7 8397   1.300   1.953  16.208 -0.6174  0.0696 -0.0940
  562TMC3    C8 8398   1.008   2.181  15.888 -0.7316  0.6937 -1.0193
  562TMC3    O1 8399   1.330   1.957  16.331 -0.1093 -0.1168  0.3908
  562TMC3    O2 8400   0.907   2.233  15.935 -0.0758  0.4440 -0.3991
  563MPD2     C 8401   3.410   3.588  15.723 -0.0126  0.3546 -0.0692
  563MPD2    C1 8402   3.421   3.538  15.852  0.7245  0.0355  0.2381
  563MPD2    C2 8403   3.527   3.451  15.880  0.0005 -0.0258  0.3250
  563MPD2    C3 8404   3.615   3.396  15.787 -0.3605 -0.1799 -0.2620
  563MPD2    C4 8405   3.602   3.449  15.659  0.2604 -0.0693 -0.7481
  563MPD2    C5 8406   3.500   3.537  15.632  0.4775 -0.0676 -0.6570
  563MPD2     H 8407   3.529   3.404  15.978  1.4169  1.0768  0.8269
  563MPD2    H1 8408   3.660   3.407  15.577  1.1757  0.7099 -0.5026
  563MPD2    H2 8409   3.340   3.663  15.690 -0.0584 -0.5630 -2.0809
  563MPD2    H3 8410   3.500   3.572  15.530 -0.3844 -1.0687 -0.9998
  563MPD2     N 8411   3.704   3.293  15.829 -0.4564 -0.3412 -0.3902
  563MPD2    H5 8412   3.709   3.279  15.930 -0.5913 -1.0463 -0.4815
  563MPD2    N1 8413   3.329   3.584  15.944 -0.3224  0.0994  0.6210
  563MPD2    H7 8414   3.263   3.655  15.912 -0.6312 -1.2391 -1.7279
  564TMC3    C1 8415   3.226   3.519  16.145  0.2225 -0.4170  0.1548
  564TMC3    C2 8416   3.120   3.486  16.066  0.6058 -0.6412 -0.7876
  564TMC3    C3 8417   3.050   3.381  16.102 -0.3287 -0.2982  0.6809
  564TMC3    C4 8418   3.257   3.447  16.256 -0.1475  0.3134  0.7291
  564TMC3    C5 8419   3.188   3.334  16.289  0.6856 -0.0398 -0.0183
  564TMC3    C6 8420   3.081   3.303  16.209 -0.1728  0.4411 -0.3365
  564TMC3     C 8421   3.345   3.562  16.081  0.6142  0.1724 -0.2858
  564TMC3     O 8422   3.443   3.533  16.149 -0.5880  0.4521  0.1961
  564TMC3     H 8423   3.091   3.549  15.982 -1.0871 -1.1118 -0.5561
  564TMC3    H1 8424   3.345   3.459  16.318  1.3961 -2.4531 -0.9603
  564TMC3    H2 8425   3.026   3.214  16.235 -0.5104 -0.4469 -4.0557
  564TMC3    C7 8426   3.274   3.222  16.324  0.6731 -0.7623  0.8578
  564TMC3    C8 8427   3.029   3.292  15.996  0.3335  0.2683 -0.7026
  564TMC3    O1 8428   3.228   3.131  16.388  0.0883  0.1388 -0.4540
  564TMC3    O2 8429   2.944   3.206  16.015 -0.2628 -0.4946 -0.3548
  565TMC3    C1 8430   4.257   4.429  10.221  0.3109  0.0794 -0.2268
  565TMC3    C2 8431   4.211   4.318  10.279  0.5556 -0.0182 -0.1328
  565TMC3    C3 8432   4.192   4.207  10.203  0.3872 -0.3300  0.2386
  565TMC3    C4 8433   4.286   4.436  10.087 -0.4200  0.2651  0.7303
  565TMC3    C5 8434   4.299   4.315  10.020  0.9021  0.3552  1.3766
  565TMC3    C6 8435   4.253   4.203  10.081 -0.4523  0.3055 -0.0144
  565TMC3     C 8436   4.272   4.553  10.301  0.2171 -0.0436 -1.0494
  565TMC3     O 8437   4.308   4.657  10.248  0.3099  0.4617  0.4636
  565TMC3     H 8438   4.180   4.313  10.383  1.3282 -0.8601  0.0565
  565TMC3    H1 8439   4.321   4.533  10.057  0.0659 -0.3969 -0.8338
  565TMC3    H2 8440   4.247   4.110  10.026  2.2880  1.0695 -1.5778
  565TMC3    C7 8441   4.322   4.313   9.878  0.3033 -0.1621  0.1540
  565TMC3    C8 8442   4.117   4.092  10.260 -0.7530 -0.1278  0.4120
  565TMC3    O1 8443   4.280   4.215   9.819 -0.3279 -0.1628 -0.0311
  565TMC3    O2 8444   4.098   4.081  10.382 -0.4832  0.3492 -0.1819
  566MPD2     C 8445   0.620   1.664  13.795  0.6394 -0.5182 -0.2762
  566MPD2    C1 8446   0.712   1.560  13.806  0.3449 -0.2407  0.4402
  566MPD2    C2 8447   0.680   1.428  13.775 -0.1227 -0.2072 -0.1791
  566MPD2    C3 8448   0.548   1.401  13.735 -0.4262  0.1674 -0.0651
  566MPD2    C4 8449   0.452   1.502  13.736 -0.6102  0.2426  0.2313
  566MPD2    C5 8450   0.493   1.626  13.764  0.5530  0.2719  0.4233
  566MPD2     H 8451   0.751   1.348  13.794 -1.2119 -1.0600  0.2707
  566MPD2    H1 8452   0.358   1.486  13.683 -0.3315 -0.8507  0.0630
  566MPD2    H2 8453   0.637   1.770  13.809 -1.1217 -0.1595 -0.8898
  566MPD2    H3 8454   0.427   1.705  13.728  0.5457  0.2238  0.3315
  566MPD2     N 8455   0.510   1.266  13.687 -0.0412 -0.4202 -0.1220
  566MPD2    H5 8456   0.410   1.246  13.687  0.2218 -1.6762 -1.3227
  566MPD2    N1 8457   0.846   1.595  13.839 -0.5449 -0.0880  0.1235
  566MPD2    H7 8458   0.870   1.693  13.836  1.0810 -0.6003 -3.3644
  567TMC3    C1 8459   1.062   1.563  13.882 -0.0125  0.4048  0.2086
  567TMC3    C2 8460   1.106   1.642  13.780  0.8890  0.0062 -0.9603
  567TMC3    C3 8461   1.220   1.713  13.799 -0.1790 -0.6926  0.1085
  567TMC3    C4 8462   1.141   1.540  13.993 -0.7819 -0.2206 -0.6948
  567TMC3    C5 8463   1.257   1.611  14.011  0.5291  0.6255 -0.1078
  567TMC3    C6 8464   1.291   1.705  13.918  0.7997  0.7158  0.2071
  567TMC3     C 8465   0.935   1.501  13.885  0.0293  0.2944 -0.1850
  567TMC3     O 8466   0.920   1.394  13.942 -0.0933  0.3739 -0.4046
  567TMC3     H 8467   1.038   1.665  13.698  0.1920  2.8199  0.4013
  567TMC3    H1 8468   1.113   1.468  14.069 -0.6751  0.8702  0.3831
  567TMC3    H2 8469   1.377   1.767  13.937  1.4262  0.2950 -1.1894
  567TMC3    C7 8470   1.281   1.663  14.149  0.0434 -0.5653 -0.3083
  567TMC3    C8 8471   1.285   1.745  13.675  0.2512 -0.2352  0.1842
  567TMC3    O1 8472   1.354   1.763  14.158 -0.0332  0.5622 -0.9386
  567TMC3    O2 8473   1.203   1.778  13.589  0.2201 -0.1109 -0.9898
  568MPD2     C 8474   3.068   1.796  16.079  0.1176 -0.0719 -0.0665
  568MPD2    C1 8475   3.069   1.886  16.176 -0.0168 -0.2446 -0.5897
  568MPD2    C2 8476   3.112   2.014  16.157 -0.3730  0.5538 -0.5749
  568MPD2    C3 8477   3.143   2.057  16.021  1.0411  0.0521  0.5714
  568MPD2    C4 8478   3.131   1.968  15.917 -0.7438 -0.4305  0.0362
  568MPD2    C5 8479   3.094   1.839  15.949  0.8606 -0.1048 -0.1755
  568MPD2     H 8480   3.114   2.088  16.236  0.2224  1.3926 -1.3803
  568MPD2    H1 8481   3.157   1.992  15.814  0.9275  1.7186  0.9359
  568MPD2    H2 8482   3.027   1.698  16.103  1.1291 -0.8989 -1.6765
  568MPD2    H3 8483   3.094   1.774  15.861  0.7840 -0.6223  0.2061
  568MPD2     N 8484   3.208   2.186  16.004 -0.1146 -0.2980  0.0781
  568MPD2    H5 8485   3.210   2.244  16.087 -2.3167 -0.1453  0.0424
  568MPD2    N1 8486   3.039   1.843  16.303  0.1239 -0.3809 -0.0842
  568MPD2    H7 8487   2.998   1.751  16.306 -1.7777  0.5445  1.8073
  569TMC3    C1 8488   3.304   2.386  15.940  0.1360  0.9118 -0.3497
  569TMC3    C2 8489   3.308   2.413  16.074 -0.1233 -0.1579  0.0591
  569TMC3    C3 8490   3.312   2.542  16.117  0.6186 -0.1492  0.4871
  569TMC3    C4 8491   3.310   2.491  15.847 -0.8540  0.0023  0.2201
  569TMC3    C5 8492   3.306   2.620  15.896 -0.1191 -0.5700 -0.5954
  569TMC3    C6 8493   3.302   2.649  16.030  0.2829  0.6915  0.1570
  569TMC3     C 8494   3.244   2.260  15.895 -0.0981  0.0167 -0.0207
  569TMC3     O 8495   3.242   2.231  15.775  0.1459  0.1529 -0.5354
  569TMC3     H 8496   3.306   2.344  16.158  2.1017 -1.1870 -0.7365
  569TMC3    H1 8497   3.317   2.462  15.743 -0.3121 -0.1415  0.3007
  569TMC3    H2 8498   3.295   2.749  16.071  0.8359 -0.2476  2.5137
  569TMC3    C7 8499   3.309   2.732  15.795  0.4069  0.7796  0.8534
  569TMC3    C8 8500   3.363   2.580  16.244 -0.4551 -0.1548  0.7060
  569TMC3    O1 8501   3.384   2.741  15.698 -0.0681  0.5533  0.4295
  569TMC3    O2 8502   3.322   2.689  16.287 -0.1902  0.0152 -0.0252
  570TMC3    C1 8503   2.350   0.876  15.655  0.5616 -0.8341  0.2275
  570TMC3    C2 8504   2.476   0.874  15.601  0.0448  0.5463 -0.0205
  570TMC3    C3 8505   2.528   0.988  15.549  0.4336 -0.4001 -0.4268
  570TMC3    C4 8506   2.274   0.987  15.655 -0.5152  0.3526 -0.0040
  570TMC3    C5 8507   2.336   1.112  15.608  0.3773  0.2145  0.6918
  570TMC3    C6 8508   2.462   1.110  15.551 -0.2118 -0.2560  0.3944
  570TMC3     C 8509   2.324   0.755  15.734  0.4168 -0.6459 -0.2597
  570TMC3     O 8510   2.355   0.644  15.693 -0.3094 -0.1944 -0.1288
  570TMC3     H 8511   2.538   0.786  15.614 -0.0980  0.2863 -1.1488
  570TMC3    H1 8512   2.178   0.983  15.706  0.9910 -0.4160  2.7658
  570TMC3    H2 8513   2.508   1.204  15.521 -0.0163 -0.3482  0.4009
  570TMC3    C7 8514   2.298   1.243  15.664 -0.2845 -0.6461 -0.1941
  570TMC3    C8 8515   2.670   0.983  15.535  0.0506  0.7537 -0.1082
  570TMC3    O1 8516   2.380   1.334  15.668 -0.2952  0.9408 -0.7507
  570TMC3    O2 8517   2.735   1.079  15.586 -0.1823 -0.6440 -0.1343
  571MPD2     C 8518   0.316   2.567   0.318 -0.4144  0.4934 -0.1419
  571MPD2    C1 8519   0.373   2.660   0.235 -0.3147  0.2393 -0.7391
  571MPD2    C2 8520   0.444   2.760   0.288 -0.3459 -0.5933 -0.2744
  571MPD2    C3 8521   0.478   2.767   0.422 -0.5428 -0.1945 -0.2420
  571MPD2    C4 8522   0.436   2.664   0.503 -0.3597 -0.4353 -0.5812
  571MPD2    C5 8523   0.348   2.574   0.449  0.2565 -0.3106 -0.5180
  571MPD2     H 8524   0.490   2.833   0.221  2.1897 -2.6166 -0.7302
  571MPD2    H1 8525   0.461   2.662   0.608 -1.8364 -2.8579 -0.2792
  571MPD2    H2 8526   0.250   2.489   0.282 -0.8489  1.2910 -1.0941
  571MPD2    H3 8527   0.319   2.491   0.512 -1.6854  0.2659 -0.6568
  571MPD2     N 8528   0.562   2.872   0.472 -0.0136 -0.0266  0.6211
  571MPD2    H5 8529   0.593   2.865   0.569  1.8986 -0.0666  0.0058
  571MPD2    N1 8530   0.319   2.670   0.103 -0.7488  0.0003 -0.0943
  571MPD2    H7 8531   0.261   2.594   0.068  1.3286 -1.6855  0.1167
  572TMC3    C1 8532   0.660   3.090   0.477 -0.5307  0.2337  0.7431
  572TMC3    C2 8533   0.747   3.051   0.577  0.1960 -0.7592  0.0024
  572TMC3    C3 8534   0.833   3.146   0.624 -0.1210  0.0165 -0.5486
  572TMC3    C4 8535   0.645   3.218   0.458  0.2572 -0.9332 -0.4652
  572TMC3    C5 8536   0.726   3.311   0.508 -0.2959  0.9215 -0.2491
  572TMC3    C6 8537   0.825   3.282   0.593 -0.2256  0.3166 -0.3635
  572TMC3     C 8538   0.580   2.993   0.402 -0.5800  0.3934 -0.4201
  572TMC3     O 8539   0.522   3.036   0.301 -0.1397 -0.3016  0.8990
  572TMC3     H 8540   0.789   2.951   0.573  0.3167 -0.7940  1.8937
  572TMC3    H1 8541   0.581   3.243   0.374  0.4839 -3.5145 -1.3985
  572TMC3    H2 8542   0.897   3.354   0.632 -0.7813 -0.0617  1.3786
  572TMC3    C7 8543   0.702   3.444   0.464 -0.0748 -0.0634  0.2220
  572TMC3    C8 8544   0.914   3.112   0.743  0.0397 -0.0289  0.0889
  572TMC3    O1 8545   0.583   3.472   0.443  0.0397  0.4639  0.1888
  572TMC3    O2 8546   0.972   3.204   0.798  0.2465  0.4224 -0.0797
  573MPD2     C 8547   1.174   2.683   0.797  0.5695  0.2844 -0.1818
  573MPD2    C1 8548   1.236   2.809   0.797 -0.3955  0.2619  0.2122
  573MPD2    C2 8549   1.198   2.902   0.697 -0.3367 -0.6052  0.5975
  573MPD2    C3 8550   1.127   2.864   0.590 -0.0380 -0.1700 -0.4016
  573MPD2    C4 8551   1.055   2.748   0.604 -0.0362  0.0409  0.5360
  573MPD2    C5 8552   1.076   2.654   0.704  0.0604  0.1044  0.2763
  573MPD2     H 8553   1.249   2.997   0.693  0.9655 -1.2625  1.7597
  573MPD2    H1 8554   0.972   2.731   0.537  1.1001  0.2977 -0.9301
  573MPD2    H2 8555   1.202   2.608   0.870  0.0177  0.6767  0.4342
  573MPD2    H3 8556   1.020   2.562   0.706 -1.2841  0.9699  2.4776
  573MPD2     N 8557   1.104   2.954   0.479  0.4435  0.2382 -0.2823
  573MPD2    H5 8558   1.045   2.920   0.403 -2.0491 -2.3194  2.7844
  573MPD2    N1 8559   1.333   2.844   0.896 -0.7394 -0.2184  0.3873
  573MPD2    H7 8560   1.368   2.770   0.956 -0.8896 -1.5035 -1.1254
  574TMC3    C1 8561   1.141   3.149   0.340  0.4575  0.5036  0.0585
  574TMC3    C2 8562   1.020   3.158   0.277  0.6519  0.2746  0.3849
  574TMC3    C3 8563   1.010   3.238   0.169  0.4918  0.0503 -0.2666
  574TMC3    C4 8564   1.256   3.219   0.299  0.5898  0.5732  0.5245
  574TMC3    C5 8565   1.241   3.288   0.184 -0.2260 -0.4497 -0.7657
  574TMC3    C6 8566   1.121   3.301   0.117  0.2933 -0.3802  0.5464
  574TMC3     C 8567   1.163   3.084   0.468 -0.3700  0.1424  0.2433
  574TMC3     O 8568   1.250   3.142   0.538  0.0565  0.0201  0.0027
  574TMC3     H 8569   0.930   3.106   0.307  1.7116 -1.9064 -0.2154
  574TMC3    H1 8570   1.345   3.219   0.360  2.0222  1.9154 -1.5714
  574TMC3    H2 8571   1.116   3.349   0.020 -1.5356 -0.2805  0.6812
  574TMC3    C7 8572   1.357   3.322   0.101 -0.2836  0.4830 -0.7553
  574TMC3    C8 8573   0.874   3.272   0.124  0.1790 -0.3715  0.6613
  574TMC3    O1 8574   1.341   3.383  17.750  0.0853 -0.3956 -0.0275
  574TMC3    O2 8575   0.786   3.188   0.157  0.0370  0.1124 -0.0531
  575TMC3    C1 8576   3.871   3.615  10.860 -0.1563  0.7198  0.3936
  575TMC3    C2 8577   3.844   3.486  10.827  0.0984 -1.0114  0.3250
  575TMC3    C3 8578   3.766   3.460  10.724 -0.4884 -0.4422 -0.1504
  575TMC3    C4 8579   3.834   3.717  10.779  0.1684  1.3494 -0.0785
  575TMC3    C5 8580   3.759   3.688  10.674  0.1312  0.2849 -0.3611
  575TMC3    C6 8581   3.718   3.561  10.644 -0.2804  0.4887  0.4657
  575TMC3     C 8582   3.948   3.650  10.981 -0.0863  0.6937 -0.3927
  575TMC3     O 8583   3.984   3.764  10.989  0.3033  0.0000 -0.3262
  575TMC3     H 8584   3.902   3.412  10.882  0.4439 -0.5864  0.5304
  575TMC3    H1 8585   3.857   3.820  10.804  0.2240  1.7474 -1.7845
  575TMC3    H2 8586   3.652   3.545  10.560 -2.2919 -2.0595  2.5437
  575TMC3    C7 8587   3.784   3.775  10.563 -0.1114 -0.2553 -0.0386
  575TMC3    C8 8588   3.752   3.332  10.670 -1.4746  1.0682  0.0524
  575TMC3    O1 8589   3.826   3.884  10.595  0.1344  0.4644 -0.0033
  575TMC3    O2 8590   3.704   3.322  10.556 -0.1366  0.1706 -0.0453
  576MPD2     C 8591   3.594   0.523  12.560 -0.5375 -0.2291 -0.3583
  576MPD2    C1 8592   3.566   0.624  12.476 -0.3688 -0.0292 -0.8122
  576MPD2    C2 8593   3.467   0.713  12.505  0.0044 -0.2279 -0.1549
  576MPD2    C3 8594   3.396   0.711  12.625 -0.0185 -0.0781 -0.4406
  576MPD2    C4 8595   3.411   0.606  12.706  0.4802  0.0583 -0.1981
  576MPD2    C5 8596   3.513   0.516  12.675 -0.0175  0.5224  1.0376
  576MPD2     H 8597   3.446   0.795  12.437  0.5617 -0.2573 -0.3644
  576MPD2    H1 8598   3.347   0.591  12.792  0.9703  0.7230  0.2900
  576MPD2    H2 8599   3.679   0.458  12.548 -1.3143 -1.3336  0.0858
  576MPD2    H3 8600   3.538   0.431  12.736  1.7740  0.2931 -0.0211
  576MPD2     N 8601   3.317   0.826  12.654 -0.8134  0.2279  0.7473
  576MPD2    H5 8602   3.328   0.905  12.592 -1.9398  1.3294  1.9672
  576MPD2    N1 8603   3.655   0.642  12.362 -0.4649  0.3298  0.0015
  576MPD2    H7 8604   3.628   0.724  12.309  0.0855  1.0030  0.7578
  577TMC3    C1 8605   3.848   0.632  12.229  0.1957 -0.2533  0.9580
  577TMC3    C2 8606   3.931   0.550  12.169  0.0200 -0.3065 -0.1835
  577TMC3    C3 8607   4.027   0.608  12.091  0.2201  0.2419 -0.6284
  577TMC3    C4 8608   3.840   0.769  12.211 -0.1951 -0.8733 -0.6169
  577TMC3    C5 8609   3.939   0.823  12.131 -0.8988  0.0808  0.2115
  577TMC3    C6 8610   4.029   0.747  12.066 -0.3958 -0.4336 -1.3571
  577TMC3     C 8611   3.766   0.569  12.324 -0.0371 -0.2755  0.6502
  577TMC3     O 8612   3.795   0.453  12.357  0.1607 -0.1743  0.1300
  577TMC3     H 8613   3.931   0.442  12.179  0.3694 -0.4271 -1.4754
  577TMC3    H1 8614   3.778   0.830  12.277  1.6716  2.1170 -1.6400
  577TMC3    H2 8615   4.092   0.801  11.996  0.4510 -0.6732 -0.7856
  577TMC3    C7 8616   3.921   0.955  12.070  0.6285 -0.2818  0.2778
  577TMC3    C8 8617   4.140   0.526  12.062  0.3231  0.5364 -0.5501
  577TMC3    O1 8618   4.022   1.010  12.028  0.0166 -1.3210 -0.6011
  577TMC3    O2 8619   4.132   0.411  12.093 -0.1923  0.5655 -0.4616
  578MPD2     C 8620   1.708   1.697   1.163  0.2953  0.3604  1.0664
  578MPD2    C1 8621   1.768   1.636   1.054  0.3029 -0.2874 -0.1114
  578MPD2    C2 8622   1.894   1.576   1.068  0.0528  0.1328  0.3569
  578MPD2    C3 8623   1.961   1.588   1.187 -0.0769 -0.7836  0.1466
  578MPD2    C4 8624   1.896   1.648   1.293  0.4828 -0.5650  0.2092
  578MPD2    C5 8625   1.764   1.693   1.285  0.2902 -0.1078  0.0589
  578MPD2     H 8626   1.949   1.534   0.985  0.6962  2.0718 -0.1985
  578MPD2    H1 8627   1.939   1.649   1.393 -1.6094  3.8995  1.0650
  578MPD2    H2 8628   1.609   1.739   1.159  0.4121  0.6057  0.7880
  578MPD2    H3 8629   1.704   1.726   1.369  0.1944  1.0294 -0.4500
  578MPD2     N 8630   2.091   1.520   1.204  0.2912  0.1729 -0.3629
  578MPD2    H5 8631   2.113   1.470   1.119 -0.2112 -0.7737  0.0508
  578MPD2    N1 8632   1.705   1.646   0.930  0.2337 -0.6016 -0.3641
  578MPD2    H7 8633   1.622   1.705   0.934  0.8893  0.4022 -1.6947
  579TMC3    C1 8634   2.276   1.434   1.296 -0.9813 -0.6060 -0.3459
  579TMC3    C2 8635   2.401   1.486   1.318 -0.3897  0.0055  0.6977
  579TMC3    C3 8636   2.495   1.384   1.303 -0.3401  0.1470  0.4706
  579TMC3    C4 8637   2.246   1.310   1.252 -0.1287 -0.3222 -0.2597
  579TMC3    C5 8638   2.341   1.219   1.250 -0.0348  0.0942 -0.8788
  579TMC3    C6 8639   2.475   1.254   1.269 -1.0412  0.6213 -0.1256
  579TMC3     C 8640   2.162   1.513   1.320 -0.4712  0.1303  0.1931
  579TMC3     O 8641   2.159   1.580   1.426  0.0622 -0.2245 -0.1123
  579TMC3     H 8642   2.426   1.584   1.356  3.2930 -0.1345 -1.3785
  579TMC3    H1 8643   2.144   1.276   1.236 -0.5630  0.4268  0.8793
  579TMC3    H2 8644   2.557   1.185   1.255 -0.4560  1.7537 -2.1521
  579TMC3    C7 8645   2.321   1.092   1.186  0.4594  0.1326  0.6204
  579TMC3    C8 8646   2.633   1.433   1.334 -0.9608  0.3270  0.5490
  579TMC3    O1 8647   2.413   1.009   1.203 -0.0602 -0.5968 -0.3633
  579TMC3    O2 8648   2.642   1.523   1.416 -0.3826 -0.0500  0.0482
  580TMC3    C1 8649   1.658   4.590  11.805  0.2238  0.6990 -0.0417
  580TMC3    C2 8650   1.738   4.588  11.699  0.6129 -0.5026  0.3448
  580TMC3    C3 8651   1.867   4.552  11.723  0.0414 -0.2890  0.0142
  580TMC3    C4 8652   1.703   4.545  11.926 -0.0081  0.0065 -0.0188
  580TMC3    C5 8653   1.826   4.486  11.937  0.3627 -0.2145 -0.1950
  580TMC3    C6 8654   1.915   4.497  11.838  0.1604 -1.0886 -0.6843
  580TMC3     C 8655   1.592   4.719  11.809  0.3558 -0.1100  0.0119
  580TMC3     O 8656   1.548   0.018  11.703  0.0134 -0.0644  0.2499
  580TMC3     H 8657   1.716   4.636  11.605  1.1414  2.7710  1.8916
  580TMC3    H1 8658   1.633   4.530  12.008 -0.9581 -3.5853 -1.4545
  580TMC3    H2 8659   2.021   4.479  11.848  0.4621  1.1177  0.0654
  580TMC3    C7 8660   1.843   4.399  12.052  0.4758  0.7683  0.4496
  580TMC3    C8 8661   1.954   4.607  11.628 -0.1857 -0.4398 -0.1707
  580TMC3    O1 8662   1.777   4.428  12.145  0.3299 -0.9081 -0.7311
  580TMC3    O2 8663   1.920   4.598  11.515 -0.3193  0.2484  0.0915
  581MPD2     C 8664   4.023   4.226  14.962  0.5699 -0.6000  0.0114
  581MPD2    C1 8665   3.895   4.271  14.945  0.6174 -0.0589  0.0173
  581MPD2    C2 8666   3.847   4.329  14.827  0.4508  0.2783 -0.4733
  581MPD2    C3 8667   3.940   4.345  14.726  0.0440 -1.1721  0.0871
  581MPD2    C4 8668   4.072   4.311  14.748 -0.1221  0.5176 -0.2728
  581MPD2    C5 8669   4.115   4.257  14.865 -0.4034 -0.6597 -1.2677
  581MPD2     H 8670   3.750   4.376  14.820  0.9942  1.3415 -0.9537
  581MPD2    H1 8671   4.149   4.319  14.673 -0.1906 -0.2181 -0.4265
  581MPD2    H2 8672   4.052   4.178  15.054  2.5707  2.3491  0.9270
  581MPD2    H3 8673   4.211   4.211  14.881 -0.3218 -0.0696 -0.0796
  581MPD2     N 8674   3.891   4.405  14.613 -0.2305  0.3945 -0.1041
  581MPD2    H5 8675   3.790   4.410  14.599 -0.5562 -2.0200  1.3874
  581MPD2    N1 8676   3.822   4.267  15.072 -0.1058 -0.9969  0.0004
  581MPD2    H7 8677   3.859   4.221  15.154 -0.6053  1.2367  1.4955
  582TMC3    C1 8678   3.645   4.315  15.225 -0.0028 -0.4064 -0.5812
  582TMC3    C2 8679   3.741   4.323  15.319 -0.4548  0.0306  0.9513
  582TMC3    C3 8680   3.703   4.345  15.448  0.6840  0.1716  0.0675
  582TMC3    C4 8681   3.510   4.315  15.256 -0.0409 -0.0756 -0.0902
  582TMC3    C5 8682   3.474   4.329  15.388  0.7736  0.3505 -0.3665
  582TMC3    C6 8683   3.568   4.356  15.486 -0.4750  0.3196 -0.0647
  582TMC3     C 8684   3.695   4.325  15.089 -0.1436  0.6120  0.0610
  582TMC3     O 8685   3.614   4.364  15.003 -0.2584  0.5810  0.2024
  582TMC3     H 8686   3.843   4.344  15.290 -0.6492  1.6867  1.4791
  582TMC3    H1 8687   3.429   4.333  15.186  0.3762  3.1503  0.2469
  582TMC3    H2 8688   3.533   4.370  15.588  0.4536 -0.6333  0.3809
  582TMC3    C7 8689   3.345   4.385  15.433  0.9756 -0.2408  0.2412
  582TMC3    C8 8690   3.792   4.402  15.552  0.0918  0.4961  0.0299
  582TMC3    O1 8691   3.284   4.342  15.527 -0.6331  0.0248  0.3153
  582TMC3    O2 8692   3.743   4.436  15.661  0.2131  0.2696 -0.0458
  583MPD2     C 8693   4.396   1.346  16.696  0.6137  0.5400  0.0851
  583MPD2    C1 8694   4.379   1.463  16.619  0.1797 -0.1194  0.5445
  583MPD2    C2 8695   4.312   1.570  16.675 -0.6265 -0.0765  0.1262
  583MPD2    C3 8696   4.259   1.560  16.796  0.7081 -0.1764 -0.2948
  583MPD2    C4 8697   4.267   1.445  16.865 -0.7438  0.2866 -0.3798
  583MPD2    C5 8698   4.336   1.336  16.816  0.2688 -0.0123  0.7375
  583MPD2     H 8699   4.288   1.657  16.614  1.9584  1.5022  1.3307
  583MPD2    H1 8700   4.217   1.423  16.959  2.9082 -0.5875  1.3675
  583MPD2    H2 8701   4.448   1.257  16.662  0.9643  0.0170  1.9832
  583MPD2    H3 8702   4.352   1.245  16.873 -1.3864 -0.8394 -0.1327
  583MPD2     N 8703   4.171   1.661  16.831 -0.1316  0.4433 -0.1126
  583MPD2    H5 8704   4.148   1.729  16.759 -0.7630  1.8812  1.4783
  583MPD2    N1 8705   4.438   1.477  16.495 -0.0586  0.3166 -0.2046
  583MPD2    H7 8706   4.442   1.569  16.452  4.4137 -0.4604 -1.4056
  584TMC3    C1 8707   4.029   1.787  16.964  0.4592  0.6112 -0.1750
  584TMC3    C2 8708   4.083   1.898  16.918 -0.1902 -0.2512  0.1390
  584TMC3    C3 8709   4.051   2.014  16.988 -0.6441 -1.1259  0.6952
  584TMC3    C4 8710   3.949   1.785  17.077  0.0368  0.0279  0.5161
  584TMC3    C5 8711   3.920   1.900  17.144  0.7109  0.3697  0.1665
  584TMC3    C6 8712   3.962   2.023  17.094 -0.4178 -0.6657  0.2350
  584TMC3     C 8713   4.117   1.672  16.956  0.0591  0.0920 -0.1398
  584TMC3     O 8714   4.140   1.614  17.061  0.2667  0.5540  0.5786
  584TMC3     H 8715   4.165   1.896  16.846  0.6826  0.4033  1.1211
  584TMC3    H1 8716   3.906   1.688  17.097  0.1780 -0.3431 -0.9586
  584TMC3    H2 8717   3.939   2.123  17.130 -1.9605 -1.3286  1.0813
  584TMC3    C7 8718   3.871   1.880  17.281 -0.0864  1.0296 -0.9425
  584TMC3    C8 8719   4.073   2.125  16.897 -0.0173 -1.1058 -0.1335
  584TMC3    O1 8720   3.874   1.763  17.320  0.1336  0.1877  0.4483
  584TMC3    O2 8721   4.088   2.104  16.777  0.3237  0.1648 -0.1842
  585MPD2     C 8722   2.785   0.799   0.189 -0.7406 -0.4363 -0.2068
  585MPD2    C1 8723   2.847   0.801   0.062  0.4683  0.1780  0.2147
  585MPD2    C2 8724   2.882   0.680   0.003 -1.0256  0.0987 -0.4709
  585MPD2    C3 8725   2.838   0.563   0.056  0.5855  0.3710  0.1213
  585MPD2    C4 8726   2.778   0.557   0.183  0.7678  0.0325 -0.4483
  585MPD2    C5 8727   2.747   0.676   0.243  0.7201  0.0751  0.4716
  585MPD2     H 8728   2.934   0.676  17.662 -2.3443  0.4549 -1.2005
  585MPD2    H1 8729   2.732   0.470   0.229  0.7362  0.2850  0.0020
  585MPD2    H2 8730   2.760   0.887   0.246  1.3730 -0.5725  0.9133
  585MPD2    H3 8731   2.695   0.658   0.337  0.5273  0.8086  0.5045
  585MPD2     N 8732   2.860   0.442  17.745 -0.0548  0.8037  0.7302
  585MPD2    H5 8733   2.825   0.358   0.035 -0.0667  0.9491  0.9943
  585MPD2    N1 8734   2.868   0.930  17.751  0.6561  0.7124  0.0518
  585MPD2    H7 8735   2.823   1.011   0.039  1.9471 -0.3403  3.4477
  586TMC3    C1 8736   2.912   0.290  17.567  0.1138 -0.0430  0.3005
  586TMC3    C2 8737   3.025   0.234  17.523 -0.4508  0.0748  0.4750
  586TMC3    C3 8738   3.026   0.094  17.522 -0.0591  0.5693  0.1545
  586TMC3    C4 8739   2.796   0.221  17.596 -0.2059 -0.3576 -0.1231
  586TMC3    C5 8740   2.802   0.084  17.599  0.5657 -0.0629  0.5981
  586TMC3    C6 8741   2.918   0.023  17.567 -0.2964  0.8657 -0.5040
  586TMC3     C 8742   2.935   0.419  17.627 -0.1025 -0.2964  0.0224
  586TMC3     O 8743   3.014   0.493  17.566 -0.4469  0.2959 -0.4953
  586TMC3     H 8744   3.099   0.297  17.474  1.5444 -1.1276  1.9158
  586TMC3    H1 8745   2.706   0.276  17.620  0.8174  0.4816  1.7803
  586TMC3    H2 8746   2.914   4.656  17.546 -3.1078  0.8688 -0.0185
  586TMC3    C7 8747   2.692   4.735  17.550 -0.2108  0.4281  0.3442
  586TMC3    C8 8748   3.134   0.031  17.454 -0.3920  0.3285  0.2052
  586TMC3    O1 8749   2.683   4.625  17.602 -0.0247 -0.0431  0.1483
  586TMC3    O2 8750   3.166   4.660  17.508 -0.0104  0.3758 -0.4757
  587TMC3    C1 8751   0.697   3.976  16.791 -0.4926 -0.1096 -0.2457
  587TMC3    C2 8752   0.755   4.098  16.803 -0.1308  1.0137  1.0518
  587TMC3    C3 8753   0.825   4.119  16.920 -0.1077  0.1779  0.0446
  587TMC3    C4 8754   0.727   3.868  16.878  0.5360 -0.0024  0.6204
  587TMC3    C5 8755   0.821   3.891  16.977 -0.3294  0.0037 -0.2218
  587TMC3    C6 8756   0.855   4.018  17.009 -0.7183  0.0703 -0.6580
  587TMC3     C 8757   0.575   3.943  16.719 -0.1541  0.5705 -0.2541
  587TMC3     O 8758   0.535   3.827  16.723 -0.4784 -0.3469  0.0655
  587TMC3     H 8759   0.766   4.169  16.721 -2.7204  1.9333  1.4896
  587TMC3    H1 8760   0.679   3.772  16.862  1.6274 -0.8362  2.2965
  587TMC3    H2 8761   0.928   4.036  17.086  1.7885 -1.0388 -2.7532
  587TMC3    C7 8762   0.849   3.789  17.077 -0.2903 -0.4173 -1.0393
  587TMC3    C8 8763   0.858   4.255  16.968  0.0353  0.0342 -0.5432
  587TMC3    O1 8764   0.954   3.793  17.137  0.1215 -0.0979 -0.4589
  587TMC3    O2 8765   0.911   4.265  17.077 -0.2946  0.0054 -0.4883
  588TMC3    C1 8766   3.253   1.675  10.125  0.2355 -0.4273  0.3560
  588TMC3    C2 8767   3.246   1.552  10.081  0.5442  0.1218 -0.2397
  588TMC3    C3 8768   3.338   1.468  10.144  0.1712  0.3817  0.4218
  588TMC3    C4 8769   3.355   1.722  10.203 -0.2803  0.0753  0.3519
  588TMC3    C5 8770   3.439   1.640  10.267  0.6299  0.2256  0.3291
  588TMC3    C6 8771   3.428   1.508  10.244  0.2581 -0.5315  0.1617
  588TMC3     C 8772   3.180   1.774  10.042 -0.7472 -0.8223  0.1531
  588TMC3     O 8773   3.175   1.744   9.925 -0.1158  0.7131  0.0347
  588TMC3     H 8774   3.167   1.519  10.015 -0.3729 -1.9095  1.8605
  588TMC3    H1 8775   3.367   1.829  10.195  0.9780 -0.1164 -0.2405
  588TMC3    H2 8776   3.508   1.451  10.288  0.3486 -1.0391 -0.6683
  588TMC3    C7 8777   3.564   1.697  10.318 -0.5190 -0.0267 -0.4465
  588TMC3    C8 8778   3.331   1.326  10.106  0.4188 -0.7607 -0.0620
  588TMC3    O1 8779   3.655   1.619  10.334  0.9657  0.0601  0.1419
  588TMC3    O2 8780   3.247   1.301  10.022  0.3114  0.4075 -0.2645
  589TMC3    C1 8781   2.375   4.131   1.167  0.0882  0.1850 -0.5878
  589TMC3    C2 8782   2.500   4.118   1.222  0.5418  0.3792 -0.5677
  589TMC3    C3 8783   2.561   4.004   1.209 -0.7911  0.2611 -0.7200
  589TMC3    C4 8784   2.313   4.029   1.102  0.3566 -0.2042  0.1267
  589TMC3    C5 8785   2.376   3.908   1.091  0.1461  0.0637  0.2628
  589TMC3    C6 8786   2.497   3.894   1.157 -0.5031  0.4005  0.2341
  589TMC3     C 8787   2.282   4.249   1.188 -1.2616  1.3469  0.5286
  589TMC3     O 8788   2.183   4.266   1.119  1.0858  0.2429  0.0977
  589TMC3     H 8789   2.551   4.199   1.274 -0.2605 -0.3792  1.4320
  589TMC3    H1 8790   2.209   4.038   1.072  0.0186 -1.0024  1.0237
  589TMC3    H2 8791   2.538   3.794   1.164 -0.7593  0.5260  3.3739
  589TMC3    C7 8792   2.323   3.798   1.022 -0.5125  0.3266 -0.1313
  589TMC3    C8 8793   2.688   3.989   1.262  0.0409  0.4961 -0.0569
  589TMC3    O1 8794   2.373   3.687   1.027  0.1165 -0.4727 -0.9676
  589TMC3    O2 8795   2.733   4.075   1.339 -0.2681  0.3660 -0.0107
  590MPD2     C 8796   2.201   2.328  16.648  0.5133  0.5581 -0.3885
  590MPD2    C1 8797   2.122   2.390  16.548 -0.1148  0.1616 -0.7184
  590MPD2    C2 8798   2.172   2.442  16.437  0.6220 -0.3509  0.1106
  590MPD2    C3 8799   2.311   2.453  16.419 -0.3375 -0.2355  0.1611
  590MPD2    C4 8800   2.388   2.388  16.512  0.1536  0.5792  0.8610
  590MPD2    C5 8801   2.336   2.323  16.622 -0.2635 -0.7700  0.5601
  590MPD2     H 8802   2.111   2.472  16.352 -0.7419 -0.3314  1.0925
  590MPD2    H1 8803   2.496   2.399  16.506  0.1142  1.5858  1.8877
  590MPD2    H2 8804   2.163   2.279  16.736  0.7641  1.7039  0.3562
  590MPD2    H3 8805   2.399   2.283  16.701 -2.1043 -0.9709  1.9229
  590MPD2     N 8806   2.365   2.501  16.294 -0.1319 -0.2409  0.1518
  590MPD2    H5 8807   2.297   2.549  16.236  0.1371 -0.7918 -0.6174
  590MPD2    N1 8808   1.984   2.368  16.560  0.1833 -0.1742  0.2695
  590MPD2    H7 8809   1.930   2.353  16.475 -2.7766  1.1990  1.9147
  591TMC3    C1 8810   2.506   2.543  16.116  0.3849  0.3069  0.2105
  591TMC3    C2 8811   2.615   2.495  16.047  1.2361  0.0224 -0.5115
  591TMC3    C3 8812   2.681   2.581  15.962  0.0657 -0.1069  0.2861
  591TMC3    C4 8813   2.463   2.676  16.108 -0.1934  0.3514  0.5584
  591TMC3    C5 8814   2.526   2.749  16.013 -0.4417 -0.0421 -0.0906
  591TMC3    C6 8815   2.636   2.711  15.949 -0.0786  0.0247  0.4384
  591TMC3     C 8816   2.490   2.476  16.243  0.0146 -0.2385  0.2188
  591TMC3     O 8817   2.566   2.386  16.284 -0.8333 -0.4704 -0.1918
  591TMC3     H 8818   2.662   2.402  16.076 -3.1634 -1.2819  2.3572
  591TMC3    H1 8819   2.384   2.709  16.174 -0.0045  0.9069  0.5119
  591TMC3    H2 8820   2.678   2.771  15.870 -1.9217  1.5463  0.6220
  591TMC3    C7 8821   2.449   2.854  15.959  0.1221 -0.6867 -0.3679
  591TMC3    C8 8822   2.788   2.518  15.884  0.0889  0.1052  0.1878
  591TMC3    O1 8823   2.326   2.846  15.982 -0.4310  0.2571 -0.2984
  591TMC3    O2 8824   2.782   2.397  15.872  0.7497  0.1116  0.1700
  592MPD2     C 8825   2.394   3.954  11.705  0.4530 -0.4212  0.5633
  592MPD2    C1 8826   2.488   3.963  11.809 -0.4552  0.0957  0.4958
  592MPD2    C2 8827   2.470   3.892  11.928  0.1096 -0.5571 -0.4581
  592MPD2    C3 8828   2.365   3.803  11.937  0.0166  1.0757  0.1160
  592MPD2    C4 8829   2.268   3.791  11.835  0.1972 -0.7402 -0.0365
  592MPD2    C5 8830   2.293   3.864  11.719 -0.4161  0.1597 -0.4264
  592MPD2     H 8831   2.550   3.895  12.001 -0.0924 -2.0756 -0.1752
  592MPD2    H1 8832   2.176   3.734  11.840 -0.7875  0.9631  1.4375
  592MPD2    H2 8833   2.396   4.017  11.617  2.8422 -0.4404  0.5948
  592MPD2    H3 8834   2.223   3.858  11.637  0.9912  1.1462 -1.6973
  592MPD2     N 8835   2.342   3.735  12.055 -0.0990  0.3081 -0.1544
  592MPD2    H5 8836   2.414   3.751  12.125 -0.0766  1.2001 -0.3764
  592MPD2    N1 8837   2.581   4.062  11.788 -0.5569  0.8987  0.8100
  592MPD2    H7 8838   2.598   4.101  11.696  0.3256 -0.6949  0.2897
  593TMC3    C1 8839   2.750   4.218  11.830 -0.1862 -0.2250 -0.5914
  593TMC3    C2 8840   2.775   4.318  11.923 -0.5278 -0.3890  0.7598
  593TMC3    C3 8841   2.881   4.403  11.903 -0.6093 -0.2323 -0.1239
  593TMC3    C4 8842   2.828   4.197  11.720 -0.3618 -0.5768  0.3031
  593TMC3    C5 8843   2.938   4.281  11.707  0.5020  0.3100  0.2093
  593TMC3    C6 8844   2.964   4.385  11.795 -0.2847  0.5547  0.5436
  593TMC3     C 8845   2.669   4.109  11.882  0.1136  0.5844 -0.9216
  593TMC3     O 8846   2.676   4.089  12.006  0.0315  0.6032 -0.1610
  593TMC3     H 8847   2.708   4.351  12.001 -1.9723 -1.1711 -0.1600
  593TMC3    H1 8848   2.816   4.108  11.659  0.7819  0.3573 -1.2485
  593TMC3    H2 8849   3.033   4.465  11.769  0.8590  0.0407  1.9854
  593TMC3    C7 8850   2.950   4.329  11.572 -0.4738 -0.6251  0.2792
  593TMC3    C8 8851   2.846   4.540  11.944 -0.3933 -0.8773  0.2729
  593TMC3    O1 8852   2.950   4.454  11.558  0.0263 -0.4854  0.0989
  593TMC3    O2 8853   2.727   4.565  11.924  0.2095 -0.6374 -0.5764
  594MPD2     C 8854   1.535   3.305  13.988 -0.5854 -0.1624 -0.1736
  594MPD2    C1 8855   1.484   3.333  14.112  0.3677  0.4863 -0.1668
  594MPD2    C2 8856   1.553   3.435  14.176 -0.6754 -0.1556  0.0944
  594MPD2    C3 8857   1.646   3.516  14.113  0.3933  0.6041 -0.1883
  594MPD2    C4 8858   1.674   3.487  13.984  0.0468 -0.1378  0.5384
  594MPD2    C5 8859   1.621   3.387  13.921  0.4449  0.1035 -0.2618
  594MPD2     H 8860   1.521   3.454  14.278  0.3276  2.5167 -0.0710
  594MPD2    H1 8861   1.738   3.554  13.928  1.8463 -0.4653  2.2097
  594MPD2    H2 8862   1.485   3.229  13.929 -2.3498  0.6297  0.3049
  594MPD2    H3 8863   1.632   3.368  13.815 -2.2563 -0.6442 -0.4026
  594MPD2     N 8864   1.704   3.630  14.173  0.6889 -0.3819  0.5003
  594MPD2    H5 8865   1.663   3.647  14.264 -1.3796  1.6470 -0.8265
  594MPD2    N1 8866   1.386   3.259  14.184  0.0608 -0.2605 -0.0160
  594MPD2    H7 8867   1.368   3.276  14.282  1.8016  0.3151  0.2085
  595TMC3    C1 8868   2.016   3.929  14.302  0.1073  0.2063 -0.4152
  595TMC3    C2 8869   1.971   3.848  14.200 -0.3618 -0.5004  0.4340
  595TMC3    C3 8870   1.844   3.814  14.208  0.2519 -0.0448 -0.7187
  595TMC3    C4 8871   1.941   3.964  14.412 -0.2490 -0.6849  0.0123
  595TMC3    C5 8872   1.806   3.937  14.401  0.0282 -0.5467  0.7566
  595TMC3    C6 8873   1.757   3.861  14.304  0.0402 -0.2574 -0.2769
  595TMC3     C 8874   2.159   3.941  14.312  0.2339 -0.3179 -0.1531
  595TMC3     O 8875   2.199   3.943  14.426  0.1316 -0.2324 -0.4285
  595TMC3     H 8876   2.033   3.807  14.121  0.2929  0.9162  0.2047
  595TMC3    H1 8877   1.981   4.024  14.493 -2.8418  1.5810 -0.3673
  595TMC3    H2 8878   1.651   3.843  14.289  0.0509  1.6178 -2.6368
  595TMC3    C7 8879   1.716   3.948  14.521  0.2925 -0.1607  0.3449
  595TMC3    C8 8880   1.810   3.705  14.117  0.7020 -0.1721 -0.6355
  595TMC3    O1 8881   1.597   3.949  14.498 -0.1041 -0.4859 -0.1666
  595TMC3    O2 8882   1.881   3.693  14.017  1.0852  0.0876 -0.1806
  596MPD2     C 8883   0.399   1.227  16.730 -0.0806 -0.5110 -0.3792
  596MPD2    C1 8884   0.437   1.350  16.683  0.6656 -0.1759 -0.0158
  596MPD2    C2 8885   0.472   1.354  16.547 -0.4473  0.3265 -0.0009
  596MPD2    C3 8886   0.466   1.241  16.459 -0.7198 -0.4214  0.2439
  596MPD2    C4 8887   0.420   1.120  16.512  0.0681 -0.0500 -0.1848
  596MPD2    C5 8888   0.400   1.111  16.650  0.4492 -0.0057 -0.1425
  596MPD2     H 8889   0.509   1.448  16.511  0.7862 -0.1488  0.0192
  596MPD2    H1 8890   0.402   1.031  16.453 -3.2424  1.2694 -1.1271
  596MPD2    H2 8891   0.363   1.213  16.831  0.1153  0.1463 -0.2181
  596MPD2    H3 8892   0.368   1.018  16.696 -0.7573  1.1845  1.4192
  596MPD2     N 8893   0.475   1.250  16.317 -0.5179  0.4263 -0.0646
  596MPD2    H5 8894   0.445   1.167  16.267  2.3989 -1.7429  1.7347
  596MPD2    N1 8895   0.427   1.473  16.750  0.3172 -0.1255 -0.3715
  596MPD2    H7 8896   0.454   1.557  16.700 -1.7926  0.1562 -1.0554
  597TMC3    C1 8897   0.387   1.621  16.933 -0.7011  0.2592 -0.3507
  597TMC3    C2 8898   0.484   1.701  16.883 -0.1500 -0.5311 -0.1997
  597TMC3    C3 8899   0.470   1.841  16.901  1.0010 -0.2497 -0.5103
  597TMC3    C4 8900   0.275   1.673  16.994  0.1124 -0.7624 -0.4944
  597TMC3    C5 8901   0.263   1.809  16.999 -0.7164 -0.4062 -0.4489
  597TMC3    C6 8902   0.356   1.900  16.959 -0.1180  0.2695  0.2377
  597TMC3     C 8903   0.386   1.486  16.878 -0.0001 -0.1384  0.1795
  597TMC3     O 8904   0.331   1.404  16.944  0.6876  0.4694  0.7501
  597TMC3     H 8905   0.568   1.657  16.831  0.7093 -0.5648  1.2401
  597TMC3    H1 8906   0.200   1.604  17.032 -1.1326 -0.2705 -2.0625
  597TMC3    H2 8907   0.345   2.005  16.986 -0.9319  0.1629  0.3175
  597TMC3    C7 8908   0.141   1.864  17.060  0.0524 -0.7792  0.1823
  597TMC3    C8 8909   0.579   1.923  16.836  0.1948 -0.0145 -0.4699
  597TMC3    O1 8910   0.092   1.794  17.148  0.2190  0.8223  0.0143
  597TMC3    O2 8911   0.694   1.874  16.835  0.4757 -0.1582 -0.2263
  598TMC3    C1 8912   3.665   3.000  15.485 -0.1930 -0.2391  0.8716
  598TMC3    C2 8913   3.549   2.931  15.444  0.8765  0.3136 -0.4412
  598TMC3    C3 8914   3.500   2.970  15.326  1.0616  0.4057  0.9449
  598TMC3    C4 8915   3.727   3.103  15.418  0.4792 -0.5989  0.5285
  598TMC3    C5 8916   3.652   3.155  15.313 -0.5965  0.4265 -0.6869
  598TMC3    C6 8917   3.542   3.090  15.269 -0.1924  0.8269  0.2937
  598TMC3     C 8918   3.754   2.927  15.580  0.1777 -0.0506  0.6773
  598TMC3     O 8919   3.873   2.952  15.567 -0.3983 -0.8389 -0.2510
  598TMC3     H 8920   3.493   2.854  15.496 -0.3682  1.4028 -0.1851
  598TMC3    H1 8921   3.827   3.140  15.440  0.5061 -1.2538  1.5127
  598TMC3    H2 8922   3.483   3.133  15.190 -0.9822  0.3178  0.6066
  598TMC3    C7 8923   3.691   3.277  15.258  0.6048 -0.1485 -0.6013
  598TMC3    C8 8924   3.401   2.895  15.254  0.2034 -0.5144  0.0797
  598TMC3    O1 8925   3.670   3.301  15.141  0.4001  0.1785 -0.3532
  598TMC3    O2 8926   3.324   2.828  15.322  0.0900  0.4333 -0.4398
  599MPD2     C 8927   3.461   0.506  15.850  0.1339  0.4556 -0.6533
  599MPD2    C1 8928   3.365   0.413  15.859  0.4592  0.4104 -0.4221
  599MPD2    C2 8929   3.235   0.456  15.856 -0.3015 -0.1149  0.2597
  599MPD2    C3 8930   3.195   0.593  15.853  0.2522 -0.7098  0.1281
  599MPD2    C4 8931   3.296   0.686  15.841  0.0994 -0.2786 -0.3728
  599MPD2    C5 8932   3.425   0.639  15.839  0.3322 -0.2768 -0.6789
  599MPD2     H 8933   3.157   0.382  15.865 -0.1612 -0.2836  0.0802
  599MPD2    H1 8934   3.268   0.790  15.844 -1.4412 -0.6758 -0.8633
  599MPD2    H2 8935   3.565   0.476  15.851 -0.2229 -0.7651 -0.2887
  599MPD2    H3 8936   3.509   0.708  15.828 -1.4985  2.1213  0.3691
  599MPD2     N 8937   3.064   0.641  15.858 -0.2970  0.0298 -0.0747
  599MPD2    H5 8938   3.057   0.740  15.839  0.5538 -0.2328 -1.8339
  599MPD2    N1 8939   3.407   0.275  15.859  0.1954 -0.1839 -0.6082
  599MPD2    H7 8940   3.507   0.261  15.853 -0.2411 -4.5142  2.1118
  600TMC3    C1 8941   2.835   0.657  15.892 -0.3780 -0.8456 -0.0171
  600TMC3    C2 8942   2.722   0.597  15.932  0.5313  0.2222  0.1394
  600TMC3    C3 8943   2.611   0.675  15.953  0.0478 -0.1841  0.5291
  600TMC3    C4 8944   2.836   0.787  15.851  0.5037  0.1129 -0.3263
  600TMC3    C5 8945   2.717   0.864  15.863  0.1866 -0.5455  0.2842
  600TMC3    C6 8946   2.604   0.804  15.912  0.4112 -0.5882 -0.0516
  600TMC3     C 8947   2.948   0.569  15.871 -0.1614  0.3616 -0.4469
  600TMC3     O 8948   2.927   0.447  15.866  0.1349 -0.1636  0.2019
  600TMC3     H 8949   2.710   0.489  15.938 -0.2152  0.3987  1.7716
  600TMC3    H1 8950   2.924   0.842  15.821  0.4924  0.2348 -0.1337
  600TMC3    H2 8951   2.524   0.867  15.949 -1.0144 -3.5456  1.8905
  600TMC3    C7 8952   2.724   1.002  15.895  0.3970  0.2353  0.1241
  600TMC3    C8 8953   2.552   0.655  16.083 -0.2357 -0.7125  0.1343
  600TMC3    O1 8954   2.616   1.061  15.897  0.1383 -0.2094 -0.1999
  600TMC3    O2 8955   2.548   0.760  16.145 -1.1353 -0.1404  0.8355
  601MPD2     C 8956   0.863   3.866   0.219 -0.7355  0.3718 -0.2240
  601MPD2    C1 8957   0.737   3.816   0.237 -0.0612  0.4109 -0.4745
  601MPD2    C2 8958   0.721   3.702   0.317  0.2862 -0.4227 -0.0623
  601MPD2    C3 8959   0.830   3.639   0.372 -0.6024 -0.7903 -0.6804
  601MPD2    C4 8960   0.954   3.690   0.348 -0.3816  0.2290  0.2130
  601MPD2    C5 8961   0.970   3.810   0.282  0.3736  0.2743 -0.5837
  601MPD2     H 8962   0.616   3.683   0.338  0.2568  0.7363  0.8923
  601MPD2    H1 8963   1.045   3.642   0.383  1.0546  1.8170 -1.2932
  601MPD2    H2 8964   0.886   3.962   0.173 -1.6684  0.7642  0.1268
  601MPD2    H3 8965   1.067   3.858   0.288 -0.9278  2.9141 -1.0544
  601MPD2     N 8966   0.820   3.511   0.438 -0.0970  1.3147  0.3840
  601MPD2    H5 8967   0.905   3.464   0.467 -0.7188 -1.1514 -1.8299
  601MPD2    N1 8968   0.618   3.881   0.204 -0.2081 -0.4702  0.3545
  601MPD2    H7 8969   0.531   3.845   0.242 -1.0162  2.5946  1.3594
  602TMC3    C1 8970   0.470   4.034   0.106  0.3020  0.2325 -0.0836
  602TMC3    C2 8971   0.443   4.165   0.090 -0.8555  0.6565 -0.3437
  602TMC3    C3 8972   0.322   4.215   0.057 -0.6206  0.0113  0.4424
  602TMC3    C4 8973   0.386   3.939   0.068 -0.2213 -0.2871  0.8759
  602TMC3    C5 8974   0.264   3.996   0.018 -0.1214 -0.1953 -0.0300
  602TMC3    C6 8975   0.221   4.126   0.026 -0.9427  0.4943  0.4899
  602TMC3     C 8976   0.611   3.989   0.119 -0.3958  0.2551  0.0756
  602TMC3     O 8977   0.689   4.062   0.061  0.4446 -0.3949 -0.1080
  602TMC3     H 8978   0.521   4.236   0.114 -1.1525  1.4895 -1.7890
  602TMC3    H1 8979   0.420   3.836   0.068 -1.0858 -0.5677  1.8722
  602TMC3    H2 8980   0.120   4.164   0.025 -0.9434  0.3950 -3.2429
  602TMC3    C7 8981   0.180   3.900  17.710 -0.0992  0.3741  0.6741
  602TMC3    C8 8982   0.323   4.346  17.753  0.2309  0.3680  0.3155
  602TMC3    O1 8983   0.169   3.786   0.003 -0.6520  0.0300 -0.2639
  602TMC3    O2 8984   0.412   4.426   0.024  0.0531  0.4882 -0.2002
  603TMC3    C1 8985   3.637   3.682  11.194 -0.1279  0.7740 -0.0978
  603TMC3    C2 8986   3.652   3.640  11.326 -0.4417 -0.4583  0.3295
  603TMC3    C3 8987   3.719   3.730  11.410  0.1274  0.0002  0.1416
  603TMC3    C4 8988   3.689   3.795  11.143  0.0737  0.2743 -0.2758
  603TMC3    C5 8989   3.761   3.875  11.229 -0.3071  0.8271  0.2809
  603TMC3    C6 8990   3.777   3.847  11.367  0.5954  0.4300 -0.2169
  603TMC3     C 8991   3.578   3.582  11.112 -0.2279 -0.1588 -0.3446
  603TMC3     O 8992   3.597   3.466  11.144 -0.2123  0.5335 -0.4539
  603TMC3     H 8993   3.602   3.554  11.368  1.3296 -2.8054 -2.4232
  603TMC3    H1 8994   3.683   3.813  11.036 -0.8507 -0.0413 -0.2793
  603TMC3    H2 8995   3.818   3.930  11.423 -2.9820  1.7044  0.5542
  603TMC3    C7 8996   3.854   3.966  11.169  0.5455  0.3703  0.6301
  603TMC3    C8 8997   3.717   3.692  11.547 -0.0329  0.2197 -0.8345
  603TMC3    O1 8998   3.949   4.011  11.230 -0.1632  0.2018  0.1249
  603TMC3    O2 8999   3.646   3.598  11.582  0.2695 -0.1454 -0.1933
  604MPD2     C 9000   4.324   2.707  16.280  0.3013 -0.3449  0.0459
  604MPD2    C1 9001   4.223   2.617  16.252 -0.7454 -0.2038 -0.1298
  604MPD2    C2 9002   4.227   2.542  16.137  0.3068 -0.1370 -0.0938
  604MPD2    C3 9003   4.333   2.552  16.044  0.6973  0.1821 -0.1244
  604MPD2    C4 9004   4.429   2.641  16.073 -0.1546 -0.3190 -0.5985
  604MPD2    C5 9005   4.424   2.715  16.184 -0.2982 -0.0359  0.4470
  604MPD2     H 9006   4.152   2.466  16.122 -1.5847  1.4308  1.4091
  604MPD2    H1 9007   4.504   2.675  16.002 -0.5398 -0.0704 -0.8919
  604MPD2    H2 9008   4.330   2.769  16.369  0.3386  0.0963 -0.2622
  604MPD2    H3 9009   4.492   2.796  16.207 -1.3662  0.8006  0.6587
  604MPD2     N 9010   4.328   2.481  15.924  0.0906 -0.3090 -0.0515
  604MPD2    H5 9011   4.254   2.415  15.904  0.4790 -0.5811 -0.6014
  604MPD2    N1 9012   4.131   2.606  16.352  0.9183  0.3544  0.1261
  604MPD2    H7 9013   4.129   2.668  16.432  0.8240 -0.5066  0.7897
  605TMC3    C1 9014   3.935   2.574  16.457 -0.2759 -0.5851  0.2693
  605TMC3    C2 9015   4.006   2.616  16.567 -0.0068 -0.1780 -0.0502
  605TMC3    C3 9016   3.977   2.726  16.638  0.6343 -0.1710  0.8607
  605TMC3    C4 9017   3.831   2.645  16.423 -0.4740  0.0551 -0.5175
  605TMC3    C5 9018   3.785   2.753  16.499  0.6957  0.4367  0.7692
  605TMC3    C6 9019   3.864   2.794  16.603 -0.2558 -0.7142  0.3058
  605TMC3     C 9020   4.015   2.538  16.343  0.5755  0.7446  0.1704
  605TMC3     O 9021   3.966   2.465  16.260 -0.1846 -0.3759  0.0080
  605TMC3     H 9022   4.103   2.568  16.582 -0.0704  0.2020  1.6015
  605TMC3    H1 9023   3.789   2.616  16.328 -0.5329  2.4271 -1.2219
  605TMC3    H2 9024   3.837   2.886  16.654 -0.0175 -0.2282 -0.4472
  605TMC3    C7 9025   3.677   2.840  16.451 -0.6069  0.7388  0.5137
  605TMC3    C8 9026   4.100   2.801  16.635 -0.8898  0.2682  0.3553
  605TMC3    O1 9027   3.641   2.936  16.522  0.3302 -0.4206 -0.0254
  605TMC3    O2 9028   4.160   2.813  16.531  0.4624 -0.0663  0.7680
  606TMC3    C1 9029   4.162   1.018   0.292  0.1527 -0.2831 -0.8734
  606TMC3    C2 9030   4.244   1.002   0.402  0.1910  1.1142 -0.7671
  606TMC3    C3 9031   4.276   0.875   0.448 -0.1141 -0.2072 -0.2175
  606TMC3    C4 9032   4.121   0.909   0.229 -0.2784 -0.3621  0.0518
  606TMC3    C5 9033   4.137   0.784   0.290 -0.1218 -0.1429 -0.5611
  606TMC3    C6 9034   4.216   0.767   0.397 -0.0852  0.0493  0.5664
  606TMC3     C 9035   4.124   1.142   0.234  0.1473  0.5834 -0.4048
  606TMC3     O 9036   4.097   1.145   0.114  0.3261 -0.5086 -0.2729
  606TMC3     H 9037   4.287   1.087   0.454  2.2623 -0.8593  0.7676
  606TMC3    H1 9038   4.055   0.919   0.143 -0.7394  2.2677  0.7334
  606TMC3    H2 9039   4.230   0.677   0.455  1.2971  0.9571  1.6742
  606TMC3    C7 9040   4.119   0.657   0.216  0.0771  0.2839  0.1152
  606TMC3    C8 9041   4.400   0.867   0.520 -0.3039 -0.0175 -0.7135
  606TMC3    O1 9042   4.165   0.551   0.261  0.0338 -0.7888  0.5254
  606TMC3    O2 9043   4.486   0.952   0.489  0.3269  0.1913 -0.0256
  607MPD2     C 9044   2.789   3.710  12.009 -0.0890  0.8893  0.1422
  607MPD2    C1 9045   2.870   3.780  12.099  0.0248  0.4436 -0.0696
  607MPD2    C2 9046   2.868   3.741  12.228  0.3995 -0.0583 -0.6538
  607MPD2    C3 9047   2.798   3.630  12.269 -1.0608  0.2119  0.0512
  607MPD2    C4 9048   2.709   3.570  12.181  0.3120 -0.1261 -0.6463
  607MPD2    C5 9049   2.706   3.611  12.051  0.2500  0.3099  0.3474
  607MPD2     H 9050   2.932   3.795  12.296 -1.1644  1.1830 -0.1554
  607MPD2    H1 9051   2.654   3.479  12.201  0.9226  0.3735  3.2936
  607MPD2    H2 9052   2.778   3.744  11.907  0.0156 -3.1106 -1.1868
  607MPD2    H3 9053   2.645   3.554  11.981  1.7544 -1.2694  0.3155
  607MPD2     N 9054   2.825   3.585  12.404 -0.1489 -0.0680 -0.0047
  607MPD2    H5 9055   2.878   3.645  12.466 -1.7034  2.6020 -1.2860
  607MPD2    N1 9056   2.948   3.895  12.080  0.7015  0.4266  0.0378
  607MPD2    H7 9057   2.985   3.946  12.159  1.1431  0.3996 -0.1502
  608TMC3    C1 9058   3.086   4.041  11.964  0.2589  0.5724  0.4518
  608TMC3    C2 9059   3.139   4.068  12.091 -0.8884 -0.0870 -0.2132
  608TMC3    C3 9060   3.273   4.100  12.096  0.2891 -0.2965 -0.0268
  608TMC3    C4 9061   3.167   4.052  11.849 -0.2946 -0.6306  0.2089
  608TMC3    C5 9062   3.300   4.080  11.862 -0.4059  0.2056  0.1328
  608TMC3    C6 9063   3.350   4.121  11.985 -0.2830 -0.0725 -0.4856
  608TMC3     C 9064   2.978   3.943  11.953 -0.1113  0.4240  0.3144
  608TMC3     O 9065   2.950   3.905  11.842  0.3445 -1.1132  0.4147
  608TMC3     H 9066   3.074   4.091  12.174 -0.6226  1.0808 -0.3240
  608TMC3    H1 9067   3.132   4.049  11.747  1.0103 -1.5864 -0.2008
  608TMC3    H2 9068   3.452   4.156  12.001 -0.2475 -0.1357 -0.5760
  608TMC3    C7 9069   3.382   4.095  11.741 -0.0588  0.5985  0.0246
  608TMC3    C8 9070   3.349   4.083  12.219  0.1778  0.6099  0.4741
  608TMC3    O1 9071   3.325   4.123  11.635 -0.6840  0.0499 -0.0973
  608TMC3    O2 9072   3.442   4.158  12.238 -0.3544  0.0803 -0.2791
  609TMC3    C1 9073   0.790   2.648   8.835  0.3417 -0.4535 -0.0149
  609TMC3    C2 9074   0.733   2.581   8.729  0.2556  0.2836 -0.9848
  609TMC3    C3 9075   0.805   2.498   8.649  0.4467  0.3132 -0.1128
  609TMC3    C4 9076   0.923   2.630   8.857  0.0539  0.3178 -0.1897
  609TMC3    C5 9077   0.988   2.531   8.791 -0.4717  0.1897 -0.2849
  609TMC3    C6 9078   0.936   2.471   8.678 -0.3567  0.0702 -0.6158
  609TMC3     C 9079   0.713   2.681   8.953 -0.3527  0.3127  0.5021
  609TMC3     O 9080   0.625   2.606   8.983  0.2570  0.4487  0.4142
  609TMC3     H 9081   0.627   2.590   8.709 -0.0449  0.6460  0.8023
  609TMC3    H1 9082   0.970   2.684   8.939 -1.3669 -0.4529  1.1346
  609TMC3    H2 9083   1.003   2.420   8.610  0.9552  0.2318  0.5398
  609TMC3    C7 9084   1.106   2.462   8.853  0.2980 -0.0466  0.1601
  609TMC3    C8 9085   0.732   2.420   8.543 -0.0086 -0.3763 -0.2790
  609TMC3    O1 9086   1.165   2.536   8.931  0.5011  0.4781 -0.4943
  609TMC3    O2 9087   0.612   2.449   8.534  0.3964 -0.3061  0.8216
  610TMC3    C1 9088   3.576   3.425  12.722 -0.3612  0.0846 -0.1750
  610TMC3    C2 9089   3.526   3.515  12.637  0.1725 -0.1518 -0.4547
  610TMC3    C3 9090   3.614   3.601  12.571  0.0496  0.2987  0.2331
  610TMC3    C4 9091   3.706   3.424  12.760  0.4618 -0.2003 -0.0963
  610TMC3    C5 9092   3.800   3.495  12.693 -0.4685  0.1776 -0.3410
  610TMC3    C6 9093   3.749   3.586  12.600  0.0645 -0.3804  0.6022
  610TMC3     C 9094   3.486   3.323  12.783 -0.8018 -0.6679  0.5815
  610TMC3     O 9095   3.400   3.362  12.861 -0.2155 -0.2562  0.2089
  610TMC3     H 9096   3.424   3.510  12.602 -0.4540  1.4380  1.1657
  610TMC3    H1 9097   3.738   3.356  12.839  3.4231  1.8876  0.5255
  610TMC3    H2 9098   3.820   3.633  12.533 -0.0648 -2.2146 -0.8050
  610TMC3    C7 9099   3.940   3.458  12.706 -0.7459  0.4020 -0.6533
  610TMC3    C8 9100   3.583   3.677  12.453  0.7976 -1.3853  0.0009
  610TMC3    O1 9101   3.958   3.346  12.750 -0.2025  0.1673  0.1428
  610TMC3    O2 9102   3.667   3.753  12.412  0.1766  0.3982 -0.0770
  611MPD2     C 9103   3.328   3.662   9.941  0.1222  0.6146  0.1712
  611MPD2    C1 9104   3.296   3.726  10.059 -0.2620  0.2932 -0.2655
  611MPD2    C2 9105   3.391   3.809  10.115  0.4746 -0.1718 -0.2778
  611MPD2    C3 9106   3.511   3.837  10.045 -0.4689  0.5635  0.2524
  611MPD2    C4 9107   3.526   3.785   9.918  0.5064  0.4250 -0.4246
  611MPD2    C5 9108   3.444   3.687   9.876 -0.5964 -0.5311  0.1230
  611MPD2     H 9109   3.356   3.861  10.204  0.1865 -0.0891 -0.4414
  611MPD2    H1 9110   3.604   3.807   9.846  1.6196 -0.8497  0.3974
  611MPD2    H2 9111   3.258   3.589   9.901  0.5475 -1.2887  2.8856
  611MPD2    H3 9112   3.450   3.637   9.780 -0.6338  3.9457 -2.2093
  611MPD2     N 9113   3.605   3.938  10.086  0.8543 -0.4171  0.2905
  611MPD2    H5 9114   3.678   3.963  10.019 -0.7262  3.1469 -0.0812
  611MPD2    N1 9115   3.168   3.697  10.121  0.0509 -0.0072 -0.3783
  611MPD2    H7 9116   3.113   3.637  10.060  0.7059  0.5803 -1.5514
  612TMC3    C1 9117   3.687   4.103  10.234  0.0926  0.7677  0.7184
  612TMC3    C2 9118   3.721   4.129  10.365  0.3224  0.6302  0.6332
  612TMC3    C3 9119   3.797   4.245  10.385 -0.0486 -0.5245 -0.2393
  612TMC3    C4 9120   3.733   4.171  10.122  0.5739 -0.4376  0.0768
  612TMC3    C5 9121   3.817   4.279  10.151 -0.3838  0.3627 -0.5019
  612TMC3    C6 9122   3.844   4.317  10.277  0.5160 -0.2248  0.1170
  612TMC3     C 9123   3.610   3.984  10.214 -0.7354 -0.5211  0.2078
  612TMC3     O 9124   3.537   3.944  10.307 -0.8629  0.3981  0.0944
  612TMC3     H 9125   3.683   4.063  10.442 -1.9902 -0.1326 -1.1751
  612TMC3    H1 9126   3.689   4.156  10.024  2.2081  0.4336 -0.7847
  612TMC3    H2 9127   3.917   4.394  10.295 -1.0917  0.8012  2.3524
  612TMC3    C7 9128   3.877   4.356  10.046 -0.0916  0.5142 -0.3836
  612TMC3    C8 9129   3.854   4.283  10.509  1.0906 -0.6095  0.2324
  612TMC3    O1 9130   3.950   4.450  10.079  0.7001 -0.3072  0.1583
  612TMC3    O2 9131   3.918   4.387  10.513 -0.5900 -0.1887 -0.4600
  613MPD2     C 9132   0.854   0.763  15.823  0.7221 -0.3916  0.2451
  613MPD2    C1 9133   0.884   0.878  15.893 -0.4650  0.3639 -0.5204
  613MPD2    C2 9134   0.998   0.948  15.854  0.0939 -0.2520 -0.1395
  613MPD2    C3 9135   1.079   0.908  15.748 -0.2723  0.0392  0.1359
  613MPD2    C4 9136   1.049   0.791  15.694  0.2051  0.1203  0.0191
  613MPD2    C5 9137   0.940   0.714  15.722  0.6986 -0.5545  0.4114
  613MPD2     H 9138   1.024   1.040  15.905  1.8229 -0.3607 -0.7967
  613MPD2    H1 9139   1.114   0.750  15.617 -0.0825 -0.6133  0.1743
  613MPD2    H2 9140   0.767   0.704  15.850 -0.7189  1.3672 -0.5000
  613MPD2    H3 9141   0.921   0.626  15.662 -1.9908 -0.1838  0.7216
  613MPD2     N 9142   1.207   0.967  15.720 -0.1214 -0.3238 -0.0299
  613MPD2    H5 9143   1.258   0.937  15.637  1.3553 -1.1815  1.1920
  613MPD2    N1 9144   0.789   0.902  15.998  0.6843  0.4433  0.6041
  613MPD2    H7 9145   0.701   0.853  15.998  0.8177  0.2027 -0.2205
  614TMC3    C1 9146   0.927   1.053  16.128 -0.6465 -0.3516  0.0047
  614TMC3    C2 9147   1.035   0.974  16.150 -0.3788 -0.1439 -0.2209
  614TMC3    C3 9148   1.159   1.029  16.166  0.7862 -0.0982  0.5381
  614TMC3    C4 9149   0.930   1.188  16.149 -0.1307 -0.0808  0.4916
  614TMC3    C5 9150   1.057   1.238  16.165  0.9446 -0.7987  0.1310
  614TMC3    C6 9151   1.174   1.168  16.159  0.4807  0.1306  0.2327
  614TMC3     C 9152   0.798   0.989  16.104  0.0403  0.3959  0.7623
  614TMC3     O 9153   0.715   1.019  16.188 -0.0189 -0.2634 -0.6363
  614TMC3     H 9154   1.020   0.868  16.168 -0.8887 -0.3240 -1.6935
  614TMC3    H1 9155   0.839   1.247  16.154  0.1895  0.3914  0.7641
  614TMC3    H2 9156   1.270   1.216  16.172  0.6465 -0.6896  2.0348
  614TMC3    C7 9157   1.075   1.376  16.141 -0.2455 -0.4230  0.4302
  614TMC3    C8 9158   1.277   0.952  16.132  0.6531 -0.0917  0.4025
  614TMC3    O1 9159   1.025   1.456  16.221  0.5059 -0.3436 -0.0584
  614TMC3    O2 9160   1.380   1.012  16.146 -0.4968 -0.0602  0.0753
  615MPD2     C 9161   0.993   2.744  15.517  0.2049 -0.7671  0.2838
  615MPD2    C1 9162   0.923   2.669  15.607 -0.3179  0.2049  0.4541
  615MPD2    C2 9163   0.797   2.616  15.574  0.0450  0.4282  0.8174
  615MPD2    C3 9164   0.750   2.632  15.448 -0.0883 -0.5043  0.4168
  615MPD2    C4 9165   0.817   2.718  15.364  0.9542 -0.4633 -1.0099
  615MPD2    C5 9166   0.942   2.768  15.395  0.3212  0.7614  0.2240
  615MPD2     H 9167   0.746   2.555  15.647 -0.0467 -0.6353 -0.1318
  615MPD2    H1 9168   0.771   2.752  15.272  0.4884  0.7720 -0.3209
  615MPD2    H2 9169   1.089   2.793  15.528  1.4812 -2.6303 -2.5199
  615MPD2    H3 9170   0.988   2.846  15.335 -0.7581 -0.0576 -1.6745
  615MPD2     N 9171   0.620   2.584  15.407 -0.0754 -0.4093  1.0110
  615MPD2    H5 9172   0.598   2.602  15.310  1.1613 -0.0163  0.8143
  615MPD2    N1 9173   0.967   2.659  15.742 -0.4663  0.0760 -0.3512
  615MPD2    H7 9174   0.910   2.608  15.809 -0.1733 -1.8206 -1.5592
  616TMC3    C1 9175   1.103   2.710  15.941  0.1732 -0.5149  0.3220
  616TMC3    C2 9176   1.236   2.712  15.969  0.2712  0.1545  0.3531
  616TMC3    C3 9177   1.262   2.721  16.104  0.2057 -0.4581 -0.0848
  616TMC3    C4 9178   0.999   2.703  16.022  0.1817  0.3324  0.3120
  616TMC3    C5 9179   1.034   2.724  16.157  0.5846  0.2304 -0.2931
  616TMC3    C6 9180   1.168   2.722  16.200  0.5110 -0.3490 -0.3839
  616TMC3     C 9181   1.080   2.718  15.792  0.0720  0.5826  0.4080
  616TMC3     O 9182   1.165   2.788  15.736  0.3932 -0.6724 -0.1313
  616TMC3     H 9183   1.310   2.715  15.890 -0.8005 -2.0183 -0.7158
  616TMC3    H1 9184   0.901   2.691  15.978  0.5826 -1.8942  0.0428
  616TMC3    H2 9185   1.185   2.725  16.307  0.5234 -2.3235 -0.3212
  616TMC3    C7 9186   0.921   2.759  16.242  0.0959  0.3515  0.1669
  616TMC3    C8 9187   1.389   2.673  16.146 -0.2400 -0.4920 -0.6930
  616TMC3    O1 9188   0.910   2.878  16.279  0.6422  0.0184 -0.2974
  616TMC3    O2 9189   1.446   2.605  16.061 -0.2355  0.7150 -0.3400
  617MPD2     C 9190   4.070   0.871  13.255 -0.4721 -0.5528  0.8616
  617MPD2    C1 9191   4.082   0.783  13.359  0.5921 -0.0226 -0.6551
  617MPD2    C2 9192   3.973   0.743  13.429 -0.3495 -0.4770  0.0153
  617MPD2    C3 9193   3.848   0.793  13.386 -1.0065 -0.4199 -0.5844
  617MPD2    C4 9194   3.835   0.886  13.278  0.4914  0.1217  0.6503
  617MPD2    C5 9195   3.956   0.930  13.217  0.1853  0.0380  0.7117
  617MPD2     H 9196   3.995   0.682  13.517 -1.4657 -0.9246 -0.0136
  617MPD2    H1 9197   3.738   0.917  13.244  0.8582 -1.0453 -1.4697
  617MPD2    H2 9198   4.164   0.893  13.205 -1.0237 -0.9558 -0.3744
  617MPD2    H3 9199   3.949   0.990  13.127  0.1762  0.1398  0.7815
  617MPD2     N 9200   3.731   0.759  13.452 -0.3691 -0.6184 -0.3450
  617MPD2    H5 9201   3.645   0.795  13.412  0.2084  1.9964  0.7968
  617MPD2    N1 9202   4.214   0.750  13.408  0.0791 -0.5213 -0.4616
  617MPD2    H7 9203   4.294   0.808  13.384 -0.6188  0.3978 -0.5587
  618TMC3    C1 9204   4.381   0.645  13.539  0.3584  0.1889  0.8260
  618TMC3    C2 9205   4.468   0.547  13.500  0.1620 -0.9117  0.2407
  618TMC3    C3 9206   4.602   0.578  13.509 -0.5332  0.3597  0.2182
  618TMC3    C4 9207   4.424   0.761  13.599 -0.0761  0.3119 -0.4024
  618TMC3    C5 9208   4.557   0.781  13.614 -0.1908  0.1941  0.3743
  618TMC3    C6 9209   4.644   0.696  13.568 -0.0066  0.2850 -0.2169
  618TMC3     C 9210   4.243   0.641  13.494 -0.7438  0.5045  0.0119
  618TMC3     O 9211   4.185   0.534  13.496  0.7310  0.4235 -0.1202
  618TMC3     H 9212   4.432   0.453  13.459 -2.6087  0.4375 -0.4413
  618TMC3    H1 9213   4.351   0.832  13.636  0.5086 -0.2029  1.7368
  618TMC3    H2 9214   0.011   0.718  13.581  0.4376 -1.3505 -0.9860
  618TMC3    C7 9215   4.608   0.901  13.694  0.0094  0.3316 -1.0794
  618TMC3    C8 9216   4.697   0.478  13.463  0.3368 -0.6024  0.1826
  618TMC3    O1 9217   4.541   0.945  13.787  0.0199  0.4116 -0.1107
  618TMC3    O2 9218   4.658   0.397  13.379 -0.1035 -0.1158  0.1676
  619MPD2     C 9219   0.825   2.250  14.232 -0.2084 -0.2583 -0.2367
  619MPD2    C1 9220   0.795   2.225  14.100  0.2228 -0.0539  0.2078
  619MPD2    C2 9221   0.668   2.183  14.064 -0.0546  0.0481 -0.2438
  619MPD2    C3 9222   0.579   2.146  14.160 -0.0457 -0.3498  0.2394
  619MPD2    C4 9223   0.608   2.170  14.293  0.1903 -0.1326  0.4446
  619MPD2    C5 9224   0.729   2.219  14.329  0.2729  0.4385 -0.9334
  619MPD2     H 9225   0.644   2.167  13.959 -1.2961 -3.1578  0.5250
  619MPD2    H1 9226   0.535   2.142  14.368 -1.0551  2.5233  0.2217
  619MPD2    H2 9227   0.924   2.277  14.268  0.4231 -1.9213 -0.6857
  619MPD2    H3 9228   0.748   2.227  14.436 -0.0994 -2.8768 -0.5973
  619MPD2     N 9229   0.454   2.088  14.130  0.9382  0.0486 -0.8056
  619MPD2    H5 9230   0.382   2.094  14.202  0.6775  0.9161 -1.1381
  619MPD2    N1 9231   0.894   2.253  13.997  0.0230  0.0352  0.5315
  619MPD2    H7 9232   0.866   2.228  13.902  1.3295 -0.9966  0.4154
  620TMC3    C1 9233   1.054   2.368  13.876 -0.2511  0.2079 -0.0230
  620TMC3    C2 9234   0.986   2.349  13.759  0.7728  0.0647 -0.2368
  620TMC3    C3 9235   1.031   2.411  13.644 -0.4509 -0.1056 -0.4346
  620TMC3    C4 9236   1.166   2.450  13.885 -0.2349 -0.1720  1.1465
  620TMC3    C5 9237   1.207   2.512  13.769 -0.5800  0.0070  0.5077
  620TMC3    C6 9238   1.152   2.480  13.650  0.3038 -0.9689 -0.4479
  620TMC3     C 9239   1.005   2.332  14.009 -0.3234  0.2342  0.5182
  620TMC3     O 9240   1.056   2.383  14.106  0.0185  0.6221  0.1984
  620TMC3     H 9241   0.885   2.309  13.756  0.1396  1.6325 -0.0825
  620TMC3    H1 9242   1.222   2.454  13.978  2.5000  1.2893 -0.5995
  620TMC3    H2 9243   1.208   2.516  13.565 -3.7452  2.0056 -1.8628
  620TMC3    C7 9244   1.327   2.608  13.779  0.1339  0.1114  0.5627
  620TMC3    C8 9245   0.920   2.471  13.563 -0.1016  0.0647  0.1540
  620TMC3    O1 9246   1.397   2.594  13.874 -0.2255 -0.1498 -0.3900
  620TMC3    O2 9247   0.870   2.564  13.622 -0.8485 -0.0034  0.4337
  621MPD2     C 9248   0.491   3.060   9.948  0.2556  0.8999  0.1288
  621MPD2    C1 9249   0.566   2.990   9.852 -0.1443 -0.0907 -1.1853
  621MPD2    C2 9250   0.604   3.060   9.742 -0.0871 -0.3452  0.3709
  621MPD2    C3 9251   0.559   3.192   9.723 -0.3576 -0.3704 -0.1394
  621MPD2    C4 9252   0.479   3.254   9.819  0.1990 -0.5130  0.0248
  621MPD2    C5 9253   0.437   3.181   9.929  0.2150 -0.1538  0.0499
  621MPD2     H 9254   0.674   3.013   9.673 -0.4701  0.7999 -0.8177
  621MPD2    H1 9255   0.424   3.342   9.790  0.0583 -1.0997 -1.4668
  621MPD2    H2 9256   0.451   3.016  10.039  0.5078  0.3258 -0.0419
  621MPD2    H3 9257   0.367   3.223  10.000 -0.8960  0.8175 -1.6212
  621MPD2     N 9258   0.599   3.263   9.608  0.1060  0.4155  0.2719
  621MPD2    H5 9259   0.651   3.204   9.544 -0.1052  0.8339 -0.2909
  621MPD2    N1 9260   0.601   2.854   9.873  0.1710  0.9455  0.3635
  621MPD2    H7 9261   0.639   2.802   9.794 -2.4380 -0.6010  0.1082
  622TMC3    C1 9262   0.642   2.652   9.979 -0.1636  0.2985 -0.1321
  622TMC3    C2 9263   0.619   2.567  10.080  0.1753  0.7077 -0.6995
  622TMC3    C3 9264   0.713   2.473  10.103  0.0484 -0.1189 -0.0523
  622TMC3    C4 9265   0.750   2.634   9.890  0.5445 -0.1135  0.0204
  622TMC3    C5 9266   0.831   2.527   9.914  0.6876  0.4936 -0.6143
  622TMC3    C6 9267   0.825   2.455  10.031 -1.0676  0.0607 -0.3309
  622TMC3     C 9268   0.572   2.780   9.983  0.9022  0.6127  0.2344
  622TMC3     O 9269   0.524   2.805  10.096  0.0508 -0.2647  0.3102
  622TMC3     H 9270   0.533   2.578  10.145  0.1995  1.2929 -0.7738
  622TMC3    H1 9271   0.768   2.701   9.807 -1.9910  0.3726 -0.1196
  622TMC3    H2 9272   0.893   2.371  10.040  0.3787  1.1225 -1.3600
  622TMC3    C7 9273   0.891   2.451   9.811  0.4936  0.0132 -0.1395
  622TMC3    C8 9274   0.658   2.347  10.160 -0.4303  0.5852  0.3488
  622TMC3    O1 9275   0.995   2.394   9.841  0.1609  0.0153 -0.2242
  622TMC3    O2 9276   0.741   2.265  10.192 -0.4277  0.3708 -0.5159
  623MPD2     C 9277   4.439   3.360  15.821 -0.4538  0.2924  0.1828
  623MPD2    C1 9278   4.395   3.252  15.886  0.5323 -0.0371 -0.2434
  623MPD2    C2 9279   4.470   3.205  15.990 -0.0164  0.7687  0.1528
  623MPD2    C3 9280   4.601   3.243  16.012 -0.8790 -0.5640  0.6720
  623MPD2    C4 9281   4.645   3.352  15.939 -0.6346  0.9170  0.3079
  623MPD2    C5 9282   4.563   3.408  15.849  0.0280  0.2398  0.2532
  623MPD2     H 9283   4.417   3.142  16.060  1.6844 -2.1735 -1.1912
  623MPD2    H1 9284   0.008   3.386  15.957 -0.8682  2.9415 -2.2410
  623MPD2    H2 9285   4.393   3.385  15.726  0.1152 -0.3159 -0.2523
  623MPD2    H3 9286   4.600   3.485  15.781 -1.6660  0.1190 -0.8075
  623MPD2     N 9287   4.665   3.190  16.127  0.0378  0.0028  0.5236
  623MPD2    H5 9288   4.616   3.116  16.175  2.5163 -0.7579  1.9039
  623MPD2    N1 9289   4.271   3.192  15.842 -0.0057  0.3268 -0.6016
  623MPD2    H7 9290   4.219   3.252  15.780  0.9158  0.7515 -0.9629
  624TMC3    C1 9291   0.165   3.206  16.519 -0.2024 -0.9264  0.0303
  624TMC3    C2 9292   0.070   3.125  16.571  0.2260 -0.4557  0.0449
  624TMC3    C3 9293   4.726   3.055  16.484  0.9407  0.2344  0.3005
  624TMC3    C4 9294   0.173   3.222  16.384 -0.2329 -0.0852  0.6539
  624TMC3    C5 9295   0.082   3.164  16.297 -0.2311 -0.2007 -0.7223
  624TMC3    C6 9296   4.728   3.082  16.351  0.7465 -0.5280 -0.3535
  624TMC3     C 9297   0.288   3.197  16.595  0.3483  0.1315 -0.1127
  624TMC3     O 9298   0.284   3.141  16.701  0.0036  0.1509  0.4183
  624TMC3     H 9299   0.078   3.098  16.676  1.1553  0.7915  0.2913
  624TMC3    H1 9300   0.240   3.295  16.341 -1.3167  0.7334  0.3395
  624TMC3    H2 9301   4.646   3.038  16.294 -0.4602 -0.1065  1.0397
  624TMC3    C7 9302   0.042   3.239  16.179 -0.3722 -0.5384  0.4377
  624TMC3    C8 9303   4.606   2.979  16.535 -0.3983 -0.7223  0.8446
  624TMC3    O1 9304   0.118   3.327  16.137 -0.1593 -0.0033  0.4396
  624TMC3    O2 9305   4.547   2.906  16.458  0.1996  0.0103 -0.5752
  625MPD2     C 9306   4.722   3.906   0.654  0.4840  0.1792  0.2279
  625MPD2    C1 9307   0.005   4.041   0.651 -0.2540 -0.0691  0.3699
  625MPD2    C2 9308   0.123   4.098   0.701 -0.0881 -0.1933  0.3219
  625MPD2    C3 9309   0.222   4.018   0.754 -1.4628 -0.3895 -0.8302
  625MPD2    C4 9310   0.206   3.877   0.759  0.1192 -0.1786 -0.3784
  625MPD2    C5 9311   0.085   3.823   0.702 -0.4257  0.6121  0.7682
  625MPD2     H 9312   0.147   4.204   0.703 -0.8896 -0.0016 -0.4268
  625MPD2    H1 9313   0.275   3.809   0.807  0.3828  0.4498  0.1344
  625MPD2    H2 9314   4.638   3.858   0.606  0.9516  3.5439 -4.0272
  625MPD2    H3 9315   0.061   3.718   0.711 -0.4083  0.5042 -0.3631
  625MPD2     N 9316   0.332   4.088   0.803 -0.3643  0.0974 -0.0710
  625MPD2    H5 9317   0.351   4.184   0.776 -0.9574 -0.0074 -0.8741
  625MPD2    N1 9318   4.660   4.132   0.589  0.3174  0.0266 -0.3590
  625MPD2    H7 9319   4.675   4.232   0.600 -2.0920  0.3755 -0.0618
  626TMC3    C1 9320   4.477   4.219   0.508  0.3631  0.0738  0.4621
  626TMC3    C2 9321   4.406   4.235   0.395 -0.2861  0.3382 -0.4255
  626TMC3    C3 9322   4.294   4.316   0.405  0.1207 -0.0880 -0.5965
  626TMC3    C4 9323   4.439   4.279   0.628  1.3874  0.2642  0.6363
  626TMC3    C5 9324   4.333   4.364   0.633 -0.1577  0.2016  0.1053
  626TMC3    C6 9325   4.266   4.391   0.514  0.5025 -0.2386  0.0640
  626TMC3     C 9326   4.552   4.101   0.512 -0.1500 -0.5320  0.0784
  626TMC3     O 9327   4.507   3.991   0.483  0.3013  0.3504 -0.1031
  626TMC3     H 9328   4.421   4.177   0.305  0.5965  0.6246 -0.4627
  626TMC3    H1 9329   4.491   4.253   0.719  1.3320  1.7932  1.1082
  626TMC3    H2 9330   4.179   4.456   0.508  0.5956 -0.3022 -1.9569
  626TMC3    C7 9331   4.288   4.413   0.759  0.5545  0.0678  0.3920
  626TMC3    C8 9332   4.238   4.360   0.275  0.4495 -0.3197  0.4374
  626TMC3    O1 9333   4.380   4.413   0.838  0.4180  0.0795  0.5021
  626TMC3    O2 9334   4.194   4.473   0.272  0.1283 -0.2616  0.5233
  627MPD2     C 9335   3.414   4.311  14.029 -0.6249  0.2234 -0.1282
  627MPD2    C1 9336   3.460   4.301  14.160  0.7543 -0.2700 -0.3688
  627MPD2    C2 9337   3.413   4.199  14.237 -1.0755  0.5582 -0.5306
  627MPD2    C3 9338   3.338   4.097  14.180 -0.2078  0.3573  0.4358
  627MPD2    C4 9339   3.286   4.111  14.056  0.0320 -0.1470  0.7745
  627MPD2    C5 9340   3.321   4.224  13.985  0.3888  0.5604 -0.3714
  627MPD2     H 9341   3.450   4.194  14.339 -0.1000  3.2472 -0.7408
  627MPD2    H1 9342   3.224   4.035  14.009  0.7928 -1.2798  1.6119
  627MPD2    H2 9343   3.433   4.407  13.981  2.3052 -2.1970 -3.7602
  627MPD2    H3 9344   3.291   4.239  13.882 -1.3027  1.2821  0.2224
  627MPD2     N 9345   3.311   3.987  14.264 -0.2019  0.3335 -0.2249
  627MPD2    H5 9346   3.355   3.988  14.356 -2.4921  1.3212  0.8805
  627MPD2    N1 9347   3.547   4.384  14.232 -0.6047 -0.0265 -0.0129
  627MPD2    H7 9348   3.566   4.367  14.330  1.0766  1.7027 -0.0484
  628TMC3    C1 9349   3.702   4.559  14.285  0.1966 -0.3536  0.2936
  628TMC3    C2 9350   3.784   4.484  14.370  0.6475 -0.1762  0.8124
  628TMC3    C3 9351   3.881   4.556  14.434 -0.3231 -0.0115  0.1383
  628TMC3    C4 9352   3.720   4.696  14.260 -1.2002 -0.0060  1.1009
  628TMC3    C5 9353   3.830   0.014  14.319  0.9147  0.7891  0.3111
  628TMC3    C6 9354   3.913   4.684  14.404 -0.1096 -0.0428 -0.0450
  628TMC3     C 9355   3.631   4.483  14.180  0.0773 -0.1353  0.2398
  628TMC3     O 9356   3.636   4.518  14.063  0.1805 -0.7915  0.1460
  628TMC3     H 9357   3.776   4.377  14.383  1.0151 -0.0839  1.7936
  628TMC3    H1 9358   3.668   0.012  14.183 -1.9988  0.0810  1.6957
  628TMC3    H2 9359   4.000   4.729  14.451  1.5959 -1.9660 -1.3381
  628TMC3    C7 9360   3.866   0.156  14.302  0.2684 -0.1025  0.0657
  628TMC3    C8 9361   3.967   4.488  14.531 -0.5053  0.3162 -1.0863
  628TMC3    O1 9362   3.982   0.188  14.326 -0.3988 -0.1469 -0.2537
  628TMC3    O2 9363   4.082   4.525  14.546  0.0435  0.4378 -0.4034
  629MPD2     C 9364   1.796   2.599  16.428 -0.1135 -0.3180  0.2295
  629MPD2    C1 9365   1.718   2.689  16.496 -0.5761  0.0440 -0.3604
  629MPD2    C2 9366   1.595   2.722  16.447  0.0174  0.2138 -0.3504
  629MPD2    C3 9367   1.548   2.658  16.331  0.6966  0.2002 -0.1141
  629MPD2    C4 9368   1.630   2.560  16.267 -0.4368  0.1510 -0.3608
  629MPD2    C5 9369   1.752   2.531  16.323  0.6785 -0.4699 -0.2465
  629MPD2     H 9370   1.541   2.807  16.487 -1.3507 -1.1372  0.6368
  629MPD2    H1 9371   1.602   2.506  16.177  1.5418  0.1261 -0.9669
  629MPD2    H2 9372   1.901   2.594  16.456 -0.1864 -1.7418  0.2250
  629MPD2    H3 9373   1.817   2.471  16.261 -0.4939 -2.5375  0.5267
  629MPD2     N 9374   1.426   2.701  16.271 -0.5508  0.4756 -0.1985
  629MPD2    H5 9375   1.365   2.751  16.335  0.9901 -0.7596  2.1976
  629MPD2    N1 9376   1.776   2.766  16.599  0.4732  0.2771 -0.1773
  629MPD2    H7 9377   1.877   2.765  16.608  0.2684 -1.3979  2.0047
  630TMC3    C1 9378   1.813   2.946  16.730  0.6288 -0.5271  0.4221
  630TMC3    C2 9379   1.921   2.987  16.654 -0.2166 -0.8640 -0.7272
  630TMC3    C3 9380   2.012   3.068  16.713  0.0279  0.9124 -0.4853
  630TMC3    C4 9381   1.801   2.972  16.862 -0.1534 -0.5059 -0.1924
  630TMC3    C5 9382   1.888   3.072  16.907  0.8681  0.3393  0.0640
  630TMC3    C6 9383   1.998   3.114  16.838 -0.6134  0.1649 -0.6431
  630TMC3     C 9384   1.713   2.852  16.678 -0.4953  0.6428  0.5450
  630TMC3     O 9385   1.595   2.857  16.712  0.4042  0.5386  0.2068
  630TMC3     H 9386   1.933   2.951  16.552  1.3116 -0.4270 -0.6934
  630TMC3    H1 9387   1.706   2.946  16.907 -0.9459  1.1589 -0.8922
  630TMC3    H2 9388   2.082   3.152  16.894 -1.2067  0.6949 -0.1161
  630TMC3    C7 9389   1.844   3.139  17.029  0.3959 -0.2792 -0.1615
  630TMC3    C8 9390   2.109   3.141  16.635 -0.1635  0.6554  0.3295
  630TMC3    O1 9391   1.741   3.101  17.085  0.4950  0.3258  0.0923
  630TMC3    O2 9392   2.133   3.252  16.682 -0.6928  0.0419 -0.6076
  631MPD2     C 9393   4.515   3.011  15.607 -0.6113  0.9639 -0.5881
  631MPD2    C1 9394   4.588   3.039  15.494  0.0785  0.7728  0.0987
  631MPD2    C2 9395   4.668   2.942  15.440 -0.2538 -0.7461 -0.2520
  631MPD2    C3 9396   4.681   2.826  15.504 -0.0715  0.8278  0.1077
  631MPD2    C4 9397   4.618   2.800  15.628 -0.0664  0.0528  0.1298
  631MPD2    C5 9398   4.530   2.897  15.681 -0.0875  0.2672  0.0565
  631MPD2     H 9399   4.722   2.943  15.346  1.8065 -0.2770  0.9337
  631MPD2    H1 9400   4.624   2.704  15.679  0.6580 -0.5658 -1.1168
  631MPD2    H2 9401   4.463   3.102  15.636  0.9741  0.6732  3.2347
  631MPD2    H3 9402   4.480   2.890  15.777  1.1492  1.7897  0.8084
  631MPD2     N 9403   0.024   2.729  15.438 -0.4958  0.0289  0.2995
  631MPD2    H5 9404   0.059   2.753  15.346 -4.6130  0.8829 -1.0358
  631MPD2    N1 9405   4.575   3.167  15.426  0.1141 -0.5431  0.5878
  631MPD2    H7 9406   4.499   3.225  15.457  2.3829  2.2617  0.8788
  632TMC3    C1 9407   4.623   3.362  15.302  0.3080  0.6622  1.0068
  632TMC3    C2 9408   4.611   3.430  15.421  1.0413 -0.1440  0.1782
  632TMC3    C3 9409   4.657   3.563  15.418 -0.1242  0.3705 -0.0195
  632TMC3    C4 9410   4.697   3.407  15.198 -0.0886 -0.7253  0.4786
  632TMC3    C5 9411   0.002   3.536  15.197  0.4068 -1.0980  0.5643
  632TMC3    C6 9412   4.723   3.616  15.305 -0.1146  0.5515  0.0590
  632TMC3     C 9413   4.645   3.217  15.323 -0.7262  0.9954  0.5011
  632TMC3     O 9414   0.003   3.168  15.259 -0.1618  0.2533  0.3144
  632TMC3     H 9415   4.564   3.391  15.511  0.3877 -0.1235 -0.1590
  632TMC3    H1 9416   4.706   3.347  15.108 -2.1869 -0.8031  0.3234
  632TMC3    H2 9417   4.736   3.723  15.295  0.4263  0.4008 -0.9391
  632TMC3    C7 9418   0.078   3.579  15.085 -0.0010 -0.0994  0.0326
  632TMC3    C8 9419   4.611   3.662  15.509 -0.1964  0.1555  0.7908
  632TMC3    O1 9420   0.046   3.524  14.979 -0.9480 -0.0090 -0.7798
  632TMC3    O2 9421   4.506   3.632  15.570 -0.6227  0.2611 -0.5853
  633MPD2     C 9422   4.518   1.292  17.292  0.4440 -0.0013  0.2342
  633MPD2    C1 9423   4.517   1.252  17.158  0.5783 -0.0628  0.0153
  633MPD2    C2 9424   4.425   1.153  17.119 -0.3604 -0.0998  0.1545
  633MPD2    C3 9425   4.332   1.103  17.210 -0.0285  0.0346 -0.3508
  633MPD2    C4 9426   4.336   1.151  17.341  0.2127  0.5640  0.2483
  633MPD2    C5 9427   4.424   1.248  17.378  0.4910 -0.4519 -0.3304
  633MPD2     H 9428   4.424   1.126  17.014  0.2721 -0.8146  0.3278
  633MPD2    H1 9429   4.260   1.121  17.412 -0.1714 -0.7105 -0.6986
  633MPD2    H2 9430   4.590   1.366  17.326  2.1704 -1.2082 -0.7971
  633MPD2    H3 9431   4.425   1.284  17.480 -0.0240 -2.8469  0.5235
  633MPD2     N 9432   4.240   1.000  17.180  0.4393  0.4312 -0.6201
  633MPD2    H5 9433   4.188   0.961  17.257  0.2368  0.7345 -0.6014
  633MPD2    N1 9434   4.613   1.292  17.057  0.2862  0.6920 -0.1696
  633MPD2    H7 9435   4.608   1.248  16.965  2.9344  0.0081  0.0068
  634TMC3    C1 9436   0.007   1.427  16.936  0.1871  0.0552 -0.1940
  634TMC3    C2 9437   0.040   1.322  16.851 -0.3300  0.5440  0.1575
  634TMC3    C3 9438   0.053   1.336  16.717 -0.0157  0.3409  0.4919
  634TMC3    C4 9439   4.724   1.546  16.876  0.0452  0.2366  0.1521
  634TMC3    C5 9440   4.731   1.565  16.743 -0.7167 -0.4918  0.1663
  634TMC3    C6 9441   0.034   1.461  16.659 -0.4862  0.2089 -0.3107
  634TMC3     C 9442   4.689   1.405  17.062 -0.6315  0.1523  0.5225
  634TMC3     O 9443   4.691   1.491  17.150  0.2674  0.7294  0.0848
  634TMC3     H 9444   0.064   1.227  16.896  0.1260 -0.6366 -2.5651
  634TMC3    H1 9445   4.700   1.631  16.940 -1.5617  1.3381 -1.9146
  634TMC3    H2 9446   0.035   1.476  16.551  1.8606 -3.2844 -0.7822
  634TMC3    C7 9447   4.682   1.681  16.678 -0.4034 -0.4274  0.3673
  634TMC3    C8 9448   0.060   1.227  16.624 -1.0032 -0.0901 -0.0654
  634TMC3    O1 9449   4.718   1.700  16.561  0.1404 -0.4518  0.0908
  634TMC3    O2 9450   0.035   1.110  16.656  0.3464 -0.6460 -0.1014
  635TMC3    C1 9451   0.303   2.724  17.630  0.1465 -0.8289  0.2726
  635TMC3    C2 9452   0.384   2.763  17.524  0.6536  0.8946  0.1385
  635TMC3    C3 9453   0.327   2.742  17.401 -0.0633  0.0499 -0.3611
  635TMC3    C4 9454   0.178   2.672  17.613 -0.0678  0.0018  0.3228
  635TMC3    C5 9455   0.130   2.655  17.487  0.5546  0.0078 -0.5104
  635TMC3    C6 9456   0.202   2.685  17.379  0.6140 -0.0763 -0.0297
  635TMC3     C 9457   0.356   2.757   0.004  0.6942  0.6666 -0.0606
  635TMC3     O 9458   0.437   2.850   0.002  0.5200 -0.1876  0.3243
  635TMC3     H 9459   0.482   2.810  17.529  0.7461  0.6202  0.9569
  635TMC3    H1 9460   0.121   2.667  17.705 -1.0279 -0.5545 -0.3036
  635TMC3    H2 9461   0.165   2.680  17.278 -1.9673  1.5820  0.8578
  635TMC3    C7 9462   0.003   2.596  17.457 -0.2251  0.1750  0.3434
  635TMC3    C8 9463   0.431   2.724  17.298 -0.8062 -0.0222 -0.5890
  635TMC3    O1 9464   4.705   2.601  17.342  0.1860 -0.2610 -0.2180
  635TMC3    O2 9465   0.542   2.679  17.327 -0.4626 -0.5688  0.0035
  636MPD2     C 9466   1.412   1.684  16.280 -0.2540 -0.6164  0.7114
  636MPD2    C1 9467   1.393   1.727  16.150 -0.3719 -0.7174  0.2147
  636MPD2    C2 9468   1.434   1.650  16.049  0.1718  0.1134  0.2707
  636MPD2    C3 9469   1.486   1.524  16.074  0.4742 -0.0810  0.1513
  636MPD2    C4 9470   1.498   1.481  16.204  0.3187  0.2027  0.3691
  636MPD2    C5 9471   1.461   1.560  16.304 -0.0896  0.1448 -0.0499
  636MPD2     H 9472   1.419   1.681  15.946 -0.8364  0.2970  0.4741
  636MPD2    H1 9473   1.544   1.384  16.222 -1.6270 -0.3071  2.7044
  636MPD2    H2 9474   1.372   1.740  16.364 -1.9348  0.2343 -0.6519
  636MPD2    H3 9475   1.470   1.525  16.406 -0.0426 -0.5565 -0.2980
  636MPD2     N 9476   1.512   1.438  15.966  0.3593  0.2718  0.1398
  636MPD2    H5 9477   1.480   1.474  15.877 -0.9491 -0.1126  0.4545
  636MPD2    N1 9478   1.332   1.855  16.121  0.2779  0.4951  0.0123
  636MPD2    H7 9479   1.324   1.883  16.023 -1.1660 -0.6394 -0.1922
  637TMC3    C1 9480   1.564   1.234  15.860 -0.0762 -0.3967 -1.0624
  637TMC3    C2 9481   1.432   1.228  15.813 -0.3231 -0.5406 -0.0658
  637TMC3    C3 9482   1.389   1.108  15.754 -0.7027 -0.5719  0.3259
  637TMC3    C4 9483   1.651   1.128  15.862 -0.5008  0.5097  0.2448
  637TMC3    C5 9484   1.596   1.008  15.815  0.2231  0.5185 -0.2034
  637TMC3    C6 9485   1.473   1.001  15.754 -0.6832 -0.3295 -0.3279
  637TMC3     C 9486   1.586   1.320  15.970 -0.3880 -0.9790  0.4173
  637TMC3     O 9487   1.656   1.268  16.058 -0.7128 -0.2228 -0.9912
  637TMC3     H 9488   1.368   1.314  15.830  1.6989  1.1761 -1.1666
  637TMC3    H1 9489   1.748   1.129  15.909  0.0977  1.6783 -1.0490
  637TMC3    H2 9490   1.445   0.903  15.718 -1.4525  0.3912 -1.6993
  637TMC3    C7 9491   1.690   0.897  15.801  0.4489 -0.2410  0.2852
  637TMC3    C8 9492   1.250   1.079  15.777 -0.0952  0.0203 -0.5985
  637TMC3    O1 9493   1.804   0.934  15.780  0.2773  0.3851  0.1054
  637TMC3    O2 9494   1.199   1.152  15.857  0.2109 -0.2237 -0.3553
  638MPD2     C 9495   1.136   0.381  14.509  0.3039 -0.2122 -0.9300
  638MPD2    C1 9496   1.096   0.245  14.516  0.4270  0.0092  0.2856
  638MPD2    C2 9497   1.014   0.197  14.622  0.3690  0.2553  0.5830
  638MPD2    C3 9498   0.978   0.285  14.721  0.1189 -0.0813 -0.0477
  638MPD2    C4 9499   1.001   0.420  14.695 -0.2454 -0.8996 -0.5250
  638MPD2    C5 9500   1.075   0.469  14.591  1.0086  0.0563 -0.6017
  638MPD2     H 9501   0.953   0.107  14.626  0.0916  0.4389  0.4829
  638MPD2    H1 9502   0.971   0.486  14.775  0.1892  0.1884 -1.2718
  638MPD2    H2 9503   1.201   0.428  14.436  1.1262 -0.6700 -0.4917
  638MPD2    H3 9504   1.099   0.575  14.590  2.1831 -0.2152 -2.4833
  638MPD2     N 9505   0.891   0.246  14.832  0.3941  0.1325 -0.1351
  638MPD2    H5 9506   0.836   0.316  14.881 -0.4259  0.4182 -1.4499
  638MPD2    N1 9507   1.131   0.164  14.413 -0.3719  0.1559 -0.7039
  638MPD2    H7 9508   1.181   0.204  14.335 -1.2184  3.1252  0.2887
  639TMC3    C1 9509   0.762   0.095  14.941 -0.1490 -0.4251 -0.2970
  639TMC3    C2 9510   0.678   0.024  14.863 -0.5545 -0.7765 -0.0992
  639TMC3    C3 9511   0.601   4.672  14.924  0.4820  0.3061  0.2092
  639TMC3    C4 9512   0.781   0.069  15.078  0.7654 -0.2283  0.3244
  639TMC3    C5 9513   0.706   4.709  15.132 -0.0236  0.0943 -0.1340
  639TMC3    C6 9514   0.607   4.644  15.064  0.1093  0.1723 -0.0313
  639TMC3     C 9515   0.890   0.120  14.880 -0.2150  0.5522  0.3316
  639TMC3     O 9516   0.961   0.022  14.859 -0.0304 -0.0916  0.2314
  639TMC3     H 9517   0.666   0.052  14.759 -1.8970 -1.8178 -0.2219
  639TMC3    H1 9518   0.864   0.116  15.129  0.1023  0.7481  0.4970
  639TMC3    H2 9519   0.581   4.550  15.111  1.0286  0.5908  1.2940
  639TMC3    C7 9520   0.789   4.602  15.197 -0.1203 -0.3538 -0.1487
  639TMC3    C8 9521   0.570   4.563  14.841  0.0567 -0.2033  0.5076
  639TMC3    O1 9522   0.727   4.531  15.279 -0.5100 -0.4086 -0.5110
  639TMC3    O2 9523   0.620   4.571  14.730 -0.5905 -0.2676  0.4482
  640MPD2     C 9524   1.551   3.596  10.118 -0.2344  0.2863  0.1095
  640MPD2    C1 9525   1.503   3.654  10.002 -0.5175 -0.1084  0.2414
  640MPD2    C2 9526   1.482   3.788  10.002 -0.5322  1.1722 -0.3943
  640MPD2    C3 9527   1.497   3.867  10.116 -0.4982 -0.2273  0.6530
  640MPD2    C4 9528   1.549   3.814  10.229  0.2676 -0.6459  0.5390
  640MPD2    C5 9529   1.581   3.678  10.225 -0.5827  0.6308  0.1222
  640MPD2     H 9530   1.451   3.846   9.915 -1.7240  1.3854  0.1711
  640MPD2    H1 9531   1.582   3.872  10.315 -0.1697 -1.1696  1.0631
  640MPD2    H2 9532   1.543   3.489  10.134 -1.7737  0.1571 -1.4871
  640MPD2    H3 9533   1.624   3.628  10.311 -1.5423  0.7168  0.6448
  640MPD2     N 9534   1.449   3.999  10.124  0.0683 -0.6209  0.3884
  640MPD2    H5 9535   1.460   4.045  10.214  3.5744 -0.4435 -0.1313
  640MPD2    N1 9536   1.483   3.567   9.894 -0.3889  0.4043 -0.2231
  640MPD2    H7 9537   1.507   3.469   9.899  0.7505  0.7074  0.1666
  641TMC3    C1 9538   1.437   3.510   9.666  0.5812 -0.6534  0.0925
  641TMC3    C2 9539   1.478   3.379   9.690  0.1953  0.6903  0.3117
  641TMC3    C3 9540   1.457   3.285   9.587 -0.6377  0.7719  0.4500
  641TMC3    C4 9541   1.394   3.549   9.543 -0.5353  0.0966  0.2909
  641TMC3    C5 9542   1.365   3.458   9.446 -0.3108  1.0111 -0.4491
  641TMC3    C6 9543   1.402   3.318   9.468  0.2970  0.4054 -0.1999
  641TMC3     C 9544   1.442   3.611   9.771 -0.3296  0.5152 -0.2401
  641TMC3     O 9545   1.396   3.719   9.739 -0.6033  0.7278 -0.2621
  641TMC3     H 9546   1.531   3.353   9.780  0.6882  0.5452 -0.0205
  641TMC3    H1 9547   1.338   3.640   9.526  0.8665  1.1420  1.2616
  641TMC3    H2 9548   1.403   3.249   9.385 -1.1573  0.3552 -0.1620
  641TMC3    C7 9549   1.284   3.497   9.332 -0.4361  0.2432 -0.0325
  641TMC3    C8 9550   1.513   3.150   9.597  0.8594  0.5445  0.8742
  641TMC3    O1 9551   1.192   3.576   9.355 -0.0300 -0.2065 -0.5908
  641TMC3    O2 9552   1.535   3.094   9.488 -0.4321 -0.3734 -0.2470
  642TMC3    C1 9553   2.576   4.731  12.160  0.5640 -0.5890 -0.6413
  642TMC3    C2 9554   2.650   0.067  12.239  0.2271 -0.2809  0.2848
  642TMC3    C3 9555   2.701   0.011  12.356 -0.1625 -0.0648 -0.2142
  642TMC3    C4 9556   2.538   4.605  12.196  0.0563 -0.0251 -0.0233
  642TMC3    C5 9557   2.597   4.546  12.306  0.3695 -0.2420 -0.6818
  642TMC3    C6 9558   2.677   4.615  12.390 -0.3074 -0.3223 -0.6927
  642TMC3     C 9559   2.481   0.055  12.076  0.4345 -0.5024  0.2470
  642TMC3     O 9560   2.450   4.737  11.972  0.2792  0.0574  0.3432
  642TMC3     H 9561   2.669   0.171  12.212  0.5047 -0.5690 -0.6049
  642TMC3    H1 9562   2.473   4.549  12.130 -0.9464 -0.7968  1.6173
  642TMC3    H2 9563   2.724   4.568  12.476  1.2856  0.5109 -1.1031
  642TMC3    C7 9564   2.540   4.418  12.331  0.3754  0.5459  0.2920
  642TMC3    C8 9565   2.821   0.070  12.418 -0.3070  0.0294 -0.1392
  642TMC3    O1 9566   2.515   4.349  12.230 -0.4590  0.0246 -0.3986
  642TMC3    O2 9567   2.885   0.004  12.500  0.0651  0.4600 -0.1344
  643TMC3    C1 9568   1.644   4.204   0.641 -0.0629 -0.3921  0.1926
  643TMC3    C2 9569   1.589   4.203   0.515 -0.6017 -0.5262  0.2810
  643TMC3    C3 9570   1.630   4.101   0.433 -0.2628 -0.8626  0.1499
  643TMC3    C4 9571   1.736   4.115   0.680  1.1057  0.3917  0.3098
  643TMC3    C5 9572   1.788   4.027   0.587 -0.3344 -0.2633 -0.9291
  643TMC3    C6 9573   1.727   4.008   0.466 -0.5832 -0.2778 -0.3417
  643TMC3     C 9574   1.679   4.342   0.683 -0.0619  0.2000  0.5133
  643TMC3     O 9575   1.598   4.435   0.663  0.1063 -0.0893 -0.3817
  643TMC3     H 9576   1.523   4.285   0.489  2.1121  2.2293  1.9584
  643TMC3    H1 9577   1.787   4.115   0.776  0.9951  0.8306  0.3696
  643TMC3    H2 9578   1.744   3.916   0.413 -1.1671 -0.7004  0.1996
  643TMC3    C7 9579   1.924   4.063   0.562 -0.2679  0.6077 -0.7155
  643TMC3    C8 9580   1.631   4.134   0.289  0.2599 -0.8441  0.2123
  643TMC3    O1 9581   1.984   4.114   0.653 -0.3719 -0.7248  1.0020
  643TMC3    O2 9582   1.600   4.039   0.218 -0.2187  0.2344 -0.1121
  644MPD2     C 9583   1.758   4.025  10.023 -0.0907  0.6797 -0.9751
  644MPD2    C1 9584   1.706   4.015   9.898 -0.4836 -0.4953 -0.6314
  644MPD2    C2 9585   1.654   4.127   9.836  0.6223 -0.1816  0.6327
  644MPD2    C3 9586   1.661   4.254   9.902 -0.4086 -0.1960 -0.0944
  644MPD2    C4 9587   1.721   4.265  10.024  0.2311  0.0580  0.0700
  644MPD2    C5 9588   1.764   4.148  10.084  0.1294 -0.3305 -0.3771
  644MPD2     H 9589   1.620   4.125   9.733  1.3998 -1.8658  0.4152
  644MPD2    H1 9590   1.741   4.360  10.074  1.3347 -0.6960  1.0555
  644MPD2    H2 9591   1.799   3.933  10.065  1.5966  0.8040 -2.3128
  644MPD2    H3 9592   1.822   4.141  10.176 -0.7646  1.4940  0.3158
  644MPD2     N 9593   1.603   4.364   9.833  0.0144  0.9540 -0.7071
  644MPD2    H5 9594   1.555   4.345   9.746 -0.8004 -0.7953  0.1183
  644MPD2    N1 9595   1.723   3.894   9.838 -0.9959  0.2158 -0.4458
  644MPD2    H7 9596   1.787   3.834   9.889 -2.1240 -0.7606 -0.1609
  645TMC3    C1 9597   1.568   4.585   9.775  0.9096  0.0493 -0.2553
  645TMC3    C2 9598   1.606   4.717   9.796 -0.1645  0.3605  0.3656
  645TMC3    C3 9599   1.573   0.070   9.708 -0.0617 -0.1421  0.1661
  645TMC3    C4 9600   1.494   4.549   9.669 -0.0373  0.0962  0.5267
  645TMC3    C5 9601   1.439   4.655   9.601  0.2306  0.2182 -0.0662
  645TMC3    C6 9602   1.493   0.042   9.603  0.3619  1.0251  0.1790
  645TMC3     C 9603   1.631   4.493   9.866  0.1693 -0.0159 -0.7420
  645TMC3     O 9604   1.701   4.532   9.957  0.5774 -0.3407  0.5144
  645TMC3     H 9605   1.646   4.736   9.895  0.9204  0.6981 -0.1332
  645TMC3    H1 9606   1.462   4.447   9.652 -1.7318  0.4001  1.9075
  645TMC3    H2 9607   1.447   0.120   9.543 -2.9096 -1.9824 -1.2524
  645TMC3    C7 9608   1.359   4.630   9.491  0.7366  1.0035 -0.3462
  645TMC3    C8 9609   1.564   0.205   9.761 -0.3521  0.3080 -0.4050
  645TMC3    O1 9610   1.371   4.711   9.398 -0.1719  0.9318  0.3098
  645TMC3    O2 9611   1.544   0.206   9.883 -0.2948  0.0489 -0.5253
  646MPD2     C 9612   1.388   3.725  14.531 -0.1623 -0.2712 -0.3703
  646MPD2    C1 9613   1.293   3.663  14.606 -0.2751  0.1964 -1.3261
  646MPD2    C2 9614   1.160   3.700  14.588  0.2297 -0.6169 -0.0787
  646MPD2    C3 9615   1.126   3.799  14.497 -0.0209  0.8460 -0.2225
  646MPD2    C4 9616   1.233   3.848  14.413  0.1398  0.3126 -0.3735
  646MPD2    C5 9617   1.360   3.810  14.430 -0.2409 -0.2694 -0.0185
  646MPD2     H 9618   1.079   3.655  14.643 -0.4221 -0.7688 -1.1668
  646MPD2    H1 9619   1.219   3.919  14.332  1.4136  1.3831  0.3458
  646MPD2    H2 9620   1.492   3.703  14.550  0.0542 -0.9352 -2.3528
  646MPD2    H3 9621   1.428   3.848  14.355 -0.4191  1.0549  0.4861
  646MPD2     N 9622   0.991   3.835  14.478 -0.1537  0.2202  0.0051
  646MPD2    H5 9623   0.918   3.774  14.513 -0.8060  1.0026  0.0116
  646MPD2    N1 9624   1.336   3.576  14.712  0.0500  0.8059 -0.1788
  646MPD2    H7 9625   1.437   3.574  14.723 -0.2090  1.0895  2.2018
  647TMC3    C1 9626   1.343   3.423  14.895 -0.5017  0.2728 -0.5388
  647TMC3    C2 9627   1.276   3.320  14.949 -0.0981 -0.5068  0.5240
  647TMC3    C3 9628   1.329   3.263  15.058  0.5193  0.0062  0.9870
  647TMC3    C4 9629   1.456   3.476  14.947  0.6165  0.0673 -0.3918
  647TMC3    C5 9630   1.508   3.415  15.055 -0.4392  0.3922 -0.5142
  647TMC3    C6 9631   1.448   3.310  15.112  0.0981 -0.0800 -0.9081
  647TMC3     C 9632   1.262   3.496  14.799 -0.5773 -0.1969 -0.6162
  647TMC3     O 9633   1.141   3.487  14.816  0.0906 -0.3836 -0.0921
  647TMC3     H 9634   1.185   3.286  14.900 -1.6392 -0.8308  3.5915
  647TMC3    H1 9635   1.492   3.573  14.912 -0.7141  1.3305  1.7565
  647TMC3    H2 9636   1.494   3.258  15.196  1.9815  1.2280 -1.1420
  647TMC3    C7 9637   1.650   3.429  15.081 -0.1804 -0.2673 -0.2050
  647TMC3    C8 9638   1.276   3.143  15.121  0.2701  0.3797 -0.8237
  647TMC3    O1 9639   1.693   3.365  15.178  0.0045  0.0245  0.3268
  647TMC3    O2 9640   1.275   3.145  15.247 -0.3439 -0.3320  0.2228
  648TMC3    C1 9641   0.475   1.350  16.093 -0.1713 -0.6945  0.0519
  648TMC3    C2 9642   0.492   1.220  16.055 -0.6741  0.2502 -0.0157
  648TMC3    C3 9643   0.462   1.191  15.926 -0.0749  0.0633  0.4116
  648TMC3    C4 9644   0.409   1.442  16.017 -0.0064 -0.8388 -0.8036
  648TMC3    C5 9645   0.392   1.406  15.888 -0.4367 -0.2291 -0.7621
  648TMC3    C6 9646   0.415   1.280  15.835 -0.6929  0.7639 -0.3259
  648TMC3     C 9647   0.486   1.361  16.241  0.0274 -0.1949 -0.1784
  648TMC3     O 9648   0.465   1.479  16.277  0.5173 -0.4224  0.1917
  648TMC3     H 9649   0.559   1.153  16.108 -0.0927  0.4039 -0.5585
  648TMC3    H1 9650   0.396   1.541  16.061  1.0716 -0.4679 -1.2988
  648TMC3    H2 9651   0.383   1.251  15.735  2.6196 -2.3144 -0.4733
  648TMC3    C7 9652   0.356   1.506  15.792 -0.3622 -0.3816  0.3476
  648TMC3    C8 9653   0.464   1.053  15.895  0.0798 -0.3170 -0.5437
  648TMC3    O1 9654   0.393   1.489  15.673 -0.2776 -0.3636  0.2786
  648TMC3    O2 9655   0.454   0.980  15.994 -0.9249  0.3622 -0.3495
  649TMC3    C1 9656   4.638   1.996  12.849 -0.5020 -0.7448 -0.2526
  649TMC3    C2 9657   0.024   1.959  12.880 -0.4756  0.0961 -0.3747
  649TMC3    C3 9658   0.040   1.899  13.003  0.1255 -0.1011 -0.2070
  649TMC3    C4 9659   4.537   1.978  12.941  0.7890  0.1567  0.3173
  649TMC3    C5 9660   4.557   1.916  13.058 -0.1708 -0.1563  0.1160
  649TMC3    C6 9661   4.681   1.873  13.099  0.3977  0.2034  0.2001
  649TMC3     C 9662   4.600   2.026  12.714 -0.9312 -0.0633  0.7508
  649TMC3     O 9663   4.481   2.028  12.689  0.0737 -0.4054 -0.4537
  649TMC3     H 9664   0.111   1.963  12.816  1.1496  0.1194  1.8357
  649TMC3    H1 9665   4.434   2.000  12.915  1.3020  2.1624 -0.0348
  649TMC3    H2 9666   4.689   1.813  13.189  1.6279 -0.7229 -0.5322
  649TMC3    C7 9667   4.442   1.888  13.147 -0.1408  0.2541  0.3310
  649TMC3    C8 9668   0.162   1.839  13.045  0.6263  0.3876  0.4797
  649TMC3    O1 9669   4.350   1.969  13.133 -0.2677 -0.2146 -0.1003
  649TMC3    O2 9670   0.155   1.784  13.155  0.8323  0.1471 -0.0986
  650TMC3    C1 9671   1.990   4.192  12.883 -0.0061 -0.5563  0.0935
  650TMC3    C2 9672   1.905   4.298  12.896 -0.2265  0.4992 -0.1068
  650TMC3    C3 9673   1.799   4.314  12.806  0.3977 -0.0145  0.1574
  650TMC3    C4 9674   1.984   4.092  12.792  0.1615  0.2474 -0.8912
  650TMC3    C5 9675   1.873   4.102  12.708  0.6774  0.4472  0.5174
  650TMC3    C6 9676   1.787   4.208  12.715  0.1377 -0.2579 -0.0109
  650TMC3     C 9677   2.104   4.180  12.976 -0.1564  0.4972 -0.1123
  650TMC3     O 9678   2.143   4.283  13.026 -0.7347  0.1738  0.4019
  650TMC3     H 9679   1.917   4.378  12.968  0.7863 -1.4624  1.9058
  650TMC3    H1 9680   2.070   4.030  12.769  0.5565  0.4122  0.1457
  650TMC3    H2 9681   1.715   4.208  12.635  0.2926  0.2361 -0.1554
  650TMC3    C7 9682   1.907   4.041  12.579 -0.3618 -0.4807  0.0113
  650TMC3    C8 9683   1.734   4.439  12.803  0.3374 -0.2815 -0.2133
  650TMC3    O1 9684   1.940   3.923  12.583  0.3418 -0.1303 -0.2298
  650TMC3    O2 9685   1.791   4.534  12.853 -0.6767 -0.6492  0.4357
  651MPD2     C 9686   0.444   1.484  10.396  0.4581 -0.2882 -0.3510
  651MPD2    C1 9687   0.438   1.595  10.487  0.6510 -0.3802 -0.3713
  651MPD2    C2 9688   0.555   1.653  10.529  0.3028 -0.0454  0.4502
  651MPD2    C3 9689   0.678   1.608  10.477  0.0716  0.5311  0.1362
  651MPD2    C4 9690   0.679   1.506  10.389  0.6193 -0.0509  0.0051
  651MPD2    C5 9691   0.564   1.448  10.346 -0.1405 -0.0287  0.8904
  651MPD2     H 9692   0.555   1.739  10.595 -0.9975  1.3776 -1.4087
  651MPD2    H1 9693   0.769   1.470  10.339  0.7566  0.6008 -0.2065
  651MPD2    H2 9694   0.366   1.427  10.347  0.1897 -2.3744  2.5343
  651MPD2    H3 9695   0.561   1.359  10.284 -1.2226  0.3930  0.3277
  651MPD2     N 9696   0.798   1.669  10.516  0.4162  0.4910  0.4089
  651MPD2    H5 9697   0.786   1.747  10.580 -0.5985  1.6827 -1.2180
  651MPD2    N1 9698   0.318   1.632  10.542  0.1425  0.0741 -0.3785
  651MPD2    H7 9699   0.328   1.719  10.594  1.6925 -0.6606  0.5562
  652TMC3    C1 9700   1.232   1.822  10.535  0.1886 -0.0243 -0.8307
  652TMC3    C2 9701   1.149   1.717  10.531  0.4084 -0.1647 -0.0922
  652TMC3    C3 9702   1.017   1.741  10.509  0.3463 -0.3163 -0.0284
  652TMC3    C4 9703   1.189   1.952  10.511  0.1992  0.0489 -0.3925
  652TMC3    C5 9704   1.054   1.971  10.497  0.2864 -0.5358 -0.0857
  652TMC3    C6 9705   0.968   1.871  10.502  0.1687  0.2541 -0.6800
  652TMC3     C 9706   1.363   1.787  10.586 -0.0617  0.6686  0.0653
  652TMC3     O 9707   1.378   1.677  10.639 -0.1963 -0.0489 -0.4693
  652TMC3     H 9708   1.178   1.612  10.538  1.4577  0.2935  2.3945
  652TMC3    H1 9709   1.264   2.028  10.529  0.5976 -0.4687  0.1402
  652TMC3    H2 9710   0.872   1.893  10.456  0.0485  2.3391  0.5417
  652TMC3    C7 9711   0.997   2.104  10.514 -0.6413  0.2554 -0.9629
  652TMC3    C8 9712   0.927   1.638  10.470 -0.2509  0.1266  0.3709
  652TMC3    O1 9713   0.883   2.109  10.555 -0.4349 -0.2529  0.4763
  652TMC3    O2 9714   0.975   1.545  10.410 -0.3617  0.4954 -0.0701
  653MPD2     C 9715   3.996   1.379  17.483  0.2365  0.1103 -0.4176
  653MPD2    C1 9716   4.052   1.425  17.367  0.2730  0.2104  0.2449
  653MPD2    C2 9717   4.019   1.361  17.247  0.5162  0.5765  0.0836
  653MPD2    C3 9718   3.926   1.259  17.242 -0.0978 -0.1730  0.5705
  653MPD2    C4 9719   3.863   1.223  17.361  0.2136 -0.3575 -0.8536
  653MPD2    C5 9720   3.902   1.283  17.477 -0.6350  0.0851  0.0615
  653MPD2     H 9721   4.065   1.394  17.155 -1.2017  1.0400 -0.6270
  653MPD2    H1 9722   3.785   1.148  17.367  1.3983 -1.6950 -2.4329
  653MPD2    H2 9723   4.011   1.422  17.581  1.3354 -1.6218  0.1831
  653MPD2    H3 9724   3.853   1.245  17.566  0.2308 -0.4399  0.3178
  653MPD2     N 9725   3.894   1.195  17.116 -0.8105  0.2981  0.0683
  653MPD2    H5 9726   3.939   1.230  17.032 -1.1631 -2.9853 -1.4682
  653MPD2    N1 9727   4.132   1.538  17.358  0.2586  0.7957  0.2725
  653MPD2    H7 9728   4.131   1.594  17.273 -1.6581  2.0946  1.1426
  654TMC3    C1 9729   3.787   1.023  16.981  0.3333 -0.0501  0.6665
  654TMC3    C2 9730   3.729   1.111  16.896 -0.0448  0.0599  0.6000
  654TMC3    C3 9731   3.631   1.069  16.812 -0.3521 -0.4988 -0.2128
  654TMC3    C4 9732   3.763   0.889  16.967 -0.1706 -0.3655  0.2321
  654TMC3    C5 9733   3.659   0.842  16.892  0.3865  0.1281  0.5340
  654TMC3    C6 9734   3.583   0.932  16.817  0.0681  1.0296  0.0018
  654TMC3     C 9735   3.834   1.067  17.112  0.3219  0.3907  0.3132
  654TMC3     O 9736   3.816   0.984  17.201 -0.0041 -0.3229  0.6145
  654TMC3     H 9737   3.766   1.213  16.888  2.0249 -0.7991 -0.9247
  654TMC3    H1 9738   3.817   0.818  17.028 -1.3933 -0.3558  1.3343
  654TMC3    H2 9739   3.501   0.902  16.752 -0.5215 -0.9881  1.7070
  654TMC3    C7 9740   3.636   0.704  16.862 -0.8730  0.9570 -0.1841
  654TMC3    C8 9741   3.565   1.160  16.723  0.1510  0.5923 -0.1452
  654TMC3    O1 9742   3.558   0.685  16.770 -0.5083  0.3739  0.1275
  654TMC3    O2 9743   3.589   1.277  16.736 -0.5134  0.4873  0.1071
  655MPD2     C 9744   0.867   1.360  15.666  0.3117  0.0424  0.1459
  655MPD2    C1 9745   0.850   1.467  15.576  0.4678 -0.3954 -0.1404
  655MPD2    C2 9746   0.873   1.452  15.439  0.4552 -0.0578 -0.0194
  655MPD2    C3 9747   0.908   1.325  15.397  0.5163 -1.7235 -0.5181
  655MPD2    C4 9748   0.931   1.226  15.488 -1.0212  0.2075 -0.1790
  655MPD2    C5 9749   0.906   1.240  15.618  0.0614 -1.2852  0.1021
  655MPD2     H 9750   0.865   1.541  15.377 -0.0041  0.0235  0.1579
  655MPD2    H1 9751   0.953   1.126  15.452 -3.4253  0.1205 -1.4142
  655MPD2    H2 9752   0.837   1.358  15.770 -2.0488 -2.4085 -0.5730
  655MPD2    H3 9753   0.908   1.153  15.683 -1.7567  0.2094  2.1622
  655MPD2     N 9754   0.931   1.289  15.263  0.1216 -0.6103 -0.4336
  655MPD2    H5 9755   0.964   1.196  15.239  0.1272 -0.2985 -1.6144
  655MPD2    N1 9756   0.813   1.594  15.625  0.4506  0.0258  0.3162
  655MPD2    H7 9757   0.818   1.672  15.559  2.4140  2.1189  2.9106
  656TMC3    C1 9758   0.719   1.769  15.761 -0.0757  0.5209  0.1054
  656TMC3    C2 9759   0.702   1.806  15.892  0.0277 -0.2488 -0.2366
  656TMC3    C3 9760   0.597   1.897  15.912 -0.2351 -0.6337  0.9559
  656TMC3    C4 9761   0.637   1.817  15.661 -0.1152  0.3838 -0.0816
  656TMC3    C5 9762   0.543   1.912  15.687 -1.0768  0.2278 -0.2568
  656TMC3    C6 9763   0.525   1.960  15.818 -0.4141  0.5024 -0.1273
  656TMC3     C 9764   0.759   1.629  15.749  0.2989 -0.7857 -0.5610
  656TMC3     O 9765   0.755   1.566  15.852  0.0967 -1.0462  0.0438
  656TMC3     H 9766   0.752   1.747  15.968  0.3859 -0.1006 -0.3559
  656TMC3    H1 9767   0.640   1.784  15.558 -0.6870 -0.4051  0.1593
  656TMC3    H2 9768   0.453   2.039  15.840 -0.3749  0.9513 -1.5808
  656TMC3    C7 9769   0.494   1.984  15.572 -0.0935  0.5927  0.2913
  656TMC3    C8 9770   0.526   1.859  16.035  0.0096  0.2663  0.1118
  656TMC3    O1 9771   0.524   1.951  15.457  0.4189  0.0982 -0.2753
  656TMC3    O2 9772   0.541   1.751  16.087 -0.3140  0.2751  0.0112
  657TMC3    C1 9773   4.497   0.677  14.737 -0.0330 -0.0877  0.9154
  657TMC3    C2 9774   4.468   0.668  14.872  0.1629  0.1448 -0.3380
  657TMC3    C3 9775   4.394   0.766  14.940  0.1810  0.3120  0.3555
  657TMC3    C4 9776   4.446   0.786  14.668  0.5747  0.5863  0.8310
  657TMC3    C5 9777   4.378   0.881  14.740 -0.7625  0.3412 -0.7657
  657TMC3    C6 9778   4.342   0.874  14.869  0.3936 -0.1639 -0.6914
  657TMC3     C 9779   4.551   0.563  14.662  0.0731 -0.6018  0.4100
  657TMC3     O 9780   4.567   0.581  14.541 -0.1129  0.1188 -0.1062
  657TMC3     H 9781   4.493   0.575  14.921 -2.1261 -0.5646 -0.5530
  657TMC3    H1 9782   4.462   0.788  14.561 -1.9451  1.9738  0.4737
  657TMC3    H2 9783   4.297   0.960  14.918  0.3602 -0.5971  0.0371
  657TMC3    C7 9784   4.310   0.981  14.666 -0.0114 -0.2706  0.1132
  657TMC3    C8 9785   4.327   0.728  15.061  0.2031 -0.2027  0.2630
  657TMC3    O1 9786   4.225   1.046  14.724 -0.4929  0.6612  0.1347
  657TMC3    O2 9787   4.206   0.741  15.078  0.0985 -0.6934  0.5809
  658MPD2     C 9788   1.236   1.652  14.672 -0.8173  0.1560 -0.5573
  658MPD2    C1 9789   1.158   1.557  14.622 -0.1340  0.6537 -0.9736
  658MPD2    C2 9790   1.152   1.539  14.484 -0.0994  0.5938  0.3471
  658MPD2    C3 9791   1.215   1.627  14.393 -0.0733 -0.8548  0.1525
  658MPD2    C4 9792   1.297   1.725  14.455 -0.0238  0.2523  0.1006
  658MPD2    C5 9793   1.324   1.723  14.587 -0.3135  0.7301  0.2608
  658MPD2     H 9794   1.094   1.457  14.443 -0.2056  2.5899 -3.4696
  658MPD2    H1 9795   1.358   1.792  14.395  1.4394  0.6216  2.0123
  658MPD2    H2 9796   1.255   1.656  14.779  5.2596  0.8854 -1.6473
  658MPD2    H3 9797   1.397   1.794  14.625  1.5544 -1.0598 -0.0055
  658MPD2     N 9798   1.210   1.600  14.250 -0.1919 -0.5205  0.5383
  658MPD2    H5 9799   1.147   1.524  14.227 -1.1847  0.5226 -0.2081
  658MPD2    N1 9800   1.085   1.471  14.714  0.2365 -0.0328  0.5940
  658MPD2    H7 9801   1.072   1.503  14.810  0.9864  0.6032  0.4879
  659TMC3    C1 9802   0.943   1.302  14.803 -0.9233  0.1700 -0.7806
  659TMC3    C2 9803   0.971   1.369  14.924  0.5068  0.6913 -0.3581
  659TMC3    C3 9804   0.924   1.310  15.034  0.1121  0.0849 -0.9369
  659TMC3    C4 9805   0.869   1.187  14.790  0.6767  0.4899  0.3227
  659TMC3    C5 9806   0.831   1.136  14.910 -0.2335  0.1353 -0.3138
  659TMC3    C6 9807   0.848   1.196  15.032 -0.1555  0.2378 -0.5210
  659TMC3     C 9808   1.010   1.356  14.685  0.0992  0.0994  0.1993
  659TMC3     O 9809   1.001   1.297  14.577 -0.2339  0.3540  0.0406
  659TMC3     H 9810   1.016   1.467  14.932 -1.5466  1.6501 -0.5007
  659TMC3    H1 9811   0.854   1.141  14.693  0.1292 -1.6636  1.4339
  659TMC3    H2 9812   0.795   1.155  15.117  0.7967 -0.1552 -0.1202
  659TMC3    C7 9813   0.746   1.019  14.918  0.2956  0.2295  0.2792
  659TMC3    C8 9814   0.938   1.382  15.158  0.5412  0.1736 -0.8558
  659TMC3    O1 9815   0.664   1.007  15.013  0.2122  0.7045 -0.1601
  659TMC3    O2 9816   0.945   1.504  15.145 -0.1589  0.6088  0.7732
  660MPD2     C 9817   3.754   0.161  12.589 -0.4168  0.7056  0.7929
  660MPD2    C1 9818   3.634   0.151  12.514 -0.2066  0.6220  0.3318
  660MPD2    C2 9819   3.527   0.082  12.570 -0.0337  0.0023  0.2904
  660MPD2    C3 9820   3.527   0.031  12.696 -0.0619 -0.2612  0.5358
  660MPD2    C4 9821   3.645   0.041  12.765 -0.0629  0.1421 -0.3478
  660MPD2    C5 9822   3.759   0.095  12.707  0.0546 -0.0975 -0.1030
  660MPD2     H 9823   3.438   0.066  12.510  0.1554  0.1231 -0.0262
  660MPD2    H1 9824   3.664   0.013  12.868  2.7488  1.3569 -0.5357
  660MPD2    H2 9825   3.845   0.207  12.553  0.7016 -0.7773  1.7303
  660MPD2    H3 9826   3.851   0.096  12.766 -0.0316 -2.2634  0.0923
  660MPD2     N 9827   3.420   4.703  12.748  0.4730  0.2783  0.2475
  660MPD2    H5 9828   3.440   4.664  12.840 -0.0984 -1.3276 -0.3094
  660MPD2    N1 9829   3.626   0.223  12.394  0.0920 -0.6109  0.3921
  660MPD2    H7 9830   3.691   0.299  12.379 -0.1675 -0.5727 -0.5240
  661TMC3    C1 9831   3.505   0.352  12.244 -0.0014 -0.0053  0.1838
  661TMC3    C2 9832   3.589   0.363  12.141  0.5587  0.0763  0.1953
  661TMC3    C3 9833   3.555   0.439  12.028  0.4009  0.3705  0.3892
  661TMC3    C4 9834   3.371   0.383  12.222 -0.2029  0.2563  0.2267
  661TMC3    C5 9835   3.342   0.463  12.111 -0.0330 -0.2159 -0.3587
  661TMC3    C6 9836   3.438   0.501  12.016  0.0429 -0.6080  0.7616
  661TMC3     C 9837   3.514   0.233  12.317  0.1528  0.3837  0.2222
  661TMC3     O 9838   3.430   0.151  12.289  0.2396 -0.6408  0.3887
  661TMC3     H 9839   3.680   0.304  12.134 -0.4983 -1.6061  0.6614
  661TMC3    H1 9840   3.292   0.348  12.287  0.5367 -0.1531  0.9010
  661TMC3    H2 9841   3.397   0.556  11.932  2.9994  1.0665  0.4333
  661TMC3    C7 9842   3.212   0.438  12.050 -0.1774  0.5794 -0.0678
  661TMC3    C8 9843   3.663   0.473  11.929 -0.2813  0.6861  0.8350
  661TMC3    O1 9844   3.154   0.525  11.991  0.7086 -0.3733 -0.0160
  661TMC3    O2 9845   3.768   0.415  11.939 -0.9624 -0.2144 -0.1040
  662MPD2     C 9846   3.495   4.710  17.085  0.3397  0.1374  0.5503
  662MPD2    C1 9847   3.466   4.646  17.205  0.4764 -0.0670 -0.0796
  662MPD2    C2 9848   3.365   4.690  17.290 -0.6295 -0.3674  0.1389
  662MPD2    C3 9849   3.282   0.049  17.260  0.7677 -0.1111 -0.7509
  662MPD2    C4 9850   3.322   0.126  17.147 -0.0417 -0.0973 -0.1338
  662MPD2    C5 9851   3.420   0.080  17.056  0.2865  0.5589  0.3816
  662MPD2     H 9852   3.352   4.637  17.384  1.3574 -1.8419 -0.3919
  662MPD2    H1 9853   3.273   0.221  17.130  0.4889  0.4127  1.1672
  662MPD2    H2 9854   3.570   4.667  17.019 -0.3043 -1.6656  0.9829
  662MPD2    H3 9855   3.448   0.144  16.973  3.0264  0.2883  1.0844
  662MPD2     N 9856   3.175   0.096  17.342 -0.9904 -0.2664  0.4763
  662MPD2    H5 9857   3.127   0.182  17.317 -0.7883  0.1127  1.3780
  662MPD2    N1 9858   3.524   4.518  17.243 -0.2385 -0.0549 -0.0322
  662MPD2    H7 9859   3.478   4.463  17.315 -0.0681 -0.3843 -0.1754
  663TMC3    C1 9860   3.637   4.317  17.254  0.2317  0.8183 -0.2714
  663TMC3    C2 9861   3.587   4.301  17.383 -0.4139 -0.7520 -0.2587
  663TMC3    C3 9862   3.562   4.172  17.427  0.3385  0.0521  0.3648
  663TMC3    C4 9863   3.694   4.215  17.183 -1.1997 -0.7439 -0.8493
  663TMC3    C5 9864   3.693   4.089  17.243 -0.3304 -0.0291  0.0615
  663TMC3    C6 9865   3.629   4.069  17.360  0.0035  0.2661 -0.3045
  663TMC3     C 9866   3.627   4.444  17.187 -0.0882 -0.8790 -0.1235
  663TMC3     O 9867   3.700   4.467  17.091 -0.9530  0.0442 -0.1631
  663TMC3     H 9868   3.608   4.389  17.443  0.2823 -1.1642  0.1094
  663TMC3    H1 9869   3.731   4.220  17.081  1.0307  1.9761  0.1103
  663TMC3    H2 9870   3.616   3.966  17.392 -2.6363  1.1859  1.5673
  663TMC3    C7 9871   3.716   3.971  17.162 -0.5287  0.1255  0.2625
  663TMC3    C8 9872   3.576   4.154  17.562 -0.1200 -1.3546  0.0593
  663TMC3    O1 9873   3.698   3.990  17.042 -0.2692  0.3820 -0.3475
  663TMC3    O2 9874   3.670   4.073  17.586 -0.1336 -0.1028  0.1834
  664MPD2     C 9875   1.159   2.834  17.526  0.6379  0.0614  0.4657
  664MPD2    C1 9876   1.254   2.926  17.558  0.5315  0.2059  0.3741
  664MPD2    C2 9877   1.339   2.905  17.662  0.5738 -1.0668 -0.7643
  664MPD2    C3 9878   1.306   2.807  17.753  0.1892 -0.3765 -0.1878
  664MPD2    C4 9879   1.206   2.715  17.723 -0.0303 -0.1853  0.6095
  664MPD2    C5 9880   1.135   2.725  17.605 -0.3299 -0.1402 -0.4152
  664MPD2     H 9881   1.410   2.983  17.688 -0.7621  0.1810 -0.8493
  664MPD2    H1 9882   1.185   2.632   0.035 -0.2031 -1.4966 -1.0849
  664MPD2    H2 9883   1.105   2.835  17.433  2.3101  0.3402 -0.5119
  664MPD2    H3 9884   1.058   2.656  17.573 -1.5483 -0.0389  2.3230
  664MPD2     N 9885   1.384   2.802   0.117 -0.1785 -0.0367  0.5077
  664MPD2    H5 9886   1.461   2.868   0.117  0.1682 -0.4388 -0.9580
  664MPD2    N1 9887   1.277   3.034  17.472  0.1509  0.1408  0.5193
  664MPD2    H7 9888   1.365   3.082  17.488  0.4268 -0.4697  0.8105
  665TMC3    C1 9889   1.440   2.754   0.347  0.0740 -0.7211  0.6071
  665TMC3    C2 9890   1.413   2.676   0.459  0.3344 -0.3273 -0.6836
  665TMC3    C3 9891   1.484   2.709   0.569 -1.1618  0.4775 -0.9393
  665TMC3    C4 9892   1.530   2.859   0.351 -0.1490  0.2022  0.0982
  665TMC3    C5 9893   1.598   2.888   0.464  0.2219  0.0070  0.1685
  665TMC3    C6 9894   1.572   2.815   0.572  0.6022  0.9204  0.2931
  665TMC3     C 9895   1.354   2.724   0.229 -0.4038  0.3148  0.1081
  665TMC3     O 9896   1.257   2.652   0.244 -0.2403 -0.1769 -0.6301
  665TMC3     H 9897   1.335   2.601   0.459  0.5847 -0.5901  1.8214
  665TMC3    H1 9898   1.539   2.924   0.265 -1.0397 -1.2915 -1.1282
  665TMC3    H2 9899   1.593   2.844   0.674  0.0720  0.0679  0.6545
  665TMC3    C7 9900   1.602   3.032   0.484  0.3332  0.4438  0.2149
  665TMC3    C8 9901   1.489   2.616   0.679  0.0634  0.5500  0.0412
  665TMC3    O1 9902   1.542   3.100   0.407 -0.2448 -0.1768 -0.3208
  665TMC3    O2 9903   1.566   2.654   0.766 -0.4389 -0.0337 -0.1508
  666TMC3    C1 9904   0.639   3.454   9.466  0.5150  0.5278 -0.2103
  666TMC3    C2 9905   0.727   3.372   9.406  0.7924  0.1954  0.3598
  666TMC3    C3 9906   0.846   3.429   9.367  0.0628 -0.1774 -0.2422
  666TMC3    C4 9907   0.660   3.592   9.479 -0.0398  0.2135  0.3643
  666TMC3    C5 9908   0.776   3.650   9.439  0.3191  0.0399  0.8444
  666TMC3    C6 9909   0.863   3.564   9.381 -0.0593  0.1200 -0.2708
  666TMC3     C 9910   0.568   3.396   9.582  0.7573  0.3720  1.2132
  666TMC3     O 9911   0.495   3.472   9.644 -0.3508  0.1094  0.7387
  666TMC3     H 9912   0.703   3.272   9.373 -0.0962  0.0414  1.4665
  666TMC3    H1 9913   0.578   3.648   9.524  0.1741 -0.2399  1.3236
  666TMC3    H2 9914   0.956   3.615   9.359  0.0599 -0.9696 -2.2704
  666TMC3    C7 9915   0.825   3.740   9.543 -0.1413  0.7670  0.3395
  666TMC3    C8 9916   0.949   3.353   9.426  0.0512  0.0368  0.0413
  666TMC3    O1 9917   0.935   3.721   9.592  0.3806  0.3272  0.1796
  666TMC3    O2 9918   0.941   3.232   9.406  0.2066 -0.4036 -0.0744
  667MPD2     C 9919   2.937   2.670  15.076  0.2276  0.8357 -0.4597
  667MPD2    C1 9920   2.894   2.694  14.949  1.3101  0.5981  0.8307
  667MPD2    C2 9921   2.785   2.617  14.906 -0.1097 -0.7262 -0.6846
  667MPD2    C3 9922   2.724   2.514  14.981  0.3069 -1.0372 -0.0786
  667MPD2    C4 9923   2.775   2.495  15.115 -0.8295  0.1333 -0.2292
  667MPD2    C5 9924   2.886   2.568  15.151  0.9552  0.9778 -0.3230
  667MPD2     H 9925   2.751   2.624  14.803  2.0010  0.7956 -1.2773
  667MPD2    H1 9926   2.736   2.425  15.187  1.1653  0.6248  1.3233
  667MPD2    H2 9927   3.021   2.720  15.121  0.2859  0.6413 -0.3534
  667MPD2    H3 9928   2.934   2.551  15.246 -0.0134 -0.8276 -0.1490
  667MPD2     N 9929   2.617   2.429  14.934 -0.0362 -0.8745 -0.7615
  667MPD2    H5 9930   2.582   2.364  15.004  0.5611  0.1922  0.5377
  667MPD2    N1 9931   2.939   2.800  14.866 -0.3308 -0.1194 -0.1780
  667MPD2    H7 9932   2.900   2.804  14.773  1.4034 -1.2805 -0.9401
  668TMC3    C1 9933   3.055   2.995  14.806 -0.7960  0.8398  0.7968
  668TMC3    C2 9934   3.092   2.954  14.679 -0.6099  0.3191 -0.2381
  668TMC3    C3 9935   3.185   3.031  14.612 -0.5906  0.5779  0.3862
  668TMC3    C4 9936   3.088   3.125  14.843  0.4752 -0.1849  0.1003
  668TMC3    C5 9937   3.163   3.207  14.763  0.3200 -0.6218  0.0535
  668TMC3    C6 9938   3.212   3.160  14.647 -0.3941 -0.5739 -0.2108
  668TMC3     C 9939   3.010   2.910  14.910  0.1845 -0.1934 -0.0287
  668TMC3     O 9940   3.027   2.951  15.023  0.2547 -0.2631  0.5411
  668TMC3     H 9941   3.066   2.850  14.661  0.0585 -0.1040  1.2668
  668TMC3    H1 9942   3.042   3.168  14.932  3.2233 -0.7748  1.7998
  668TMC3    H2 9943   3.269   3.230  14.587 -0.6661  0.5732  0.8944
  668TMC3    C7 9944   3.233   3.315  14.815 -0.0779  0.4442  0.3158
  668TMC3    C8 9945   3.235   2.987  14.487 -0.2222 -0.6584 -0.2522
  668TMC3    O1 9946   3.343   3.344  14.772  0.5098 -0.1115 -0.0261
  668TMC3    O2 9947   3.171   2.930  14.405  0.3197 -0.1116 -0.1968
  669TMC3    C1 9948   1.159   2.983  14.398  0.3489 -0.3579  0.3128
  669TMC3    C2 9949   1.029   2.979  14.357 -0.1352  0.0549 -0.4455
  669TMC3    C3 9950   0.987   3.026  14.238  0.1726  0.7101  0.6258
  669TMC3    C4 9951   1.259   3.051  14.329  0.1740 -0.8277  0.1693
  669TMC3    C5 9952   1.214   3.104  14.210  0.1270  0.8071  0.1266
  669TMC3    C6 9953   1.081   3.090  14.159  1.1054  0.1104  0.0120
  669TMC3     C 9954   1.197   2.872  14.492  0.4229 -0.1436  0.7143
  669TMC3     O 9955   1.105   2.798  14.514 -0.1397  0.1716  0.4735
  669TMC3     H 9956   0.953   2.940  14.425  0.0247 -1.5399 -1.1849
  669TMC3    H1 9957   1.362   3.043  14.361  0.2642  3.9220  1.1047
  669TMC3    H2 9958   1.072   3.121  14.055  0.0875  1.5031  0.5192
  669TMC3    C7 9959   1.305   3.170  14.122 -0.2000 -0.0966  1.3432
  669TMC3    C8 9960   0.853   3.009  14.198 -0.6317  0.4860 -0.4486
  669TMC3    O1 9961   1.301   3.134  14.003  0.2585 -0.3467  0.4561
  669TMC3    O2 9962   0.790   2.914  14.244  0.0404 -0.5463 -0.0745
  670MPD2     C 9963   3.863   0.609  13.027  0.6505  0.0830 -0.2645
  670MPD2    C1 9964   3.985   0.587  13.077  0.3998 -0.3489  0.2701
  670MPD2    C2 9965   4.002   0.508  13.192  0.0091 -0.0026 -0.6741
  670MPD2    C3 9966   3.894   0.453  13.258 -0.5928  0.6436  0.3254
  670MPD2    C4 9967   3.772   0.473  13.198  0.2115  0.0617 -0.4012
  670MPD2    C5 9968   3.758   0.552  13.090 -0.9202  0.4482 -0.3139
  670MPD2     H 9969   4.101   0.512  13.235  0.6525 -3.4769 -1.8082
  670MPD2    H1 9970   3.678   0.439  13.240  0.9372 -0.5666  0.6998
  670MPD2    H2 9971   3.839   0.668  12.939 -0.1358 -0.0655 -0.1530
  670MPD2    H3 9972   3.655   0.574  13.062 -0.5896 -1.8689 -3.4188
  670MPD2     N 9973   3.907   0.397  13.384 -0.4436 -0.1737 -0.8255
  670MPD2    H5 9974   4.003   0.407  13.418 -0.7631  0.1854 -0.0059
  670MPD2    N1 9975   4.103   0.646  13.032 -0.0353 -1.1137 -0.4568
  670MPD2    H7 9976   4.192   0.625  13.078 -0.0821  0.4552  0.3581
  671TMC3    C1 9977   3.827   0.329  13.596 -0.7453  0.0341  1.4286
  671TMC3    C2 9978   3.957   0.331  13.646  0.0287  0.0355  0.3370
  671TMC3    C3 9979   3.967   0.303  13.779 -0.1247 -0.0262  0.1723
  671TMC3    C4 9980   3.712   0.304  13.671  0.1339  1.3098  0.6870
  671TMC3    C5 9981   3.733   0.275  13.807  0.6448 -0.0087 -0.6582
  671TMC3    C6 9982   3.859   0.280  13.857  0.6315  0.0313 -0.1872
  671TMC3     C 9983   3.802   0.345  13.456  0.2131 -0.4206 -0.3527
  671TMC3     O 9984   3.696   0.295  13.420 -0.4454  1.0926  0.0758
  671TMC3     H 9985   4.041   0.320  13.580  0.5756  0.4528  0.9625
  671TMC3    H1 9986   3.614   0.303  13.626  0.0845 -1.0714  0.8104
  671TMC3    H2 9987   3.866   0.267  13.964 -1.3992  0.8030  0.0399
  671TMC3    C7 9988   3.668   0.152  13.841  0.4153 -0.2507 -0.0519
  671TMC3    C8 9989   4.070   0.205  13.800 -0.1623 -0.5383 -0.8081
  671TMC3    O1 9990   3.727   0.054  13.885 -0.0690 -0.5709  0.6976
  671TMC3    O2 9991   4.178   0.216  13.743  0.0710  0.2189 -0.2702
  672MPD2     C 9992   3.804   0.945   0.435  0.1214 -0.5168 -0.1621
  672MPD2    C1 9993   3.841   0.837   0.505  0.5343  0.9953 -0.8731
  672MPD2    C2 9994   3.942   0.855   0.603 -0.0873 -0.2482  0.0587
  672MPD2    C3 9995   3.981   0.985   0.639 -0.5279  0.4365 -0.0043
  672MPD2    C4 9996   3.950   1.100   0.556  0.0431 -0.0487  0.1405
  672MPD2    C5 9997   3.864   1.070   0.450 -0.1540  0.0963  0.1804
  672MPD2     H 9998   3.978   0.765   0.651  0.3340 -0.4469 -0.6251
  672MPD2    H1 9999   3.976   1.203   0.575 -0.0574 -0.0396  0.2318
  672MPD2    H210000   3.747   0.945   0.343 -0.4537  0.1047  0.1987
  672MPD2    H310001   3.827   1.146   0.382 -0.3813 -0.0080  0.1879
  672MPD2     N10002   4.067   1.025   0.742  0.9217  0.1886  0.1760
  672MPD2    H510003   4.092   1.123   0.748  0.4317  0.3595 -0.6968
  672MPD2    N110004   3.802   0.707   0.470  0.2130 -0.0448 -0.2048
  672MPD2    H710005   3.849   0.630   0.517  3.3866  3.1978  1.8359
  673TMC3    C110006   3.690   0.535   0.349  0.0951  0.0094 -0.3940
  673TMC3    C210007   3.809   0.476   0.328 -0.4836 -0.4430 -0.3302
  673TMC3    C310008   3.825   0.404   0.215  0.5028  0.0193  0.4089
  673TMC3    C410009   3.594   0.521   0.256  0.3956 -0.1756  1.0643
  673TMC3    C510010   3.623   0.467   0.130  0.1922 -0.2571 -0.3065
  673TMC3    C610011   3.739   0.407   0.109 -0.3929 -0.3615 -0.5202
  673TMC3     C10012   3.707   0.677   0.379 -0.0063  0.0285  0.4529
  673TMC3     O10013   3.628   0.750   0.320  0.2139 -0.0014 -0.2226
  673TMC3     H10014   3.889   0.497   0.399 -0.4270 -1.3856 -0.1164
  673TMC3    H110015   3.498   0.569   0.271 -0.1921 -1.1357  0.3601
  673TMC3    H210016   3.763   0.351   0.019 -2.4396 -1.4792 -0.3964
  673TMC3    C710017   3.579   0.545   0.010  0.3597  0.3305  0.4763
  673TMC3    C810018   3.913   0.290   0.223  0.1170 -0.1635 -0.1302
  673TMC3    O110019   3.597   0.502  17.651 -0.7475 -0.5848 -0.3114
  673TMC3    O210020   3.900   0.206   0.134 -0.6247  0.0002 -0.4719
  674MPD2     C10021   3.389   0.591  17.227 -0.7419 -1.0389 -0.5216
  674MPD2    C110022   3.306   0.586  17.332  0.5710  0.5625  0.2406
  674MPD2    C210023   3.220   0.693  17.357  0.2920 -0.1874  0.4618
  674MPD2    C310024   3.239   0.816  17.299 -0.5014 -0.6014 -0.2087
  674MPD2    C410025   3.325   0.821  17.188  0.7279 -0.4743 -0.8685
  674MPD2    C510026   3.396   0.703  17.150 -0.0060 -0.0047 -0.4843
  674MPD2     H10027   3.140   0.683  17.429 -1.3732 -3.5111 -1.8437
  674MPD2    H110028   3.335   0.915  17.135 -1.4492  0.3289  0.1520
  674MPD2    H210029   3.437   0.498  17.198  2.0234  0.3732 -0.4861
  674MPD2    H310030   3.469   0.695  17.070 -0.2685 -0.8862 -0.6436
  674MPD2     N10031   3.173   0.929  17.351  0.5801 -0.0225 -0.0077
  674MPD2    H510032   3.108   0.909  17.427 -0.4579 -0.2964 -0.9590
  674MPD2    N110033   3.303   0.473  17.418 -0.0162  0.0435 -0.4419
  674MPD2    H710034   3.226   0.473  17.485 -2.0227 -2.1397 -2.7881
  675TMC3    C110035   3.372   0.301  17.547  0.3269  0.8822 -0.8293
  675TMC3    C210036   3.315   0.359  17.654 -0.6939  0.4358  0.1119
  675TMC3    C310037   3.310   0.281   0.014 -0.4329 -0.4696  0.7732
  675TMC3    C410038   3.440   0.181  17.555 -0.7522 -0.3873  0.8092
  675TMC3    C510039   3.411   0.105  17.662 -0.1321  0.5590 -0.6728
  675TMC3    C610040   3.360   0.158   0.023  0.7249 -0.4881  0.1184
  675TMC3     C10041   3.398   0.379  17.428 -0.7241  0.2967 -0.0744
  675TMC3     O10042   3.491   0.346  17.355 -0.0645 -0.1148 -0.0355
  675TMC3     H10043   3.303   0.467  17.665  0.4926  0.7412 -1.6641
  675TMC3    H110044   3.475   0.129  17.466  1.1763  0.9779  0.7592
  675TMC3    H210045   3.338   0.094   0.108 -1.3213  1.0809  0.7756
  675TMC3    C710046   3.494   4.731  17.676  0.5872  0.1740  0.1994
  675TMC3    C810047   3.234   0.336   0.127 -0.5491  0.2638  0.1640
  675TMC3    O110048   3.516   4.668  17.578 -0.1868 -0.1674  0.4912
  675TMC3    O210049   3.165   0.439   0.111  0.4728 -0.3103 -0.9830
  676MPD2     C10050   2.260   3.805  11.029 -0.5098  0.2273 -0.0970
  676MPD2    C110051   2.167   3.729  11.098 -0.1087  0.3411  0.1699
  676MPD2    C210052   2.113   3.612  11.039 -0.0424 -0.6196 -0.0415
  676MPD2    C310053   2.169   3.564  10.925 -0.2515 -0.2571  0.0471
  676MPD2    C410054   2.254   3.646  10.853  0.3527  0.5434 -0.4686
  676MPD2    C510055   2.302   3.758  10.909  0.1977 -0.6880  0.4412
  676MPD2     H10056   2.026   3.562  11.079  0.6864 -0.4136  1.8181
  676MPD2    H110057   2.293   3.619  10.755 -0.9397  1.1930 -1.1611
  676MPD2    H210058   2.315   3.890  11.068  0.2112 -0.1818 -0.2236
  676MPD2    H310059   2.376   3.811  10.850 -0.9203  0.8419  0.4056
  676MPD2     N10060   2.125   3.444  10.867 -0.3664  0.2850  0.3747
  676MPD2    H510061   2.147   3.438  10.768  0.2771 -0.1980  0.5505
  676MPD2    N110062   2.110   3.771  11.220 -0.2779  0.0403 -0.2716
  676MPD2    H710063   2.039   3.708  11.255  0.6973  0.1485  1.9379
  677TMC3    C110064   2.057   3.907  11.409  0.0285 -0.2876 -0.4147
  677TMC3    C210065   1.993   3.808  11.477 -0.2354  0.4732 -0.3708
  677TMC3    C310066   1.923   3.835  11.584 -0.5571 -0.2170 -0.1681
  677TMC3    C410067   2.070   4.028  11.466  0.5917 -0.2169 -0.5397
  677TMC3    C510068   1.999   4.056  11.581 -0.2050 -0.9793  0.3972
  677TMC3    C610069   1.923   3.961  11.639  0.4471  0.8952 -0.0315
  677TMC3     C10070   2.147   3.876  11.304  0.9255  0.7122  0.0052
  677TMC3     O10071   2.234   3.955  11.279  0.0295  0.1357  0.0709
  677TMC3     H10072   1.980   3.707  11.438 -3.0921  0.1274  1.4876
  677TMC3    H110073   2.104   4.105  11.398  0.2830  1.2831  0.9866
  677TMC3    H210074   1.879   3.987  11.734 -0.5973  1.0909 -0.5701
  677TMC3    C710075   2.046   4.167  11.658 -0.6527  0.6185 -1.0926
  677TMC3    C810076   1.892   3.731  11.673  0.5523  0.7868  0.2566
  677TMC3    O110077   1.972   4.202  11.749 -0.0215 -0.9046  0.7636
  677TMC3    O210078   1.984   3.661  11.705 -0.0251  0.0048 -0.2176
  678MPD2     C10079   3.157   3.758   1.269 -0.1486 -0.5066  0.1274
  678MPD2    C110080   3.117   3.880   1.311  0.1595 -0.3153 -0.5861
  678MPD2    C210081   2.985   3.922   1.296  0.1975  0.0873  0.0470
  678MPD2    C310082   2.892   3.841   1.244  1.0156 -0.4837  0.5902
  678MPD2    C410083   2.928   3.723   1.187  0.5976 -0.5243 -0.7277
  678MPD2    C510084   3.061   3.683   1.207  0.8265 -0.2585 -1.0250
  678MPD2     H10085   2.967   4.026   1.318  1.4568  0.4316 -0.5987
  678MPD2    H110086   2.855   3.652   1.148 -1.8684  0.4942  2.0683
  678MPD2    H210087   3.252   3.710   1.290 -0.7308 -1.5181  0.4609
  678MPD2    H310088   3.084   3.583   1.171 -3.7192 -1.3627 -0.8360
  678MPD2     N10089   2.761   3.884   1.210  0.5808  0.0108 -0.5367
  678MPD2    H510090   2.707   3.834   1.140 -1.2817  2.2756 -0.7516
  678MPD2    N110091   3.223   3.970   1.350  0.5223 -0.6139 -0.5201
  678MPD2    H710092   3.203   4.068   1.368 -0.0088 -0.5113 -1.7338
  679TMC3    C110093   3.661   4.123   1.338  0.1854  0.4725 -0.5730
  679TMC3    C210094   3.569   4.043   1.404  0.7630  0.1534  0.1982
  679TMC3    C310095   3.435   4.052   1.378 -0.5443 -0.8977  0.3421
  679TMC3    C410096   3.621   4.235   1.269  0.2902 -0.5366  0.3823
  679TMC3    C510097   3.488   4.242   1.251  0.7472 -0.7476  0.2057
  679TMC3    C610098   3.398   4.150   1.286  0.5106 -0.3732  1.1561
  679TMC3     C10099   3.788   4.058   1.302 -0.0203 -0.4483 -0.5371
  679TMC3     O10100   3.785   3.939   1.300  0.1661  0.2159 -0.3947
  679TMC3     H10101   3.611   3.957   1.455 -0.3755  0.6258  1.9374
  679TMC3    H110102   3.690   4.313   1.238  2.1174 -1.8398  1.1636
  679TMC3    H210103   3.302   4.155   1.236  0.3226 -0.3293  1.5135
  679TMC3    C710104   3.443   4.371   1.203  0.3250 -0.7752 -0.7228
  679TMC3    C810105   3.355   3.938   1.372 -0.4173  0.1094 -0.1900
  679TMC3    O110106   3.527   4.432   1.137 -0.1243  0.5925  0.1986
  679TMC3    O210107   3.397   3.832   1.416  0.5106  0.3957  0.0875
  680MPD2     C10108   3.756   2.404  13.399  0.6408 -0.3921 -1.1272
  680MPD2    C110109   3.838   2.338  13.489 -0.4267 -0.3697 -0.4985
  680MPD2    C210110   3.941   2.409  13.549 -0.4412  0.5913  0.2765
  680MPD2    C310111   3.958   2.546  13.534 -0.6371 -0.2191 -0.2410
  680MPD2    C410112   3.865   2.614  13.462 -0.1043 -0.9118 -0.0520
  680MPD2    C510113   3.763   2.541  13.398  0.1214 -0.1716 -0.6221
  680MPD2     H10114   3.999   2.345  13.614 -0.2522  2.4684  1.9925
  680MPD2    H110115   3.866   2.722  13.451  1.6385 -1.0111 -0.8266
  680MPD2    H210116   3.683   2.347  13.343 -1.0526  1.2406 -0.6018
  680MPD2    H310117   3.695   2.600  13.338 -1.1135 -0.4341  0.5247
  680MPD2     N10118   4.058   2.613  13.604 -0.1315  0.3166 -0.4466
  680MPD2    H510119   4.059   2.714  13.592  2.1360  0.4219  0.7415
  680MPD2    N110120   3.829   2.199  13.513 -0.0623  0.6135 -0.2994
  680MPD2    H710121   3.907   2.154  13.561  0.2680  0.0548 -1.3643
  681TMC3    C110122   3.726   1.999  13.556  0.6922 -0.2411 -0.0768
  681TMC3    C210123   3.639   1.967  13.659 -0.6689 -0.4824  0.4114
  681TMC3    C310124   3.675   1.875  13.758 -0.0814  0.1003  0.6352
  681TMC3    C410125   3.855   1.957  13.564 -0.1494  0.2445 -0.0769
  681TMC3    C510126   3.892   1.863  13.662 -0.8445 -0.5764  0.2132
  681TMC3    C610127   3.801   1.819  13.762  0.3493 -0.0388  0.9221
  681TMC3     C10128   3.711   2.126  13.503  0.2379 -0.3767 -0.7878
  681TMC3     O10129   3.599   2.171  13.498 -0.1712 -0.0138 -0.3225
  681TMC3     H10130   3.539   2.009  13.661 -0.2911  0.5263 -1.1955
  681TMC3    H110131   3.918   1.975  13.478 -0.2513 -1.8815 -0.5945
  681TMC3    H210132   3.831   1.770  13.854  0.9011  2.3532  2.0147
  681TMC3    C710133   3.995   1.763  13.623  0.4560  0.2228 -0.3280
  681TMC3    C810134   3.585   1.819  13.853  0.6520  0.8148 -0.1257
  681TMC3    O110135   3.980   1.656  13.680  0.3753  0.0764 -0.2289
  681TMC3    O210136   3.484   1.769  13.815  0.2340 -0.3754  0.6687
  682MPD2     C10137   1.503   3.955  10.674  0.0473 -0.3305  0.4307
  682MPD2    C110138   1.391   3.874  10.683  0.1666  0.0580  0.3302
  682MPD2    C210139   1.372   3.815  10.808 -0.6125 -0.0674 -0.3311
  682MPD2    C310140   1.441   3.847  10.921 -0.5252 -0.1073  0.6473
  682MPD2    C410141   1.556   3.920  10.912 -0.6227 -0.0394 -1.0978
  682MPD2    C510142   1.584   3.982  10.787 -0.1708 -0.5670  0.2615
  682MPD2     H10143   1.280   3.757  10.812 -0.1349 -0.8728 -1.2165
  682MPD2    H110144   1.614   3.948  10.999  2.0091  1.1988 -3.2392
  682MPD2    H210145   1.524   3.997  10.576  1.2727 -0.8028  0.4826
  682MPD2    H310146   1.661   4.058  10.784 -1.0539  0.2596 -1.1589
  682MPD2     N10147   1.399   3.789  11.037 -0.2358  0.3922  0.6308
  682MPD2    H510148   1.310   3.743  11.027 -1.0044  1.9525  0.2583
  682MPD2    N110149   1.311   3.842  10.573  0.5947 -0.4439 -0.0119
  682MPD2    H710150   1.236   3.777  10.594  1.0237 -1.2297 -0.9066
  683TMC3    C110151   1.267   3.956  11.433  0.0140 -0.0170 -0.5372
  683TMC3    C210152   1.139   3.906  11.406  0.2125 -0.7538  0.6295
  683TMC3    C310153   1.125   3.799  11.318  0.0038 -0.0572  0.0396
  683TMC3    C410154   1.370   3.909  11.368  0.4428 -0.1279 -0.6031
  683TMC3    C510155   1.357   3.803  11.278 -0.2423  0.1033 -1.2331
  683TMC3    C610156   1.238   3.746  11.255 -0.5287  0.0771 -0.6041
  683TMC3     C10157   1.277   4.043  11.547 -0.5220  0.8682  1.2076
  683TMC3     O10158   1.177   4.113  11.572 -0.3590 -0.1107 -0.2584
  683TMC3     H10159   1.055   3.943  11.465 -0.4915 -0.3458 -0.6270
  683TMC3    H110160   1.467   3.959  11.374  0.3289 -0.1809  2.0437
  683TMC3    H210161   1.233   3.660  11.190 -0.6505 -1.2673  1.1753
  683TMC3    C710162   1.454   3.795  11.167  1.1168  0.0101  0.4140
  683TMC3    C810163   0.997   3.756  11.287  0.1665  0.4825  0.5735
  683TMC3    O110164   1.571   3.820  11.199 -0.1397 -0.0580 -0.1108
  683TMC3    O210165   0.901   3.825  11.314  0.0030  0.0476  0.1306
  684MPD2     C10166   3.918   3.121  16.452  0.6709  0.8274  0.0802
  684MPD2    C110167   3.863   3.197  16.353 -0.5725 -0.0829 -0.3889
  684MPD2    C210168   3.831   3.326  16.369 -0.2249 -0.3122 -0.2666
  684MPD2    C310169   3.868   3.389  16.489 -0.4793  0.1052 -0.2629
  684MPD2    C410170   3.929   3.322  16.593 -1.0929  0.0153 -0.8407
  684MPD2    C510171   3.950   3.184  16.570 -0.1014  0.9554  0.6874
  684MPD2     H10172   3.782   3.378  16.287 -1.0233 -5.2557 -2.9009
  684MPD2    H110173   3.952   3.367  16.689 -0.8558  1.0484 -1.3862
  684MPD2    H210174   3.932   3.013  16.447 -1.9587  0.4923 -0.0073
  684MPD2    H310175   3.997   3.122  16.646 -0.0716  1.2594  0.9179
  684MPD2     N10176   3.874   3.533  16.488 -0.5628 -1.0624  0.5436
  684MPD2    H510177   3.913   3.573  16.573 -0.2555  0.0965 -0.1450
  684MPD2    N110178   3.845   3.151  16.218 -0.0646  0.2034 -0.2782
  684MPD2    H710179   3.806   3.221  16.155 -0.3905  1.0869  0.9200
  685TMC3    C110180   3.910   3.016  16.033  0.1909 -0.2096  0.0925
  685TMC3    C210181   3.837   3.104  15.957 -0.3930 -0.1746  0.0484
  685TMC3    C310182   3.889   3.145  15.834  0.1947 -0.1880 -0.2111
  685TMC3    C410183   4.035   2.981  15.997 -0.2318 -0.4851  0.9064
  685TMC3    C510184   4.089   3.035  15.880 -0.6869 -0.3935  0.5121
  685TMC3    C610185   4.020   3.117  15.793  0.4763 -1.2927  0.4196
  685TMC3     C10186   3.895   3.029  16.175 -0.7746 -0.5408 -0.3765
  685TMC3     O10187   3.960   2.949  16.234  0.3466 -0.4083 -0.7687
  685TMC3     H10188   3.734   3.117  15.989  0.2430  4.2826  0.2712
  685TMC3    H110189   4.093   2.908  16.052  1.4443  0.2276  0.0792
  685TMC3    H210190   4.061   3.149  15.698  1.4481 -2.4499  0.4461
  685TMC3    C710191   4.232   3.064  15.887 -0.1238 -0.2076 -0.1321
  685TMC3    C810192   3.804   3.232  15.759  0.4690 -0.7046  0.0045
  685TMC3    O110193   4.290   2.974  15.946  0.6609 -0.5699 -0.5697
  685TMC3    O210194   3.838   3.265  15.645  0.6312 -0.6552 -0.0291
  686MPD2     C10195   0.581   2.993  15.178 -0.2016 -0.2097  0.0084
  686MPD2    C110196   0.471   2.937  15.242 -0.0857  0.0921  0.4433
  686MPD2    C210197   0.400   2.822  15.196  0.2737 -0.1932 -0.4702
  686MPD2    C310198   0.457   2.763  15.090  0.5242 -0.2643 -0.0974
  686MPD2    C410199   0.565   2.813  15.026  0.0094 -0.2544 -0.2558
  686MPD2    C510200   0.635   2.919  15.072  0.2415 -0.1321 -0.4650
  686MPD2     H10201   0.305   2.789  15.236 -0.6115  2.2026 -0.6149
  686MPD2    H110202   0.608   2.767  14.938  0.3290 -2.1900  0.9088
  686MPD2    H210203   0.633   3.080  15.215  0.7544 -1.6985  2.1632
  686MPD2    H310204   0.729   2.935  15.019  0.6847 -1.5789 -0.1401
  686MPD2     N10205   0.398   2.653  15.026  0.3516 -0.3879 -0.1298
  686MPD2    H510206   0.421   2.635  14.929  1.7238  0.0624  0.1115
  686MPD2    N110207   0.426   3.003  15.361  0.2546  0.0649 -0.6572
  686MPD2    H710208   0.452   3.101  15.374 -2.9695  0.8647 -0.1792
  687TMC3    C110209   0.291   2.558  15.222 -0.3701 -0.2884 -0.0497
  687TMC3    C210210   0.172   2.584  15.281  0.7142  0.0851 -0.3217
  687TMC3    C310211   0.168   2.541  15.412  0.0129  0.3356 -1.0831
  687TMC3    C410212   0.410   2.517  15.278 -0.6865 -0.0879 -0.1256
  687TMC3    C510213   0.401   2.498  15.410  0.1649 -0.7285 -0.3638
  687TMC3    C610214   0.283   2.502  15.478  0.2210  0.5131  0.0385
  687TMC3     C10215   0.303   2.572  15.083  0.7815 -0.5091  0.6742
  687TMC3     O10216   0.217   2.511  15.018  0.0908  0.4801 -0.2579
  687TMC3     H10217   0.080   2.608  15.229  0.2676 -0.3945  0.2532
  687TMC3    H110218   0.498   2.514  15.215  0.8013 -0.2259  1.9714
  687TMC3    H210219   0.275   2.486  15.585  0.0555 -2.9627 -0.4969
  687TMC3    C710220   0.521   2.517  15.484 -0.1587 -0.4334  0.5620
  687TMC3    C810221   0.085   2.620  15.500  0.6293  0.0489 -0.3490
  687TMC3    O110222   0.517   2.507  15.605  0.1206  0.1463  0.0217
  687TMC3    O210223   0.081   2.583  15.619 -0.2207 -0.1176  0.0957
  688MPD2     C10224   4.468   2.162  17.075  0.2597  0.3348  0.9063
  688MPD2    C110225   4.493   2.040  17.141 -0.1596  0.3295 -0.3980
  688MPD2    C210226   4.615   1.976  17.115 -0.8168 -0.7001 -0.0281
  688MPD2    C310227   4.716   2.041  17.031 -0.3717 -0.0832 -0.2659
  688MPD2    C410228   4.684   2.164  16.970 -0.1236  0.4976 -0.0900
  688MPD2    C510229   4.562   2.216  16.993  0.2757 -0.4430 -0.2365
  688MPD2     H10230   4.619   1.873  17.149  0.2093 -0.1765  1.4683
  688MPD2    H110231   0.003   2.223  16.901 -0.5421  0.0241 -0.8409
  688MPD2    H210232   4.379   2.221  17.091 -1.0860 -1.3064 -0.6210
  688MPD2    H310233   4.540   2.315  16.955  3.0674  0.2169 -0.1892
  688MPD2     N10234   0.098   1.981  17.004 -0.3799 -0.5056 -0.3075
  688MPD2    H510235   0.153   2.027  16.931  1.1784 -2.1069 -0.1593
  688MPD2    N110236   4.403   1.979  17.231  0.1242 -0.1407 -0.5351
  688MPD2    H710237   4.434   1.900  17.286 -3.4237 -0.4828  0.9802
  689TMC3    C110238   4.214   1.935  17.359 -0.3741  0.5836  0.1737
  689TMC3    C210239   4.195   2.004  17.480  0.3485  0.1668 -0.2833
  689TMC3    C310240   4.176   1.932  17.593 -0.6909 -0.1864 -0.4818
  689TMC3    C410241   4.219   1.801  17.348  0.2916  0.3929  0.1117
  689TMC3    C510242   4.218   1.733  17.467  0.2775 -0.1561 -0.2974
  689TMC3    C610243   4.195   1.799  17.589 -0.0824 -0.1963  0.4322
  689TMC3     C10244   4.272   2.016  17.259  0.5714  0.5476  0.3781
  689TMC3     O10245   4.211   2.116  17.225 -0.3417 -0.5106 -0.0798
  689TMC3     H10246   4.182   2.111  17.484  1.1835  0.2488  0.1670
  689TMC3    H110247   4.239   1.747  17.256 -1.6377 -0.2002  0.0475
  689TMC3    H210248   4.177   1.737  17.676 -2.0870 -0.6244 -0.2828
  689TMC3    C710249   4.197   1.588  17.465 -0.6549  0.5798  0.0039
  689TMC3    C810250   4.146   1.986  17.724  0.8524 -0.4325 -0.8297
  689TMC3    O110251   4.215   1.530  17.571 -0.0554 -0.1358 -0.4576
  689TMC3    O210252   4.164   1.916   0.070  0.8977 -0.4129  0.0825
  690MPD2     C10253   2.298   3.870  15.503 -0.4966  0.0580  0.0433
  690MPD2    C110254   2.257   3.872  15.376 -0.3654  0.0168 -0.1381
  690MPD2    C210255   2.340   3.930  15.282 -0.2158 -0.0287  0.1849
  690MPD2    C310256   2.457   3.987  15.322  0.0817 -0.8746 -1.0431
  690MPD2    C410257   2.500   3.980  15.454 -0.1715  0.4105  0.1973
  690MPD2    C510258   2.422   3.921  15.541  0.1603 -0.0912 -0.4095
  690MPD2     H10259   2.311   3.917  15.179  0.8121  1.1694 -0.2623
  690MPD2    H110260   2.597   4.011  15.490  0.5547 -0.9980 -0.5441
  690MPD2    H210261   2.231   3.831  15.579 -0.3374  2.2606  1.3063
  690MPD2    H310262   2.454   3.920  15.645 -0.5678  1.7006 -0.1732
  690MPD2     N10263   2.531   4.050  15.222  0.5748 -0.3583 -0.5630
  690MPD2    H510264   2.490   4.063  15.130  2.3476  1.8867 -1.0188
  690MPD2    N110265   2.140   3.800  15.332 -0.0388  0.4262 -0.0536
  690MPD2    H710266   2.122   3.781  15.234  1.1751 -2.1892  0.2064
  691TMC3    C110267   1.926   3.699  15.373 -0.2374  0.3820  0.5741
  691TMC3    C210268   1.808   3.741  15.426 -0.8685  0.5149  0.4646
  691TMC3    C310269   1.726   3.645  15.470 -0.2186 -0.5007 -0.5764
  691TMC3    C410270   1.962   3.569  15.371  0.0818  0.1879  0.2385
  691TMC3    C510271   1.875   3.470  15.411  0.5061  0.4228  0.4478
  691TMC3    C610272   1.757   3.508  15.459  0.2380 -0.3075  0.0270
  691TMC3     C10273   2.034   3.785  15.419  0.0245 -0.7609  0.7089
  691TMC3     O10274   2.013   3.843  15.528 -0.1454  0.7683  0.0190
  691TMC3     H10275   1.785   3.847  15.439 -0.7984  0.4917  0.7829
  691TMC3    H110276   2.059   3.540  15.331 -0.9708  0.5377 -2.5579
  691TMC3    H210277   1.692   3.444  15.517 -0.7209  1.4258  0.8713
  691TMC3    C710278   1.931   3.338  15.427 -0.3104 -0.3796  0.0713
  691TMC3    C810279   1.641   3.669  15.584  0.3975  1.1447  0.7553
  691TMC3    O110280   2.042   3.318  15.388 -0.1810 -0.1001 -0.4179
  691TMC3    O210281   1.633   3.584  15.671  0.1781  0.1336 -0.0084
  692TMC3    C110282   3.378   0.040  15.855 -0.6476  0.3544  0.0689
  692TMC3    C210283   3.513   0.037  15.843  0.2557 -0.8917 -0.3870
  692TMC3    C310284   3.577   4.653  15.843  0.0812  0.2518  0.3611
  692TMC3    C410285   3.299   4.670  15.859 -0.0302 -0.1919  0.4197
  692TMC3    C510286   3.363   4.547  15.848  0.3591 -0.4373 -0.5892
  692TMC3    C610287   3.500   4.540  15.856  0.3104  0.2888  0.0110
  692TMC3     C10288   3.317   0.167  15.867  0.8015  0.4859 -0.5769
  692TMC3     O10289   3.196   0.174  15.895  0.4742  0.1598 -0.1875
  692TMC3     H10290   3.580   0.116  15.875  0.0385 -1.2731  0.9692
  692TMC3    H110291   3.191   4.681  15.862 -0.0092  0.7231 -1.5155
  692TMC3    H210292   3.542   4.445  15.826  0.1475 -0.4688  2.1171
  692TMC3    C710293   3.299   4.440  15.920  0.0184 -0.9376  0.2999
  692TMC3    C810294   3.703   4.673  15.920  0.0635 -0.0597  0.0276
  692TMC3    O110295   3.176   4.424  15.920  0.3688 -0.0809  0.3254
  692TMC3    O210296   3.790   4.730  15.859 -0.3028 -0.1620  0.4077
  693MPD2     C10297   3.145   2.799  10.434  0.3087 -0.2024 -0.7823
  693MPD2    C110298   3.103   2.668  10.427 -0.0492 -0.6509  0.2660
  693MPD2    C210299   3.195   2.562  10.436  0.3457 -0.1623 -0.0861
  693MPD2    C310300   3.327   2.596  10.462  0.7347 -0.1975  0.0535
  693MPD2    C410301   3.364   2.728  10.470  0.3308  0.1802  0.5622
  693MPD2    C510302   3.279   2.829  10.457  0.6658 -0.2403 -1.3487
  693MPD2     H10303   3.160   2.460  10.426 -1.2567  0.1550  2.4949
  693MPD2    H110304   3.466   2.749  10.500 -0.1625  3.6029 -0.1661
  693MPD2    H210305   3.064   2.870  10.444 -1.0439 -1.5652 -2.0381
  693MPD2    H310306   3.316   2.930  10.467 -2.1049  0.5769  0.6402
  693MPD2     N10307   3.414   2.498  10.502 -0.3490  0.9207  0.6351
  693MPD2    H510308   3.484   2.527  10.569 -1.1644 -0.0853  1.9321
  693MPD2    N110309   2.966   2.645  10.433 -0.2048 -0.6995 -0.1211
  693MPD2    H710310   2.899   2.718  10.456  0.1567 -0.3711 -0.1151
  694TMC3    C110311   2.782   2.510  10.458  0.5023 -0.5310 -0.1097
  694TMC3    C210312   2.711   2.417  10.400 -0.2690  0.0687 -0.9285
  694TMC3    C310313   2.595   2.373  10.463 -0.2741  0.7959 -0.5327
  694TMC3    C410314   2.741   2.571  10.574 -0.5523 -0.1247  0.0763
  694TMC3    C510315   2.625   2.533  10.638 -0.5959 -0.1600  0.0117
  694TMC3    C610316   2.553   2.427  10.587  0.4269 -0.0084  0.1147
  694TMC3     C10317   2.916   2.521  10.407 -0.0765  0.4800  0.3692
  694TMC3     O10318   2.967   2.430  10.341  0.2438  0.6241 -0.1700
  694TMC3     H10319   2.746   2.368  10.310 -0.2771 -0.7003 -0.5099
  694TMC3    H110320   2.805   2.637  10.632  0.2089  1.0414 -2.1101
  694TMC3    H210321   2.458   2.391  10.627 -0.1020  1.5433  0.2673
  694TMC3    C710322   2.617   2.563  10.776  0.5311 -0.4337 -0.2328
  694TMC3    C810323   2.485   2.312  10.395 -0.0256  0.2047 -0.6519
  694TMC3    O110324   2.690   2.652  10.820 -0.1255  0.1370 -0.0018
  694TMC3    O210325   2.389   2.274  10.466  0.3104 -0.2247 -0.3164
  695MPD2     C10326   4.263   4.091  13.384  0.5518  0.0836  0.8685
  695MPD2    C110327   4.239   4.203  13.469  0.4590 -0.2146  0.8394
  695MPD2    C210328   4.119   4.267  13.449  0.0865  1.2080  0.7533
  695MPD2    C310329   4.031   4.236  13.347  0.1089  0.4516  0.1465
  695MPD2    C410330   4.062   4.127  13.263  0.0789 -0.7648  0.2186
  695MPD2    C510331   4.174   4.054  13.290  0.4388 -0.5342  0.7261
  695MPD2     H10332   4.089   4.348  13.514  0.4568  1.2662  0.8517
  695MPD2    H110333   4.007   4.100  13.174 -1.7497 -1.3196  1.5217
  695MPD2    H210334   4.343   4.019  13.396  1.4850  0.5634 -2.5306
  695MPD2    H310335   4.189   3.965  13.231 -0.8113 -0.9645  1.0683
  695MPD2     N10336   3.916   4.318  13.338 -0.1728  0.0693 -0.4172
  695MPD2    H510337   3.899   4.380  13.417  0.4990 -1.6238  1.0437
  695MPD2    N110338   4.333   4.261  13.545  0.2936 -0.2547  0.1333
  695MPD2    H710339   4.308   4.352  13.584  0.5300  0.2570 -0.8967
  696TMC3    C110340   3.699   4.369  13.269  0.2229 -0.0895 -0.5984
  696TMC3    C210341   3.668   4.367  13.395  0.7847 -0.1625  0.4521
  696TMC3    C310342   3.537   4.404  13.428 -0.6305 -0.1867  0.3323
  696TMC3    C410343   3.621   4.422  13.168  0.3532 -0.1429  0.7907
  696TMC3    C510344   3.493   4.473  13.207  0.4194 -0.2276 -0.3101
  696TMC3    C610345   3.452   4.455  13.334  0.0475  0.7415 -0.5014
  696TMC3     C10346   3.825   4.312  13.236  0.5205 -0.3063 -0.3801
  696TMC3     O10347   3.829   4.238  13.138 -0.2964 -0.6789 -0.3058
  696TMC3     H10348   3.726   4.304  13.462  0.1234 -0.3649  0.8352
  696TMC3    H110349   3.648   4.441  13.065  0.3143  1.1568  1.0188
  696TMC3    H210350   3.346   4.463  13.356  0.2545  2.2844  0.0054
  696TMC3    C710351   3.449   4.581  13.141  0.5330 -0.3558  0.4187
  696TMC3    C810352   3.531   4.440  13.571 -0.1363  0.1397  0.3058
  696TMC3    O110353   3.480   4.583  13.024  0.2722  0.5511 -0.6107
  696TMC3    O210354   3.637   4.459  13.626  0.0704  0.3796  0.7471
  697MPD2     C10355   3.408   1.576  16.018 -0.1108 -0.2137  0.3780
  697MPD2    C110356   3.427   1.561  15.882  0.1143  0.2833  0.7788
  697MPD2    C210357   3.427   1.674  15.798  0.3988  0.7774  0.4045
  697MPD2    C310358   3.450   1.797  15.852  0.0344  0.6602  0.2900
  697MPD2    C410359   3.447   1.809  15.991 -0.3730  0.1038  0.0470
  697MPD2    C510360   3.419   1.702  16.071 -0.5952 -0.2675 -0.1724
  697MPD2     H10361   3.425   1.663  15.690  1.0091 -0.7417  0.5518
  697MPD2    H110362   3.469   1.906  16.035 -0.4610 -0.1653  0.6868
  697MPD2    H210363   3.402   1.491  16.086  2.3794 -0.7466 -0.0621
  697MPD2    H310364   3.409   1.716  16.178  1.0122  1.4090 -0.2214
  697MPD2     N10365   3.483   1.899  15.761 -0.0596  1.0510 -0.1214
  697MPD2    H510366   3.477   1.881  15.661 -2.3136 -0.4065  0.2810
  697MPD2    N110367   3.433   1.441  15.811  0.1452 -0.1774  0.1394
  697MPD2    H710368   3.472   1.460  15.720 -0.6588  0.6650 -0.0255
  698TMC3    C110369   3.567   2.100  15.661 -0.5861  0.1977  0.2272
  698TMC3    C210370   3.666   2.195  15.677  0.3312 -0.3008  0.1102
  698TMC3    C310371   3.718   2.251  15.563  0.0934 -0.2602  0.0224
  698TMC3    C410372   3.526   2.061  15.536  0.0042  0.1873  0.0638
  698TMC3    C510373   3.589   2.114  15.431 -0.1383 -0.2820  0.9808
  698TMC3    C610374   3.684   2.211  15.437 -0.1271  0.0516 -0.3094
  698TMC3     C10375   3.527   2.026  15.786  0.1524 -0.3738 -1.0923
  698TMC3     O10376   3.553   2.089  15.888 -0.3144 -0.0347  0.2079
  698TMC3     H10377   3.698   2.222  15.777 -2.0161 -0.2334  0.8499
  698TMC3    H110378   3.430   2.011  15.526  0.8342 -1.7062  1.4209
  698TMC3    H210379   3.710   2.269  15.349  3.3794  0.9504  1.3011
  698TMC3    C710380   3.561   2.048  15.302  0.0180 -0.0667  0.0099
  698TMC3    C810381   3.824   2.348  15.584 -0.7305  0.5577  0.2596
  698TMC3    O110382   3.456   1.984  15.302 -0.0259  0.1563  0.3750
  698TMC3    O210383   3.835   2.379  15.702 -0.0797 -0.2190  0.0036
  699TMC3    C110384   3.195   4.621  12.770  0.5588  0.2676 -0.5280
  699TMC3    C210385   3.223   4.516  12.861 -0.7333 -0.5371  0.4379
  699TMC3    C310386   3.115   4.457  12.922  0.2822  0.9401 -0.4739
  699TMC3    C410387   3.068   4.660  12.740  0.2535  0.0389 -0.0451
  699TMC3    C510388   2.964   4.594  12.806  0.0084  0.2741  0.6431
  699TMC3    C610389   2.987   4.489  12.891  0.0695  0.0930 -0.3841
  699TMC3     C10390   3.294   4.697  12.689 -0.3609  0.8535 -0.0432
  699TMC3     O10391   3.248   0.022  12.597  0.2575  0.1951 -0.0431
  699TMC3     H10392   3.325   4.481  12.864  0.2260  2.0707 -0.9767
  699TMC3    H110393   3.046   0.008  12.679 -1.7467 -1.4478 -1.4314
  699TMC3    H210394   2.904   4.433  12.933  0.0737  0.2372 -0.1850
  699TMC3    C710395   2.848   4.669  12.847 -0.2995 -0.2745 -0.4532
  699TMC3    C810396   3.124   4.360  13.028  0.7586  0.2579 -0.2315
  699TMC3    O110397   2.792   4.631  12.949  0.1970  0.0089 -0.5196
  699TMC3    O210398   3.016   4.326  13.077  0.2118  0.1554  0.1463
  700TMC3    C110399   2.367   2.635  16.969 -0.1167  0.2501  0.0113
  700TMC3    C210400   2.394   2.501  16.947  0.0069  0.0899  0.4038
  700TMC3    C310401   2.475   2.436  17.036  0.0978  0.2982 -0.2595
  700TMC3    C410402   2.450   2.704  17.052  0.0167 -0.1211 -0.3265
  700TMC3    C510403   2.542   2.641  17.128 -0.0656  0.2814 -0.9031
  700TMC3    C610404   2.562   2.506  17.119 -0.1725 -0.1779 -0.1196
  700TMC3     C10405   2.343   2.721  16.848 -0.1566 -0.5106 -0.4332
  700TMC3     O10406   2.234   2.782  16.849 -0.0284 -0.0277 -0.0666
  700TMC3     H10407   2.338   2.456  16.866  0.8688  0.4528 -0.3943
  700TMC3    H110408   2.434   2.810  17.070  1.5337  0.0731 -0.1342
  700TMC3    H210409   2.641   2.457  17.174  2.6750  0.2547 -3.7903
  700TMC3    C710410   2.657   2.722  17.181 -0.2198  0.4463  0.6324
  700TMC3    C810411   2.524   2.309  16.991 -0.3163  0.1053 -0.2138
  700TMC3    O110412   2.733   2.668  17.256 -0.2258  0.5001 -0.3832
  700TMC3    O210413   2.640   2.278  17.021 -0.2535 -0.4035  0.5868
  701TMC3    C110414   2.621   1.168  15.204  0.5005  0.3679 -0.1892
  701TMC3    C210415   2.633   1.066  15.109 -0.1495  0.3350 -0.2896
  701TMC3    C310416   2.761   1.008  15.106 -0.4347  0.2413 -0.1462
  701TMC3    C410417   2.720   1.224  15.277  0.2140  0.4904  0.0501
  701TMC3    C510418   2.837   1.171  15.254 -0.5243  0.2154 -0.4449
  701TMC3    C610419   2.865   1.069  15.164  0.5743 -0.3184  0.1127
  701TMC3     C10420   2.490   1.225  15.235 -0.0345 -1.2904 -0.1055
  701TMC3     O10421   2.495   1.321  15.307 -0.0499  0.1274 -0.6303
  701TMC3     H10422   2.551   1.042  15.042 -1.5599  0.9547  1.2095
  701TMC3    H110423   2.701   1.308  15.343 -1.1984  1.9216 -2.1879
  701TMC3    H210424   2.963   1.024  15.152  0.2069 -1.0565 -0.1421
  701TMC3    C710425   2.957   1.212  15.333  0.2034 -0.5206 -0.6501
  701TMC3    C810426   2.776   0.886  15.030 -0.0639 -0.4925 -0.8952
  701TMC3    O110427   3.061   1.222  15.269  0.2585  0.3874  0.5445
  701TMC3    O210428   2.885   0.830  15.046  0.2316  0.1335  0.2373
  702MPD2     C10429   2.413   3.093  10.331 -0.5211 -1.2379 -0.1351
  702MPD2    C110430   2.409   3.182  10.439  0.0754 -1.0000 -0.5991
  702MPD2    C210431   2.496   3.287  10.430  0.4730  0.7404 -0.0568
  702MPD2    C310432   2.574   3.302  10.321  0.0397 -0.2661 -0.3418
  702MPD2    C410433   2.584   3.206  10.221  1.1734  0.3176 -0.2750
  702MPD2    C510434   2.504   3.101  10.227  0.1438 -0.2621 -0.5600
  702MPD2     H10435   2.497   3.363  10.508  0.0258 -1.3028  1.9558
  702MPD2    H110436   2.656   3.210  10.139  1.5610 -1.4291 -0.0317
  702MPD2    H210437   2.351   3.005  10.343 -0.6785 -1.3654 -1.8902
  702MPD2    H310438   2.509   3.020  10.154  0.5381 -0.6334 -0.1181
  702MPD2     N10439   2.663   3.407  10.318  0.6319 -0.0030  0.6011
  702MPD2    H510440   2.654   3.481  10.386 -2.1841  1.2697 -1.1273
  702MPD2    N110441   2.318   3.177  10.543  0.1049 -0.0299  0.1654
  702MPD2    H710442   2.319   3.250  10.614  0.7599 -1.2583  1.4149
  703TMC3    C110443   2.804   3.572  10.214  0.2559  0.0270 -0.1043
  703TMC3    C210444   2.713   3.667  10.253 -0.0275  0.7576  0.0486
  703TMC3    C310445   2.767   3.791  10.280 -0.9145  0.4663 -0.1208
  703TMC3    C410446   2.936   3.603  10.203  0.1125 -0.1491  0.3347
  703TMC3    C510447   2.978   3.730  10.231 -0.3543 -0.2272  0.6874
  703TMC3    C610448   2.896   3.828  10.283  0.2186 -0.7986 -0.1495
  703TMC3     C10449   2.758   3.434  10.217  0.5313  0.1139  0.3726
  703TMC3     O10450   2.829   3.355  10.154 -0.3803  0.7673  0.5566
  703TMC3     H10451   2.607   3.644  10.252  0.1171  0.1048 -0.7339
  703TMC3    H110452   3.014   3.530  10.187 -0.6425 -0.4850 -1.9420
  703TMC3    H210453   2.924   3.931  10.298  0.7275 -0.7530 -1.4435
  703TMC3    C710454   3.121   3.755  10.234  0.0097 -0.0496 -0.1499
  703TMC3    C810455   2.673   3.906  10.291  0.8706 -0.0332  0.4450
  703TMC3    O110456   3.176   3.839  10.303  0.0371 -0.3390 -0.1618
  703TMC3    O210457   2.710   4.019  10.256 -0.1358 -0.1574  0.0324
  704TMC3    C110458   0.021   1.179  12.585 -0.1270 -0.4979 -0.0055
  704TMC3    C210459   0.061   1.122  12.464 -0.5066  0.1406 -0.5975
  704TMC3    C310460   0.168   1.038  12.470  0.3189 -0.1000  0.5598
  704TMC3    C410461   0.085   1.155  12.703  0.1590  0.1703 -0.1059
  704TMC3    C510462   0.194   1.078  12.698 -0.4221  0.6232  0.3939
  704TMC3    C610463   0.238   1.022  12.582 -0.7743 -0.5679 -0.0840
  704TMC3     C10464   4.644   1.268  12.589 -0.7989 -0.0688 -0.4729
  704TMC3     O10465   4.599   1.295  12.699  0.1602 -0.4817 -0.1941
  704TMC3     H10466   0.009   1.147  12.372 -1.5974  0.3887  0.0825
  704TMC3    H110467   0.032   1.186  12.792  0.4320 -0.9982  0.4680
  704TMC3    H210468   0.324   0.957  12.589 -0.5250 -0.1560  0.6164
  704TMC3    C710469   0.201   0.995  12.820  0.5203  0.5059  0.5261
  704TMC3    C810470   0.158   0.916  12.400 -0.2296 -0.7266  0.5879
  704TMC3    O110471   0.094   0.976  12.881  0.1032  0.3328  0.1983
  704TMC3    O210472   0.256   0.851  12.378 -0.1592  0.6244  0.3216
  705MPD2     C10473   3.724   4.663  16.637 -0.1239  0.3027 -0.9904
  705MPD2    C110474   3.681   0.010  16.532  0.5568  0.1612  0.3997
  705MPD2    C210475   3.542   0.034  16.528 -0.5885 -0.1001 -0.2465
  705MPD2    C310476   3.459   4.727  16.629  0.3980 -0.5406  0.1636
  705MPD2    C410477   3.512   4.642  16.727  0.0417  0.5240 -0.5964
  705MPD2    C510478   3.640   4.601  16.725 -0.4505  0.1828 -0.3534
  705MPD2     H10479   3.503   0.107  16.458 -2.8002  0.6313  1.7584
  705MPD2    H110480   3.445   4.607  16.805  1.1690  0.6498  0.4136
  705MPD2    H210481   3.830   4.646  16.650  0.1956  2.2246 -1.2057
  705MPD2    H310482   3.679   4.540  16.806 -0.6757  0.4997 -0.0033
  705MPD2     N10483   3.323   0.015  16.607  0.4814 -0.3439  0.3191
  705MPD2    H510484   3.300   0.085  16.537  1.4550 -0.7898 -0.4309
  705MPD2    N110485   3.778   0.064  16.441  0.2726 -0.3371 -0.3070
  705MPD2    H710486   3.737   0.127  16.374  0.4904 -0.0373 -0.1577
  706TMC3    C110487   4.066   0.038  16.095  0.0500  0.6115 -0.3392
  706TMC3    C210488   4.004   0.144  16.033 -0.0301 -0.2127  0.3703
  706TMC3    C310489   3.914   0.215  16.109  0.4390  0.0480 -1.0989
  706TMC3    C410490   4.048   4.735  16.223 -0.4657  0.5917  0.0758
  706TMC3    C510491   3.957   0.073  16.293 -0.5511 -0.1524  0.2354
  706TMC3    C610492   3.889   0.187  16.243 -0.1924 -0.6674  0.9587
  706TMC3     C10493   4.133   4.675  16.022 -0.2495 -0.4230 -0.1778
  706TMC3     O10494   4.224   4.609  16.079 -0.0491 -0.2197  0.4251
  706TMC3     H10495   4.019   0.159  15.926  0.0231  1.0800  0.5533
  706TMC3    H110496   4.087   4.645  16.268  0.4795  1.0019  0.0795
  706TMC3    H210497   3.831   0.252  16.308 -0.9698  1.0539 -1.4407
  706TMC3    C710498   3.897   0.007  16.414  0.1800 -0.0978  0.0595
  706TMC3    C810499   3.866   0.339  16.047 -0.1546  0.0178 -0.3815
  706TMC3    O110500   3.948   4.642  16.446  0.7147 -0.6780  0.2567
  706TMC3    O210501   3.889   0.338  15.926 -0.4370 -0.1583  0.2713
  707TMC3    C110502   1.506   3.720   1.576 -0.9241  0.2608 -0.6229
  707TMC3    C210503   1.531   3.637   1.687 -0.4457  0.5004  0.2119
  707TMC3    C310504   1.437   3.547   1.722 -0.4456 -0.9574  0.1539
  707TMC3    C410505   1.386   3.702   1.511 -0.5627  0.5079 -0.1914
  707TMC3    C510506   1.286   3.622   1.558  0.4324 -0.8354  0.4562
  707TMC3    C610507   1.312   3.533   1.660 -0.3059 -0.2172  0.4781
  707TMC3     C10508   1.605   3.704   1.475 -0.3136  0.2194  0.3717
  707TMC3     O10509   1.558   3.683   1.364  0.5269  0.2329 -0.5289
  707TMC3     H10510   1.615   3.656   1.754 -1.2730  1.3149  1.0170
  707TMC3    H110511   1.364   3.751   1.417 -2.1594 -0.2654 -0.2315
  707TMC3    H210512   1.252   3.446   1.683  0.5813 -0.8402  0.4643
  707TMC3    C710513   1.162   3.598   1.475  0.1004 -0.1532  0.6915
  707TMC3    C810514   1.495   3.433   1.797 -0.1892 -0.1820  0.7435
  707TMC3    O110515   1.083   3.515   1.516 -0.1656 -0.6920  0.7483
  707TMC3    O210516   1.587   3.467   1.872 -0.1597  0.5522 -0.8236
  708MPD2     C10517   1.936   2.901  14.291 -0.9001 -0.1339  0.3075
  708MPD2    C110518   2.069   2.881  14.295 -0.5441  0.4014  0.1056
  708MPD2    C210519   2.135   2.835  14.405  0.0307  0.3166 -0.4503
  708MPD2    C310520   2.064   2.809  14.519  0.4008  0.1350 -0.2721
  708MPD2    C410521   1.928   2.815  14.514 -0.1363 -0.4984  0.0703
  708MPD2    C510522   1.863   2.854  14.400 -0.9541  0.4010 -0.4648
  708MPD2     H10523   2.241   2.814  14.413  0.3049  1.8867  0.0111
  708MPD2    H110524   1.861   2.788  14.595 -1.2216  0.7148 -0.4165
  708MPD2    H210525   1.891   2.934  14.198  0.7634  0.2458 -0.3609
  708MPD2    H310526   1.755   2.864  14.396 -0.9477  1.5320  1.7357
  708MPD2     N10527   2.122   2.782  14.642 -0.0031  0.3519  0.4258
  708MPD2    H510528   2.058   2.759  14.717 -0.2771  2.6750  0.8903
  708MPD2    N110529   2.145   2.929  14.182 -0.2706 -0.5941  0.3025
  708MPD2    H710530   2.105   2.999  14.121  2.0461  0.0203 -0.4995
  709TMC3    C110531   2.341   2.978  14.060 -0.3061  0.9132 -0.2488
  709TMC3    C210532   2.437   2.920  13.988  0.2921  0.1926  0.1821
  709TMC3    C310533   2.535   3.012  13.941  0.3509 -0.7415  0.0508
  709TMC3    C410534   2.346   3.108  14.103  0.0807  0.5136 -0.0534
  709TMC3    C510535   2.453   3.186  14.069 -0.0309  0.0860  0.2211
  709TMC3    C610536   2.546   3.137  13.985  0.2662 -0.5518 -0.0718
  709TMC3     C10537   2.274   2.883  14.138 -0.1940  0.6772 -0.6002
  709TMC3     O10538   2.331   2.785  14.177  0.6183 -0.2460 -0.3096
  709TMC3     H10539   2.432   2.812  13.975 -2.4399  0.5137 -1.4131
  709TMC3    H110540   2.261   3.147  14.159  1.6498  1.1193  1.9206
  709TMC3    H210541   2.638   3.193  13.976  0.1278 -0.5557 -1.5907
  709TMC3    C710542   2.503   3.275  14.173 -0.0101  1.1570  0.4859
  709TMC3    C810543   2.628   2.965  13.846 -0.2328  0.1027  0.0685
  709TMC3    O110544   2.584   3.358  14.138 -0.3108  0.9356 -0.2117
  709TMC3    O210545   2.640   2.845  13.839  0.0423  0.0062  0.2235
  710TMC3    C110546   3.069   4.734   0.467 -0.2970  0.3794  0.4678
  710TMC3    C210547   3.124   4.660   0.366  0.7852 -0.1111  0.5203
  710TMC3    C310548   3.227   4.580   0.402  0.2685  0.0982 -0.4100
  710TMC3    C410549   3.115   0.000   0.599 -0.6126 -0.0512 -0.5011
  710TMC3    C510550   3.223   4.653   0.627  0.2295 -0.5712 -1.4050
  710TMC3    C610551   3.277   4.577   0.526 -0.0772 -0.3762  0.2309
  710TMC3     C10552   2.938   0.051   0.437 -0.2411  0.0324 -0.0727
  710TMC3     O10553   2.878   4.727   0.356 -0.1645  0.0004 -0.0962
  710TMC3     H10554   3.091   4.671   0.263  0.6407 -2.0896  0.3655
  710TMC3    H110555   3.064   0.057   0.675  0.9375  1.2484 -0.4301
  710TMC3    H210556   3.357   4.510   0.557  0.2368 -0.0658  0.0836
  710TMC3    C710557   3.255   4.618   0.762 -0.0793 -0.7940  0.3124
  710TMC3    C810558   3.273   4.501   0.290  0.0843  0.1351 -0.0489
  710TMC3    O110559   3.348   4.543   0.785  0.4237 -0.3760  0.2420
  710TMC3    O210560   3.274   4.569   0.186  0.0375 -0.6243 -0.0911
  711TMC3    C110561   3.413   0.727  14.390  0.0654  0.4714 -1.2245
  711TMC3    C210562   3.337   0.806  14.464 -0.3002 -0.0715  0.4302
  711TMC3    C310563   3.395   0.889  14.555  0.0035  0.3626  0.6247
  711TMC3    C410564   3.547   0.728  14.409 -0.2813 -0.1171 -0.2757
  711TMC3    C510565   3.608   0.812  14.496 -0.0961 -0.9656 -0.0916
  711TMC3    C610566   3.532   0.904  14.558 -0.6232 -0.4445 -0.0844
  711TMC3     C10567   3.362   0.596  14.348  0.5482 -0.3088  0.4985
  711TMC3     O10568   3.261   0.594  14.279 -0.2678 -0.2691  0.7263
  711TMC3     H10569   3.230   0.792  14.456 -0.0810 -1.1069 -0.7383
  711TMC3    H110570   3.615   0.668  14.349 -1.4408 -0.4685 -1.2438
  711TMC3    H210571   3.581   0.981  14.616 -0.4413  0.7198 -1.8095
  711TMC3    C710572   3.690   0.745  14.600  0.4336 -0.4316  0.3134
  711TMC3    C810573   3.310   0.907  14.671  0.4565  0.7624  0.8812
  711TMC3    O110574   3.689   0.785  14.719 -0.5590  0.7186 -0.3048
  711TMC3    O210575   3.194   0.888  14.655 -0.4770  0.2164  0.0959
  712MPD2     C10576   4.716   1.406  13.518  0.3416 -0.3388  0.2915
  712MPD2    C110577   4.664   1.417  13.647  0.0049  0.3111 -0.6173
  712MPD2    C210578   4.714   1.520  13.729  0.2930  0.1015 -0.0365
  712MPD2    C310579   0.079   1.602  13.690 -0.1243  0.4471  0.0269
  712MPD2    C410580   0.144   1.570  13.576  0.2083  0.4228  0.1445
  712MPD2    C510581   0.091   1.482  13.484 -0.1290 -0.3368 -0.5973
  712MPD2     H10582   4.664   1.534  13.825  1.1782  1.5038  0.2153
  712MPD2    H110583   0.238   1.619  13.555 -1.2802  2.6903 -1.3697
  712MPD2    H210584   4.682   1.339  13.439 -1.7917  0.0198  0.8996
  712MPD2    H310585   0.137   1.471  13.386 -0.9012  3.2653 -1.3432
  712MPD2     N10586   0.118   1.726  13.748 -0.9393 -0.2595 -0.3328
  712MPD2    H510587   0.196   1.776  13.707 -0.4156  0.1600  1.1644
  712MPD2    N110588   4.549   1.343  13.697  0.0816  0.0952  0.1630
  712MPD2    H710589   4.501   1.379  13.778 -0.5402 -0.5405  0.0803
  713TMC3    C110590   0.098   1.918  13.876  0.3762  0.3803  0.1340
  713TMC3    C210591   0.229   1.921  13.904 -0.1921 -0.3902 -0.1619
  713TMC3    C310592   0.277   2.014  13.991  0.2040  0.1979  0.4420
  713TMC3    C410593   0.014   2.020  13.926 -0.0336  0.1527  0.4131
  713TMC3    C510594   0.070   2.124  14.007  0.1240  0.5100  0.1046
  713TMC3    C610595   0.202   2.114  14.040 -0.3265  0.5774 -0.5247
  713TMC3     C10596   0.035   1.796  13.827  0.0321  0.1069  0.4774
  713TMC3     O10597   4.657   1.779  13.853 -0.5483  0.2676 -0.1051
  713TMC3     H10598   0.296   1.849  13.859 -1.5485 -1.0677 -1.0876
  713TMC3    H110599   4.649   2.019  13.893 -0.1599 -2.3966  0.9007
  713TMC3    H210600   0.238   2.188  14.111  1.8708 -0.0500 -0.9934
  713TMC3    C710601   0.023   2.255  14.000 -0.0709  0.1809 -0.3036
  713TMC3    C810602   0.421   2.029  14.008 -0.1428 -0.1751  0.0555
  713TMC3    O110603   0.087   2.332  14.077 -0.2368  0.2699 -0.3196
  713TMC3    O210604   0.502   1.978  13.924 -0.3244  0.4869 -0.7409
  714MPD2     C10605   1.647   0.946   1.321 -0.5079  0.2398 -0.8679
  714MPD2    C110606   1.679   0.812   1.352 -0.6621 -0.2361  0.0392
  714MPD2    C210607   1.571   0.719   1.325 -0.0547  0.3199 -0.1413
  714MPD2    C310608   1.445   0.761   1.306  0.6417 -0.2299 -0.0234
  714MPD2    C410609   1.416   0.893   1.275  0.6153 -0.2709 -0.2950
  714MPD2    C510610   1.520   0.982   1.285 -0.2564  0.4527 -0.7114
  714MPD2     H10611   1.591   0.613   1.334  1.4516  0.5959 -0.2393
  714MPD2    H110612   1.332   0.927   1.215  1.8630 -0.9910 -2.4676
  714MPD2    H210613   1.721   1.023   1.302  0.2872  0.1031  1.6580
  714MPD2    H310614   1.503   1.080   1.243  0.0892  0.1682 -1.5026
  714MPD2     N10615   1.337   0.668   1.290  0.1352 -0.0642  0.5298
  714MPD2    H510616   1.354   0.568   1.299  0.0028 -0.1854 -0.6762
  714MPD2    N110617   1.816   0.780   1.372 -0.3866 -0.2533 -0.1475
  714MPD2    H710618   1.876   0.862   1.374 -1.8514  0.8292 -0.8530
  715TMC3    C110619   2.008   0.647   1.393  0.4960  0.3039 -0.2631
  715TMC3    C210620   2.070   0.534   1.346  0.0089 -0.3583  0.3280
  715TMC3    C310621   2.211   0.529   1.333  0.3318  0.7484  0.0326
  715TMC3    C410622   2.069   0.751   1.445 -0.2065  0.9770 -0.5863
  715TMC3    C510623   2.209   0.749   1.445 -0.5959 -0.6576 -0.1766
  715TMC3    C610624   2.278   0.632   1.400 -0.4360 -0.1477  0.2034
  715TMC3     C10625   1.863   0.657   1.370  0.2216  0.3600 -0.3793
  715TMC3     O10626   1.801   0.558   1.327  0.8135  0.7854 -0.0121
  715TMC3     H10627   2.013   0.452   1.304 -0.2748 -0.9191  1.8304
  715TMC3    H110628   2.018   0.834   1.491  1.5577  0.7350  1.8061
  715TMC3    H210629   2.386   0.636   1.387 -0.5031  0.3372 -0.1700
  715TMC3    C710630   2.297   0.852   1.501  1.2617  0.2270  0.0985
  715TMC3    C810631   2.280   0.403   1.300 -0.3568  0.7162 -0.3573
  715TMC3    O110632   2.416   0.834   1.510 -0.0199  0.5961 -0.0353
  715TMC3    O210633   2.224   0.330   1.222 -0.7218  0.3652  0.7624
  716MPD2     C10634   1.579   2.940   9.889  0.0555 -0.2847 -0.3224
  716MPD2    C110635   1.567   2.967   9.752 -0.5812 -0.2962  0.1074
  716MPD2    C210636   1.576   2.868   9.658  0.1524  0.1453 -0.1065
  716MPD2    C310637   1.588   2.736   9.699  0.2215 -1.3180  0.0918
  716MPD2    C410638   1.593   2.708   9.834  0.3217  0.0823  0.4401
  716MPD2    C510639   1.590   2.811   9.926 -0.2184 -0.1349  0.1769
  716MPD2     H10640   1.573   2.889   9.552 -0.6573  1.0497  0.0867
  716MPD2    H110641   1.600   2.605   9.868  0.5756  0.2209  0.7975
  716MPD2    H210642   1.589   3.021   9.960 -1.5276  1.0659 -1.6278
  716MPD2    H310643   1.604   2.797  10.032 -2.3066  1.7857  0.6916
  716MPD2     N10644   1.614   2.638   9.600  0.9307 -0.0189 -0.5783
  716MPD2    H510645   1.599   2.661   9.502 -0.4218 -1.6133 -0.7395
  716MPD2    N110646   1.540   3.102   9.716  0.4951  0.5050  0.1178
  716MPD2    H710647   1.509   3.160   9.793 -1.1969 -0.9085  0.5127
  717TMC3    C110648   1.683   2.425   9.511  0.7042 -0.1528  0.2393
  717TMC3    C210649   1.589   2.431   9.409  0.4928 -0.0021 -0.1858
  717TMC3    C310650   1.597   2.327   9.314  0.2089 -0.5018 -0.2365
  717TMC3    C410651   1.762   2.306   9.530 -0.6462 -0.5565  0.0659
  717TMC3    C510652   1.767   2.216   9.420  0.6202 -0.6478 -0.5097
  717TMC3    C610653   1.688   2.227   9.314  0.3131  0.8371  0.2091
  717TMC3     C10654   1.672   2.516   9.619 -0.4195 -0.7341 -0.2641
  717TMC3     O10655   1.740   2.484   9.719 -0.1227  0.1889 -0.1360
  717TMC3     H10656   1.520   2.514   9.403 -0.4286 -0.7758 -0.1079
  717TMC3    H110657   1.834   2.296   9.611 -0.7577  2.9515  0.5982
  717TMC3    H210658   1.693   2.154   9.234  0.6088 -0.8607  1.7502
  717TMC3    C710659   1.887   2.142   9.408 -0.8012 -0.4325  0.3335
  717TMC3    C810660   1.496   2.326   9.213  0.0312  0.7985 -0.1462
  717TMC3    O110661   1.931   2.135   9.298  0.5189 -0.6667  0.3728
  717TMC3    O210662   1.421   2.420   9.222  0.2291 -0.1409  0.0434
  718MPD2     C10663   1.722   1.585  12.891 -0.2045  0.1176 -0.4146
  718MPD2    C110664   1.692   1.557  12.757 -0.6556  0.0525  0.7260
  718MPD2    C210665   1.604   1.455  12.738  0.0500 -0.1648 -0.4317
  718MPD2    C310666   1.538   1.391  12.839 -0.3105 -0.3079  0.1693
  718MPD2    C410667   1.565   1.417  12.974  0.4442  0.0186  0.0161
  718MPD2    C510668   1.662   1.513  12.996  0.0197  0.4591  0.4402
  718MPD2     H10669   1.586   1.432  12.634 -0.4858 -0.3836 -0.2879
  718MPD2    H110670   1.531   1.348  13.051 -0.0212 -1.3907 -1.4454
  718MPD2    H210671   1.790   1.665  12.915  2.3612 -1.7082 -1.6789
  718MPD2    H310672   1.687   1.531  13.100  3.2207 -2.3831  0.1553
  718MPD2     N10673   1.445   1.297  12.804 -0.3273  0.1690 -0.0739
  718MPD2    H510674   1.451   1.280  12.704 -1.8709 -1.0888  0.0694
  718MPD2    N110675   1.721   1.638  12.651 -0.7536  0.3058 -0.0779
  718MPD2    H710676   1.684   1.620  12.559  1.7717  0.1101 -1.0494
  719TMC3    C110677   1.821   1.802  12.513 -0.7322 -0.2364 -0.4478
  719TMC3    C210678   1.793   1.714  12.401 -0.9018 -0.2993 -0.0717
  719TMC3    C310679   1.704   1.755  12.304 -0.2755  0.1110  0.9192
  719TMC3    C410680   1.795   1.934  12.498  0.3320  0.6834  0.0322
  719TMC3    C510681   1.724   1.969  12.385  0.4684  0.0469 -0.0680
  719TMC3    C610682   1.678   1.882  12.292 -0.1779  0.5156 -0.1393
  719TMC3     C10683   1.810   1.747  12.647 -1.2668 -0.3762 -0.0120
  719TMC3     O10684   1.846   1.813  12.745  0.1190  0.0332 -0.3045
  719TMC3     H10685   1.832   1.614  12.411  0.1064 -0.1029 -2.0673
  719TMC3    H110686   1.834   2.011  12.564 -2.8380  1.1768  1.3499
  719TMC3    H210687   1.623   1.928  12.211  1.7907 -0.1825 -1.8860
  719TMC3    C710688   1.726   2.102  12.339  0.8314  0.0005  0.4713
  719TMC3    C810689   1.594   1.670  12.318  0.0899 -0.7931 -0.6238
  719TMC3    O110690   1.758   2.119  12.221 -1.1464 -0.7186 -0.0110
  719TMC3    O210691   1.603   1.579  12.402  0.3303 -0.1215 -0.5509
  720MPD2     C10692   4.504   3.472  13.959  0.0368 -0.4070 -0.0827
  720MPD2    C110693   4.606   3.538  13.894  0.8060  0.2659 -0.0171
  720MPD2    C210694   4.730   3.539  13.955  0.1496 -0.7355  0.4314
  720MPD2    C310695   0.006   3.482  14.084 -0.1983  0.2824  0.3217
  720MPD2    C410696   4.635   3.431  14.152  0.2531  0.4125  0.2599
  720MPD2    C510697   4.516   3.428  14.083 -0.0770  0.1082 -0.4472
  720MPD2     H10698   0.064   3.600  13.904  0.8813  0.1843  2.5868
  720MPD2    H110699   4.633   3.399  14.255  0.6373 -0.0523  0.1273
  720MPD2    H210700   4.398   3.485  13.938  0.1585  1.2897  0.4130
  720MPD2    H310701   4.433   3.380  14.133  1.0137 -1.0092  0.2907
  720MPD2     N10702   0.137   3.486  14.144 -0.5556 -0.3113  0.4425
  720MPD2    H510703   0.215   3.525  14.092 -0.5098 -0.9581  0.0293
  720MPD2    N110704   4.572   3.609  13.775  0.3595 -0.1548  0.1792
  720MPD2    H710705   4.649   3.659  13.731  1.3264 -0.9144  1.0098
  721TMC3    C110706   0.297   3.467  14.310  0.3889 -0.0948  0.7666
  721TMC3    C210707   0.316   3.526  14.433 -0.0228  0.0092 -0.3176
  721TMC3    C310708   0.428   3.595  14.458 -0.3952  0.0221  0.7601
  721TMC3    C410709   0.391   3.473  14.211 -0.6096  0.2090  0.1880
  721TMC3    C510710   0.509   3.534  14.245  0.8688  0.2433  0.4770
  721TMC3    C610711   0.525   3.594  14.364 -0.0945 -0.6965 -0.2510
  721TMC3     C10712   0.161   3.438  14.279 -0.4888  0.3207 -0.8642
  721TMC3     O10713   0.082   3.417  14.365 -0.0500 -0.2716  0.1002
  721TMC3     H10714   0.237   3.510  14.505  0.9705  1.2476  1.0444
  721TMC3    H110715   0.396   3.425  14.114 -1.2973  0.7884 -0.1355
  721TMC3    H210716   0.616   3.650  14.387  0.7255 -1.5025 -1.5423
  721TMC3    C710717   0.619   3.523  14.154  0.0744 -0.0384  0.5653
  721TMC3    C810718   0.465   3.624  14.599 -0.0648 -0.1311 -0.6437
  721TMC3    O110719   0.591   3.529  14.032 -0.1981  0.0289 -0.7089
  721TMC3    O210720   0.579   3.603  14.635 -0.4927 -0.4244 -1.2066
  722MPD2     C10721   4.023   2.025  13.219 -0.0277 -0.2046  0.1639
  722MPD2    C110722   3.970   2.154  13.208  0.0638 -0.6891  0.1399
  722MPD2    C210723   3.840   2.173  13.173  0.9266  0.5004  0.7565
  722MPD2    C310724   3.749   2.070  13.176  0.4370  0.4915 -0.7302
  722MPD2    C410725   3.802   1.942  13.198 -0.0288  0.3805 -0.4698
  722MPD2    C510726   3.938   1.919  13.207  0.4276  0.4294  0.0413
  722MPD2     H10727   3.805   2.272  13.148 -1.2621 -0.6578 -0.8259
  722MPD2    H110728   3.734   1.859  13.208 -0.0828  0.4028 -0.6506
  722MPD2    H210729   4.129   2.005  13.231  0.2234  1.4207  0.5637
  722MPD2    H310730   3.982   1.820  13.212 -2.2373 -0.7932 -0.5352
  722MPD2     N10731   3.614   2.103  13.165  0.5543 -0.2864 -0.6262
  722MPD2    H510732   3.597   2.199  13.138  1.4281  0.0759  0.0957
  722MPD2    N110733   4.058   2.260  13.200 -0.1582 -0.5595 -0.7987
  722MPD2    H710734   4.010   2.347  13.179 -2.2411 -1.3940  0.6057
  723TMC3    C110735   3.394   2.105  13.187 -1.0344  0.1759  0.0418
  723TMC3    C210736   3.309   2.101  13.293 -0.2854  0.2298 -0.3968
  723TMC3    C310737   3.199   2.184  13.279 -0.1150  0.1170 -0.2897
  723TMC3    C410738   3.378   2.180  13.074 -1.2367  0.3880 -0.2923
  723TMC3    C510739   3.252   2.233  13.055  0.9318  0.5409  0.5455
  723TMC3    C610740   3.162   2.241  13.160  0.0975  0.8320  0.2428
  723TMC3     C10741   3.508   2.027  13.202 -0.4932  0.0205  0.8618
  723TMC3     O10742   3.495   1.913  13.238 -0.0823  0.0179  0.3754
  723TMC3     H10743   3.318   2.035  13.379  0.4401  0.5745 -0.2133
  723TMC3    H110744   3.437   2.160  12.986 -0.4615 -1.8395  0.7361
  723TMC3    H210745   3.067   2.290  13.143 -0.2322  0.6697  1.6437
  723TMC3    C710746   3.221   2.310  12.943 -0.2153 -0.4117  0.0709
  723TMC3    C810747   3.097   2.131  13.362 -0.0734 -0.9604 -0.2981
  723TMC3    O110748   3.162   2.246  12.857 -0.0798 -0.5023 -0.1039
  723TMC3    O210749   3.127   2.106  13.479 -0.3032  0.2596 -0.5588
  724TMC3    C110750   4.120   1.018  10.935  0.1176  0.3631 -0.1244
  724TMC3    C210751   4.094   0.890  10.888 -0.6838 -0.4855  0.8278
  724TMC3    C310752   4.171   0.841  10.785  0.3174 -0.4397  0.6340
  724TMC3    C410753   4.201   1.108  10.872  0.6111  0.2915 -0.4083
  724TMC3    C510754   4.282   1.047  10.773  0.1651 -0.6736 -0.2273
  724TMC3    C610755   4.270   0.916  10.725 -0.4739  0.2541  0.2511
  724TMC3     C10756   4.051   1.077  11.051 -0.0167  0.3886  0.3450
  724TMC3     O10757   4.034   1.195  11.043  0.7147  0.0464 -0.5334
  724TMC3     H10758   4.011   0.835  10.932 -1.3461  0.5511  0.8679
  724TMC3    H110759   4.225   1.203  10.918 -3.9235  0.4335  1.5933
  724TMC3    H210760   4.342   0.870  10.657 -1.7561 -0.6165 -0.5211
  724TMC3    C710761   4.372   1.137  10.707 -0.7159  0.0309  0.3405
  724TMC3    C810762   4.143   0.704  10.740 -0.1661  0.3619 -0.1113
  724TMC3    O110763   4.454   1.082  10.635  0.5157 -0.5980  0.1110
  724TMC3    O210764   4.088   0.635  10.826 -0.4045  0.1043  0.5459
  725TMC3    C110765   1.062   3.872  12.622  0.5803 -0.2020 -0.7810
  725TMC3    C210766   0.972   3.942  12.547 -1.0868 -0.1107  0.1118
  725TMC3    C310767   0.896   3.874  12.453  0.4083 -0.1288  0.5675
  725TMC3    C410768   1.094   3.740  12.596  0.0820 -0.2922  0.2394
  725TMC3    C510769   1.014   3.676  12.506 -0.3998  0.1770 -0.0783
  725TMC3    C610770   0.908   3.733  12.440 -0.0096  0.4878  0.3230
  725TMC3     C10771   1.121   3.942  12.733 -0.1482 -0.3317  0.2173
  725TMC3     O10772   1.130   4.065  12.718 -0.5558  0.0999 -0.2557
  725TMC3     H10773   0.957   4.046  12.573 -0.5710  0.2880 -1.1571
  725TMC3    H110774   1.176   3.696  12.652 -0.1644  0.2115  0.9962
  725TMC3    H210775   0.848   3.681  12.367 -0.9472  1.7967  0.1479
  725TMC3    C710776   1.069   3.544  12.463 -0.7398  0.5960 -0.2233
  725TMC3    C810777   0.818   3.950  12.363  0.0491 -0.2528 -0.3161
  725TMC3    O110778   1.051   3.511  12.346 -0.1908 -0.6345 -0.2994
  725TMC3    O210779   0.856   4.063  12.332  0.4183 -0.0324 -0.4267
  726MPD2     C10780   3.339   0.455  10.492  0.9827  0.0097 -0.3291
  726MPD2    C110781   3.218   0.494  10.436 -0.8442  0.6701 -0.4160
  726MPD2    C210782   3.120   0.398  10.425 -0.4258  0.3837 -0.6896
  726MPD2    C310783   3.141   0.265  10.453 -0.0593 -0.0146  0.5815
  726MPD2    C410784   3.265   0.226  10.494  0.1866  0.4665 -1.0928
  726MPD2    C510785   3.357   0.321  10.520  0.0927 -0.4621  0.1225
  726MPD2     H10786   3.021   0.440  10.412 -0.4037  0.6992  0.1844
  726MPD2    H110787   3.288   0.121  10.503 -0.9987  0.3594  0.5822
  726MPD2    H210788   3.418   0.524  10.518  0.3697  1.5849 -2.6368
  726MPD2    H310789   3.444   0.287  10.574  0.0917  0.9016  0.9999
  726MPD2     N10790   3.040   0.172  10.440 -0.3805  0.3726  0.0421
  726MPD2    H510791   3.048   0.083  10.489 -1.2178 -1.3131 -2.9361
  726MPD2    N110792   3.180   0.621  10.407  0.5888  0.1897 -0.4373
  726MPD2    H710793   3.097   0.628  10.349  1.0259  0.7894 -0.9973
  727TMC3    C110794   3.183   0.847  10.405 -1.0872  0.5217 -1.0794
  727TMC3    C210795   3.181   0.950  10.494 -0.0344  0.3934  0.1070
  727TMC3    C310796   3.119   1.068  10.451 -0.4805  1.0319  0.2045
  727TMC3    C410797   3.118   0.850  10.286  0.2465 -0.9696 -0.6417
  727TMC3    C510798   3.043   0.957  10.256 -0.0117  0.7726 -0.1292
  727TMC3    C610799   3.045   1.072  10.332 -0.2444 -0.1305 -0.3944
  727TMC3     C10800   3.250   0.731  10.457  0.2025  0.1661 -0.5945
  727TMC3     O10801   3.347   0.743  10.535 -1.0750  0.2329 -0.4367
  727TMC3     H10802   3.233   0.949  10.590 -0.3532 -1.4418  0.2620
  727TMC3    H110803   3.123   0.762  10.222  1.5022 -1.8688  0.7211
  727TMC3    H210804   2.972   1.150  10.309  0.8163  1.6207  2.1438
  727TMC3    C710805   2.945   0.958  10.144  0.4459  0.2059  0.0231
  727TMC3    C810806   3.157   1.189  10.511  0.0967  0.2098  0.0056
  727TMC3    O110807   2.933   1.068  10.088  0.9173 -0.6214 -0.5704
  727TMC3    O210808   3.215   1.180  10.616 -0.4080 -0.2715 -0.4336
  728TMC3    C110809   2.672   4.189  15.109 -0.4934  0.8464 -0.3982
  728TMC3    C210810   2.714   4.313  15.112 -0.0423 -0.1831 -0.6761
  728TMC3    C310811   2.742   4.378  15.004  0.6351  0.5732 -1.1138
  728TMC3    C410812   2.667   4.112  14.996  0.2891  0.0349  0.0380
  728TMC3    C510813   2.709   4.177  14.884 -0.0944 -0.0084 -0.7527
  728TMC3    C610814   2.737   4.309  14.883  0.2051 -0.8357 -0.0253
  728TMC3     C10815   2.644   4.123  15.235  0.1536 -0.3809  0.0563
  728TMC3     O10816   2.697   4.165  15.337 -0.6834 -0.2606  0.1806
  728TMC3     H10817   2.701   4.364  15.207  0.1066 -0.0328 -0.7355
  728TMC3    H110818   2.624   4.013  14.988 -0.3429  0.3606 -0.5532
  728TMC3    H210819   2.743   4.359  14.787 -0.0539 -0.0549  0.3701
  728TMC3    C710820   2.653   4.120  14.762 -0.2655  0.4008 -0.2498
  728TMC3    C810821   2.734   4.517  15.010 -0.4438  0.3914 -0.8612
  728TMC3    O110822   2.555   4.045  14.756 -0.7859  0.5746  0.3551
  728TMC3    O210823   2.705   4.571  15.115 -0.3155 -0.7134 -0.3210
  729MPD2     C10824   4.291   0.236  16.506 -0.1546  0.1244 -0.5907
  729MPD2    C110825   4.338   0.360  16.523 -0.8230  0.1095  0.5476
  729MPD2    C210826   4.265   0.445  16.607  0.1907 -0.3874 -0.5862
  729MPD2    C310827   4.146   0.400  16.671  0.6454 -0.1306 -0.3395
  729MPD2    C410828   4.105   0.267  16.649  0.9037 -0.5859 -0.1929
  729MPD2    C510829   4.179   0.191  16.565  0.6483 -0.2200 -0.4054
  729MPD2     H10830   4.316   0.538  16.632  0.6482 -0.3916 -1.5211
  729MPD2    H110831   4.013   0.235  16.696  0.3845 -1.3003 -1.6975
  729MPD2    H210832   4.342   0.167  16.440  2.0890  2.7815 -1.6287
  729MPD2    H310833   4.149   0.087  16.554  0.5039 -0.1162 -0.9820
  729MPD2     N10834   4.074   0.480  16.765  0.0121  0.0267  0.4198
  729MPD2    H510835   3.984   0.447  16.798 -0.4241 -0.6254 -1.4760
  729MPD2    N110836   4.455   0.398  16.458  0.0995  0.4391 -0.4883
  729MPD2    H710837   4.502   0.327  16.403 -3.7763 -0.1964 -2.9831
  730TMC3    C110838   4.038   0.661  16.917  0.6703 -0.6207  0.2565
  730TMC3    C210839   4.038   0.576  17.020  0.1962  0.3244 -0.2342
  730TMC3    C310840   4.085   0.616  17.142  0.1802  0.3481 -0.3738
  730TMC3    C410841   4.071   0.796  16.938  0.5451 -0.4364 -0.0407
  730TMC3    C510842   4.116   0.834  17.058 -0.8680 -0.3001 -0.3434
  730TMC3    C610843   4.134   0.737  17.156 -0.8924 -0.0830  0.4456
  730TMC3     C10844   4.111   0.609  16.796  0.1130  0.5261  0.6968
  730TMC3     O10845   4.194   0.685  16.751 -1.0490 -0.4169  0.1100
  730TMC3     H10846   4.015   0.473  16.994 -2.0823  1.2888 -2.0404
  730TMC3    H110847   4.082   0.864  16.855 -1.6117 -0.8727 -0.6848
  730TMC3    H210848   4.185   0.770  17.246 -0.1143 -1.0922  0.3821
  730TMC3    C710849   4.211   0.949  17.053 -0.0289 -0.1813 -0.3958
  730TMC3    C810850   4.055   0.536  17.261 -0.8923  0.1963 -0.2148
  730TMC3    O110851   4.248   0.990  16.941  0.5450  0.3255 -0.2661
  730TMC3    O210852   4.018   0.421  17.232 -0.0928 -0.3898  0.1981
  731MPD2     C10853   0.751   3.289  12.166  0.1340  0.0649  0.4020
  731MPD2    C110854   0.658   3.219  12.089 -0.3181  0.0153  0.5468
  731MPD2    C210855   0.582   3.113  12.146  0.2338 -0.0012  0.4113
  731MPD2    C310856   0.599   3.076  12.278  0.6802 -0.4321 -0.0156
  731MPD2    C410857   0.690   3.151  12.351  0.6299  0.1120  0.1713
  731MPD2    C510858   0.767   3.250  12.296  1.0438  0.0586 -0.4785
  731MPD2     H10859   0.512   3.046  12.097 -0.4578  1.2261 -0.2846
  731MPD2    H110860   0.703   3.127  12.456 -1.7545  1.2681  0.7172
  731MPD2    H210861   0.811   3.367  12.122  1.7263 -1.7035 -0.5704
  731MPD2    H310862   0.834   3.299  12.365  0.4089  0.0574  0.1446
  731MPD2     N10863   0.510   2.988  12.327 -0.7052 -0.4422 -0.4918
  731MPD2    H510864   0.447   2.944  12.261 -1.4597 -1.6908  1.0452
  731MPD2    N110865   0.649   3.241  11.948  0.1829  0.1288  0.6349
  731MPD2    H710866   0.717   3.305  11.909 -0.7861  0.9755  0.3454
  732TMC3    C110867   0.591   3.201  11.727  0.1683  0.1578  0.3750
  732TMC3    C210868   0.495   3.179  11.629  0.5460  0.4485 -0.1354
  732TMC3    C310869   0.536   3.154  11.501  0.9054  1.0519  0.2498
  732TMC3    C410870   0.726   3.203  11.691  0.7639 -0.7497  0.4090
  732TMC3    C510871   0.762   3.185  11.564  0.6586  0.2154  0.0853
  732TMC3    C610872   0.667   3.177  11.467  0.4414 -0.2938 -0.0753
  732TMC3     C10873   0.557   3.179  11.865 -0.2646 -0.5198 -0.2404
  732TMC3     O10874   0.446   3.121  11.883 -0.4252 -0.4750  0.1530
  732TMC3     H10875   0.389   3.187  11.652  0.3389  2.8675 -1.9980
  732TMC3    H110876   0.803   3.200  11.767  1.3379 -1.7923 -0.2258
  732TMC3    H210877   0.694   3.171  11.362 -1.0758  0.1895 -0.4975
  732TMC3    C710878   0.891   3.228  11.519  0.4243  1.1079 -0.0018
  732TMC3    C810879   0.442   3.092  11.414 -0.1007  0.1889  0.1158
  732TMC3    O110880   0.903   3.314  11.436 -0.3105  0.1016 -0.2419
  732TMC3    O210881   0.461   3.107  11.298 -0.1130  0.6527  0.3792
  733TMC3    C110882   1.012   1.140  12.815 -1.2785 -0.1953 -0.0746
  733TMC3    C210883   1.134   1.124  12.875 -0.4891  0.4205 -0.4303
  733TMC3    C310884   1.241   1.171  12.799 -0.9930 -0.4127  0.1446
  733TMC3    C410885   0.996   1.186  12.683  0.0450  0.2231  0.1659
  733TMC3    C510886   1.109   1.217  12.610 -0.3309  0.0289 -0.4726
  733TMC3    C610887   1.233   1.212  12.667  0.1714  0.7456  0.3127
  733TMC3     C10888   0.888   1.084  12.882  0.0440 -0.4420 -0.6277
  733TMC3     O10889   0.781   1.099  12.823 -0.7624 -0.0863  0.0848
  733TMC3     H10890   1.153   1.095  12.978 -1.5790 -0.8033 -0.5737
  733TMC3    H110891   0.895   1.200  12.647 -0.6080 -0.7508  1.6514
  733TMC3    H210892   1.321   1.236  12.609 -0.4933  1.3745 -0.4369
  733TMC3    C710893   1.086   1.293  12.482  0.0720 -0.6274 -0.2390
  733TMC3    C810894   1.344   1.237  12.880 -0.6650 -0.6958  0.4378
  733TMC3    O110895   0.975   1.281  12.435 -0.9233 -0.7160 -0.3233
  733TMC3    O210896   1.322   1.246  13.002 -0.3604  0.2928 -0.3299
  734MPD2     C10897   3.380   3.877  12.693  0.0202  0.6710  0.2100
  734MPD2    C110898   3.264   3.831  12.634 -0.0745  1.0437  0.0912
  734MPD2    C210899   3.236   3.881  12.509 -0.1342 -0.7524 -0.9812
  734MPD2    C310900   3.322   3.957  12.433  0.3759  0.2325  0.5289
  734MPD2    C410901   3.444   3.992  12.493  0.1888  0.2824 -0.0940
  734MPD2    C510902   3.466   3.961  12.624  0.6383 -0.1781  0.2683
  734MPD2     H10903   3.139   3.859  12.464 -0.5372  1.2607 -1.0927
  734MPD2    H110904   3.515   4.045  12.431  1.7880  0.5902  2.0120
  734MPD2    H210905   3.418   3.853  12.792 -0.4387 -0.3797  0.1321
  734MPD2    H310906   3.563   3.995  12.659  0.8909 -0.0091 -0.6025
  734MPD2     N10907   3.287   3.996  12.306  0.2508  0.2766 -0.2394
  734MPD2    H510908   3.201   3.951  12.276  0.2422  1.7231 -2.4231
  734MPD2    N110909   3.184   3.735  12.694  0.0042  0.6307 -0.4052
  734MPD2    H710910   3.216   3.682  12.774  0.1489 -0.1508 -0.9848
  735TMC3    C110911   3.010   3.580  12.716 -0.0597  0.3632 -0.1156
  735TMC3    C210912   2.887   3.554  12.656  0.0128 -0.3793  1.0839
  735TMC3    C310913   2.864   3.439  12.582  0.5978  0.1733 -0.3905
  735TMC3    C410914   3.102   3.481  12.706 -0.0363  0.1064 -0.2442
  735TMC3    C510915   3.069   3.357  12.656 -0.1879 -0.2368  0.3139
  735TMC3    C610916   2.955   3.337  12.586  0.3576  1.0310 -0.2825
  735TMC3     C10917   3.053   3.705  12.662  0.8519  0.0312  0.4431
  735TMC3     O10918   2.976   3.757  12.581  0.1399  0.2147 -0.1660
  735TMC3     H10919   2.805   3.625  12.667  0.0885 -0.3640  1.5564
  735TMC3    H110920   3.207   3.484  12.730  0.0758 -0.5755 -0.6416
  735TMC3    H210921   2.946   3.261  12.508  0.3871 -0.2153  0.9366
  735TMC3    C710922   3.186   3.287  12.599  0.2471  0.5926  0.0919
  735TMC3    C810923   2.806   3.459  12.451 -0.2720  0.4010 -0.3162
  735TMC3    O110924   3.280   3.349  12.550  0.1741  1.0004  0.0918
  735TMC3    O210925   2.760   3.372  12.389  0.6455 -0.0830 -0.0301
  736MPD2     C10926   3.224   2.921  12.585 -0.0580 -0.0426  0.1750
  736MPD2    C110927   3.266   3.052  12.573  0.0673 -0.1362  0.3631
  736MPD2    C210928   3.387   3.076  12.514 -0.2842  0.5253 -0.0781
  736MPD2    C310929   3.468   2.977  12.465  0.4381  0.1709 -0.0333
  736MPD2    C410930   3.423   2.842  12.467  0.0837 -0.2043 -0.5607
  736MPD2    C510931   3.297   2.818  12.527 -0.2259 -0.8123 -0.0797
  736MPD2     H10932   3.414   3.180  12.494  0.6496  0.6336  1.7296
  736MPD2    H110933   3.491   2.763  12.437 -2.1027 -2.4066  0.2902
  736MPD2    H210934   3.130   2.883  12.622  0.0832 -0.5966 -0.0389
  736MPD2    H310935   3.250   2.722  12.544 -0.0236 -0.7651  0.7783
  736MPD2     N10936   3.593   3.008  12.406  0.2297 -0.1805 -0.1841
  736MPD2    H510937   3.646   2.932  12.365 -2.3489 -1.0220 -1.9349
  736MPD2    N110938   3.177   3.151  12.624  0.6392  0.0565  0.0863
  736MPD2    H710939   3.094   3.124  12.676  1.0019  0.0436  0.6589
  737TMC3    C110940   3.758   3.159  12.317  0.6682 -0.6024  0.7542
  737TMC3    C210941   3.782   3.296  12.307  0.6552  0.5844  0.1281
  737TMC3    C310942   3.810   3.339  12.179  0.0921 -0.1243  1.2733
  737TMC3    C410943   3.767   3.072  12.208 -0.0451  0.4988 -0.2938
  737TMC3    C510944   3.781   3.129  12.077  0.2601 -0.2192  0.4690
  737TMC3    C610945   3.804   3.258  12.062 -0.7881  0.0397 -0.1340
  737TMC3     C10946   3.666   3.125  12.424  0.4349  0.1208 -0.3550
  737TMC3     O10947   3.660   3.214  12.509 -0.7199  0.8163  0.1818
  737TMC3     H10948   3.756   3.372  12.380 -0.3423 -2.2441  2.7114
  737TMC3    H110949   3.768   2.964  12.218 -0.4930  0.3716 -1.6978
  737TMC3    H210950   3.818   3.298  11.962 -2.5274  1.5471  0.2267
  737TMC3    C710951   3.825   3.035  11.980 -0.8099  0.5739 -0.0731
  737TMC3    C810952   3.824   3.488  12.164  0.3433 -0.0125 -0.4185
  737TMC3    O110953   3.813   2.913  12.003  0.0226  0.2453 -0.3950
  737TMC3    O210954   3.875   3.557  12.251 -0.4727  0.3442  0.7941
  738MPD2     C10955   4.058   2.521  15.595 -0.6723  0.4080  0.7209
  738MPD2    C110956   4.014   2.469  15.477  0.1031  0.0084 -0.2025
  738MPD2    C210957   4.071   2.508  15.361 -0.6704  0.3937  0.0993
  738MPD2    C310958   4.167   2.604  15.355  0.8502  0.3802 -0.1724
  738MPD2    C410959   4.210   2.657  15.473  0.9217 -0.4754 -0.3349
  738MPD2    C510960   4.158   2.610  15.592  0.6279 -0.0656 -0.4044
  738MPD2     H10961   4.024   2.470  15.271 -0.1150  1.9472 -0.8301
  738MPD2    H110962   4.282   2.738  15.479 -1.3928  1.5512  0.1881
  738MPD2    H210963   4.019   2.489  15.691  1.4305  0.0787  1.4711
  738MPD2    H310964   4.200   2.645  15.685  0.7007  0.6928 -0.7239
  738MPD2     N10965   4.207   2.666  15.232  0.2259  0.0650 -0.1364
  738MPD2    H510966   4.274   2.742  15.237 -0.7127  0.9570 -1.2834
  738MPD2    N110967   3.903   2.378  15.474 -0.3600 -0.0712  0.1201
  738MPD2    H710968   3.874   2.334  15.387  1.2779 -1.0010  0.0444
  739TMC3    C110969   4.289   2.658  15.010 -0.4429 -0.0772 -0.0139
  739TMC3    C210970   4.256   2.646  14.875 -0.0252  0.3391 -0.1526
  739TMC3    C310971   4.359   2.657  14.784  0.2812 -0.0836 -0.7948
  739TMC3    C410972   4.412   2.702  15.046 -0.4690 -0.3652  0.1478
  739TMC3    C510973   4.509   2.721  14.949 -0.3232 -0.1947  0.3187
  739TMC3    C610974   4.483   2.694  14.817 -0.2604  0.4776  0.1514
  739TMC3     C10975   4.183   2.622  15.103  0.0687  0.0337  0.3839
  739TMC3     O10976   4.097   2.550  15.053  0.6496  0.3075 -0.1249
  739TMC3     H10977   4.155   2.626  14.842 -0.2831  1.7760 -0.2193
  739TMC3    H110978   4.444   2.730  15.146  0.7214 -2.1263  0.2605
  739TMC3    H210979   4.559   2.691  14.740  0.1903  2.4974  0.5142
  739TMC3    C710980   4.616   2.810  14.983 -0.0723  0.0035  0.0679
  739TMC3    C810981   4.330   2.611  14.652  0.2421 -0.0200 -0.3149
  739TMC3    O110982   4.592   2.881  15.077 -0.0595 -0.4973  0.4801
  739TMC3    O210983   4.227   2.639  14.596  0.1424 -0.6769 -0.0231
  740TMC3    C110984   4.677   3.989  14.255  0.8686  1.1549 -0.1060
  740TMC3    C210985   4.669   3.926  14.376  0.4611  0.5518  0.6712
  740TMC3    C310986   0.037   3.843  14.399 -0.2214  0.5967 -0.0852
  740TMC3    C410987   0.040   3.978  14.163  0.1671 -0.1581  0.4359
  740TMC3    C510988   0.147   3.909  14.206 -0.2151 -0.4490  0.2080
  740TMC3    C610989   0.153   3.852  14.328 -0.0876  0.7867 -1.1344
  740TMC3     C10990   4.553   4.050  14.205  0.1902  0.5056 -0.4193
  740TMC3     O10991   4.561   4.107  14.097 -0.4310  0.0935 -0.1264
  740TMC3     H10992   4.592   3.947  14.450  2.0152 -0.4509  2.5853
  740TMC3    H110993   0.042   4.040  14.074 -0.3351 -0.7352  0.0259
  740TMC3    H210994   0.237   3.791  14.359 -1.4013 -0.3659  0.1804
  740TMC3    C710995   0.244   3.850  14.107  0.0010  0.4440 -0.2714
  740TMC3    C810996   0.018   3.739  14.498  0.1846 -0.6972 -0.6761
  740TMC3    O110997   0.328   3.784  14.163 -0.0385 -0.3870  0.7352
  740TMC3    O210998   0.112   3.706  14.570  0.0253 -0.0077 -0.1679
  741TMC3    C110999   4.278   3.017  14.427  0.0248 -0.4756 -0.0728
  741TMC3    C211000   4.156   2.967  14.384 -0.0015 -0.1024 -0.1425
  741TMC3    C311001   4.078   2.899  14.468  0.4354 -0.2922  0.1433
  741TMC3    C411002   4.310   3.015  14.556 -0.0538 -0.4082 -0.8682
  741TMC3    C511003   4.213   2.966  14.636  0.1353 -0.3079 -0.3410
  741TMC3    C611004   4.096   2.911  14.602 -0.7911  0.3292 -0.3895
  741TMC3     C11005   4.360   3.088  14.326 -0.3400 -0.3037  0.1559
  741TMC3     O11006   4.309   3.121  14.215  0.2016  0.3959 -0.5325
  741TMC3     H11007   4.128   2.974  14.279 -1.3942  0.5810  0.2699
  741TMC3    H111008   4.394   3.072  14.594  0.1331 -0.2469 -1.5267
  741TMC3    H211009   4.030   2.857  14.669 -1.6766 -0.6669 -2.0840
  741TMC3    C711010   4.236   2.979  14.778 -0.7089  0.0405  0.6379
  741TMC3    C811011   3.950   2.840  14.412  0.0496 -0.1320 -0.1466
  741TMC3    O111012   4.355   2.990  14.818 -0.5056  0.6166 -0.0461
  741TMC3    O211013   3.847   2.852  14.475  0.0328 -0.9331  0.4091
  742TMC3    C111014   4.393   1.248  15.524 -0.6324 -0.5608  1.1422
  742TMC3    C211015   4.344   1.289  15.402  0.4390  0.3665  0.7539
  742TMC3    C311016   4.380   1.220  15.291  0.1173  0.6125  0.2219
  742TMC3    C411017   4.486   1.151  15.532  0.0728 -0.6842 -0.7701
  742TMC3    C511018   4.517   1.079  15.419  0.0237  0.1828 -0.2892
  742TMC3    C611019   4.466   1.113  15.298 -0.2195 -0.3022  0.8881
  742TMC3     C11020   4.360   1.325  15.642  0.4220  0.8500  0.0025
  742TMC3     O11021   4.361   1.449  15.630 -0.4621  0.1833 -0.3607
  742TMC3     H11022   4.257   1.355  15.405  0.6263  0.6652 -0.3717
  742TMC3    H111023   4.533   1.129  15.628  0.4884  2.6259 -0.1994
  742TMC3    H211024   4.489   1.057  15.208 -4.2169 -1.2670  0.4319
  742TMC3    C711025   4.583   0.947  15.426 -0.2310 -0.0019  0.3774
  742TMC3    C811026   4.288   1.213  15.179  0.0591  0.0503  0.6678
  742TMC3    O111027   4.647   0.912  15.326  0.0249  0.5097  0.2856
  742TMC3    O211028   4.282   1.109  15.121  0.0880 -0.1302 -0.2949
  743MPD2     C11029   1.914   2.109   1.499 -0.0800  0.1763 -0.5200
  743MPD2    C111030   1.934   2.238   1.490 -0.1664  0.1108  0.2697
  743MPD2    C211031   2.067   2.291   1.484  0.9894  0.0757  0.1535
  743MPD2    C311032   2.179   2.206   1.484  0.2314 -0.1993  0.4422
  743MPD2    C411033   2.157   2.072   1.503 -0.0149  0.2263 -1.1161
  743MPD2    C511034   2.027   2.028   1.510  0.5976 -0.0803  0.3497
  743MPD2     H11035   2.083   2.398   1.483 -2.4232  0.5815  0.7502
  743MPD2    H111036   2.235   1.998   1.518 -0.8355 -0.1020  1.4796
  743MPD2    H211037   1.813   2.070   1.508  0.2352 -0.3193  0.9347
  743MPD2    H311038   2.021   1.919   1.511 -0.5686 -0.0293 -1.1098
  743MPD2     N11039   2.307   2.256   1.453 -0.5855 -0.6920  0.0247
  743MPD2    H511040   2.313   2.356   1.438 -1.0654 -0.5596  0.7168
  743MPD2    N111041   1.823   2.315   1.455 -0.4531 -0.8999  0.1991
  743MPD2    H711042   1.739   2.268   1.423 -1.1107  1.0380 -0.9333
  744TMC3    C111043   1.687   2.510   1.446 -0.4160 -0.3721 -0.4206
  744TMC3    C211044   1.661   2.615   1.528  0.0573  0.3230 -0.2737
  744TMC3    C311045   1.543   2.684   1.504  0.1816  0.1667  0.1495
  744TMC3    C411046   1.613   2.470   1.339 -0.2456 -0.5140  0.2068
  744TMC3    C511047   1.497   2.543   1.321  0.6432 -0.1822 -0.0155
  744TMC3    C611048   1.456   2.655   1.397  0.5884 -0.3608  0.1494
  744TMC3     C11049   1.816   2.452   1.469 -0.6371  0.0631 -0.0211
  744TMC3     O11050   1.895   2.522   1.530  0.7143 -0.7098  0.3489
  744TMC3     H11051   1.734   2.643   1.603  0.6250  1.2535 -1.1718
  744TMC3    H111052   1.652   2.396   1.270  0.8395  1.9032 -1.7781
  744TMC3    H211053   1.372   2.716   1.367  0.0580 -0.4739  1.4101
  744TMC3    C711054   1.437   2.532   1.191 -0.2508  0.4993  0.3146
  744TMC3    C811055   1.515   2.816   1.550  0.0363  0.6030 -0.2814
  744TMC3    O111056   1.400   2.639   1.147  0.2904  0.1856  0.0807
  744TMC3    O211057   1.477   2.899   1.463  0.8098  0.0993 -0.0041
  745TMC3    C111058   4.363   1.199  13.677  0.1672 -0.1502  0.4415
  745TMC3    C211059   4.299   1.278  13.752 -0.6261  0.0674  0.1851
  745TMC3    C311060   4.168   1.312  13.723  0.1170  0.1377 -0.0924
  745TMC3    C411061   4.296   1.126  13.581  0.6037 -0.2088 -0.6065
  745TMC3    C511062   4.178   1.169  13.539  0.1087  0.6528  0.1525
  745TMC3    C611063   4.105   1.264  13.613  1.0114  0.2179  0.2046
  745TMC3     C11064   4.491   1.237  13.629 -0.5550 -0.2258  0.5665
  745TMC3     O11065   4.533   1.179  13.529  0.3639  0.2102 -0.1489
  745TMC3     H11066   4.355   1.336  13.824  0.7859  0.1119 -0.9311
  745TMC3    H111067   4.348   1.047  13.529 -0.1000 -2.4880  2.1607
  745TMC3    H211068   4.008   1.299  13.580  0.3855 -0.7251  1.0505
  745TMC3    C711069   4.175   1.192  13.397  0.2181  0.0008  0.2511
  745TMC3    C811070   4.088   1.384  13.819 -0.4807 -0.1102 -0.2382
  745TMC3    O111071   4.078   1.253  13.360  0.3108 -0.3026 -0.0839
  745TMC3    O211072   3.969   1.353  13.842  0.9894  0.1886 -0.7086
  746TMC3    C111073   2.061   3.222  10.854  0.3280  0.4894  0.3390
  746TMC3    C211074   2.150   3.202  10.750 -0.1401  0.3347 -0.6780
  746TMC3    C311075   2.145   3.083  10.677  0.0484 -0.0388 -0.4180
  746TMC3    C411076   1.971   3.130  10.879  0.0847  0.6644  0.1297
  746TMC3    C511077   1.957   3.022  10.791 -0.2838  0.1567  0.1716
  746TMC3    C611078   2.043   2.992  10.691  0.8594 -0.6030 -0.1715
  746TMC3     C11079   2.044   3.345  10.924  0.8947 -0.3486 -1.0028
  746TMC3     O11080   1.985   3.340  11.033  0.0144 -0.0865 -0.0153
  746TMC3     H11081   2.232   3.272  10.741 -1.2407  1.5181 -1.4699
  746TMC3    H111082   1.888   3.159  10.943  0.1933 -1.4712  1.2424
  746TMC3    H211083   2.035   2.904  10.628  1.3894  0.3537 -1.5721
  746TMC3    C711084   1.832   2.952  10.781 -0.9145 -0.2819 -0.5374
  746TMC3    C811085   2.227   3.073  10.558 -0.3802 -0.1298 -0.2280
  746TMC3    O111086   1.802   2.902  10.674  0.2907 -0.1452  0.2436
  746TMC3    O211087   2.201   2.976  10.496  0.2513  0.3013 -0.1851
  747TMC3    C111088   4.346   3.363  11.127  0.3533 -0.2901 -0.2704
  747TMC3    C211089   4.247   3.278  11.170 -0.4762 -0.0265  0.0097
  747TMC3    C311090   4.265   3.228  11.298  0.1772  0.8051 -0.3244
  747TMC3    C411091   4.449   3.405  11.205 -0.5270  0.2288 -0.3006
  747TMC3    C511092   4.462   3.345  11.331 -0.5152 -0.2777  0.1370
  747TMC3    C611093   4.365   3.262  11.381  0.2611  1.4178 -0.7092
  747TMC3     C11094   4.316   3.447  11.010 -0.2925 -0.1225 -0.5343
  747TMC3     O11095   4.361   3.561  11.016  0.2259 -0.0194 -0.3091
  747TMC3     H11096   4.161   3.249  11.111 -0.8908  0.2197  0.4977
  747TMC3    H111097   4.524   3.472  11.163  1.9042 -1.1264  1.8747
  747TMC3    H211098   4.392   3.223  11.479  2.2463  2.6801 -0.7403
  747TMC3    C711099   4.595   3.357  11.390 -0.1442  0.1271 -0.3748
  747TMC3    C811100   4.163   3.129  11.349 -0.0622 -0.0154 -0.4434
  747TMC3    O111101   4.606   3.402  11.501 -0.4852 -0.5598 -0.1828
  747TMC3    O211102   4.081   3.077  11.274 -0.7332 -0.0321 -0.5094
  748MPD2     C11103   1.130   3.990   1.595  0.1626  0.1605 -0.1856
  748MPD2    C111104   1.248   4.027   1.648  0.8630  0.2192  0.0081
  748MPD2    C211105   1.333   4.117   1.595  0.2183  0.7839  0.0136
  748MPD2    C311106   1.310   4.163   1.468 -0.1616  0.1341 -0.5059
  748MPD2    C411107   1.180   4.145   1.423 -0.6853  0.1898 -0.3902
  748MPD2    C511108   1.099   4.049   1.476 -0.6104 -0.3055 -0.6602
  748MPD2     H11109   1.430   4.127   1.642 -0.5440 -0.7742  1.9280
  748MPD2    H111110   1.135   4.191   1.336  0.7150  1.9545 -0.1821
  748MPD2    H211111   1.067   3.922   1.651  1.7977 -1.3877 -0.2336
  748MPD2    H311112   1.000   4.031   1.436 -0.4007 -0.6142 -1.0458
  748MPD2     N11113   1.404   4.239   1.402 -0.1657  0.5973  0.0032
  748MPD2    H511114   1.491   4.258   1.449  0.2090 -0.5990 -0.2150
  748MPD2    N111115   1.274   3.958   1.772  0.6059  0.0996 -0.2591
  748MPD2    H711116   1.198   3.898   1.802 -0.2124  1.2574  0.0103
  749TMC3    C111117   1.518   4.381   1.240  0.5676 -1.4227 -0.2144
  749TMC3    C211118   1.641   4.331   1.279 -0.2602  0.6896  0.0286
  749TMC3    C311119   1.744   4.418   1.265  0.2382  0.5379  0.2390
  749TMC3    C411120   1.503   4.502   1.176 -0.2323 -0.0090  0.4430
  749TMC3    C511121   1.611   4.583   1.182  0.4089 -0.0826  0.1046
  749TMC3    C611122   1.730   4.550   1.244 -0.1453  0.4904 -0.3463
  749TMC3     C11123   1.402   4.298   1.273 -0.6867  0.4239 -0.2276
  749TMC3     O11124   1.313   4.306   1.181  0.1971 -0.0249 -0.1332
  749TMC3     H11125   1.642   4.235   1.331  0.2768  0.3481 -0.6116
  749TMC3    H111126   1.404   4.531   1.144  0.7350 -0.3160 -2.8203
  749TMC3    H211127   1.818   4.613   1.243  0.4373 -0.2655  3.0552
  749TMC3    C711128   1.603   4.716   1.113  0.3060  1.1055 -0.2459
  749TMC3    C811129   1.857   4.373   1.346  0.3832 -0.0943 -0.3088
  749TMC3    O111130   1.691   0.064   1.124  0.1988  0.7161  0.6337
  749TMC3    O211131   1.914   4.449   1.419 -0.5764 -0.0421  0.1505
  750MPD2     C11132   2.110   0.605  11.024 -0.2561 -0.3645  0.6041
  750MPD2    C111133   2.069   0.537  11.132 -0.3711  0.2518  0.2356
  750MPD2    C211134   2.071   0.400  11.126 -0.0291 -0.3855  0.0521
  750MPD2    C311135   2.121   0.335  11.018  1.4229 -0.3774 -1.1244
  750MPD2    C411136   2.152   0.408  10.905  0.3631  0.2815 -0.4424
  750MPD2    C511137   2.154   0.539  10.915  0.1740 -0.4033 -0.2056
  750MPD2     H11138   2.055   0.347  11.220  2.9634 -1.4009 -0.0147
  750MPD2    H111139   2.189   0.365  10.812  1.2216  1.2132 -0.5351
  750MPD2    H211140   2.112   0.714  11.029 -3.3619 -0.3139  0.4325
  750MPD2    H311141   2.195   0.605  10.840 -2.2293  1.2142 -0.0817
  750MPD2     N11142   2.131   0.194  11.025  0.7604  0.3083 -0.3190
  750MPD2    H511143   2.185   0.157  10.947 -0.4721 -0.9112 -0.6061
  750MPD2    N111144   2.030   0.605  11.251 -0.6729 -0.6907 -0.6184
  750MPD2    H711145   2.038   0.706  11.258  0.0748 -0.7896 -0.1116
  751TMC3    C111146   2.126   4.713  11.113 -0.0673 -0.6318  0.1866
  751TMC3    C211147   2.061   4.632  11.205  0.3444  0.6173  0.3662
  751TMC3    C311148   2.142   4.549  11.288 -0.1295 -0.2992  0.8809
  751TMC3    C411149   2.260   4.717  11.094 -0.0527 -0.1905 -0.5936
  751TMC3    C511150   2.334   4.624  11.168 -0.9624  0.2648 -0.3503
  751TMC3    C611151   2.278   4.547  11.272  0.9826  0.0849  0.5474
  751TMC3     C11152   2.071   0.108  11.116 -0.0002 -0.0210  0.4439
  751TMC3     O11153   1.976   0.131  11.190 -0.0521 -0.0408  0.2329
  751TMC3     H11154   1.953   4.640  11.217 -0.0373 -2.3894 -1.1336
  751TMC3    H111155   2.309   0.032  11.014  1.0905 -0.3476 -0.0080
  751TMC3    H211156   2.332   4.482  11.340  2.9376  0.7024 -0.4126
  751TMC3    C711157   2.438   4.561  11.084  0.6978  0.4509  0.4079
  751TMC3    C811158   2.088   4.411  11.291  0.5340 -0.1741  0.1778
  751TMC3    O111159   2.425   4.585  10.962  0.4090  0.0770 -0.3414
  751TMC3    O211160   2.165   4.319  11.263  0.4666  0.0608 -0.3085
  752TMC3    C111161   0.485   0.483  17.077  0.9295  0.2357  0.2742
  752TMC3    C211162   0.543   0.434  17.184  0.2415  0.1400 -0.2783
  752TMC3    C311163   0.469   0.432  17.300 -0.2580 -0.3885 -0.3859
  752TMC3    C411164   0.356   0.528  17.080 -0.2876 -0.4593 -0.2030
  752TMC3    C511165   0.277   0.523  17.194 -0.5508  0.2765  0.1558
  752TMC3    C611166   0.337   0.474  17.304  0.8462  0.4594  0.1960
  752TMC3     C11167   0.531   0.415  16.957  0.6673 -0.0428 -0.4725
  752TMC3     O11168   0.618   0.326  16.965  0.0232  0.5405  0.1806
  752TMC3     H11169   0.646   0.402  17.182  0.0586 -0.5202  0.7788
  752TMC3    H111170   0.302   0.567  16.995 -2.3446  0.5526  1.5677
  752TMC3    H211171   0.279   0.446  17.391 -0.3158  2.7716  0.1829
  752TMC3    C711172   0.136   0.564  17.196  0.2430  0.3635  0.2306
  752TMC3    C811173   0.515   0.336  17.397 -0.4117 -0.8706 -0.6945
  752TMC3    O111174   0.086   0.581  17.085 -0.1208  0.3870 -0.0898
  752TMC3    O211175   0.483   0.358  17.512  0.1749  0.2964 -0.1896
  753TMC3    C111176   2.903   1.041  13.714 -0.1808  0.3733 -0.2630
  753TMC3    C211177   3.004   1.058  13.808 -0.1655  0.0704 -0.2055
  753TMC3    C311178   3.100   0.967  13.830  0.4902 -0.1550  0.0850
  753TMC3    C411179   2.907   0.926  13.631  0.3457  0.5096 -0.0174
  753TMC3    C511180   3.011   0.846  13.647 -0.3332  0.2204  0.5412
  753TMC3    C611181   3.109   0.866  13.744 -0.1232 -0.3847  0.3071
  753TMC3     C11182   2.798   1.135  13.705  0.2272  0.1514  0.5396
  753TMC3     O11183   2.806   1.226  13.788 -0.0277 -0.5274  0.5633
  753TMC3     H11184   2.998   1.138  13.880 -2.8412  0.5504 -0.9718
  753TMC3    H111185   2.819   0.898  13.574 -0.1476  0.8492  0.5839
  753TMC3    H211186   3.185   0.790  13.751 -0.7849 -1.0653  0.1110
  753TMC3    C711187   3.019   0.733  13.561  0.4656 -0.4046  1.3266
  753TMC3    C811188   3.202   0.983  13.928 -0.2075  0.3352 -0.0780
  753TMC3    O111189   3.104   0.650  13.599 -0.9683  0.2136  0.6247
  753TMC3    O211190   3.283   0.893  13.920 -0.1077  0.3828  0.1072
  754MPD2     C11191   2.170   4.590  13.379  0.2277  0.0058  0.1358
  754MPD2    C111192   2.116   4.469  13.354 -0.1825  0.1063  0.0834
  754MPD2    C211193   1.993   4.461  13.288 -0.3085  0.4348  0.2930
  754MPD2    C311194   1.916   4.575  13.266  0.4702  0.1332  0.5974
  754MPD2    C411195   1.966   4.695  13.300 -0.2329 -0.0975  0.1322
  754MPD2    C511196   2.096   4.706  13.352  0.0902  0.3790 -0.3068
  754MPD2     H11197   1.961   4.360  13.262 -0.6586  0.5167  0.4092
  754MPD2    H111198   1.902   0.043  13.299  0.7193  0.6032  0.1946
  754MPD2    H211199   2.273   4.601  13.413  0.7793 -1.0498 -1.1907
  754MPD2    H311200   2.132   0.064  13.383 -0.0551  0.1775  0.5050
  754MPD2     N11201   1.788   4.576  13.222  0.3851 -0.1737  0.0307
  754MPD2    H511202   1.741   4.666  13.230 -0.0087 -0.4088  0.3933
  754MPD2    N111203   2.186   4.352  13.386  0.1090  0.3531 -0.2870
  754MPD2    H711204   2.285   4.366  13.399  0.0473  1.1226 -0.6100
  755MPD2     C11205   1.218   0.482  13.161  0.2210  0.0382 -0.1474
  755MPD2    C111206   1.185   0.410  13.274  0.2171 -0.0079 -0.1111
  755MPD2    C211207   1.241   0.286  13.291 -0.0172 -0.0240  0.4317
  755MPD2    C311208   1.322   0.230  13.189 -0.1160 -0.3722  0.7766
  755MPD2    C411209   1.366   0.314  13.088  0.0996 -1.1872 -0.8509
  755MPD2    C511210   1.316   0.439  13.073  0.5260 -0.0886  0.1148
  755MPD2     H11211   1.202   0.225  13.372 -0.4189 -0.9467 -0.4558
  755MPD2    H111212   1.438   0.272  13.018 -1.0807 -1.3722 -1.9445
  755MPD2    H211213   1.172   0.579  13.158 -1.0774 -0.5481  0.8030
  755MPD2    H311214   1.353   0.499  12.991 -1.5662  0.7407 -0.2180
  755MPD2     N11215   1.376   0.100  13.197  0.1765  0.3122 -0.0383
  755MPD2    H511216   1.454   0.079  13.136 -0.4117 -2.3796  0.1492
  755MPD2    N111217   1.096   0.464  13.375  0.5529  0.0707 -0.0509
  755MPD2    H711218   1.077   0.403  13.454 -2.1882 -0.3738 -1.0473
  756MPD2     C11219   1.601   1.136   9.546 -0.5489 -0.5040  0.5458
  756MPD2    C111220   1.481   1.136   9.616 -0.0276  0.2864 -0.5544
  756MPD2    C211221   1.366   1.152   9.547  0.3557  0.6328 -0.0317
  756MPD2    C311222   1.367   1.178   9.410 -0.7194 -0.2276 -0.2349
  756MPD2    C411223   1.485   1.175   9.342 -0.3837  0.4380  0.5808
  756MPD2    C511224   1.601   1.165   9.415 -0.0425  0.4459  0.6430
  756MPD2     H11225   1.271   1.157   9.599  1.2185  0.7276  1.5327
  756MPD2    H111226   1.494   1.205   9.238 -4.2982 -0.3362  0.0198
  756MPD2    H211227   1.697   1.128   9.597 -0.3986 -0.3402  0.2941
  756MPD2    H311228   1.698   1.175   9.368 -1.1566  1.3430 -1.4525
  756MPD2     N11229   1.245   1.189   9.335 -0.6586  0.4272  0.3224
  756MPD2    H511230   1.164   1.155   9.384 -0.0823 -0.1574  0.8762
  756MPD2    N111231   1.465   1.111   9.756 -0.4405 -0.2526 -0.7652
  756MPD2    H711232   1.369   1.104   9.788  0.5693  1.0403  2.5371
  757MPD2     C11233   0.505   0.808   9.495 -0.2483 -1.2731  0.1543
  757MPD2    C111234   0.641   0.792   9.503  0.5951 -1.5404 -0.6710
  757MPD2    C211235   0.730   0.891   9.465  0.2252 -0.2104 -0.1839
  757MPD2    C311236   0.682   1.000   9.394  0.0600  0.0021 -0.9128
  757MPD2    C411237   0.542   1.021   9.388 -0.3011 -0.1754  0.8719
  757MPD2    C511238   0.453   0.935   9.453  0.4301  0.5256 -0.7831
  757MPD2     H11239   0.838   0.882   9.469  0.0649 -2.0028  0.1655
  757MPD2    H111240   0.496   1.110   9.347  1.5378  0.8414  1.0095
  757MPD2    H211241   0.442   0.738   9.550 -0.4471 -0.1225  1.3914
  757MPD2    H311242   0.346   0.947   9.441  0.0516 -3.7450 -1.4965
  757MPD2     N11243   0.775   1.090   9.338  0.2663 -0.4935 -0.0887
  757MPD2    H511244   0.875   1.079   9.357  0.5424  1.9815 -0.0851
  757MPD2    N111245   0.680   0.671   9.567  0.3231 -0.3906  0.1159
  757MPD2    H711246   0.607   0.608   9.598  0.1578  0.2141  0.9436
  758MPD2     C11247   1.413   4.625  15.838 -0.6852  0.1147  0.5060
  758MPD2    C111248   1.488   4.541  15.921 -0.8363  0.3152  0.5608
  758MPD2    C211249   1.489   4.569  16.057  0.0845 -0.0476  0.2035
  758MPD2    C311250   1.442   4.697  16.101 -0.1380 -0.9830  0.1030
  758MPD2    C411251   1.384   0.044  16.012  0.8239  0.0649  0.2682
  758MPD2    C511252   1.367   0.006  15.879 -0.6090 -0.4277  0.3714
  758MPD2     H11253   1.523   4.494  16.127  1.2428  0.7011  0.4465
  758MPD2    H111254   1.353   0.144  16.038  0.6787  0.1015 -0.0504
  758MPD2    H211255   1.402   4.602  15.733  1.5378  1.1551  0.0571
  758MPD2    H311256   1.303   0.067  15.816  0.4651  1.2251  0.8889
  758MPD2     N11257   1.445   4.727  16.240 -0.0861  0.0095  0.2519
  758MPD2    H511258   1.387   0.067  16.264 -0.1825  1.2044 -4.0854
  758MPD2    N111259   1.555   4.437  15.859  0.2666  0.6391 -0.7660
  758MPD2    H711260   1.549   4.433  15.758  0.5203  0.1457 -0.7623
  759MPD2     C11261   4.430   2.786  10.184  0.5086 -0.1807 -0.1399
  759MPD2    C111262   4.534   2.701  10.216  0.3709  0.3526 -0.5090
  759MPD2    C211263   4.649   2.713  10.138  0.2846  0.5869 -0.0323
  759MPD2    C311264   4.647   2.803  10.020  0.1530  0.8873  0.2512
  759MPD2    C411265   4.541   2.890  10.001 -0.4044  0.7206  0.3045
  759MPD2    C511266   4.435   2.879  10.080  0.1663 -0.2431 -0.3415
  759MPD2     H11267   4.724   2.636  10.151 -0.1854  0.3472  1.2418
  759MPD2    H111268   4.524   2.961   9.921  0.7895 -0.5697 -1.0705
  759MPD2    H211269   4.336   2.777  10.236  0.0405  1.0822 -0.7552
  759MPD2    H311270   4.344   2.936  10.063  0.1475 -0.4420 -0.9028
  759MPD2     N11271   0.015   2.798   9.928 -0.0189 -0.4830 -0.4525
  759MPD2    H511272   0.093   2.737   9.947  0.7281  0.5628 -0.1857
  759MPD2    N111273   4.539   2.599  10.317  0.1184 -0.3087  0.1205
  759MPD2    H711274   4.629   2.553  10.321  1.2906  1.7767 -2.8751
  760MPD2     C11275   0.117   0.384  11.925  0.2782 -0.5610  0.1508
  760MPD2    C111276   0.235   0.399  11.857  0.6065  0.7910  0.7710
  760MPD2    C211277   0.303   0.280  11.827  0.4462  0.4699 -0.3450
  760MPD2    C311278   0.262   0.155  11.878 -0.5477  0.3616  0.2234
  760MPD2    C411279   0.148   0.151  11.948 -0.0503  0.2987  0.2219
  760MPD2    C511280   0.075   0.262  11.965  0.1228  0.3257 -0.2433
  760MPD2     H11281   0.394   0.288  11.768  0.8436 -2.2997 -0.1123
  760MPD2    H111282   0.116   0.058  11.995 -0.2323  0.3288  0.1567
  760MPD2    H211283   0.059   0.470  11.958  1.4697  0.9037 -1.5695
  760MPD2    H311284   4.733   0.264  12.036  0.6337 -0.4449  0.3489
  760MPD2     N11285   0.335   0.036  11.854  0.0806  0.3740 -0.1012
  760MPD2    H511286   0.285   4.690  11.879  0.6555  0.3592  1.0218
  760MPD2    N111287   0.303   0.516  11.822 -0.8752  0.2034  0.1499
  760MPD2    H711288   0.387   0.509  11.765  0.1622 -1.1829  1.8468
  761MPD2     C11289   1.714   4.089  11.291  0.5071  1.3373  0.6161
  761MPD2    C111290   1.820   4.090  11.205 -0.1091  0.2966 -0.2636
  761MPD2    C211291   1.909   4.198  11.216  0.2398  0.2610  0.4145
  761MPD2    C311292   1.874   4.304  11.305 -0.6863  0.6443 -0.1267
  761MPD2    C411293   1.761   4.300  11.387 -0.3330  0.3200  0.5983
  761MPD2    C511294   1.677   4.193  11.374 -0.1309 -0.5436  0.5922
  761MPD2     H11295   1.995   4.212  11.151 -0.1949 -1.1565 -0.4608
  761MPD2    H111296   1.740   4.384  11.452 -0.7064  0.6596  0.0264
  761MPD2    H211297   1.646   4.005  11.302  0.9575  0.8129 -0.6071
  761MPD2    H311298   1.605   4.188  11.455 -0.7560  0.6485  0.1079
  761MPD2     N11299   1.956   4.412  11.320 -0.5302 -0.3678  0.4973
  761MPD2    H511300   1.925   4.494  11.372  0.3984  0.0513  0.3770
  761MPD2    N111301   1.836   3.982  11.119 -0.3049  0.3173 -0.4059
  761MPD2    H711302   1.764   3.910  11.124  0.0901 -0.0098  0.5297
  762MPD2     C11303   2.218   4.102  10.434  0.1535 -0.1144  0.0493
  762MPD2    C111304   2.223   3.971  10.477 -0.1613 -0.3303 -0.9147
  762MPD2    C211305   2.336   3.901  10.453  0.4662 -0.2633  0.2563
  762MPD2    C311306   2.440   3.943  10.372 -0.2520 -0.2424 -0.1157
  762MPD2    C411307   2.429   4.069  10.322  0.2928 -0.2759  0.4172
  762MPD2    C511308   2.321   4.146  10.360 -0.1937  0.6437 -0.2607
  762MPD2     H11309   2.354   3.802  10.495  1.5547  0.2220  0.9355
  762MPD2    H111310   2.499   4.120  10.258 -1.7090  1.1294 -0.6698
  762MPD2    H211311   2.128   4.160  10.446  1.1961  1.6100 -0.5225
  762MPD2    H311312   2.311   4.249  10.325  1.4282  0.8941  0.0015
  762MPD2     N11313   2.553   3.860  10.354 -0.3229 -0.8367 -0.2080
  762MPD2    H511314   2.542   3.767  10.391  1.3774  0.4182  3.4453
  762MPD2    N111315   2.117   3.929  10.562 -0.2089  0.5953 -0.3919
  762MPD2    H711316   2.053   4.002  10.593  0.2725  1.2843 -1.0236
  763MPD2     C11317   2.698   4.368  15.715  0.2276  0.0854  0.6956
  763MPD2    C111318   2.768   4.478  15.665  0.4101 -0.3534 -0.1644
  763MPD2    C211319   2.790   4.586  15.756 -0.0270 -0.2372  0.3863
  763MPD2    C311320   2.772   4.573  15.889  0.3369 -0.4613  0.1584
  763MPD2    C411321   2.711   4.462  15.942  0.1169 -0.1020  0.1404
  763MPD2    C511322   2.660   4.368  15.851 -0.0734 -0.8184  0.1488
  763MPD2     H11323   2.850   4.671  15.724 -1.3308  0.3999 -0.3646
  763MPD2    H111324   2.681   4.460  16.046  0.8110 -1.4677  0.3115
  763MPD2    H211325   2.686   4.270  15.672 -0.5574  0.8893 -0.9039
  763MPD2    H311326   2.617   4.281  15.898 -0.1813 -0.3629  0.8868
  763MPD2     N11327   2.827   4.675  15.980  0.8220 -0.1745 -0.9283
  763MPD2    H511328   2.868   0.014  15.928  3.4135 -0.1219  1.1808
  763MPD2    N111329   2.828   4.468  15.534  0.0025 -0.0911  0.1647
  763MPD2    H711330   2.852   4.377  15.496  2.5097  0.0797  1.3634
  764MPD2     C11331   0.598   1.308   0.125  0.7702  0.3762 -0.9819
  764MPD2    C111332   0.515   1.197   0.138 -0.4828 -0.6698 -0.2549
  764MPD2    C211333   0.474   1.159   0.267  0.0111  0.1978  0.3305
  764MPD2    C311334   0.507   1.228   0.381 -0.4804 -0.5675 -0.0233
  764MPD2    C411335   0.606   1.326   0.365  0.1224 -0.5106  0.4333
  764MPD2    C511336   0.644   1.368   0.241 -0.2175  0.0103  0.3604
  764MPD2     H11337   0.415   1.068   0.275  1.0652 -0.4492  0.6986
  764MPD2    H111338   0.643   1.377   0.453 -0.8350 -0.1019  0.6011
  764MPD2    H211339   0.644   1.349   0.036  0.9425  0.7821 -0.7036
  764MPD2    H311340   0.711   1.451   0.223  0.5239 -0.7967 -0.5912
  764MPD2     N11341   0.459   1.187   0.509 -0.5759  0.1630  0.0439
  764MPD2    H511342   0.378   1.126   0.502 -0.1678 -0.5042  1.0913
  764MPD2    N111343   0.462   1.130   0.030 -0.0120 -0.1743  0.3039
  764MPD2    H711344   0.388   1.063   0.052 -0.5003 -0.3837 -1.9518
  765MPD2     C11345   1.358   3.964  15.887 -0.7634 -0.5209 -0.9729
  765MPD2    C111346   1.366   4.032  15.770  0.0654 -0.2339  0.2257
  765MPD2    C211347   1.432   3.966  15.662 -0.0992  0.0361 -0.8985
  765MPD2    C311348   1.500   3.847  15.685 -0.6785  0.3703  0.7746
  765MPD2    C411349   1.499   3.786  15.811  0.5701  0.0197 -0.0070
  765MPD2    C511350   1.420   3.846  15.910 -0.3948 -0.0074 -0.2560
  765MPD2     H11351   1.443   4.013  15.565 -2.0034  2.1672 -0.0755
  765MPD2    H111352   1.550   3.695  15.842  0.3604 -0.2683 -0.5142
  765MPD2    H211353   1.317   4.016  15.972 -0.4175 -0.2978 -0.9433
  765MPD2    H311354   1.411   3.794  16.005  0.1500  0.3498 -0.0040
  765MPD2     N11355   1.585   3.794  15.585 -0.5329 -0.2338  0.4649
  765MPD2    H511356   1.602   3.847  15.500 -0.5984  1.8277  1.7289
  765MPD2    N111357   1.311   4.166  15.762  0.2297 -0.4576 -0.9882
  765MPD2    H711358   1.258   4.195  15.844  1.4729  1.1522 -0.7523
  766MPD2     C11359   0.631   4.245  15.341 -0.5982 -0.1091 -0.5150
  766MPD2    C111360   0.738   4.194  15.402 -0.3199 -0.0606  0.1460
  766MPD2    C211361   0.801   4.086  15.349 -0.4800  0.2281 -0.3692
  766MPD2    C311362   0.754   4.029  15.232  0.1831  0.3510  0.0048
  766MPD2    C411363   0.646   4.086  15.166 -0.5870  0.1191  0.1617
  766MPD2    C511364   0.585   4.191  15.223  0.2053 -0.2856 -0.5666
  766MPD2     H11365   0.893   4.048  15.392 -0.5545  0.2897 -0.1565
  766MPD2    H111366   0.602   4.048  15.075 -0.6686 -1.3139  0.7966
  766MPD2    H211367   0.573   4.331  15.371  0.9439  1.2849 -1.5485
  766MPD2    H311368   0.492   4.233  15.185 -0.6676 -0.8063  0.9942
  766MPD2     N11369   0.822   3.920  15.172  0.4843 -1.1134 -0.1812
  766MPD2    H511370   0.807   3.904  15.073  2.0236  0.1563 -0.6210
  766MPD2    N111371   0.796   4.272  15.499 -0.1508 -0.2552  0.2930
  766MPD2    H711372   0.765   4.367  15.516 -0.6407 -0.3505 -0.0645
  767MPD2     C11373   0.361   4.269  14.911  0.0029 -0.0631 -0.4822
  767MPD2    C111374   0.450   4.353  14.844 -0.2635 -0.5773  0.8267
  767MPD2    C211375   0.513   4.303  14.725 -0.3556  0.8789  0.2212
  767MPD2    C311376   0.474   4.172  14.677  0.5345 -0.4165 -0.0684
  767MPD2    C411377   0.380   4.095  14.744 -0.5624 -0.2429  0.2385
  767MPD2    C511378   0.322   4.150  14.851 -0.6102  0.6332 -0.3009
  767MPD2     H11379   0.583   4.364  14.669  0.0465 -1.2330 -1.5505
  767MPD2    H111380   0.344   3.997  14.717 -3.2656  1.2496 -1.5893
  767MPD2    H211381   0.318   4.299  15.005 -0.1603  2.1226 -1.2653
  767MPD2    H311382   0.246   4.091  14.902  0.4747  0.8999  1.6374
  767MPD2     N11383   0.536   4.122  14.565 -0.2586  0.0680  0.3011
  767MPD2    H511384   0.614   4.176  14.528 -1.3436  0.6027 -1.1935
  767MPD2    N111385   0.474   4.478  14.894  0.1138 -0.1585  0.0740
  767MPD2    H711386   0.427   4.500  14.981 -0.5184 -0.2721 -0.2342
  768MPD2     C11387   1.725   2.627  10.258  0.7323  0.0118 -0.2502
  768MPD2    C111388   1.661   2.639  10.378 -0.2550  0.3064 -0.8899
  768MPD2    C211389   1.733   2.633  10.491  0.5128 -0.2819  0.0386
  768MPD2    C311390   1.863   2.597  10.496 -0.5204  0.5130  0.3873
  768MPD2    C411391   1.922   2.575  10.374 -0.2552  0.0860  0.2166
  768MPD2    C511392   1.852   2.582  10.254 -0.7596 -1.1803  0.1235
  768MPD2     H11393   1.680   2.662  10.581  0.3519  0.4408 -0.2875
  768MPD2    H111394   2.028   2.553  10.364 -0.3321 -0.5150  0.6879
  768MPD2    H211395   1.676   2.628  10.161  0.4149  2.4576 -0.0670
  768MPD2    H311396   1.919   2.579  10.169  1.6925 -1.4785  2.0761
  768MPD2     N11397   1.944   2.595  10.612  0.3789 -0.3679 -0.6088
  768MPD2    H511398   2.044   2.578  10.606  0.3647 -0.7606  0.1684
  768MPD2    N111399   1.521   2.668  10.393  0.2453 -0.9750  0.0206
  768MPD2    H711400   1.486   2.674  10.488  3.2910 -0.6775  1.1457
  769MPD2     C11401   2.631   0.542  14.682 -0.9410  0.4203 -1.2457
  769MPD2    C111402   2.518   0.611  14.720  1.0757  0.3607  0.4270
  769MPD2    C211403   2.529   0.709  14.811  0.0917  0.2142  0.3868
  769MPD2    C311404   2.657   0.745  14.861  0.1231 -0.2048  1.0712
  769MPD2    C411405   2.765   0.687  14.804  0.3693  0.8843  0.0445
  769MPD2    C511406   2.755   0.584  14.712 -0.0515  0.1548 -0.8174
  769MPD2     H11407   2.444   0.764  14.849 -2.2108 -1.5632 -2.1954
  769MPD2    H111408   2.868   0.715  14.824  0.9821 -0.5317 -1.1170
  769MPD2    H211409   2.616   0.464  14.608 -1.0174  0.2059 -1.0063
  769MPD2    H311410   2.841   0.532  14.670  1.1365  0.1248  1.6073
  769MPD2     N11411   2.668   0.853  14.955  0.1529  0.2694  0.7420
  769MPD2    H511412   2.581   0.906  14.963  0.9741  1.9438 -1.4504
  769MPD2    N111413   2.398   0.574  14.658 -0.3628 -0.4690 -0.0407
  769MPD2    H711414   2.410   0.485  14.612  1.3013  0.0503 -0.6132
  770MPD2     C11415   1.419   0.196  14.719  0.3035 -0.0691  0.6095
  770MPD2    C111416   1.535   0.131  14.715  1.0332 -0.5236  0.6018
  770MPD2    C211417   1.653   0.195  14.698 -0.1116 -0.1091 -0.3960
  770MPD2    C311418   1.664   0.336  14.687  0.3937 -0.4201  0.1589
  770MPD2    C411419   1.544   0.404  14.690  0.2170 -0.2507 -0.1603
  770MPD2    C511420   1.426   0.332  14.703  0.1378 -0.3679 -1.0861
  770MPD2     H11421   1.749   0.144  14.697 -0.8095 -1.4065 -1.5281
  770MPD2    H111422   1.542   0.512  14.679 -2.0139 -0.4255 -1.3454
  770MPD2    H211423   1.325   0.151  14.748  0.4478  0.9374  2.6246
  770MPD2    H311424   1.332   0.387  14.695  0.0807  0.2375  3.7998
  770MPD2     N11425   1.789   0.397  14.687  0.9368 -0.0262 -0.3352
  770MPD2    H511426   1.871   0.336  14.686  2.2832  1.7561  0.3926
  770MPD2    N111427   1.525   4.728  14.714 -0.0085 -0.3969 -0.3804
  770MPD2    H711428   1.434   4.686  14.729 -0.6647  0.2677 -2.5543
  771MPD2     C11429   3.240   3.377  13.785 -0.2384 -0.4433  0.6286
  771MPD2    C111430   3.238   3.482  13.695 -0.5839 -0.4182 -0.7372
  771MPD2    C211431   3.234   3.457  13.561  0.6886 -0.8005  0.8901
  771MPD2    C311432   3.221   3.329  13.511 -0.0711  0.3008  0.2910
  771MPD2    C411433   3.234   3.226  13.597 -0.2578  0.3970  0.4750
  771MPD2    C511434   3.245   3.247  13.732  0.1309 -0.2386  0.0567
  771MPD2     H11435   3.217   3.539  13.492  3.0131  0.0463  1.3524
  771MPD2    H111436   3.243   3.122  13.568  0.7525  0.8240 -0.7228
  771MPD2    H211437   3.256   3.385  13.892  1.5860  0.6277  0.2796
  771MPD2    H311438   3.261   3.167  13.803 -2.3477 -0.5047  0.3436
  771MPD2     N11439   3.181   3.315  13.377  0.5446 -0.2848  0.1713
  771MPD2    H511440   3.160   3.403  13.330 -0.2707 -0.8285 -0.4787
  771MPD2    N111441   3.215   3.613  13.742 -0.1804  0.0260 -0.2232
  771MPD2    H711442   3.220   3.693  13.679  1.3285  0.1469  0.0275
  772MPD2     C11443   2.530   3.852  13.730  0.2199  0.0445 -0.6817
  772MPD2    C111444   2.616   3.747  13.751  0.1058  0.3461  1.1400
  772MPD2    C211445   2.563   3.614  13.763 -0.1821 -0.0391  0.1343
  772MPD2    C311446   2.431   3.589  13.763  0.3729 -0.1764 -0.3931
  772MPD2    C411447   2.348   3.699  13.769  0.5847  0.2233  0.9438
  772MPD2    C511448   2.397   3.826  13.751  0.1322 -0.3518 -0.2523
  772MPD2     H11449   2.631   3.530  13.775 -1.0701 -0.8131 -0.3031
  772MPD2    H111450   2.242   3.679  13.771  0.9826 -1.8431  1.8739
  772MPD2    H211451   2.558   3.956  13.724  0.2338  0.0071 -1.3031
  772MPD2    H311452   2.329   3.909  13.739 -0.7424 -1.3080 -1.9178
  772MPD2     N11453   2.375   3.460  13.766 -0.2461  0.3955  0.3018
  772MPD2    H511454   2.274   3.458  13.764 -0.1911 -1.1267 -0.6142
  772MPD2    N111455   2.759   3.774  13.758 -0.2413  0.6571  0.0315
  772MPD2    H711456   2.809   3.689  13.782 -1.8797 -0.5873 -0.9512
  773MPD2     C11457   2.204   0.144   0.451  0.4663 -0.2941 -0.0290
  773MPD2    C111458   2.225   0.074   0.337  0.1202 -0.0750 -0.6270
  773MPD2    C211459   2.303   4.703   0.328  0.1273  0.1024  0.4110
  773MPD2    C311460   2.387   4.667   0.433 -0.9839  0.0640 -0.7399
  773MPD2    C411461   2.367   0.001   0.550 -0.3962 -0.3082 -0.6980
  773MPD2    C511462   2.270   0.097   0.560 -0.2076 -0.8004 -0.0177
  773MPD2     H11463   2.320   4.664   0.228  0.3822 -0.9880  0.8865
  773MPD2    H111464   2.424   4.710   0.637 -0.2887  1.4827 -0.1569
  773MPD2    H211465   2.145   0.234   0.459  0.7154 -0.2176  0.9404
  773MPD2    H311466   2.266   0.154   0.652 -1.8488  0.6732 -1.0014
  773MPD2     N11467   2.480   4.567   0.411 -0.1306 -0.5808 -0.3471
  773MPD2    H511468   2.487   4.517   0.323 -2.3501  1.5400 -1.7329
  773MPD2    N111469   2.158   0.099   0.213  0.4325 -0.2138 -0.3882
  773MPD2    H711470   2.147   0.028   0.141 -2.5233 -1.5468  1.3677
  774MPD2     C11471   1.408   3.655  13.077 -0.6236 -0.0823  0.0212
  774MPD2    C111472   1.378   3.674  13.209  0.1438 -0.4201 -0.7814
  774MPD2    C211473   1.445   3.778  13.276  0.2549  0.5092 -0.7018
  774MPD2    C311474   1.552   3.836  13.218  0.3484 -0.3108  0.3578
  774MPD2    C411475   1.586   3.809  13.089  0.3028 -0.4012 -0.2604
  774MPD2    C511476   1.512   3.721  13.018  0.2667 -0.2379  0.2074
  774MPD2     H11477   1.417   3.806  13.377 -0.2977 -0.5679 -0.5533
  774MPD2    H111478   1.660   3.868  13.036  1.3681 -1.5867 -0.1023
  774MPD2    H211479   1.360   3.573  13.024  0.7183 -0.9346  0.1139
  774MPD2    H311480   1.536   3.704  12.913  2.9349  0.3382  0.7339
  774MPD2     N11481   1.625   3.934  13.289  0.1628 -0.5676  0.1223
  774MPD2    H511482   1.590   3.969  13.378 -0.8597 -0.2951 -0.3869
  774MPD2    N111483   1.285   3.584  13.265 -0.0186 -0.9457 -1.1264
  774MPD2    H711484   1.258   3.502  13.211 -0.5284 -0.8755 -0.9816
  775MPD2     C11485   2.860   0.701  15.410 -0.5575  0.4151 -0.3876
  775MPD2    C111486   2.844   0.821  15.473  0.4420  0.1347 -0.0753
  775MPD2    C211487   2.946   0.892  15.517 -0.5877  0.1952  0.2010
  775MPD2    C311488   3.075   0.840  15.501  0.1374 -0.3929  0.2576
  775MPD2    C411489   3.092   0.715  15.445 -0.9994 -0.1298 -0.0624
  775MPD2    C511490   2.985   0.646  15.390 -0.2103 -0.2289  1.0079
  775MPD2     H11491   2.935   0.988  15.567 -0.6327 -0.3342  1.2130
  775MPD2    H111492   3.187   0.663  15.453 -0.0557  1.8325  1.6780
  775MPD2    H211493   2.770   0.653  15.373 -0.3843  1.0895 -1.6822
  775MPD2    H311494   2.998   0.554  15.333 -0.1561  0.9530 -0.8828
  775MPD2     N11495   3.190   0.908  15.539  0.2673  0.0360  0.2923
  775MPD2    H511496   3.274   0.876  15.491  0.3900  1.9941 -0.8006
  775MPD2    N111497   2.714   0.867  15.478  0.6247  0.0121  0.3928
  775MPD2    H711498   2.633   0.818  15.443 -0.1114  1.7245 -0.3320
  776MPD2     C11499   2.142   1.151  11.921 -0.1191 -0.0821  0.2052
  776MPD2    C111500   2.088   1.136  11.793  0.3753  0.0270 -0.6654
  776MPD2    C211501   2.035   1.244  11.720 -0.2173  0.0553  0.6537
  776MPD2    C311502   2.020   1.364  11.784  0.2362 -0.0723  0.4300
  776MPD2    C411503   2.070   1.375  11.912  0.1455 -0.8291 -0.3866
  776MPD2    C511504   2.134   1.276  11.977  0.2878 -0.1435  0.4017
  776MPD2     H11505   1.991   1.217  11.625 -1.5011  1.2805  0.8954
  776MPD2    H111506   2.053   1.462  11.973  0.0055 -0.1515 -1.3918
  776MPD2    H211507   2.185   1.072  11.982  0.0600  0.1076  0.3238
  776MPD2    H311508   2.184   1.290  12.072 -0.1197  1.0825  0.4330
  776MPD2     N11509   1.953   1.474  11.734 -1.3722 -0.1826 -0.1463
  776MPD2    H511510   1.961   1.557  11.792  0.7466 -0.5347  0.0943
  776MPD2    N111511   2.093   1.002  11.737 -0.5355  0.2939 -0.8646
  776MPD2    H711512   2.103   0.931  11.809  0.9162  2.4546  1.0499
  777MPD2     C11513   1.616   3.435   0.793  0.3871 -0.3060  0.5763
  777MPD2    C111514   1.707   3.346   0.845 -0.1562  0.2180 -0.1694
  777MPD2    C211515   1.715   3.217   0.786 -0.2189 -0.3134  0.1432
  777MPD2    C311516   1.648   3.190   0.670 -0.4843  0.6689 -0.2320
  777MPD2    C411517   1.555   3.284   0.625 -0.0910 -0.6814 -0.4324
  777MPD2    C511518   1.535   3.402   0.690 -0.4810  0.1326  1.2535
  777MPD2     H11519   1.786   3.142   0.819 -1.5784 -1.4104  0.5658
  777MPD2    H111520   1.488   3.256   0.545 -0.0342 -0.0122 -0.7141
  777MPD2    H211521   1.592   3.529   0.843 -2.5543 -0.2607 -0.9435
  777MPD2    H311522   1.454   3.465   0.653  0.3109  0.3168 -0.1519
  777MPD2     N11523   1.662   3.065   0.604 -0.0195  0.0892  0.0985
  777MPD2    H511524   1.715   2.996   0.657  2.2933  1.7467 -0.0393
  777MPD2    N111525   1.775   3.394   0.963 -0.0919  0.0604  0.0973
  777MPD2    H711526   1.753   3.488   0.996  2.0947 -0.3158  2.5904
  778MPD2     C11527   3.398   2.987  14.236 -0.5246  0.0269 -0.4826
  778MPD2    C111528   3.435   3.041  14.353  0.2795  0.0151  0.3647
  778MPD2    C211529   3.558   3.105  14.364 -0.3491 -0.8890  0.5092
  778MPD2    C311530   3.640   3.112  14.254  0.0953 -0.7357 -0.1423
  778MPD2    C411531   3.604   3.050  14.136  0.2413 -0.1576 -0.3266
  778MPD2    C511532   3.483   2.986  14.132  0.9629  0.0647  0.2786
  778MPD2     H11533   3.588   3.148  14.458 -1.8163  0.1700  0.4899
  778MPD2    H111534   3.663   3.050  14.045  1.9890 -0.4931  0.8225
  778MPD2    H211535   3.302   2.938  14.225  0.3596 -1.5877 -1.0073
  778MPD2    H311536   3.449   2.938  14.041 -2.6966  2.0827  0.5942
  778MPD2     N11537   3.756   3.188  14.270 -0.1776 -0.4207  0.6175
  778MPD2    H511538   3.768   3.240  14.356  3.8180 -2.6275  1.4197
  778MPD2    N111539   3.361   3.032  14.475  0.4218 -0.5383 -0.3167
  778MPD2    H711540   3.395   3.083  14.555 -1.7429 -0.7730  0.7663
  779MPD2     C11541   2.883   2.088  14.672  0.3293 -0.0540  0.1778
  779MPD2    C111542   3.013   2.083  14.639  0.1469 -0.1390  0.3988
  779MPD2    C211543   3.079   2.195  14.599  0.7369 -0.6388  0.2294
  779MPD2    C311544   3.006   2.312  14.584 -0.3090 -0.1133  0.5367
  779MPD2    C411545   2.876   2.319  14.621 -0.3088  0.3727 -0.6460
  779MPD2    C511546   2.819   2.209  14.682  0.1893 -0.2405 -0.0377
  779MPD2     H11547   3.180   2.199  14.562  0.5839 -0.1036 -0.1341
  779MPD2    H111548   2.821   2.412  14.622 -0.2167  0.4352 -1.8872
  779MPD2    H211549   2.829   2.000  14.705  0.4851  0.1381  0.9402
  779MPD2    H311550   2.715   2.211  14.713  0.6152 -1.3449  1.4741
  779MPD2     N11551   3.074   2.409  14.514 -0.1841  0.4008  0.9871
  779MPD2    H511552   3.175   2.406  14.506 -0.1720  0.7995  0.9716
  779MPD2    N111553   3.083   1.964  14.638 -0.4407 -0.5872 -0.1537
  779MPD2    H711554   3.184   1.978  14.630 -0.5635  1.0821  1.2601
  780MPD2     C11555   2.894   2.598   0.604 -0.3213 -0.5461  0.2811
  780MPD2    C111556   2.771   2.584   0.547  0.1744  0.1932 -0.3784
  780MPD2    C211557   2.766   2.590   0.413 -0.2194 -0.2412  1.0355
  780MPD2    C311558   2.870   2.627   0.334 -0.4097  0.1693  0.0253
  780MPD2    C411559   2.991   2.643   0.390  0.4962  0.6849  0.0319
  780MPD2    C511560   3.003   2.635   0.529 -0.1084  0.0455  0.4605
  780MPD2     H11561   2.675   2.571   0.358  1.4396 -3.4426 -0.6496
  780MPD2    H111562   3.084   2.656   0.336 -1.6476  3.3415 -3.0324
  780MPD2    H211563   2.904   2.593   0.712  0.3439 -0.4441  0.2248
  780MPD2    H311564   3.097   2.644   0.582 -0.4449 -0.4416  1.1416
  780MPD2     N11565   2.842   2.642   0.198  0.5269 -0.8419 -0.4372
  780MPD2    H511566   2.752   2.608   0.165 -0.2938 -0.3999  1.3075
  780MPD2    N111567   2.661   2.570   0.634 -0.3787 -0.2946 -0.1781
  780MPD2    H711568   2.682   2.579   0.733 -2.7439 -1.9142  0.4817
  781MPD2     C11569   4.549   4.127  11.978  0.2104  0.8077  0.8801
  781MPD2    C111570   4.585   3.999  12.004  0.1567  0.1650 -0.3597
  781MPD2    C211571   4.706   3.950  11.958  0.0754 -0.4883  0.0637
  781MPD2    C311572   0.053   4.035  11.886  0.4944 -0.4349 -0.3744
  781MPD2    C411573   0.015   4.163  11.852  0.4286 -0.6194 -0.6309
  781MPD2    C511574   4.627   4.206  11.898  0.3944 -0.5723 -0.4744
  781MPD2     H11575   4.731   3.846  11.971 -0.0360 -0.3931  1.0524
  781MPD2    H111576   0.080   4.232  11.799 -0.4286  1.2991  0.7928
  781MPD2    H211577   4.457   4.170  12.013 -0.8331  0.0184 -0.9003
  781MPD2    H311578   4.602   4.305  11.862  1.0105 -0.9994 -2.0924
  781MPD2     N11579   0.185   3.994  11.835  0.2330 -1.0846  0.3834
  781MPD2    H511580   0.227   4.054  11.765 -0.9851 -1.0954 -0.3596
  781MPD2    N111581   4.509   3.915  12.091 -0.3011  0.2764 -0.0672
  781MPD2    H711582   4.558   3.830  12.117  0.2363  0.8712  0.8863
  782MPD2     C11583   2.741   4.422   9.980 -0.3896  0.3067 -0.4295
  782MPD2    C111584   2.697   4.436  10.113  0.3337  0.2002 -0.4431
  782MPD2    C211585   2.631   4.558  10.149 -0.4748 -0.2443  0.6992
  782MPD2    C311586   2.618   4.664  10.053 -0.1414 -0.5944  0.5424
  782MPD2    C411587   2.666   4.645   9.923  0.2941  0.4101 -0.2616
  782MPD2    C511588   2.723   4.524   9.891  0.0231 -0.4197 -0.2900
  782MPD2     H11589   2.591   4.569  10.249 -1.9637  2.0363 -0.1584
  782MPD2    H111590   2.655   4.727   9.854  0.3179 -0.6004 -1.4714
  782MPD2    H211591   2.794   4.331   9.954 -0.6290 -0.1072  0.5482
  782MPD2    H311592   2.744   4.499   9.788 -2.2551  0.9353 -1.0869
  782MPD2     N11593   2.553   0.049  10.086 -0.2933  0.1501  0.1999
  782MPD2    H511594   2.507   0.094  10.006 -0.4359 -0.0875  0.1475
  782MPD2    N111595   2.730   4.344  10.213 -0.4877  0.4021 -0.0438
  782MPD2    H711596   2.791   4.268  10.188 -0.9766 -0.3625  1.1095
  783MPD2     C11597   2.671   4.294  11.194 -0.7144  0.5346 -0.3062
  783MPD2    C111598   2.606   4.373  11.102  0.5936 -0.2439  0.1059
  783MPD2    C211599   2.598   4.331  10.970 -1.0543 -0.8510  0.8543
  783MPD2    C311600   2.671   4.217  10.925 -0.1049  0.2169  0.5343
  783MPD2    C411601   2.739   4.151  11.021 -0.8513  0.0604  0.5537
  783MPD2    C511602   2.733   4.182  11.153  0.8609 -0.2561 -0.2802
  783MPD2     H11603   2.526   4.385  10.910  0.1809 -0.0606  0.0784
  783MPD2    H111604   2.800   4.064  11.003  0.5656  1.8352 -3.1725
  783MPD2    H211605   2.670   4.320  11.299  2.2574  1.5484 -0.5304
  783MPD2    H311606   2.790   4.122  11.223  1.0312 -2.4973 -2.3438
  783MPD2     N11607   2.687   4.190  10.787  0.6439  0.6954  0.7016
  783MPD2    H511608   2.655   4.257  10.718 -1.6360 -1.0971  0.0054
  783MPD2    N111609   2.520   4.472  11.156 -0.9286 -0.0713  0.2263
  783MPD2    H711610   2.520   4.482  11.257  2.3537 -1.9708  0.4145
  784MPD2     C11611   4.324   0.018   0.384  0.1653  0.4082 -0.1029
  784MPD2    C111612   4.268   0.075   0.492 -0.2362 -0.5485  0.7901
  784MPD2    C211613   4.161   0.167   0.476 -0.2660  0.7574 -0.8180
  784MPD2    C311614   4.108   0.196   0.350 -0.1180 -0.4084 -0.2560
  784MPD2    C411615   4.163   0.132   0.242 -0.3821 -0.0684 -0.0166
  784MPD2    C511616   4.271   0.050   0.259  0.5040 -0.3973  0.0296
  784MPD2     H11617   4.131   0.228   0.560  2.0278  1.0731 -0.2446
  784MPD2    H111618   4.126   0.141   0.140  0.6566 -0.1442 -0.4079
  784MPD2    H211619   4.404   4.684   0.382  0.7542  1.0616 -0.6047
  784MPD2    H311620   4.313   4.734   0.176  1.1964  0.1612  0.0101
  784MPD2     N11621   3.989   0.282   0.340  0.4002 -0.2626  0.2539
  784MPD2    H511622   3.964   0.337   0.421  0.6374  1.2291 -0.6867
  784MPD2    N111623   4.327   0.060   0.622 -0.1780  0.4231 -0.4702
  784MPD2    H711624   4.279   0.099   0.703 -0.3723  0.7271 -0.7338
  785MPD2     C11625   0.579   3.758  10.824  0.2061 -0.3239  0.3595
  785MPD2    C111626   0.516   3.838  10.921  0.2326 -0.6959 -0.2081
  785MPD2    C211627   0.406   3.788  10.979  0.1640 -0.5849 -0.1051
  785MPD2    C311628   0.345   3.673  10.943  0.5695  0.6306  0.2352
  785MPD2    C411629   0.405   3.596  10.844  0.0179  0.6524  0.1446
  785MPD2    C511630   0.522   3.637  10.791  0.2785  0.6057  0.1707
  785MPD2     H11631   0.364   3.849  11.059  1.2235 -1.7777  1.3569
  785MPD2    H111632   0.357   3.506  10.808  1.7493 -0.3795  0.3847
  785MPD2    H211633   0.664   3.794  10.768 -0.3308 -1.2174 -1.0342
  785MPD2    H311634   0.572   3.584  10.711  2.4363  1.8450  0.7129
  785MPD2     N11635   0.217   3.649  10.988 -0.8308  0.1853 -0.5631
  785MPD2    H511636   0.179   3.713  11.057 -0.4641  0.0734 -0.2603
  785MPD2    N111637   0.563   3.958  10.969  0.6281  0.6362 -0.1203
  785MPD2    H711638   0.516   4.008  11.045  0.8130  2.5873 -1.2751
  786MPD2     C11639   3.931   1.395  14.862 -1.0449  0.1257  0.3584
  786MPD2    C111640   4.000   1.280  14.859 -0.2678 -0.3045  0.2393
  786MPD2    C211641   4.098   1.258  14.952  0.0800  0.7361 -0.4459
  786MPD2    C311642   4.135   1.354  15.043  0.1871 -0.1122  0.0768
  786MPD2    C411643   4.067   1.474  15.040 -0.3354 -0.5814 -0.6177
  786MPD2    C511644   3.969   1.496  14.950  0.1941 -0.6232 -0.3673
  786MPD2     H11645   4.147   1.162  14.952  1.4984  1.4656  2.8846
  786MPD2    H111646   4.090   1.557  15.106  0.1117 -1.2116  0.0230
  786MPD2    H211647   3.845   1.422  14.802 -0.7161  1.4350  0.4647
  786MPD2    H311648   3.924   1.593  14.934  1.9821  0.1652 -0.5796
  786MPD2     N11649   4.223   1.333  15.150  0.4171  0.1371 -0.1251
  786MPD2    H511650   4.250   1.408  15.213  1.1541  0.2158 -0.5372
  786MPD2    N111651   3.963   1.176  14.775 -0.1946  0.5425  0.1095
  786MPD2    H711652   4.035   1.106  14.757 -0.2735  0.0526  1.7446
  787MPD2     C11653   4.125   0.559  14.786 -0.3137 -0.4693  0.4475
  787MPD2    C111654   4.115   0.585  14.650 -0.4665 -0.2760 -0.3199
  787MPD2    C211655   4.161   0.499  14.560  0.2267  0.4705 -0.4444
  787MPD2    C311656   4.190   0.367  14.606  0.5428  0.5871  0.1159
  787MPD2    C411657   4.204   0.344  14.746  0.9616  0.0557  0.0929
  787MPD2    C511658   4.172   0.442  14.838 -0.1883  0.3246 -0.5428
  787MPD2     H11659   4.157   0.529  14.456 -0.6889 -0.3864 -0.6585
  787MPD2    H111660   4.234   0.253  14.797  0.3633 -0.5114 -0.5724
  787MPD2    H211661   4.084   0.633  14.854 -1.1780 -0.4701 -0.0717
  787MPD2    H311662   4.176   0.435  14.946  0.2503  0.1204 -0.5726
  787MPD2     N11663   4.229   0.268  14.509  0.3376  0.0952  0.1029
  787MPD2    H511664   4.234   0.292  14.410  0.9189  0.3627  0.1961
  787MPD2    N111665   4.069   0.715  14.623 -0.1156 -0.8136 -0.6179
  787MPD2    H711666   4.030   0.768  14.700  1.3211  0.1357 -0.5575
  788MPD2     C11667   0.672   0.009   0.985  0.5011  0.1080  0.0970
  788MPD2    C111668   0.743   4.684   0.887  0.2605 -0.1322  0.2488
  788MPD2    C211669   0.831   0.027   0.814  0.7734  0.4029  0.4412
  788MPD2    C311670   0.838   0.162   0.840 -0.2141  0.0062  0.3959
  788MPD2    C411671   0.770   0.221   0.942  0.1682  0.2471  0.0839
  788MPD2    C511672   0.684   0.143   1.015  0.4254 -0.1881  0.1910
  788MPD2     H11673   0.901   4.723   0.744  0.2712  0.5828 -0.1684
  788MPD2    H111674   0.780   0.325   0.972 -0.7682  1.0851 -2.5142
  788MPD2    H211675   0.598   4.699   1.048  1.0187 -0.4215  0.2850
  788MPD2    H311676   0.613   0.168   1.094  0.4828 -1.8176  0.7610
  788MPD2     N11677   0.899   0.250   0.753  0.0264  0.2133  0.0951
  788MPD2    H511678   0.883   0.347   0.778  1.7646 -0.2825  3.2106
  788MPD2    N111679   0.739   4.542   0.868  0.1992 -0.5292 -0.0119
  788MPD2    H711680   0.798   4.506   0.793  0.3495 -0.9100  0.2853
  789MPD2     C11681   0.885   4.540  17.013 -0.7605 -0.1699  0.2334
  789MPD2    C111682   0.786   4.487  16.936  0.0477 -0.3514  0.0279
  789MPD2    C211683   0.694   4.567  16.880 -0.2471  0.5032 -0.0553
  789MPD2    C311684   0.691   4.701  16.906 -0.0921 -0.0280  0.9347
  789MPD2    C411685   0.787   0.014  16.984  0.5978 -0.1186 -0.0604
  789MPD2    C511686   0.886   4.674  17.036  0.1360  0.3019  0.3325
  789MPD2     H11687   0.619   4.517  16.820 -1.4345  0.1411  1.6983
  789MPD2    H111688   0.790   0.122  16.991 -1.2906  0.0271 -1.3862
  789MPD2    H211689   0.971   4.487  17.052  1.0910  0.7435 -2.5927
  789MPD2    H311690   0.957   4.723  17.102  0.3029 -0.1948  0.5292
  789MPD2     N11691   0.600   0.056  16.850  0.0154  0.3223  0.3774
  789MPD2    H511692   0.604   0.146  16.897  1.2924 -0.2551  1.3817
  789MPD2    N111693   0.792   4.351  16.895 -0.2244 -0.6598 -0.1002
  789MPD2    H711694   0.734   4.317  16.819  0.6301 -2.6087  0.0989
  790MPD2     C11695   1.797   1.305  13.498 -0.5713 -0.0907 -0.2274
  790MPD2    C111696   1.910   1.226  13.515 -0.4868  0.1751 -0.6689
  790MPD2    C211697   1.949   1.159  13.407 -0.1917  0.2688 -0.3486
  790MPD2    C311698   1.886   1.173  13.283 -0.1069  0.2855  0.4574
  790MPD2    C411699   1.764   1.249  13.273  0.1293  0.3641  0.7036
  790MPD2    C511700   1.726   1.315  13.382 -1.3662 -0.6386  0.5024
  790MPD2     H11701   2.030   1.087  13.408 -0.9609 -0.5873  0.1679
  790MPD2    H111702   1.703   1.256  13.183 -0.1499 -0.8470  0.8075
  790MPD2    H211703   1.770   1.368  13.582  0.1731  1.2597 -0.9932
  790MPD2    H311704   1.644   1.384  13.398  0.0986  0.8008  1.9608
  790MPD2     N11705   1.936   1.100  13.173 -0.2232 -0.1571 -0.2896
  790MPD2    H511706   2.029   1.058  13.168 -0.7140 -0.9803 -2.7958
  790MPD2    N111707   1.968   1.211  13.640 -0.6992 -0.1909 -0.4970
  790MPD2    H711708   1.927   1.274  13.707 -0.0387  0.3077 -0.5622
  791MPD2     C11709   1.531   0.818  12.569 -0.0548 -0.4367 -0.0845
  791MPD2    C111710   1.600   0.725  12.649 -0.7456 -0.1670  0.2480
  791MPD2    C211711   1.531   0.617  12.694 -0.1338  0.1799 -0.0955
  791MPD2    C311712   1.396   0.596  12.661 -0.4598  0.4168  0.1220
  791MPD2    C411713   1.331   0.692  12.589 -0.7815  0.0776  0.1157
  791MPD2    C511714   1.397   0.801  12.540 -0.3226  0.9013 -0.3868
  791MPD2     H11715   1.573   0.549  12.768 -0.4943 -1.4668 -1.3902
  791MPD2    H111716   1.226   0.689  12.562 -0.4652 -1.6857 -0.8924
  791MPD2    H211717   1.577   0.912  12.542  0.6813  0.0721  2.9645
  791MPD2    H311718   1.338   0.878  12.492  0.7128  1.0016 -1.4761
  791MPD2     N11719   1.333   0.473  12.708  0.2906 -0.0625  0.3160
  791MPD2    H511720   1.391   0.402  12.752  1.1608  1.1570  1.1212
  791MPD2    N111721   1.718   0.755  12.712 -0.2882  0.0992 -0.0190
  791MPD2    H711722   1.734   0.704  12.798 -1.1761  0.1823  0.1906
  792MPD2     C11723   1.731   1.094  11.411 -0.3497  0.8310  0.0297
  792MPD2    C111724   1.674   1.167  11.307  0.1746  0.1555 -0.8712
  792MPD2    C211725   1.574   1.114  11.229 -0.1959  0.0468  0.3888
  792MPD2    C311726   1.529   0.987  11.267 -0.2380 -0.9381 -0.2468
  792MPD2    C411727   1.599   0.911  11.361 -0.7443 -0.2634 -0.0520
  792MPD2    C511728   1.702   0.966  11.434  0.2192 -1.3131  0.2375
  792MPD2     H11729   1.520   1.179  11.162 -2.4607 -2.7370 -0.4629
  792MPD2    H111730   1.587   0.807  11.391  0.7390 -0.1257  1.0234
  792MPD2    H211731   1.818   1.131  11.464 -0.2087  0.7510 -0.1482
  792MPD2    H311732   1.764   0.917  11.508  1.4758  0.7925  0.5610
  792MPD2     N11733   1.413   0.922  11.221 -0.9965 -0.2779  0.2662
  792MPD2    H511734   1.395   0.832  11.264 -0.2441 -0.4992  0.1120
  792MPD2    N111735   1.737   1.290  11.281  0.1451  0.4285 -0.0761
  792MPD2    H711736   1.815   1.318  11.340  0.4995 -1.4448  0.3619
  793MPD2     C11737   1.046   0.894  10.338 -0.0762  0.0506  0.6852
  793MPD2    C111738   1.151   0.948  10.399 -0.0371  0.0547  0.5571
  793MPD2    C211739   1.150   0.955  10.540 -0.7064 -0.0263  0.6239
  793MPD2    C311740   1.042   0.898  10.601 -0.0619  0.0376 -0.0427
  793MPD2    C411741   0.935   0.845  10.535  0.0895  1.1586 -0.3841
  793MPD2    C511742   0.938   0.844  10.398  0.7533 -0.1395  0.0413
  793MPD2     H11743   1.234   0.981  10.604 -0.0680 -0.8238  0.1205
  793MPD2    H111744   0.846   0.809  10.585  0.9888  0.3750  0.6562
  793MPD2    H211745   1.039   0.896  10.230  0.8450 -3.2196  0.5407
  793MPD2    H311746   0.854   0.821  10.334  0.8545  0.5476 -0.3420
  793MPD2     N11747   1.059   0.893  10.744 -0.0489 -0.1875 -0.3082
  793MPD2    H511748   1.133   0.945  10.790  0.4490 -1.0961 -0.0911
  793MPD2    N111749   1.271   0.988  10.333  0.3744  0.1559  0.3939
  793MPD2    H711750   1.352   1.028  10.380  0.7847 -0.4462  0.2014
  794MPD2     C11751   1.561   0.662  17.635  0.4960 -0.5394 -0.4542
  794MPD2    C111752   1.597   0.561  17.546 -1.3078 -0.8090  0.0583
  794MPD2    C211753   1.544   0.555  17.422 -0.0327 -0.3404 -0.2158
  794MPD2    C311754   1.452   0.647  17.374 -0.4715  0.5821 -0.4280
  794MPD2    C411755   1.415   0.745  17.466  0.7496 -0.6611  0.1984
  794MPD2    C511756   1.480   0.758  17.584 -0.0701  0.8601 -0.8266
  794MPD2     H11757   1.578   0.477  17.354 -1.2585 -0.8017 -0.2918
  794MPD2    H111758   1.333   0.813  17.448  2.3620  1.4514  0.7823
  794MPD2    H211759   1.596   0.666  17.737  1.9516 -0.1769 -0.9721
  794MPD2    H311760   1.437   0.835  17.647  0.2563  2.4160 -2.5011
  794MPD2     N11761   1.402   0.665  17.241 -0.6488 -0.2133 -0.3848
  794MPD2    H511762   1.346   0.748  17.222 -0.3134  0.0714 -0.1289
  794MPD2    N111763   1.693   0.467  17.576 -0.2654 -0.2769  0.2004
  794MPD2    H711764   1.713   0.406  17.498  1.4351  0.2375  0.2332
  795MPD2     C11765   4.558   2.645  13.736 -0.8823  0.1824 -0.2622
  795MPD2    C111766   4.553   2.525  13.663  0.1518 -0.2539 -0.3520
  795MPD2    C211767   4.620   2.415  13.704  0.4590  0.5393 -0.0519
  795MPD2    C311768   4.667   2.409  13.833  0.0262 -0.1385 -0.7452
  795MPD2    C411769   4.667   2.521  13.911 -0.0675 -0.5873  0.0394
  795MPD2    C511770   4.615   2.640  13.863 -0.5244  0.4183 -0.2099
  795MPD2     H11771   4.615   2.328  13.639  1.6117 -0.5327  1.3241
  795MPD2    H111772   4.710   2.523  14.010 -2.1680  0.1341  0.9193
  795MPD2    H211773   4.518   2.737  13.693 -1.4570  0.5298  1.0244
  795MPD2    H311774   4.613   2.730  13.924  0.9500 -0.2889  0.8775
  795MPD2     N11775   4.707   2.282  13.880 -0.2254  0.5647 -0.0792
  795MPD2    H511776   4.695   2.206  13.814 -2.5993  1.3624 -0.5537
  795MPD2    N111777   4.471   2.511  13.551  0.7081  0.2803 -0.5910
  795MPD2    H711778   4.495   2.435  13.487  2.9859  3.3116 -3.2854
  796MPD2     C11779   3.327   4.067  16.277  0.1320 -1.0164  0.7692
  796MPD2    C111780   3.453   4.097  16.235  0.1419 -0.3269  0.3517
  796MPD2    C211781   3.468   4.197  16.141  0.1026 -0.2316 -0.2702
  796MPD2    C311782   3.357   4.265  16.090 -0.8375  0.7115 -0.3045
  796MPD2    C411783   3.227   4.217  16.118 -0.3871 -0.0083 -0.2886
  796MPD2    C511784   3.218   4.119  16.212  0.6707 -0.0769 -0.2761
  796MPD2     H11785   3.563   4.226  16.098 -0.5652  3.6082  0.9193
  796MPD2    H111786   3.142   4.268  16.073 -0.8684 -0.9327 -0.4166
  796MPD2    H211787   3.313   4.009  16.368  2.8245  1.5986  2.8487
  796MPD2    H311788   3.117   4.092  16.244  0.7812  0.0719  0.2090
  796MPD2     N11789   3.384   4.374  16.000 -0.1023 -0.3105 -0.1513
  796MPD2    H511790   3.478   4.409  15.984 -0.3016 -0.3039 -1.2466
  796MPD2    N111791   3.555   4.038  16.307 -0.2124 -0.3343  0.0147
  796MPD2    H711792   3.528   3.973  16.380  1.8048  2.1251  2.9316
  797MPD2     C11793   4.738   3.751  17.509  0.1334  0.1397 -0.5198
  797MPD2    C111794   0.025   3.890  17.515  1.1013 -0.1440 -0.1234
  797MPD2    C211795   4.704   3.979  17.430 -0.0390 -0.1167 -0.0277
  797MPD2    C311796   4.624   3.935  17.328 -0.3351 -0.0039 -0.5447
  797MPD2    C411797   4.610   3.798  17.315 -0.3338  0.1185  0.0803
  797MPD2    C511798   4.656   3.710  17.412  0.1942  0.3081  0.2146
  797MPD2     H11799   4.724   4.085  17.444  1.7306 -0.6121  1.2546
  797MPD2    H111800   4.534   3.753  17.251 -0.6428  2.0443 -0.9320
  797MPD2    H211801   0.028   3.687  17.591 -1.2136  2.4589  1.8035
  797MPD2    H311802   4.628   3.605  17.409  1.8456 -0.1747  1.9126
  797MPD2     N11803   4.566   4.022  17.224  0.0460  0.2512 -0.1201
  797MPD2    H511804   4.524   3.966  17.151 -1.3561  2.5891 -1.1062
  797MPD2    N111805   0.120   3.953  17.602  0.3545  0.1896  0.1393
  797MPD2    H711806   0.139   4.049  17.573 -2.6625  0.8166  0.1518
  798MPD2     C11807   0.154   4.627  17.358  0.1710 -0.1925 -0.3469
  798MPD2    C111808   0.070   4.520  17.381  0.0316  0.5575 -0.1887
  798MPD2    C211809   0.091   4.439  17.490  0.4155 -0.1329 -0.6394
  798MPD2    C311810   0.200   4.457  17.570  0.5596  0.1525 -0.1485
  798MPD2    C411811   0.281   4.564  17.557 -1.0200  0.5250  0.6872
  798MPD2    C511812   0.252   4.648  17.455  0.3800 -0.0835 -0.2578
  798MPD2     H11813   0.040   4.344  17.491  1.0374 -0.4351  1.8010
  798MPD2    H111814   0.368   4.570  17.622 -1.1941  0.7197  0.9019
  798MPD2    H211815   0.148   4.693  17.272 -0.5017  0.2856  0.0568
  798MPD2    H311816   0.330   4.722  17.442 -0.1430  0.0422 -2.5882
  798MPD2     N11817   0.221   4.358  17.667  0.3950 -0.5102 -0.8302
  798MPD2    H511818   0.156   4.280  17.660 -1.5225  0.9912  0.1176
  798MPD2    N111819   4.709   4.488  17.288 -0.3196  0.3908  0.2201
  798MPD2    H711820   4.645   4.411  17.308  0.7863 -0.6264 -0.1756
  799MPD2     C11821   3.864   0.452  14.249  0.4452  0.4202 -0.5485
  799MPD2    C111822   3.762   0.367  14.219 -0.1498 -0.1769  0.4135
  799MPD2    C211823   3.657   0.413  14.134 -1.0723 -0.2074 -0.1209
  799MPD2    C311824   3.659   0.539  14.090  0.7095  0.0948 -0.0743
  799MPD2    C411825   3.751   0.627  14.142 -0.1064  0.6404  0.4661
  799MPD2    C511826   3.854   0.586  14.217 -0.2786 -1.0552  0.1281
  799MPD2     H11827   3.571   0.353  14.105 -0.7554 -1.1572  0.9378
  799MPD2    H111828   3.740   0.730  14.110  1.9509  0.4486 -0.7900
  799MPD2    H211829   3.935   0.423  14.325 -0.8750 -0.0897  0.4835
  799MPD2    H311830   3.931   0.652  14.254  0.4329 -2.3611  0.9698
  799MPD2     N11831   3.577   0.590  13.988 -0.2290 -0.0809 -0.3165
  799MPD2    H511832   3.585   0.686  13.957  0.7153 -0.1025 -0.1339
  799MPD2    N111833   3.760   0.230  14.242  0.4682 -0.1495  0.6813
  799MPD2    H711834   3.680   0.173  14.217  0.8581  0.0592 -1.0164
  800MPD2     C11835   4.112   1.693  14.240  0.1909  0.0720  0.8097
  800MPD2    C111836   4.236   1.673  14.189 -0.0315 -0.3660 -0.0332
  800MPD2    C211837   4.251   1.609  14.063 -0.8014  0.1127  0.1653
  800MPD2    C311838   4.138   1.543  14.012 -0.5491 -0.0717 -0.3273
  800MPD2    C411839   4.014   1.565  14.065  0.0961 -0.0753  0.9359
  800MPD2    C511840   3.999   1.651  14.176  0.1431  0.3036  0.2746
  800MPD2     H11841   4.343   1.606  14.005 -0.2564  1.3333  0.9450
  800MPD2    H111842   3.928   1.507  14.034 -0.4421  1.2801 -0.1090
  800MPD2    H211843   4.104   1.745  14.335  1.7857  1.6727  0.0731
  800MPD2    H311844   3.901   1.658  14.223  0.9958 -1.1210  2.2670
  800MPD2     N11845   4.166   1.462  13.905  0.2479  0.4519  1.1313
  800MPD2    H511846   4.260   1.467  13.866 -0.2019  0.3042  0.0183
  800MPD2    N111847   4.345   1.737  14.257 -0.2437 -0.7185  0.4684
  800MPD2    H711848   4.319   1.782  14.344 -2.8366 -1.6470  0.1718
  801MPD2     C11849   4.421   2.233  14.753  0.1106 -0.2612  0.0301
  801MPD2    C111850   4.358   2.128  14.697  0.9542  0.4668  0.1445
  801MPD2    C211851   4.222   2.103  14.714  0.1598 -0.3230  0.9339
  801MPD2    C311852   4.141   2.191  14.783  0.2532 -0.6500 -0.2464
  801MPD2    C411853   4.206   2.294  14.839  0.3669 -0.4222  0.7079
  801MPD2    C511854   4.343   2.316  14.826  0.1259  0.0439 -0.0122
  801MPD2     H11855   4.182   2.019  14.659  1.2907 -0.4271  0.2775
  801MPD2    H111856   4.150   2.362  14.902  1.1094  1.0016 -0.1737
  801MPD2    H211857   4.528   2.247  14.742  0.2331 -0.8532  0.4570
  801MPD2    H311858   4.387   2.402  14.876 -1.6359  0.8102  0.2066
  801MPD2     N11859   4.004   2.188  14.798  0.6043 -0.3200 -0.7265
  801MPD2    H511860   3.961   2.273  14.833  3.1772 -0.2323  2.2174
  801MPD2    N111861   4.429   2.030  14.620 -0.2868  0.4468 -0.3168
  801MPD2    H711862   4.365   1.962  14.580  2.4127 -1.3514 -1.5670
  802MPD2     C11863   3.330   3.384   0.564  0.9711 -0.7165 -0.4062
  802MPD2    C111864   3.352   3.365   0.429  0.5130 -0.0225 -0.1704
  802MPD2    C211865   3.422   3.252   0.383 -0.6493  0.1390 -0.3373
  802MPD2    C311866   3.470   3.153   0.460 -0.6429 -0.3156  0.0860
  802MPD2    C411867   3.439   3.176   0.595  0.4820  0.1269  0.3473
  802MPD2    C511868   3.375   3.288   0.645  0.0297  0.0265  0.2401
  802MPD2     H11869   3.445   3.253   0.277 -1.1901  0.7479 -0.4428
  802MPD2    H111870   3.458   3.094   0.663  2.3229  1.8698  1.9210
  802MPD2    H211871   3.293   3.480   0.598  2.1666 -0.2268 -0.4819
  802MPD2    H311872   3.358   3.304   0.751  3.0352 -0.4092  0.7790
  802MPD2     N11873   3.540   3.037   0.401 -0.2347  0.2832  0.7422
  802MPD2    H511874   3.555   3.025   0.301  0.6025  1.3625  0.7454
  802MPD2    N111875   3.308   3.467   0.340  0.2865 -0.2259  0.5800
  802MPD2    H711876   3.297   3.443   0.242  0.3391 -1.0597  0.7756
  803MPD2     C11877   4.137   0.185  12.839  0.8973  0.0644 -0.1911
  803MPD2    C111878   4.211   0.295  12.817 -0.3119  1.3460 -0.8209
  803MPD2    C211879   4.339   0.301  12.858  0.0605  0.1118 -0.2795
  803MPD2    C311880   4.402   0.209  12.937  0.6737 -0.1096 -0.0390
  803MPD2    C411881   4.318   0.105  12.986 -0.2073 -0.3902 -0.5284
  803MPD2    C511882   4.191   0.096  12.923  0.9772  0.6230 -0.0515
  803MPD2     H11883   4.403   0.383  12.828 -0.0957  0.9481  1.7261
  803MPD2    H111884   4.353   0.031  13.056  1.1624 -0.2023 -1.0101
  803MPD2    H211885   4.041   0.163  12.794  1.2744  1.2948 -1.6002
  803MPD2    H311886   4.122   0.019  12.958  0.1082  0.6168 -1.7638
  803MPD2     N11887   4.526   0.219  12.998  0.1103 -0.0349 -0.0728
  803MPD2    H511888   4.549   0.143  13.061  1.2564  1.8311  1.7669
  803MPD2    N111889   4.168   0.393  12.729  0.0849 -0.6521 -0.4012
  803MPD2    H711890   4.234   0.467  12.708 -1.0548  0.5493  0.2807
  804MPD2     C11891   4.218   2.373  16.792 -0.0529 -0.3495 -0.6484
  804MPD2    C111892   4.183   2.351  16.924  0.5311 -0.1699  1.0139
  804MPD2    C211893   4.245   2.430  17.025  0.1196  0.1038  0.3747
  804MPD2    C311894   4.323   2.547  16.989  0.4134  0.0894 -0.1392
  804MPD2    C411895   4.358   2.555  16.856 -0.0921 -0.4461  0.2749
  804MPD2    C511896   4.305   2.471  16.757  0.2273  0.2559 -0.2009
  804MPD2     H11897   4.210   2.418  17.127  2.5933  1.8145  1.4279
  804MPD2    H111898   4.425   2.622  16.804 -1.3944  0.2135 -0.5545
  804MPD2    H211899   4.166   2.324  16.711 -3.1441 -0.4605  1.3898
  804MPD2    H311900   4.340   2.481  16.655 -0.3401  2.1114 -0.2048
  804MPD2     N11901   4.382   2.636  17.084 -0.3690 -0.4085  0.1602
  804MPD2    H511902   4.337   2.650  17.174  0.3829 -1.5790  0.7170
  804MPD2    N111903   4.111   2.234  16.967 -0.1180 -0.2653 -0.0526
  804MPD2    H711904   4.114   2.225  17.068 -0.4182  1.4012  0.1069
  805MPD2     C11905   3.223   0.887  14.964 -0.3439  0.0838 -0.4216
  805MPD2    C111906   3.351   0.909  14.915  0.2717 -0.2499 -0.3602
  805MPD2    C211907   3.449   0.923  15.008 -0.0245 -0.7786  0.5458
  805MPD2    C311908   3.425   0.903  15.146  0.1872 -0.4263 -0.4929
  805MPD2    C411909   3.294   0.870  15.193 -0.7464 -0.5043 -0.4071
  805MPD2    C511910   3.196   0.870  15.100 -0.5579  0.2568 -0.4298
  805MPD2     H11911   3.544   0.954  14.965 -0.5896 -0.8286 -0.7385
  805MPD2    H111912   3.275   0.848  15.297  0.3539 -2.1434 -0.5560
  805MPD2    H211913   3.144   0.877  14.890  0.5637 -0.9449 -1.2497
  805MPD2    H311914   3.100   0.827  15.125 -1.1871  2.4173  0.9383
  805MPD2     N11915   3.536   0.922  15.223 -0.1916  0.4437 -0.3944
  805MPD2    H511916   3.623   0.942  15.174  0.1823  1.8784  0.8336
  805MPD2    N111917   3.395   0.918  14.779 -0.8161 -0.3876  0.1525
  805MPD2    H711918   3.495   0.922  14.764 -0.9011  1.6881  0.2006
  806MPD2     C11919   3.158   0.397   0.623 -0.1312  0.2396 -0.2228
  806MPD2    C111920   3.244   0.296   0.611 -0.1174  0.4320  0.2382
  806MPD2    C211921   3.287   0.269   0.480 -0.0243 -0.0142  0.3997
  806MPD2    C311922   3.228   0.329   0.374 -0.0837  1.2705  0.4309
  806MPD2    C411923   3.138   0.436   0.391  0.4230 -0.0665  0.6100
  806MPD2    C511924   3.099   0.462   0.520  0.6012 -0.1884  0.4479
  806MPD2     H11925   3.369   0.200   0.468 -1.6251 -1.8564  0.1270
  806MPD2    H111926   3.089   0.493   0.313  0.4846  0.9888  1.3430
  806MPD2    H211927   3.143   0.431   0.725  2.3356  3.0332 -0.7883
  806MPD2    H311928   3.021   0.537   0.532 -1.1138 -2.0631  0.8681
  806MPD2     N11929   3.272   0.279   0.243 -0.1929 -0.1908 -0.1584
  806MPD2    H511930   3.354   0.219   0.244 -0.5433 -0.6594 -0.0053
  806MPD2    N111931   3.293   0.249   0.737  0.2607  0.0925  0.2273
  806MPD2    H711932   3.242   0.281   0.818 -0.0045  0.8247 -0.2369
  807MPD2     C11933   3.114   0.211   1.467  0.5146 -0.4239 -0.4472
  807MPD2    C111934   3.181   0.094   1.441  0.1282 -0.5732  0.7971
  807MPD2    C211935   3.146   4.721   1.511  0.3804  0.0827  0.2994
  807MPD2    C311936   3.052   4.717   1.603 -0.5462 -0.7913  0.2486
  807MPD2    C411937   2.992   0.096   1.634  0.5084  0.2753 -0.8119
  807MPD2    C511938   3.022   0.213   1.572  0.1358 -0.5665 -0.2587
  807MPD2     H11939   3.194   4.628   1.483 -2.5290 -2.0309  2.3173
  807MPD2    H111940   2.930   0.107   1.723  1.4162 -0.3998 -0.0941
  807MPD2    H211941   3.136   0.301   1.411  1.2123 -1.1447 -1.3363
  807MPD2    H311942   2.967   0.303   1.596 -4.4902 -2.3611 -3.8881
  807MPD2     N11943   3.012   4.598   1.664 -0.2516  0.1356 -0.4029
  807MPD2    H511944   3.052   4.512   1.627  2.0622  0.3683  1.6326
  807MPD2    N111945   3.272   0.084   1.335 -0.9339 -0.7398 -0.2662
  807MPD2    H711946   3.327   4.738   1.330 -0.0115 -0.1604  0.0793
  808MPD2     C11947   4.489   0.864   9.466  0.2751 -0.0791  0.1770
  808MPD2    C111948   4.430   0.890   9.587 -1.2510 -0.2786 -0.0241
  808MPD2    C211949   4.456   1.017   9.648  0.0619 -0.3261  0.6656
  808MPD2    C311950   4.513   1.120   9.567 -0.3057  0.2163  0.7827
  808MPD2    C411951   4.556   1.097   9.438 -0.2996  0.4454 -0.0411
  808MPD2    C511952   4.547   0.966   9.393 -0.5852 -0.4615 -0.2601
  808MPD2     H11953   4.424   1.029   9.751 -1.3121  2.7074 -0.0966
  808MPD2    H111954   4.599   1.178   9.380  1.7263  0.6763  1.7841
  808MPD2    H211955   4.488   0.763   9.425 -1.6346 -0.2383  0.6268
  808MPD2    H311956   4.574   0.946   9.290 -3.5355 -0.0973 -1.0859
  808MPD2     N11957   4.534   1.245   9.615  0.1646  0.3581 -0.2588
  808MPD2    H511958   4.561   1.314   9.546 -2.9786 -0.3608 -2.1926
  808MPD2    N111959   4.367   0.790   9.674 -0.1091  0.7746  0.1947
  808MPD2    H711960   4.316   0.828   9.753 -0.2919  0.7744  0.0781
  809MPD2     C11961   0.206   1.694   9.082 -0.1689 -0.1230 -0.1304
  809MPD2    C111962   0.226   1.772   9.193  0.3086 -0.5989  1.5148
  809MPD2    C211963   0.184   1.745   9.319 -0.5251 -0.0607 -0.4699
  809MPD2    C311964   0.118   1.625   9.336  0.7714  0.5365  0.0741
  809MPD2    C411965   0.085   1.556   9.224  0.1461  0.2731 -0.1665
  809MPD2    C511966   0.132   1.586   9.103 -0.0556  0.9199  0.5869
  809MPD2     H11967   0.208   1.818   9.396  0.7282  0.1457 -1.0421
  809MPD2    H111968   0.026   1.465   9.225 -0.5559  0.7337  0.8709
  809MPD2    H211969   0.239   1.722   8.982  0.4907 -0.3961  0.0071
  809MPD2    H311970   0.106   1.520   9.020  0.3470  1.9103 -0.3307
  809MPD2     N11971   0.064   1.586   9.459  0.8747 -0.8485 -0.3510
  809MPD2    H511972   0.014   1.498   9.450 -0.4175  0.2166 -3.3804
  809MPD2    N111973   0.285   1.897   9.177  0.4825 -0.1865 -0.8502
  809MPD2    H711974   0.313   1.945   9.262 -2.0476 -1.6006  0.8015
  810MPD2     C11975   3.601   1.006  11.074 -0.0954  0.6951  0.6035
  810MPD2    C111976   3.671   1.034  10.958 -0.3861  0.3680  0.1171
  810MPD2    C211977   3.710   1.165  10.921 -0.4824  0.1267 -0.3781
  810MPD2    C311978   3.672   1.271  10.995  0.2104  0.3761  0.5276
  810MPD2    C411979   3.590   1.246  11.107 -0.1608 -1.0218 -0.6275
  810MPD2    C511980   3.567   1.116  11.148 -0.0399 -0.3822 -0.2840
  810MPD2     H11981   3.756   1.172  10.823  0.5441 -0.6385  0.0393
  810MPD2    H111982   3.547   1.325  11.167 -0.4083 -0.8481 -1.0307
  810MPD2    H211983   3.575   0.909  11.113  2.3807 -0.3189 -0.3257
  810MPD2    H311984   3.502   1.101  11.234  0.1425 -0.0837 -0.0913
  810MPD2     N11985   3.686   1.402  10.944  1.1090 -0.0925 -0.4767
  810MPD2    H511986   3.633   1.477  10.988  0.8549 -0.5428 -0.0174
  810MPD2    N111987   3.705   0.923  10.882 -0.6744 -0.1172 -0.7283
  810MPD2    H711988   3.659   0.839  10.914  0.1404  0.6421  2.3914
  811MPD2     C11989   3.420   0.821  10.164  0.3645 -0.1378  0.5337
  811MPD2    C111990   3.496   0.893  10.253  0.3053  0.1040 -0.4257
  811MPD2    C211991   3.483   1.025  10.261  0.2986 -0.4637  0.6867
  811MPD2    C311992   3.402   1.095  10.174 -0.4359 -0.0135  0.5528
  811MPD2    C411993   3.334   1.020  10.079 -0.8799 -0.0239  0.3711
  811MPD2    C511994   3.345   0.882  10.074 -0.6694 -0.1690 -0.5130
  811MPD2     H11995   3.547   1.084  10.326 -1.9161  1.3034  1.2763
  811MPD2    H111996   3.268   1.067  10.007 -1.2452 -0.6952  0.2675
  811MPD2    H211997   3.438   0.714  10.164  2.0639  0.1538  1.2869
  811MPD2    H311998   3.301   0.818   9.998  0.6089  0.2056 -1.5774
  811MPD2     N11999   3.399   1.238  10.186  0.3344  0.4348  0.4438
  811MPD2    H512000   3.471   1.283  10.241  0.8886 -0.1764  0.2144
  811MPD2    N112001   3.588   0.849  10.357  0.2543 -0.2117 -0.7552
  811MPD2    H712002   3.640   0.925  10.398  0.7270 -0.8588 -0.1607
  812MPD2     C12003   2.833   1.936  12.285 -0.2845  0.4871 -0.2365
  812MPD2    C112004   2.720   1.993  12.341 -0.0928 -0.2531  0.3338
  812MPD2    C212005   2.669   1.940  12.461  0.6424  0.2109 -0.2478
  812MPD2    C312006   2.726   1.824  12.505  0.6229  0.0354 -0.1208
  812MPD2    C412007   2.834   1.762  12.451  0.3297 -0.5213 -0.0267
  812MPD2    C512008   2.889   1.821  12.338 -0.9397  0.3636 -0.1163
  812MPD2     H12009   2.582   1.977  12.513  0.1088 -0.3070 -0.7843
  812MPD2    H112010   2.885   1.672  12.482  0.7149  0.7121  2.8923
  812MPD2    H212011   2.895   1.976  12.206 -2.9166  0.7040 -2.1996
  812MPD2    H312012   2.988   1.799  12.300 -0.9895  1.8849 -1.1170
  812MPD2     N12013   2.672   1.769  12.625  0.2959  0.9442  0.2803
  812MPD2    H512014   2.592   1.820  12.664 -1.8792 -1.5056 -0.9551
  812MPD2    N112015   2.659   2.107  12.271 -0.0235  0.0417 -0.7447
  812MPD2    H712016   2.719   2.149  12.200  0.8992 -0.1802 -0.1054
  813MPD2     C12017   2.423   2.777  12.971  0.0083 -0.7496  0.6257
  813MPD2    C112018   2.357   2.888  13.010 -0.3123  0.0735  0.3169
  813MPD2    C212019   2.225   2.867  13.061  0.3664  0.1337  0.0311
  813MPD2    C312020   2.165   2.745  13.070 -0.0310 -0.4181 -0.1907
  813MPD2    C412021   2.237   2.633  13.040 -0.2833  0.4556 -0.1851
  813MPD2    C512022   2.364   2.652  12.981 -0.7166  0.2925 -0.7087
  813MPD2     H12023   2.166   2.958  13.067  2.0339  1.1491  1.2376
  813MPD2    H112024   2.196   2.533  13.050  1.0629 -0.0023  0.6362
  813MPD2    H212025   2.526   2.786  12.939  0.1786 -3.0704  0.5313
  813MPD2    H312026   2.419   2.568  12.941 -1.5503 -0.7062  0.2278
  813MPD2     N12027   2.036   2.749  13.129  0.0478 -0.3491  0.4530
  813MPD2    H512028   1.994   2.842  13.132  1.6056  0.3427  0.7926
  813MPD2    N112029   2.431   3.008  13.015  0.0638 -0.3220 -0.2291
  813MPD2    H712030   2.527   2.994  12.989  0.5799 -0.4999  1.7566
  814MPD2     C12031   2.341   4.055  12.664 -0.1733 -1.1343 -0.4216
  814MPD2    C112032   2.348   4.058  12.524 -0.1797 -0.1379  0.4215
  814MPD2    C212033   2.413   4.164  12.454 -0.0591 -0.7328  0.4322
  814MPD2    C312034   2.450   4.279  12.521 -0.3917 -0.5280 -0.1488
  814MPD2    C412035   2.431   4.276  12.656 -0.7715  0.9279 -0.2441
  814MPD2    C512036   2.389   4.167  12.726 -0.0547 -0.3369  0.1457
  814MPD2     H12037   2.431   4.160  12.347 -1.7902  0.3316  0.1101
  814MPD2    H112038   2.477   4.361  12.706  1.8675 -0.0081 -1.1066
  814MPD2    H212039   2.299   3.973  12.721  0.5156  0.1923  1.9794
  814MPD2    H312040   2.383   4.167  12.834  0.7707  0.1875  0.1945
  814MPD2     N12041   2.512   4.391  12.459 -0.3869 -0.6172 -0.3237
  814MPD2    H512042   2.523   4.468  12.524 -4.0228 -0.5977  0.2542
  814MPD2    N112043   2.291   3.954  12.447  0.2061  0.0968  0.0468
  814MPD2    H712044   2.281   3.968  12.347  0.6614  2.3009  0.3182
  815MPD2     C12045   2.819   2.557  11.992 -0.0692 -0.0233 -0.6669
  815MPD2    C112046   2.752   2.572  11.870  0.0789  0.1788 -0.8049
  815MPD2    C212047   2.635   2.649  11.863  0.0917 -0.1841  0.3880
  815MPD2    C312048   2.576   2.691  11.982 -0.3086  0.4321 -0.0345
  815MPD2    C412049   2.631   2.660  12.105  0.1796  0.1614 -0.5491
  815MPD2    C512050   2.755   2.597  12.107 -0.3908  0.2843  0.4153
  815MPD2     H12051   2.581   2.668  11.771 -0.8582  0.1400  1.0135
  815MPD2    H112052   2.596   2.689  12.204  0.1421 -0.6412 -0.3264
  815MPD2    H212053   2.913   2.505  11.998 -0.5228 -0.7197  0.3366
  815MPD2    H312054   2.806   2.572  12.199  1.0251 -0.5154 -0.5787
  815MPD2     N12055   2.449   2.753  11.969  0.3635  0.1402 -0.3644
  815MPD2    H512056   2.415   2.750  11.874 -0.4355 -2.5712  0.0076
  815MPD2    N112057   2.814   2.506  11.762 -0.2957 -0.7006  0.4550
  815MPD2    H712058   2.892   2.446  11.788  0.5525  0.1424 -0.1747
  816MPD2     C12059   2.310   2.033  16.898 -0.0015  0.0935  1.0369
  816MPD2    C112060   2.430   2.087  16.935 -0.7244 -0.1404  0.0741
  816MPD2    C212061   2.550   2.026  16.906  0.4768  0.0078 -0.1243
  816MPD2    C312062   2.557   1.910  16.842  0.2952 -0.5464  0.1109
  816MPD2    C412063   2.436   1.847  16.812 -0.7407  0.0862 -0.2327
  816MPD2    C512064   2.315   1.908  16.833 -0.4152  0.8617  0.7658
  816MPD2     H12065   2.643   2.075  16.932  1.4109  0.0849 -3.7317
  816MPD2    H112066   2.428   1.747  16.772 -1.7162 -0.5117  1.4358
  816MPD2    H212067   2.210   2.071  16.912  0.5691  2.0800 -0.1752
  816MPD2    H312068   2.221   1.858  16.813  0.9008 -0.6644 -1.6512
  816MPD2     N12069   2.687   1.869  16.793  0.3658  0.4509  0.4302
  816MPD2    H512070   2.759   1.933  16.824  1.8166  0.2982 -2.6058
  816MPD2    N112071   2.418   2.224  16.971 -0.0223 -0.1360 -0.1107
  816MPD2    H712072   2.327   2.264  16.992  0.1174  0.4842 -0.6632
  817MPD2     C12073   1.907   2.904   9.852 -0.6037 -0.9895 -0.7559
  817MPD2    C112074   1.938   2.940   9.720  0.4939 -0.2843 -0.0872
  817MPD2    C212075   1.918   3.061   9.676  0.1258  0.1087  0.2321
  817MPD2    C312076   1.876   3.166   9.759 -0.0189 -0.0532 -0.1700
  817MPD2    C412077   1.849   3.132   9.893 -0.4412 -0.6146 -0.9241
  817MPD2    C512078   1.858   3.000   9.937  0.2587  0.2225  0.4647
  817MPD2     H12079   1.933   3.089   9.572  1.6154  0.0361  0.4352
  817MPD2    H112080   1.807   3.198   9.968  1.7922 -0.0795 -0.1383
  817MPD2    H212081   1.906   2.800   9.885  0.9159 -0.6061  0.4782
  817MPD2    H312082   1.822   2.965  10.033 -2.5705  0.5546 -0.4758
  817MPD2     N12083   1.841   3.284   9.702 -0.2849 -0.0438  0.0668
  817MPD2    H512084   1.860   3.297   9.604  0.0824  0.0752  0.1555
  817MPD2    N112085   1.984   2.839   9.628 -0.1633  0.1097 -0.1548
  817MPD2    H712086   1.994   2.854   9.528  2.4200 -1.8088 -0.1952
  818MPD2     C12087   0.723   4.041   9.942  0.1436  0.5142  0.4170
  818MPD2    C112088   0.824   3.947   9.925 -0.2507  0.3514  0.3765
  818MPD2    C212089   0.833   3.878   9.808 -0.2558 -0.4369  0.2949
  818MPD2    C312090   0.725   3.896   9.712  0.6027  0.4337  0.6175
  818MPD2    C412091   0.625   3.988   9.736  0.4283 -0.7192  0.2818
  818MPD2    C512092   0.628   4.060   9.851 -0.2210 -0.1524 -0.2492
  818MPD2     H12093   0.909   3.802   9.794  0.0355 -0.3167  1.2027
  818MPD2    H112094   0.546   4.013   9.665  1.1294  0.6887 -0.0103
  818MPD2    H212095   0.704   4.095  10.034  0.0072 -0.0839  0.7352
  818MPD2    H312096   0.557   4.135   9.884 -0.3491 -0.1855 -0.4521
  818MPD2     N12097   0.732   3.834   9.584  0.2652  0.1984  0.1310
  818MPD2    H512098   0.649   3.850   9.527  0.4038  1.8950  0.4199
  818MPD2    N112099   0.904   3.892  10.033  0.5150  0.3848  0.3514
  818MPD2    H712100   0.963   3.812  10.012 -0.3561 -0.0336 -0.5262
  819MPD2     C12101   4.072   0.753  15.516  0.5013  0.4327  0.2708
  819MPD2    C112102   3.993   0.638  15.531  0.5445  0.0817  0.1077
  819MPD2    C212103   4.037   0.535  15.610  0.9527  0.3406  0.1582
  819MPD2    C312104   4.163   0.543  15.668  0.1219 -0.5749  0.3187
  819MPD2    C412105   4.240   0.653  15.650 -0.9301  0.0716  0.2391
  819MPD2    C512106   4.200   0.761  15.569  0.4615  0.6367  0.1107
  819MPD2     H12107   3.994   0.437  15.626  0.2484  0.6664  0.2451
  819MPD2    H112108   4.340   0.655  15.691 -1.0839 -1.3728  0.6550
  819MPD2    H212109   4.037   0.823  15.440  1.2422 -1.4908 -1.8197
  819MPD2    H312110   4.265   0.843  15.541  0.4528  0.2947 -0.9352
  819MPD2     N12111   4.197   0.426  15.734 -0.1736  0.3453 -0.0752
  819MPD2    H512112   4.135   0.346  15.721  0.3257  0.0198 -0.4391
  819MPD2    N112113   3.858   0.629  15.476  0.0025  0.3875  0.1478
  819MPD2    H712114   3.842   0.681  15.391 -0.4243 -0.2530 -0.1597
  820MPD2     C12115   3.825   0.387  14.613 -0.1831 -0.2564  0.0843
  820MPD2    C112116   3.754   0.503  14.651 -0.3323 -0.5142 -0.1468
  820MPD2    C212117   3.716   0.514  14.790 -0.1484 -0.0248  0.8474
  820MPD2    C312118   3.749   0.421  14.888  0.5603 -0.1752  0.1562
  820MPD2    C412119   3.828   0.314  14.845  0.0824 -0.1497  0.4594
  820MPD2    C512120   3.861   0.299  14.717 -0.0683 -0.3455  0.5104
  820MPD2     H12121   3.664   0.601  14.829  0.2730  0.1347  1.0583
  820MPD2    H112122   3.860   0.237  14.914  0.7113 -0.1638  0.1523
  820MPD2    H212123   3.885   0.375  14.523 -1.5815 -2.1124 -0.6164
  820MPD2    H312124   3.919   0.210  14.694  1.0443 -0.0127  2.0338
  820MPD2     N12125   3.705   0.429  15.021 -0.1475  0.3500 -0.0579
  820MPD2    H512126   3.747   0.376  15.097  0.2886 -0.1054 -0.6147
  820MPD2    N112127   3.740   0.619  14.559 -0.7624  0.5450  0.2619
  820MPD2    H712128   3.760   0.602  14.461 -1.4319  0.6007  0.1155
  821MPD2     C12129   4.227   1.218  13.109 -0.5790 -0.0083  0.9399
  821MPD2    C112130   4.323   1.217  13.209 -0.3255 -0.7421 -0.2954
  821MPD2    C212131   4.457   1.233  13.169  0.1397  0.2507 -0.1754
  821MPD2    C312132   4.487   1.267  13.040 -0.0268  0.7361  0.0314
  821MPD2    C412133   4.386   1.270  12.941 -0.1330 -0.2592  0.2070
  821MPD2    C512134   4.257   1.244  12.983  0.2005  0.3009 -0.5040
  821MPD2     H12135   4.527   1.220  13.251 -2.3913 -2.1096  1.6007
  821MPD2    H112136   4.403   1.291  12.836 -1.1201 -0.1088  0.0815
  821MPD2    H212137   4.124   1.193  13.129 -0.9360  0.9215  0.2458
  821MPD2    H312138   4.183   1.238  12.904 -1.7386  0.1662  1.3538
  821MPD2     N12139   4.623   1.300  12.997 -0.1427 -0.3564  0.5828
  821MPD2    H512140   4.637   1.333  12.902 -2.5158 -2.0025 -0.3202
  821MPD2    N112141   4.295   1.182  13.335  0.2737  0.1935  0.1827
  821MPD2    H712142   4.377   1.164  13.393 -0.5347  1.2678  1.6542
  822MPD2     C12143   0.221   1.728  15.629  0.1015  0.7298  0.3950
  822MPD2    C112144   0.206   1.707  15.765 -0.0323  0.2001  0.3063
  822MPD2    C212145   0.120   1.791  15.834 -0.2282 -0.6602  0.4332
  822MPD2    C312146   0.051   1.897  15.779 -0.7384 -0.6358 -1.0509
  822MPD2    C412147   0.062   1.913  15.639 -0.3761 -0.0616 -0.2847
  822MPD2    C512148   0.144   1.828  15.567  0.8624  0.4490  0.3389
  822MPD2     H12149   0.117   1.788  15.942 -1.7868  0.1217  0.4254
  822MPD2    H112150   4.737   1.982  15.584 -1.6296 -0.5079  0.6128
  822MPD2    H212151   0.289   1.667  15.570 -0.0203  0.2298  0.7734
  822MPD2    H312152   0.145   1.835  15.459  2.0039  1.8218  0.4394
  822MPD2     N12153   4.713   1.978  15.864  0.3026 -0.1218 -0.1489
  822MPD2    H512154   4.725   1.956  15.962  4.0408 -3.7743 -1.4085
  822MPD2    N112155   0.269   1.600  15.836 -0.7634  0.3273  0.0615
  822MPD2    H712156   0.262   1.592  15.937 -1.4613  0.6741  0.0384
  823MPD2     C12157   4.382   2.094  16.620  0.1556  0.3475 -0.0788
  823MPD2    C112158   4.452   2.020  16.522  0.4942 -0.2923 -0.3520
  823MPD2    C212159   4.532   1.917  16.561  0.2312  0.2779 -0.0906
  823MPD2    C312160   4.530   1.871  16.692 -0.1592 -0.3543  0.1233
  823MPD2    C412161   4.459   1.940  16.785  0.5852 -0.2022 -0.3510
  823MPD2    C512162   4.389   2.055  16.757 -0.0762  0.1738 -0.3693
  823MPD2     H12163   4.588   1.871  16.480 -0.8331 -0.2076 -0.5492
  823MPD2    H112164   4.471   1.917  16.890  1.7605  3.7589  0.3913
  823MPD2    H212165   4.320   2.176  16.586  1.4882  1.7059  0.7666
  823MPD2    H312166   4.341   2.109  16.838  0.1327  0.2251 -0.2807
  823MPD2     N12167   4.604   1.770  16.750 -0.5386 -0.1922 -0.4094
  823MPD2    H512168   4.582   1.750  16.847  0.6889  3.8103  0.6642
  823MPD2    N112169   4.448   2.071  16.390 -0.0325 -0.1652  0.5544
  823MPD2    H712170   4.406   2.163  16.382 -0.1119 -0.4416 -2.2429
  824MPD2     C12171   0.451   0.790  15.768  0.2826  0.2665 -0.1602
  824MPD2    C112172   0.497   0.902  15.704  0.2019  0.0104  1.0617
  824MPD2    C212173   0.574   0.887  15.589  0.5018 -0.0596 -0.7027
  824MPD2    C312174   0.607   0.766  15.537  0.2441  0.4584  0.3219
  824MPD2    C412175   0.563   0.656  15.612  0.8192  0.4013 -0.1793
  824MPD2    C512176   0.485   0.667  15.719  0.0612  0.0929 -0.3719
  824MPD2     H12177   0.624   0.972  15.546  0.6470  1.1473  1.8723
  824MPD2    H112178   0.596   0.562  15.569 -1.6520 -0.1520 -0.8488
  824MPD2    H212179   0.377   0.792  15.846  2.0780  1.2019  1.5018
  824MPD2    H312180   0.443   0.578  15.765  0.6744  0.3070  0.6098
  824MPD2     N12181   0.702   0.759  15.429  0.1015  0.5633  0.7053
  824MPD2    H512182   0.720   0.844  15.375 -4.5921  0.1071 -1.5293
  824MPD2    N112183   0.477   1.032  15.763  0.3439  0.2322  0.5101
  824MPD2    H712184   0.504   1.105  15.698 -0.3072 -0.6920 -0.8189
  825MPD2     C12185   1.242   1.051  14.843 -0.3337  0.5142  0.9587
  825MPD2    C112186   1.202   1.048  14.973 -0.1208 -0.4650 -0.5806
  825MPD2    C212187   1.236   1.156  15.050 -0.1193  0.0060 -0.2624
  825MPD2    C312188   1.302   1.270  14.994 -0.2355 -0.3418  0.6966
  825MPD2    C412189   1.347   1.262  14.865  0.3001 -0.5500  0.4664
  825MPD2    C512190   1.322   1.151  14.789 -0.9715 -0.5685  0.4539
  825MPD2     H12191   1.217   1.156  15.157  1.3914 -0.6517  0.0063
  825MPD2    H112192   1.410   1.339  14.823  0.2052  0.2728  1.8133
  825MPD2    H212193   1.215   0.965  14.783  0.2519 -0.0111  1.4394
  825MPD2    H312194   1.351   1.147  14.685 -0.2283  0.3705  0.6292
  825MPD2     N12195   1.308   1.400  15.059 -0.0118  0.8587 -0.0816
  825MPD2    H512196   1.345   1.479  15.008 -0.5638  0.5154 -1.0042
  825MPD2    N112197   1.134   0.941  15.025  0.4063 -0.2778 -0.2779
  825MPD2    H712198   1.130   0.852  14.977 -0.6886 -0.7120  0.6226
  826MPD2     C12199   1.364   0.692  13.801 -0.0382 -0.1357  0.9580
  826MPD2    C112200   1.344   0.717  13.665 -0.1365 -0.0293 -0.3928
  826MPD2    C212201   1.243   0.809  13.624  0.3462  0.1563  0.2031
  826MPD2    C312202   1.169   0.882  13.718 -0.0278 -0.0326  0.1135
  826MPD2    C412203   1.190   0.860  13.855 -0.6864 -0.6191  0.4696
  826MPD2    C512204   1.292   0.773  13.888  0.1501  0.1038  0.3280
  826MPD2     H12205   1.228   0.834  13.520  1.1129  0.0095  0.0631
  826MPD2    H112206   1.140   0.918  13.932 -0.0905  0.0478  0.3547
  826MPD2    H212207   1.445   0.629  13.836  0.5020 -0.4894 -0.9382
  826MPD2    H312208   1.306   0.762  13.995 -0.2705 -0.7179  0.3006
  826MPD2     N12209   1.064   0.970  13.684 -0.8964 -0.5902 -0.5438
  826MPD2    H512210   1.002   1.009  13.754  0.1353  2.5926 -1.3945
  826MPD2    N112211   1.419   0.645  13.571  0.1508  0.1318 -0.1305
  826MPD2    H712212   1.478   0.579  13.620 -1.9431 -1.0081  0.8641
  827MPD2     C12213   1.633   1.994   9.742  0.0255 -0.0446 -0.0701
  827MPD2    C112214   1.572   2.114   9.766  0.3276 -0.6737  0.1981
  827MPD2    C212215   1.466   2.157   9.687 -0.0454  0.0302 -0.9406
  827MPD2    C312216   1.423   2.080   9.577 -0.1632 -0.0527  0.7893
  827MPD2    C412217   1.499   1.973   9.549  0.4386  0.3437  0.1522
  827MPD2    C512218   1.597   1.921   9.634 -0.2377 -0.5937  0.1600
  827MPD2     H12219   1.417   2.252   9.706  0.8459  0.2342  0.2790
  827MPD2    H112220   1.478   1.916   9.459  0.7141 -0.3839  0.5498
  827MPD2    H212221   1.718   1.964   9.803  1.0296  0.8103 -1.0434
  827MPD2    H312222   1.648   1.830   9.605 -0.7252 -1.1139  0.9586
  827MPD2     N12223   1.322   2.142   9.501 -0.3105  0.0106 -0.4568
  827MPD2    H512224   1.282   2.231   9.530  0.4306  0.8444 -1.9932
  827MPD2    N112225   1.624   2.187   9.878 -0.1791  0.4733  0.5433
  827MPD2    H712226   1.697   2.147   9.937  0.0483  0.3471  0.1741
  828MPD2     C12227   0.243   1.666  12.236  0.4992  0.3939  0.7400
  828MPD2    C112228   0.152   1.767  12.197 -0.1075  0.1162  0.4977
  828MPD2    C212229   0.189   1.846  12.087 -0.7074 -0.4865 -0.4062
  828MPD2    C312230   0.297   1.810  12.009 -0.8122 -0.1504  0.1527
  828MPD2    C412231   0.376   1.697  12.042 -0.1162 -0.2511 -0.5153
  828MPD2    C512232   0.353   1.643  12.161 -0.4286  1.1635  0.5595
  828MPD2     H12233   0.126   1.929  12.057  0.8085 -0.1196 -2.5753
  828MPD2    H112234   0.459   1.661  11.983  0.5851 -1.0356  0.9515
  828MPD2    H212235   0.224   1.598  12.318  3.2712  2.0647  2.7418
  828MPD2    H312236   0.399   1.552  12.198 -0.5871  0.3882 -1.1781
  828MPD2     N12237   0.331   1.886  11.898 -0.1971  0.9559  0.5255
  828MPD2    H512238   0.422   1.870  11.856 -0.2164  0.9190  0.4973
  828MPD2    N112239   0.027   1.785  12.262  0.6129 -0.0212  0.0626
  828MPD2    H712240   4.702   1.841  12.207  1.6832 -0.8433 -2.0354
  829MPD2     C12241   4.172   2.051  11.686  0.2674  0.0200  0.0442
  829MPD2    C112242   4.107   1.958  11.766  0.4966 -0.8796 -0.1569
  829MPD2    C212243   4.178   1.918  11.880  0.2093  0.3883 -0.2319
  829MPD2    C312244   4.296   1.968  11.917  0.0249  0.1295 -0.3566
  829MPD2    C412245   4.363   2.042  11.820 -0.5304  0.0817  0.4031
  829MPD2    C512246   4.294   2.095  11.717 -0.4359  0.3231  0.7817
  829MPD2     H12247   4.127   1.844  11.940 -4.4662  4.1108  0.3690
  829MPD2    H112248   4.468   2.067  11.834 -0.5940 -1.7708  4.0087
  829MPD2    H212249   4.123   2.075  11.593  1.3492  0.1286 -0.4977
  829MPD2    H312250   4.342   2.169  11.654 -0.7332 -0.1010  0.0579
  829MPD2     N12251   4.363   1.919  12.028 -0.7203 -0.4523  0.4070
  829MPD2    H512252   4.463   1.932  12.037 -0.7045  0.1104 -0.5985
  829MPD2    N112253   3.977   1.910  11.722 -0.4138 -0.4609  0.6492
  829MPD2    H712254   3.937   1.967  11.648  2.6904  0.2338 -0.4937
  830MPD2     C12255   4.694   4.486  15.676 -0.0737  1.0443 -0.1870
  830MPD2    C112256   4.568   4.539  15.634 -0.8874  0.1217 -0.5310
  830MPD2    C212257   4.513   4.499  15.515 -0.0441  0.4583 -0.0175
  830MPD2    C312258   4.570   4.402  15.439 -1.4225  0.4160  0.3388
  830MPD2    C412259   4.689   4.349  15.484 -0.9762  0.4913 -0.0965
  830MPD2    C512260   0.016   4.393  15.599 -0.4098  0.3082  0.3366
  830MPD2     H12261   4.414   4.526  15.481 -1.0463 -0.2229  2.3178
  830MPD2    H112262   4.739   4.278  15.419 -0.4473 -0.5668  1.4659
  830MPD2    H212263   0.016   4.522  15.759  1.1696 -1.9808  0.2244
  830MPD2    H312264   0.111   4.349  15.627 -0.5325 -0.7209 -0.8190
  830MPD2     N12265   4.514   4.353  15.316 -0.3357 -0.5012 -0.4704
  830MPD2    H512266   4.565   4.278  15.272 -0.5346 -0.1578 -1.2930
  830MPD2    N112267   4.513   4.629  15.723 -0.1317 -0.0841  0.0970
  830MPD2    H712268   4.561   4.643  15.812 -1.7970 -1.2846  1.1802
  831MPD2     C12269   0.298   2.066  16.234 -0.7275 -0.1271  0.2922
  831MPD2    C112270   0.342   1.955  16.163 -0.3436 -0.1711 -0.0331
  831MPD2    C212271   0.262   1.841  16.162  0.3332  0.3561  0.1781
  831MPD2    C312272   0.139   1.847  16.222 -0.6186  0.1446 -0.2710
  831MPD2    C412273   0.098   1.959  16.291 -0.3914  0.0597  0.2951
  831MPD2    C512274   0.174   2.073  16.286 -1.0653  0.1130 -0.5158
  831MPD2     H12275   0.287   1.751  16.107  1.1561  0.1794  0.8343
  831MPD2    H112276   0.009   1.949  16.352 -0.2874 -0.5048  0.3560
  831MPD2    H212277   0.364   2.151  16.240  0.4087 -1.2571  3.6547
  831MPD2    H312278   0.151   2.155  16.352  0.1119 -0.2234  0.3198
  831MPD2     N12279   0.046   1.743  16.219 -0.0197 -0.3666  0.5668
  831MPD2    H512280   4.690   1.763  16.251 -0.5052 -0.8739 -0.5566
  831MPD2    N112281   0.456   1.965  16.087 -0.2936  0.3529  0.4904
  831MPD2    H712282   0.496   2.055  16.063  2.5947 -1.0986 -0.1435
  832MPD2     C12283   3.427   2.804  17.439 -0.3000 -0.0047 -0.6977
  832MPD2    C112284   3.425   2.937  17.423  0.0622  0.2757  0.1745
  832MPD2    C212285   3.372   2.987  17.303 -0.4489 -0.0915 -0.1782
  832MPD2    C312286   3.315   2.901  17.210  0.2852 -0.5455  0.0551
  832MPD2    C412287   3.312   2.768  17.231 -0.2831  0.2927 -0.2911
  832MPD2    C512288   3.375   2.723  17.345  0.0066  0.0166 -0.0356
  832MPD2     H12289   3.371   3.094  17.285 -0.4005  0.2608  2.0005
  832MPD2    H112290   3.286   2.687  17.163  1.8863  0.0365 -0.8377
  832MPD2    H212291   3.485   2.756  17.516 -0.4170 -1.1988 -1.3578
  832MPD2    H312292   3.389   2.617  17.361 -2.7113 -0.9517 -3.8871
  832MPD2     N12293   3.262   2.954  17.084 -0.0830  0.0739  0.2541
  832MPD2    H512294   3.221   2.889  17.017 -1.4851 -0.4590  1.6072
  832MPD2    N112295   3.495   3.016  17.514  0.3868  0.4190  0.3616
  832MPD2    H712296   3.531   2.965  17.594  0.9900  0.3827  0.0702
  833MPD2     C12297   0.609   4.503  12.599  0.6381  0.6680  0.3083
  833MPD2    C112298   0.728   4.564  12.570  0.6699 -0.3568 -0.5540
  833MPD2    C212299   0.837   4.494  12.532 -0.7367 -0.1616  0.3796
  833MPD2    C312300   0.835   4.357  12.523 -0.2426 -0.2826 -0.9201
  833MPD2    C412301   0.714   4.297  12.533 -0.4114 -0.5319 -0.3533
  833MPD2    C512302   0.603   4.368  12.569 -0.0650 -0.2954 -0.5972
  833MPD2     H12303   0.919   4.552  12.491 -1.3937 -0.6396 -1.6004
  833MPD2    H112304   0.702   4.194  12.502  1.4189 -0.9661  0.3198
  833MPD2    H212305   0.511   4.546  12.620 -0.6495 -1.9829 -0.3182
  833MPD2    H312306   0.506   4.318  12.573  0.0417 -0.5110 -0.6980
  833MPD2     N12307   0.941   4.280  12.483 -0.1316  0.7818 -0.3675
  833MPD2    H512308   0.915   4.186  12.454  0.8626 -0.4683  2.6922
  833MPD2    N112309   0.711   4.705  12.568 -0.4089 -0.5104 -0.3648
  833MPD2    H712310   0.620   0.004  12.593  1.1197  2.7301  0.3096
  834MPD2     C12311   1.582   4.104  11.747  0.4330  0.7548 -0.0436
  834MPD2    C112312   1.450   4.120  11.714 -0.1099 -0.9103  0.1394
  834MPD2    C212313   1.361   4.200  11.793 -0.5369  0.7574  0.5537
  834MPD2    C312314   1.404   4.271  11.897 -0.1752 -0.3144 -0.0927
  834MPD2    C412315   1.545   4.256  11.927 -0.1376 -0.4784 -0.4536
  834MPD2    C512316   1.628   4.174  11.855 -0.8204  0.3603  0.0042
  834MPD2     H12317   1.256   4.204  11.766 -0.5363 -0.5481  0.3587
  834MPD2    H112318   1.582   4.291  12.023 -0.6012 -1.1029 -0.0487
  834MPD2    H212319   1.645   4.030  11.699 -0.5872 -0.2966  0.2548
  834MPD2    H312320   1.730   4.170  11.890 -1.1942 -2.4825  0.7367
  834MPD2     N12321   1.305   4.322  11.977  0.6888 -0.3488 -0.6982
  834MPD2    H512322   1.209   4.318  11.943  0.9406  2.6411 -1.7688
  834MPD2    N112323   1.407   4.045  11.594 -0.2018 -0.1955 -0.1951
  834MPD2    H712324   1.475   3.984  11.550  0.8482  0.6031  0.2871
  835MPD2     C12325   0.711   2.480  10.861 -0.0382 -0.2467 -0.0802
  835MPD2    C112326   0.631   2.419  10.954 -0.0924 -0.0142 -0.0294
  835MPD2    C212327   0.684   2.317  11.031 -0.5096  0.5638 -0.5654
  835MPD2    C312328   0.819   2.269  11.017 -0.5196  0.2227  0.6193
  835MPD2    C412329   0.898   2.336  10.918 -0.0453 -0.2197  0.2134
  835MPD2    C512330   0.843   2.441  10.843 -0.0041 -0.8899 -0.2583
  835MPD2     H12331   0.613   2.271  11.098  0.6676 -0.1172  0.2133
  835MPD2    H112332   1.007   2.330  10.920 -0.0612 -0.4841  0.2743
  835MPD2    H212333   0.676   2.567  10.807 -0.1426 -0.5230 -0.4566
  835MPD2    H312334   0.899   2.493  10.767 -0.2063 -0.6627 -0.2522
  835MPD2     N12335   0.872   2.177  11.111  0.4605  0.8612 -0.4278
  835MPD2    H512336   0.802   2.136  11.171  0.8569 -0.7350 -1.0501
  835MPD2    N112337   0.502   2.464  10.980 -0.0120  0.0618 -0.1573
  835MPD2    H712338   0.448   2.440  11.063  1.4197  1.8855  1.2693
  836MPD2     C12339   0.600   2.327  11.572  0.1342  0.3640  0.4519
  836MPD2    C112340   0.678   2.230  11.640  0.7109  0.1454  0.0316
  836MPD2    C212341   0.653   2.195  11.776  0.1485  0.3184  0.1710
  836MPD2    C312342   0.546   2.255  11.836  0.4536 -0.4023  0.1976
  836MPD2    C412343   0.467   2.346  11.760  0.2635  0.3081 -0.2740
  836MPD2    C512344   0.498   2.383  11.630  0.5007 -0.0114  0.2449
  836MPD2     H12345   0.721   2.130  11.830 -1.8791 -0.2729  2.0012
  836MPD2    H112346   0.378   2.386  11.808  0.3862 -0.1333  0.3119
  836MPD2    H212347   0.628   2.364  11.474 -0.3437  0.3965  0.3289
  836MPD2    H312348   0.432   2.443  11.568  1.0187 -0.0917 -0.3859
  836MPD2     N12349   0.506   2.227  11.971 -0.4176  0.4297 -0.1604
  836MPD2    H512350   0.418   2.271  11.997 -0.3289  1.5471 -1.7324
  836MPD2    N112351   0.776   2.175  11.558 -0.2424 -0.5313  0.0871
  836MPD2    H712352   0.812   2.222  11.475 -1.3507  2.4492  1.2922
  837MPD2     C12353   3.796   1.912  10.323 -0.2830  0.6913 -0.1413
  837MPD2    C112354   3.660   1.932  10.316  0.2896  0.2318  0.3154
  837MPD2    C212355   3.613   2.061  10.298 -0.2742 -0.1376  0.0357
  837MPD2    C312356   3.701   2.165  10.276  0.0298 -0.3953  0.5937
  837MPD2    C412357   3.840   2.149  10.294 -0.1172  0.1903 -0.7032
  837MPD2    C512358   3.885   2.019  10.306  0.6688  0.0098 -0.1499
  837MPD2     H12359   3.506   2.075  10.297  0.0739  2.3397 -1.5800
  837MPD2    H112360   3.909   2.232  10.288  1.8499 -1.3888  0.2053
  837MPD2    H212361   3.834   1.812  10.343  0.4966  0.9370 -0.3961
  837MPD2    H312362   3.992   2.003  10.316  0.6334  0.5448  1.0950
  837MPD2     N12363   3.640   2.290  10.242  0.2553  0.0576  0.5762
  837MPD2    H512364   3.539   2.291  10.229  0.3097 -0.7879  0.1038
  837MPD2    N112365   3.560   1.835  10.322 -0.3847  0.0875  1.0678
  837MPD2    H712366   3.462   1.864  10.324 -0.6695 -0.7417 -0.7374
  838MPD2     C12367   2.318   0.196  11.484 -0.5876  0.3059 -0.1458
  838MPD2    C112368   2.365   0.132  11.598  0.6678 -0.2333 -0.0093
  838MPD2    C212369   2.276   0.039  11.667 -0.4084  0.1228 -0.3179
  838MPD2    C312370   2.152   0.015  11.619  0.4064 -0.1268 -0.3125
  838MPD2    C412371   2.111   0.082  11.501 -0.0509 -0.3767 -0.0852
  838MPD2    C512372   2.189   0.177  11.445 -0.2924  0.1669 -0.1773
  838MPD2     H12373   2.312   4.719  11.751  0.8547  1.2891 -0.0532
  838MPD2    H112374   2.012   0.065  11.463  0.3263 -3.1807  0.2307
  838MPD2    H212375   2.376   0.262  11.420  0.7265  0.9878  1.7569
  838MPD2    H312376   2.141   0.240  11.372 -0.6526 -0.3905 -0.4247
  838MPD2     N12377   2.069   4.664  11.685 -0.5723  0.0510 -0.4866
  838MPD2    H512378   2.088   4.643  11.783  0.8538 -0.7276 -0.9427
  838MPD2    N112379   2.495   0.128  11.646 -0.1281 -0.1970 -0.5361
  838MPD2    H712380   2.502   0.056  11.717 -0.0197  1.4708  1.1456
  839MPD2     C12381   2.235   4.278  11.843  0.4530 -0.5130 -0.2023
  839MPD2    C112382   2.251   4.282  11.704 -0.3778  0.0152 -0.0342
  839MPD2    C212383   2.352   4.354  11.654  0.7285  0.0973  0.2219
  839MPD2    C312384   2.446   4.417  11.743  0.2909 -1.0645 -0.1754
  839MPD2    C412385   2.427   4.412  11.874  0.5103  0.0364 -0.1485
  839MPD2    C512386   2.321   4.339  11.922 -0.2339  0.3531  0.1091
  839MPD2     H12387   2.364   4.379  11.549 -0.7775 -0.5988 -0.1054
  839MPD2    H112388   2.489   4.473  11.938 -0.2517  2.1122 -1.4120
  839MPD2    H212389   2.151   4.225  11.888 -0.0212 -0.3772 -0.9215
  839MPD2    H312390   2.303   4.333  12.029 -1.5800  0.2449 -0.1307
  839MPD2     N12391   2.564   4.495  11.708 -0.6105 -0.1285 -0.0864
  839MPD2    H512392   2.618   4.539  11.781 -2.1276 -0.4161  1.2354
  839MPD2    N112393   2.169   4.211  11.618  0.0668 -0.1279 -0.5331
  839MPD2    H712394   2.211   4.179  11.531  1.9702 -0.6697  0.5845
  840MPD2     C12395   2.222   2.362   9.975  1.0206  0.2526 -0.2060
  840MPD2    C112396   2.175   2.325  10.105  0.3147 -0.1515  0.2472
  840MPD2    C212397   2.274   2.311  10.205 -0.9404  0.7007 -0.2806
  840MPD2    C312398   2.406   2.320  10.166  0.4070 -0.1986  0.2146
  840MPD2    C412399   2.448   2.340  10.036 -0.3019 -0.2776 -0.2309
  840MPD2    C512400   2.354   2.371   9.945 -0.3996  0.6603 -0.0828
  840MPD2     H12401   2.251   2.280  10.306  2.0320 -1.1824 -0.1812
  840MPD2    H112402   2.551   2.339  10.003 -0.9248  1.4644 -2.1683
  840MPD2    H212403   2.153   2.391   9.896 -0.0882 -0.9686  0.3058
  840MPD2    H312404   2.385   2.394   9.843 -2.4223 -0.7911 -1.0270
  840MPD2     N12405   2.507   2.322  10.261  0.3816  0.7051  0.0059
  840MPD2    H512406   2.600   2.341  10.225  0.4003 -1.1944 -0.9385
  840MPD2    N112407   2.037   2.319  10.121 -0.1014 -0.0998  0.3122
  840MPD2    H712408   1.979   2.348  10.043  0.7027  2.2923  0.5816
  841MPD2     C12409   1.677   2.259  14.426  0.1650 -0.4145  0.5472
  841MPD2    C112410   1.728   2.141  14.480  0.0390 -0.4017 -0.6304
  841MPD2    C212411   1.831   2.148  14.572  0.1928  0.2683 -0.2225
  841MPD2    C312412   1.884   2.268  14.600 -0.3984  0.2776  0.0194
  841MPD2    C412413   1.827   2.384  14.550 -0.0764 -0.0717 -0.0920
  841MPD2    C512414   1.726   2.371  14.458 -0.0058  0.0065  0.4437
  841MPD2     H12415   1.890   2.060  14.595  0.1922  0.6558  1.2833
  841MPD2    H112416   1.855   2.483  14.585 -1.3189  0.2871 -0.1325
  841MPD2    H212417   1.595   2.258  14.355  1.2267 -1.0576 -0.6594
  841MPD2    H312418   1.680   2.462  14.422 -1.2011 -1.4437 -1.7205
  841MPD2     N12419   1.995   2.267  14.687  0.3141  0.2464 -0.3981
  841MPD2    H512420   2.014   2.178  14.732 -1.7871  1.3893  2.7283
  841MPD2    N112421   1.680   2.025  14.417  0.5127  0.4026  0.5050
  841MPD2    H712422   1.625   2.037  14.333  1.2946 -1.4846 -0.2773
  842MPD2     C12423   1.969   3.467  17.143 -0.2017 -0.2262 -0.3195
  842MPD2    C112424   1.885   3.361  17.127 -0.3960  0.2678 -0.1912
  842MPD2    C212425   1.755   3.368  17.196  0.2101  0.5960  0.3231
  842MPD2    C312426   1.706   3.494  17.236  0.1797  0.1153  0.3798
  842MPD2    C412427   1.787   3.605  17.231 -0.1778  0.0086  0.5650
  842MPD2    C512428   1.919   3.585  17.199 -0.6412  0.5267 -0.2805
  842MPD2     H12429   1.696   3.277  17.198 -2.6021  2.3979 -0.7946
  842MPD2    H112430   1.773   3.704  17.274  0.2804 -0.1833  1.1659
  842MPD2    H212431   2.066   3.464  17.095  1.3370 -1.2961  2.9203
  842MPD2    H312432   1.978   3.676  17.203  1.3350 -0.8455  1.6707
  842MPD2     N12433   1.569   3.501  17.272 -0.2820 -0.0416  0.2420
  842MPD2    H512434   1.522   3.591  17.265  1.3842  0.8140  0.1116
  842MPD2    N112435   1.921   3.249  17.045  0.0832 -0.1235  0.0668
  842MPD2    H712436   1.990   3.269  16.974  0.2153 -0.3969  0.1193
  843MPD2     C12437   4.410   4.422  17.567  0.3936  0.7079 -0.7956
  843MPD2    C112438   4.460   4.325  17.650 -0.4962 -0.0296  0.5880
  843MPD2    C212439   4.552   4.350  17.746 -0.0386 -0.3924 -0.1378
  843MPD2    C312440   4.586   4.480   0.020  0.0115  0.0463  0.1524
  843MPD2    C412441   4.542   4.581  17.683 -0.2119  0.2535 -1.0924
  843MPD2    C512442   4.461   4.547  17.578 -0.1156  0.5058  0.5374
  843MPD2     H12443   4.589   4.273   0.058  0.8286  1.5115  1.5976
  843MPD2    H112444   4.572   4.683  17.702 -0.9707  0.6683 -2.1270
  843MPD2    H212445   4.342   4.401  17.485 -0.5827 -3.3377  1.0534
  843MPD2    H312446   4.425   4.622  17.509  0.4323  0.1580 -0.1274
  843MPD2     N12447   4.670   4.521   0.130  0.1373 -0.0621 -0.4133
  843MPD2    H512448   4.701   4.617   0.125 -1.2694  0.3800 -0.5607
  843MPD2    N112449   4.415   4.199  17.614 -0.0419 -0.4590  0.0285
  843MPD2    H712450   4.342   4.191  17.544  0.7206 -1.0958 -0.6959
  844MPD2     C12451   3.592   2.364  16.444  0.0754 -0.0973  0.0556
  844MPD2    C112452   3.512   2.474  16.415 -0.0091 -0.6081  0.3414
  844MPD2    C212453   3.494   2.575  16.506 -0.4784 -0.0700  0.4104
  844MPD2    C312454   3.548   2.565  16.634 -0.3548  0.6510 -0.0867
  844MPD2    C412455   3.631   2.456  16.663 -0.4297 -0.6361 -0.2734
  844MPD2    C512456   3.653   2.362  16.568  0.6493 -0.4005 -0.0255
  844MPD2     H12457   3.450   2.668  16.473  1.0702  0.6418  0.3452
  844MPD2    H112458   3.693   2.436  16.750  0.3652  0.6276 -0.5533
  844MPD2    H212459   3.625   2.288  16.375 -0.1573  1.4566 -1.7730
  844MPD2    H312460   3.721   2.279  16.581  0.5643 -0.2771  1.1631
  844MPD2     N12461   3.535   2.669  16.729  0.1772  0.8050 -0.6487
  844MPD2    H512462   3.496   2.759  16.703 -0.6509  1.3917  2.5648
  844MPD2    N112463   3.448   2.480  16.288 -0.1690  0.1884 -0.7811
  844MPD2    H712464   3.456   2.401  16.225  1.4634  0.3330 -0.7568
  845MPD2     C12465   3.514   3.497  16.560 -0.0666  0.2122  0.2789
  845MPD2    C112466   3.508   3.515  16.696  0.4244  0.8278  0.4981
  845MPD2    C212467   3.548   3.409  16.776  0.7051  0.2662 -1.4559
  845MPD2    C312468   3.565   3.281  16.723  0.7603  0.2070 -0.2120
  845MPD2    C412469   3.564   3.274  16.588  0.4370  0.4041  0.0093
  845MPD2    C512470   3.544   3.379  16.509  0.4123  0.1672 -0.5504
  845MPD2     H12471   3.549   3.424  16.883 -1.2688 -0.8465 -1.2876
  845MPD2    H112472   3.579   3.175  16.547  0.5463  1.2077 -1.9113
  845MPD2    H212473   3.503   3.574  16.485 -1.2942 -1.9611 -1.7363
  845MPD2    H312474   3.552   3.379  16.401  1.2395 -2.6628 -0.4792
  845MPD2     N12475   3.590   3.160  16.793  0.5108 -0.5772 -0.2870
  845MPD2    H512476   3.600   3.072  16.744 -1.8786 -0.7625 -0.4634
  845MPD2    N112477   3.479   3.644  16.740  0.3523  0.1958  0.1475
  845MPD2    H712478   3.463   3.710  16.664 -3.3198 -1.2584 -0.3143
  846MPD2     C12479   0.369   3.629  13.666  0.1802 -0.1201  0.1753
  846MPD2    C112480   0.281   3.734  13.640  1.0922 -0.3278 -0.0259
  846MPD2    C212481   0.217   3.795  13.745  0.1399  0.2187  0.0712
  846MPD2    C312482   0.259   3.776  13.876 -0.2199 -0.0317  0.5829
  846MPD2    C412483   0.347   3.674  13.893 -0.1622  0.6277  0.6384
  846MPD2    C512484   0.390   3.596  13.790  0.1115 -0.2950  0.4642
  846MPD2     H12485   0.149   3.878  13.728 -0.2553 -0.0128  0.5231
  846MPD2    H112486   0.389   3.652  13.990  2.3817  3.7499  0.2477
  846MPD2    H212487   0.416   3.572  13.587  0.4316 -1.4232  1.2605
  846MPD2    H312488   0.446   3.505  13.808  0.0842 -0.5116 -0.5433
  846MPD2     N12489   0.207   3.860  13.975 -0.0387  0.4855 -0.8577
  846MPD2    H512490   0.127   3.917  13.952 -0.6739 -0.6139 -1.3719
  846MPD2    N112491   0.259   3.781  13.511 -0.0249  0.0183 -0.1596
  846MPD2    H712492   0.209   3.869  13.503  1.6808  1.0787  0.7864
  847MPD2     C12493   0.463   4.608  13.851  0.0131  1.0853  0.0433
  847MPD2    C112494   0.479   4.696  13.953 -0.7583 -0.1088  0.6077
  847MPD2    C212495   0.474   4.650  14.091  0.4540  0.3944  0.8244
  847MPD2    C312496   0.469   4.519  14.119 -0.1703  0.1837  0.4602
  847MPD2    C412497   0.462   4.434  14.007 -0.2016  0.2944  0.0715
  847MPD2    C512498   0.451   4.476  13.876  0.4920  0.4805  0.3651
  847MPD2     H12499   0.485   4.712  14.179  1.3538 -4.0594  3.8492
  847MPD2    H112500   0.455   4.328  14.027  0.0066  0.1999 -0.3593
  847MPD2    H212501   0.449   4.641  13.749  0.1984  0.6909 -0.1111
  847MPD2    H312502   0.440   4.405  13.796  1.1331  1.7741 -0.8700
  847MPD2     N12503   0.450   4.479  14.253 -0.0798 -0.0007  0.3279
  847MPD2    H512504   0.457   4.556  14.318 -0.3660 -0.8179  1.3179
  847MPD2    N112505   0.498   0.094  13.926 -0.1099 -0.2259 -0.5314
  847MPD2    H712506   0.507   0.121  13.829 -0.0047 -2.6388 -1.1804
  848MPD2     C12507   3.165   3.628  16.540  0.6662  0.3966  0.1315
  848MPD2    C112508   3.070   3.536  16.516  0.1273  0.6190  0.0224
  848MPD2    C212509   2.979   3.554  16.415 -0.5281 -0.3284 -0.2022
  848MPD2    C312510   2.988   3.679  16.339 -0.6745  0.2680  0.1470
  848MPD2    C412511   3.101   3.762  16.362 -0.2159  0.3518 -0.2888
  848MPD2    C512512   3.186   3.735  16.465  0.3295 -0.2926 -0.0787
  848MPD2     H12513   2.901   3.480  16.407 -0.4772 -0.7073  2.8012
  848MPD2    H112514   3.113   3.858  16.313  3.6104  0.6075  1.1964
  848MPD2    H212515   3.227   3.629  16.630 -0.1819  0.4225  0.7147
  848MPD2    H312516   3.257   3.812  16.491 -1.2749  1.0338  0.3982
  848MPD2     N12517   2.889   3.715  16.243  0.1600  0.2641  0.5576
  848MPD2    H512518   2.908   3.805  16.201 -0.6680 -1.4726 -3.5023
  848MPD2    N112519   3.071   3.411  16.582 -0.1116 -0.1575  0.2790
  848MPD2    H712520   3.010   3.338  16.548 -0.6692  0.1864  0.5369
  849MPD2     C12521   2.533   3.411  14.448 -0.6556  0.7409 -0.3469
  849MPD2    C112522   2.450   3.300  14.418 -0.1705  0.2974 -0.0180
  849MPD2    C212523   2.381   3.246  14.527 -0.2290 -0.1388  0.2531
  849MPD2    C312524   2.399   3.295  14.654 -0.5582  0.4040 -0.6201
  849MPD2    C412525   2.493   3.391  14.686  0.3901 -0.4809 -0.3150
  849MPD2    C512526   2.550   3.448  14.580  0.2742 -0.3675 -0.1736
  849MPD2     H12527   2.313   3.165  14.507 -0.1625  0.1900 -1.3106
  849MPD2    H112528   2.516   3.420  14.788  1.0127  0.2503 -0.6604
  849MPD2    H212529   2.600   3.453  14.373 -0.8001 -0.1369 -0.9640
  849MPD2    H312530   2.631   3.514  14.607  1.7033 -2.1703 -0.0502
  849MPD2     N12531   2.341   3.229  14.771  0.8122 -0.1703 -0.6292
  849MPD2    H512532   2.375   3.260  14.862 -0.3682 -0.5001 -0.0656
  849MPD2    N112533   2.443   3.242  14.293 -0.6581  0.0807  0.0048
  849MPD2    H712534   2.377   3.166  14.283  0.8036 -1.0652 -0.8366
  850MPD2     C12535   0.556   0.563  14.762  0.3714  0.8659 -0.3748
  850MPD2    C112536   0.544   0.635  14.875  1.1079 -0.3190 -0.0642
  850MPD2    C212537   0.604   0.759  14.892  0.0644 -0.1952  0.5660
  850MPD2    C312538   0.676   0.813  14.796  0.9171  0.0034  0.2081
  850MPD2    C412539   0.694   0.742  14.681  0.0791 -0.4075 -0.4242
  850MPD2    C512540   0.639   0.617  14.668  0.6113 -0.0131  0.0395
  850MPD2     H12541   0.583   0.813  14.984  2.0621 -1.5188  1.7748
  850MPD2    H112542   0.735   0.786  14.591 -2.0137 -2.2079 -2.2175
  850MPD2    H212543   0.508   0.466  14.757  0.8941  0.7200 -2.3663
  850MPD2    H312544   0.660   0.564  14.576 -2.3363  0.6816 -1.0168
  850MPD2     N12545   0.749   0.937  14.811 -0.1838  0.0658 -0.1093
  850MPD2    H512546   0.799   0.968  14.729 -2.2808  0.3481 -1.2868
  850MPD2    N112547   0.484   0.564  14.979  0.1109  0.1033 -0.4988
  850MPD2    H712548   0.463   0.467  14.958 -0.5902  0.3111 -0.7472
  851MPD2     C12549   0.370   4.556  15.361  0.0050  0.2198 -0.3098
  851MPD2    C112550   0.334   4.647  15.269 -0.5443  0.4703 -0.1151
  851MPD2    C212551   0.239   4.615  15.169 -0.7797 -0.1823 -0.0624
  851MPD2    C312552   0.174   4.487  15.163  0.2603  0.3857  0.1110
  851MPD2    C412553   0.218   4.398  15.261  0.2299  0.2492  0.3125
  851MPD2    C512554   0.318   4.432  15.349  0.0181 -0.6254 -0.0971
  851MPD2     H12555   0.205   4.682  15.091 -0.6044 -0.3417 -0.2758
  851MPD2    H112556   0.159   4.310  15.283  0.4341  0.0538  0.0823
  851MPD2    H212557   0.433   4.578  15.447  0.6770 -0.7529 -0.5600
  851MPD2    H312558   0.341   4.365  15.431 -0.0767 -0.1381  0.3267
  851MPD2     N12559   0.073   4.468  15.068 -0.1311 -0.3266 -0.6088
  851MPD2    H512560   0.037   4.554  15.026 -0.5760 -0.5139 -0.6052
  851MPD2    N112561   0.377   0.036  15.284  0.2583  0.1957 -0.3466
  851MPD2    H712562   0.429   0.059  15.368  2.1555  0.7363 -1.6856
  852MPD2     C12563   4.409   3.823  10.463  0.1405 -0.2641 -0.2458
  852MPD2    C112564   4.485   3.904  10.543  0.6813  0.1782 -0.4787
  852MPD2    C212565   4.531   4.024  10.490  0.5765 -0.1542  0.1805
  852MPD2    C312566   4.527   4.053  10.357 -0.1233 -0.2479  0.0812
  852MPD2    C412567   4.464   3.965  10.273 -0.3472 -0.3009  0.2478
  852MPD2    C512568   4.389   3.862  10.328  0.0793  0.0169 -0.1543
  852MPD2     H12569   4.575   4.098  10.556  2.2249  1.4573 -2.7667
  852MPD2    H112570   4.452   3.985  10.168  1.0988 -1.1369 -0.0750
  852MPD2    H212571   4.352   3.734  10.489  1.7066 -0.4840  2.4943
  852MPD2    H312572   4.331   3.799  10.263 -0.5406  2.1725 -1.6863
  852MPD2     N12573   4.597   4.163  10.311 -1.1377  0.7067 -0.4964
  852MPD2    H512574   4.640   4.215  10.388  1.5129  0.0543 -1.5435
  852MPD2    N112575   4.519   3.865  10.676  0.5593  0.1372  0.2661
  852MPD2    H712576   4.565   3.936  10.732  0.2085 -0.6424  1.5196
  853MPD2     C12577   2.032   3.172  12.138  0.2305 -0.6596  0.1806
  853MPD2    C112578   1.906   3.201  12.097  0.4789  0.0272 -0.5962
  853MPD2    C212579   1.875   3.172  11.963  0.3147 -0.1938  0.3892
  853MPD2    C312580   1.979   3.127  11.877  0.1466  0.2503  0.2512
  853MPD2    C412581   2.105   3.104  11.927  0.4741 -0.4302 -0.4506
  853MPD2    C512582   2.122   3.121  12.056 -0.5375  0.1838  0.4662
  853MPD2     H12583   1.776   3.180  11.921  0.7028 -2.7287 -0.9744
  853MPD2    H112584   2.195   3.083  11.870  0.6368 -2.0905  0.4199
  853MPD2    H212585   2.064   3.183  12.241  1.3411 -1.2857 -0.0972
  853MPD2    H312586   2.220   3.105  12.099 -0.6414  0.6552  0.8833
  853MPD2     N12587   1.954   3.086  11.743 -0.0317  0.1621  0.2019
  853MPD2    H512588   2.034   3.061  11.685  0.7423  0.9783  0.9253
  853MPD2    N112589   1.815   3.247  12.195 -0.1433 -0.2701  1.0479
  853MPD2    H712590   1.856   3.261  12.287 -0.4202  1.8011  0.8578
  854MPD2     C12591   4.227   3.683  12.737 -0.0135  0.1233  0.0404
  854MPD2    C112592   4.167   3.562  12.718  0.0386  0.0664  0.0131
  854MPD2    C212593   4.247   3.448  12.731  0.4029  0.3814 -0.3344
  854MPD2    C312594   4.375   3.454  12.783  1.1495  0.6410  0.5130
  854MPD2    C412595   4.423   3.572  12.822 -0.0406 -0.2735 -0.1604
  854MPD2    C512596   4.354   3.688  12.786 -0.5164  0.6326 -0.2528
  854MPD2     H12597   4.204   3.351  12.706  2.4308 -0.4823 -0.4160
  854MPD2    H112598   4.525   3.585  12.856 -0.7470  1.4141  1.3222
  854MPD2    H212599   4.176   3.777  12.720 -0.9412 -0.3066  0.4727
  854MPD2    H312600   4.395   3.788  12.797 -0.4187  0.6578 -0.8508
  854MPD2     N12601   4.446   3.340  12.815 -0.2355  0.0317  0.0523
  854MPD2    H512602   4.525   3.341  12.879  0.7302 -0.4122 -1.1357
  854MPD2    N112603   4.027   3.560  12.686  0.4572 -0.3538 -0.1379
  854MPD2    H712604   3.983   3.648  12.664 -0.2182 -0.5990  0.2245
  855MPD2     C12605   4.435   3.214  13.584 -0.4587  0.4857  0.7244
  855MPD2    C112606   4.432   3.079  13.557 -0.7657  0.5070 -0.3678
  855MPD2    C212607   4.480   3.042  13.434  0.1331  0.7078  0.7280
  855MPD2    C312608   4.528   3.133  13.339 -0.5843  0.5293 -0.5014
  855MPD2    C412609   4.536   3.264  13.369  0.3880  1.0139 -0.3579
  855MPD2    C512610   4.490   3.300  13.494 -0.4518 -0.3958  0.4785
  855MPD2     H12611   4.478   2.935  13.413  1.1083  1.0039 -0.8508
  855MPD2    H112612   4.578   3.332  13.296  1.2930  1.0759  0.2238
  855MPD2    H212613   4.399   3.260  13.675 -0.4783 -0.4204  1.1746
  855MPD2    H312614   4.507   3.404  13.520 -1.2038 -0.2014  0.1974
  855MPD2     N12615   4.559   3.098  13.208 -0.0893 -0.0237  0.3324
  855MPD2    H512616   4.574   3.172  13.140 -1.9858  0.8036  0.8240
  855MPD2    N112617   4.379   2.985  13.642  0.2175  0.7534  0.5359
  855MPD2    H712618   4.364   2.894  13.601  2.0574  0.6728  0.0388
  856MPD2     C12619   1.273   3.840  13.930  0.6087  0.0862  0.0035
  856MPD2    C112620   1.310   3.969  13.953  0.1100  0.0488  0.9417
  856MPD2    C212621   1.214   4.070  13.948 -0.3749  0.0731 -0.7236
  856MPD2    C312622   1.079   4.039  13.930  0.3956  0.9192 -0.5080
  856MPD2    C412623   1.042   3.908  13.906  0.5611 -0.5690 -0.2627
  856MPD2    C512624   1.141   3.811  13.903  0.6422  0.0771 -0.3107
  856MPD2     H12625   1.252   4.171  13.953  1.7293 -0.7729  0.0967
  856MPD2    H112626   0.941   3.869  13.897  1.3452 -2.3527 -1.4200
  856MPD2    H212627   1.340   3.756  13.915  0.0443 -0.4147  0.2552
  856MPD2    H312628   1.114   3.708  13.881 -0.7498  0.5466 -0.7900
  856MPD2     N12629   0.981   4.135  13.932 -0.0671  0.1513 -0.5749
  856MPD2    H512630   0.889   4.104  13.902 -0.3772  0.6322 -0.1151
  856MPD2    N112631   1.441   4.018  13.958  0.1720  0.2324  0.0920
  856MPD2    H712632   1.454   4.115  13.986 -1.5292  0.5342 -0.1773
  857MPD2     C12633   2.602   1.990  13.441 -0.1881 -0.4488 -0.0934
  857MPD2    C112634   2.615   2.041  13.313  0.0215 -0.4533 -1.2158
  857MPD2    C212635   2.736   2.097  13.273  0.5077  0.8989  0.3378
  857MPD2    C312636   2.851   2.087  13.356 -0.4426 -0.4843  0.4732
  857MPD2    C412637   2.833   2.042  13.486 -0.1823  0.4874  0.2065
  857MPD2    C512638   2.709   1.994  13.532  0.2624 -0.0210 -0.5502
  857MPD2     H12639   2.747   2.129  13.170 -1.7684  0.4976 -0.0207
  857MPD2    H112640   2.914   2.045  13.558 -2.7399 -2.0616  3.1574
  857MPD2    H212641   2.511   1.947  13.481  0.5553 -1.6660  0.2932
  857MPD2    H312642   2.700   1.956  13.633  2.8399  1.2500  0.1610
  857MPD2     N12643   2.972   2.129  13.296 -0.1287  0.3548 -0.3046
  857MPD2    H512644   2.967   2.156  13.199 -2.6211  1.5582  0.1745
  857MPD2    N112645   2.504   2.059  13.221  0.5926  0.8231 -0.2120
  857MPD2    H712646   2.522   2.097  13.129  3.7236  0.0896  0.0932
  858MPD2     C12647   2.881   0.695  16.243 -0.2519 -0.3123 -0.4480
  858MPD2    C112648   2.983   0.620  16.311  0.3425 -0.0646 -0.0164
  858MPD2    C212649   3.058   0.675  16.413 -0.2437  0.2931 -0.0298
  858MPD2    C312650   3.019   0.802  16.462  0.5638  1.0008  0.2674
  858MPD2    C412651   2.924   0.872  16.394 -0.9638  0.0598  0.2266
  858MPD2    C512652   2.865   0.821  16.287 -0.2919 -0.6461 -0.1209
  858MPD2     H12653   3.132   0.617  16.467 -0.1957  0.0391 -0.3703
  858MPD2    H112654   2.897   0.975  16.413  2.5641  0.8323  1.2153
  858MPD2    H212655   2.820   0.658  16.162 -0.7629 -0.5540  0.0459
  858MPD2    H312656   2.799   0.897  16.245  2.1755  1.6626  0.1742
  858MPD2     N12657   3.059   0.868  16.574  0.5252 -0.3996 -0.4374
  858MPD2    H512658   3.010   0.953  16.603  3.4476  1.3083 -0.5146
  858MPD2    N112659   3.008   0.477  16.289  0.0674  0.3756  0.2277
  858MPD2    H712660   3.073   0.427  16.348  0.6159  0.1132 -0.6076
  859MPD2     C12661   2.633   2.737  15.512  0.9232 -0.0349  0.6497
  859MPD2    C112662   2.503   2.770  15.523 -0.5624 -0.2076  0.8238
  859MPD2    C212663   2.405   2.691  15.590 -0.9350 -0.2004 -0.1035
  859MPD2    C312664   2.454   2.570  15.634 -0.2162 -0.1485 -0.1588
  859MPD2    C412665   2.589   2.537  15.622  0.1932  0.3736  0.5132
  859MPD2    C512666   2.679   2.621  15.563 -0.2020 -0.8370 -0.3196
  859MPD2     H12667   2.300   2.717  15.602 -0.7216  0.6744 -0.0920
  859MPD2    H112668   2.628   2.441  15.653 -0.5832  0.3557  1.4521
  859MPD2    H212669   2.707   2.804  15.469  2.7364 -1.8373  0.9545
  859MPD2    H312670   2.783   2.594  15.547  0.1489  1.8774 -2.7177
  859MPD2     N12671   2.378   2.477  15.709 -0.4277 -0.1651 -0.2313
  859MPD2    H512672   2.421   2.387  15.722  0.3052 -0.1003 -2.2331
  859MPD2    N112673   2.463   2.889  15.455 -0.1009 -0.7869  0.1826
  859MPD2    H712674   2.548   2.942  15.437  1.9996 -3.3101  2.5213
  860MPD2     C12675   0.170   3.010  11.305 -0.3142 -0.3199  0.3045
  860MPD2    C112676   0.208   2.996  11.435  0.5219 -0.4461 -0.3671
  860MPD2    C212677   0.117   2.969  11.535 -0.5404 -0.6890  0.2260
  860MPD2    C312678   4.723   2.963  11.505 -0.0097 -0.1528  0.0976
  860MPD2    C412679   4.686   2.969  11.370 -0.0312  0.1586  0.0501
  860MPD2    C512680   0.037   3.002  11.271  0.3735  0.0410  0.0668
  860MPD2     H12681   0.143   2.962  11.640 -0.9269 -2.7409  0.1834
  860MPD2    H112682   4.584   2.956  11.336 -0.3747  0.1807  1.0541
  860MPD2    H212683   0.240   3.035  11.226 -1.1470 -1.5266 -0.8028
  860MPD2    H312684   4.733   3.006  11.172  1.9178  0.4681 -0.5767
  860MPD2     N12685   4.628   2.926  11.605  0.3343  0.6698 -0.2718
  860MPD2    H512686   4.662   2.916  11.700 -2.0907  0.2012  0.5482
  860MPD2    N112687   0.339   3.028  11.485 -0.2253  0.1416 -0.2503
  860MPD2    H712688   0.347   3.021  11.586 -0.9745  1.4753 -0.1055
  861MPD2     C12689   3.245   1.267  11.093  0.6438 -0.1326 -0.5572
  861MPD2    C112690   3.125   1.306  11.153  0.2215 -0.0121 -0.3279
  861MPD2    C212691   3.027   1.371  11.082  0.1500 -0.0946 -0.8896
  861MPD2    C312692   3.041   1.378  10.943  0.3660 -0.3764  0.4053
  861MPD2    C412693   3.152   1.334  10.883  0.2437  1.3125  0.3769
  861MPD2    C512694   3.254   1.288  10.960 -0.1275 -0.2699 -0.1144
  861MPD2     H12695   2.941   1.413  11.132  1.0055 -0.3897  0.8269
  861MPD2    H112696   3.163   1.348  10.776  1.7376  0.5595  0.4199
  861MPD2    H212697   3.328   1.223  11.148  0.4632  0.7477  0.4386
  861MPD2    H312698   3.343   1.249  10.911 -0.8015 -0.6727 -1.0309
  861MPD2     N12699   2.946   1.430  10.863 -0.9233 -0.1509  0.3217
  861MPD2    H512700   2.976   1.462  10.771  0.5430 -1.4133  0.3517
  861MPD2    N112701   3.113   1.308  11.295  0.6114  0.2207  0.1214
  861MPD2    H712702   3.039   1.357  11.344 -0.4742 -0.7360 -0.5679
  862MPD2     C12703   2.596   1.443  10.185  0.0862 -1.1012  0.1857
  862MPD2    C112704   2.630   1.388  10.304 -0.5291 -0.3775  0.1471
  862MPD2    C212705   2.609   1.258  10.325  0.0208  0.9565 -0.3276
  862MPD2    C312706   2.559   1.176  10.226  0.2835  0.0849 -0.3317
  862MPD2    C412707   2.512   1.238  10.110 -0.4067  0.4527 -0.6070
  862MPD2    C512708   2.532   1.371  10.091 -0.7037 -0.0044 -0.1114
  862MPD2     H12709   2.632   1.220  10.424 -0.3289 -0.3307 -0.7400
  862MPD2    H112710   2.463   1.184  10.030  0.1753 -0.5305 -0.2965
  862MPD2    H212711   2.614   1.548  10.169  0.0684 -0.5013  4.1878
  862MPD2    H312712   2.486   1.419  10.005 -1.5494 -1.2648 -0.3662
  862MPD2     N12713   2.535   1.040  10.238 -0.3540 -0.5317  0.9717
  862MPD2    H512714   2.459   0.993  10.191  2.3205 -3.9397  0.0728
  862MPD2    N112715   2.680   1.457  10.415  0.2851 -0.2168 -0.7475
  862MPD2    H712716   2.685   1.396  10.496 -1.9477  0.7676  0.1404
  863MPD2     C12717   1.785   4.287  16.794 -0.1414  0.1988 -0.1822
  863MPD2    C112718   1.760   4.417  16.846 -0.0793  0.1132  0.4819
  863MPD2    C212719   1.822   4.451  16.966 -0.3253  0.1983 -0.1271
  863MPD2    C312720   1.911   4.354  17.025  0.6916 -0.1048 -0.3246
  863MPD2    C412721   1.936   4.233  16.968 -0.7640 -0.6218 -0.1440
  863MPD2    C512722   1.872   4.204  16.851 -0.5103 -0.2603  0.3297
  863MPD2     H12723   1.788   4.543  17.012 -0.8033  0.0679 -0.2222
  863MPD2    H112724   2.015   4.166  17.000 -2.0033 -0.7096  2.6958
  863MPD2    H212725   1.727   4.254  16.709  0.3042 -2.7834  0.6700
  863MPD2    H312726   1.882   4.106  16.807  0.0517 -0.6702  1.3718
  863MPD2     N12727   1.970   4.392  17.149  0.1051 -0.8272 -0.2656
  863MPD2    H512728   1.942   4.480  17.191 -0.9950 -1.5750  0.5531
  863MPD2    N112729   1.673   4.497  16.769 -0.4546  0.1665 -0.2781
  863MPD2    H712730   1.630   4.459  16.685 -0.0170  0.5120 -0.6576
  864MPD2     C12731   2.531   1.149  16.891 -0.0114 -0.3475 -0.5860
  864MPD2    C112732   2.459   1.127  16.776 -0.5874  0.1497  0.0427
  864MPD2    C212733   2.439   1.232  16.687 -0.1380  0.2481 -0.3281
  864MPD2    C312734   2.513   1.352  16.710 -0.3126 -0.5585  0.6309
  864MPD2    C412735   2.599   1.361  16.812 -0.3860 -0.5151  0.1560
  864MPD2    C512736   2.614   1.259  16.901 -0.0433  0.2592 -0.0859
  864MPD2     H12737   2.382   1.224  16.595 -1.9671 -1.6307  0.9960
  864MPD2    H112738   2.659   1.451  16.825  0.1041 -0.9541  1.0074
  864MPD2    H212739   2.551   1.080  16.972 -1.0916 -0.3277 -0.2975
  864MPD2    H312740   2.679   1.270  16.987 -0.8531 -1.2812  0.7349
  864MPD2     N12741   2.511   1.460  16.614  0.0232  0.0606  0.1807
  864MPD2    H512742   2.572   1.539  16.630 -0.6750  0.6317  0.0107
  864MPD2    N112743   2.396   1.004  16.769  0.3200 -0.4619 -0.5375
  864MPD2    H712744   2.405   0.943  16.850 -0.1352  0.0343 -0.1103
  865MPD2     C12745   1.993   1.321  15.847 -0.1935 -0.1003  0.5208
  865MPD2    C112746   2.123   1.329  15.815 -0.8655 -1.1170 -0.1962
  865MPD2    C212747   2.212   1.402  15.887 -1.1898 -0.0361 -0.2578
  865MPD2    C312748   2.165   1.481  15.990  0.4818  0.2422 -0.6019
  865MPD2    C412749   2.032   1.474  16.024  0.4650  0.4370  0.9188
  865MPD2    C512750   1.947   1.398  15.945  0.4516  0.2231  0.1662
  865MPD2     H12751   2.319   1.394  15.871 -0.6706  1.8280  2.2523
  865MPD2    H112752   1.988   1.533  16.103  1.4455  1.5194  0.6682
  865MPD2    H212753   1.913   1.265  15.799 -1.0054  1.0038  0.5886
  865MPD2    H312754   1.841   1.388  15.965  0.5688 -1.4192 -0.0823
  865MPD2     N12755   2.250   1.559  16.073 -0.4488  0.0128  0.1503
  865MPD2    H512756   2.206   1.600  16.155  0.7609  1.3415  0.1389
  865MPD2    N112757   2.167   1.237  15.707  0.1209  0.3912 -0.2205
  865MPD2    H712758   2.106   1.174  15.655 -1.6760  1.4179  0.6741
  866MPD2     C12759   3.671   1.457  11.468 -0.5683 -0.5361  0.1845
  866MPD2    C112760   3.695   1.528  11.353 -0.1575  0.3206 -0.0785
  866MPD2    C212761   3.590   1.575  11.279  0.4768  0.3534  0.0122
  866MPD2    C312762   3.464   1.557  11.321 -0.5642 -0.3146 -0.1602
  866MPD2    C412763   3.441   1.478  11.428 -0.0887 -0.7882  0.2479
  866MPD2    C512764   3.543   1.428  11.502  0.3643 -0.0223 -0.5659
  866MPD2     H12765   3.613   1.626  11.186  0.2537 -2.5219 -1.6124
  866MPD2    H112766   3.339   1.463  11.460 -0.3740  0.0617 -0.2407
  866MPD2    H212767   3.751   1.427  11.534  0.3615 -0.8456 -1.0965
  866MPD2    H312768   3.530   1.377  11.596  3.5758 -1.3436 -0.8557
  866MPD2     N12769   3.351   1.594  11.253  0.2623  0.1397  0.0945
  866MPD2    H512770   3.268   1.581  11.309  0.5712 -2.9759 -0.1671
  866MPD2    N112771   3.832   1.550  11.315  0.1612  0.4898 -0.2688
  866MPD2    H712772   3.905   1.525  11.381 -0.2888  0.1100  0.0775
  867MPD2     C12773   0.694   0.768  16.772 -0.3314  0.0074 -0.0808
  867MPD2    C112774   0.766   0.764  16.891 -0.1187 -0.4072 -0.6708
  867MPD2    C212775   0.707   0.784  17.014 -0.0434 -0.2762  0.4288
  867MPD2    C312776   0.569   0.815  17.025 -0.7661  0.0739  0.0073
  867MPD2    C412777   0.496   0.815  16.907  0.5876 -0.5013 -0.7541
  867MPD2    C512778   0.556   0.788  16.786  0.4494  0.0364  0.2635
  867MPD2     H12779   0.769   0.784  17.103 -0.0568 -0.3932  0.4391
  867MPD2    H112780   0.388   0.825  16.910  0.8515  2.9180 -3.4767
  867MPD2    H212781   0.742   0.751  16.676 -2.3599 -1.8161 -0.7737
  867MPD2    H312782   0.496   0.759  16.701  0.0599  0.2075  0.4788
  867MPD2     N12783   0.491   0.835  17.146  0.1691 -0.2866  0.4146
  867MPD2    H512784   0.394   0.862  17.140  1.3064  3.8536  1.1119
  867MPD2    N112785   0.903   0.737  16.883  0.3782 -0.0054 -0.0654
  867MPD2    H712786   0.934   0.732  16.787 -1.7595  1.6521 -0.8344
  868MPD2     C12787   2.688   0.230  12.719 -0.0342  0.3735  0.4399
  868MPD2    C112788   2.739   0.149  12.817 -0.2199  0.6254  0.1679
  868MPD2    C212789   2.734   0.180  12.953  0.3872 -0.3775  0.0545
  868MPD2    C312790   2.648   0.285  12.992 -0.2122 -0.4816 -0.5596
  868MPD2    C412791   2.597   0.369  12.896  0.6362 -0.1664  1.2435
  868MPD2    C512792   2.614   0.334  12.766  0.3128  0.1557 -0.3744
  868MPD2     H12793   2.781   0.113  13.024 -2.4715 -0.3733  1.9536
  868MPD2    H112794   2.541   0.456  12.928  0.1711 -0.4063  1.0716
  868MPD2    H212795   2.700   0.199  12.616  0.3064 -1.3352  0.9959
  868MPD2    H312796   2.563   0.400  12.696  1.0843  2.3932  1.1814
  868MPD2     N12797   2.634   0.307  13.132  0.4727 -0.0912 -0.2362
  868MPD2    H512798   2.681   0.246  13.199  1.9014  2.0663  0.7123
  868MPD2    N112799   2.812   0.035  12.768  0.2792 -0.0842 -1.1035
  868MPD2    H712800   2.850   0.039  12.674  1.0128  1.9432 -0.7309
  869MPD2     C12801   3.388   3.855   1.018  0.3669 -0.5524  0.6777
  869MPD2    C112802   3.357   3.750   0.927  0.2900  0.4260  0.2701
  869MPD2    C212803   3.460   3.660   0.900  0.0659  0.6519  0.0048
  869MPD2    C312804   3.584   3.667   0.957  0.2281  0.5216 -0.3540
  869MPD2    C412805   3.609   3.774   1.035 -0.9482  0.0389  0.1622
  869MPD2    C512806   3.513   3.864   1.074 -0.5071  0.1523 -0.6917
  869MPD2     H12807   3.443   3.569   0.845 -0.4941 -0.0328  1.3167
  869MPD2    H112808   3.711   3.784   1.072 -0.6635  0.1729 -0.6626
  869MPD2    H212809   3.313   3.929   1.046  0.0281  0.3579 -2.5588
  869MPD2    H312810   3.533   3.937   1.151  0.9558 -1.4516  0.4442
  869MPD2     N12811   3.693   3.583   0.928 -0.1343  0.2583 -0.3261
  869MPD2    H512812   3.772   3.593   0.991 -0.9973  2.5549  0.4096
  869MPD2    N112813   3.221   3.738   0.888 -0.3264 -0.2387  0.2811
  869MPD2    H712814   3.158   3.816   0.903  1.6913  1.5940 -0.7702
  870MPD2     C12815   4.432   1.483   1.559 -0.0785 -0.5766  0.3541
  870MPD2    C112816   4.326   1.427   1.491 -0.7451 -0.2609 -0.7048
  870MPD2    C212817   4.236   1.510   1.419  0.4290 -0.2509 -0.2115
  870MPD2    C312818   4.273   1.645   1.408  0.4326  0.1810 -0.8040
  870MPD2    C412819   4.380   1.701   1.473 -0.1465 -0.4206  0.4023
  870MPD2    C512820   4.462   1.617   1.553  0.2817 -0.4712 -0.1335
  870MPD2     H12821   4.168   1.470   1.345  0.7308  0.9826 -1.1606
  870MPD2    H112822   4.401   1.807   1.464  0.9400 -0.7506 -0.9371
  870MPD2    H212823   4.514   1.422   1.595  1.0455  0.7075 -0.0240
  870MPD2    H312824   4.548   1.652   1.610 -0.9440 -0.3784  1.6862
  870MPD2     N12825   4.189   1.723   1.318  0.2019 -0.1401  0.2070
  870MPD2    H512826   4.101   1.682   1.288  0.6346 -0.6265 -0.4080
  870MPD2    N112827   4.319   1.288   1.489  0.3944  0.0166  0.2211
  870MPD2    H712828   4.395   1.247   1.541  1.3645  2.5726  0.8422
  871MPD2     C12829   0.150   1.254  16.273 -0.5087 -0.1049  0.2263
  871MPD2    C112830   0.100   1.191  16.385  0.0048  0.1509  0.4838
  871MPD2    C212831   0.073   1.058  16.367  0.6091  0.0968 -0.3601
  871MPD2    C312832   0.079   0.989  16.254 -0.1935  0.2016  0.4548
  871MPD2    C412833   0.126   1.053  16.146  0.2791 -0.5784 -0.1625
  871MPD2    C512834   0.159   1.186  16.154 -0.1049 -0.0285  0.5365
  871MPD2     H12835   0.037   0.999  16.451 -1.8839  1.1877 -0.6464
  871MPD2    H112836   0.144   1.005  16.051 -1.9519 -0.6324 -0.5503
  871MPD2    H212837   0.175   1.359  16.279  0.7373 -0.3995  0.0890
  871MPD2    H312838   0.202   1.236  16.068  0.2405 -2.5780 -0.7585
  871MPD2     N12839   0.035   0.852  16.255  1.2017 -0.7827 -0.6133
  871MPD2    H512840   4.717   0.823  16.334  0.8041 -2.0049 -1.3460
  871MPD2    N112841   0.095   1.274  16.496  0.0400  0.0090  0.5512
  871MPD2    H712842   0.125   1.370  16.490  3.3931 -1.1206 -0.8214
  872MPD2     C12843   1.122   3.462  14.061  0.0084 -0.3205  0.4261
  872MPD2    C112844   1.014   3.464  13.972  0.0590 -1.0009 -0.4881
  872MPD2    C212845   0.887   3.490  14.030  0.6493  0.2815 -0.5002
  872MPD2    C312846   0.870   3.491  14.162  0.0787 -0.0107  0.4112
  872MPD2    C412847   0.975   3.472  14.248  0.3694 -1.1697  0.1706
  872MPD2    C512848   1.099   3.471  14.195  0.2425 -0.1589 -0.2742
  872MPD2     H12849   0.805   3.480  13.960  0.7764 -0.5709 -0.5241
  872MPD2    H112850   0.966   3.467  14.356 -0.9880 -2.7454 -0.0072
  872MPD2    H212851   1.223   3.448  14.026  0.0731 -0.2415  0.5780
  872MPD2    H312852   1.180   3.465  14.266 -1.9702 -2.3228  2.0321
  872MPD2     N12853   0.742   3.508  14.218 -0.0098  0.0108  0.3965
  872MPD2    H512854   0.751   3.491  14.318 -2.9390  0.1940  0.6976
  872MPD2    N112855   1.023   3.442  13.836  0.2499 -0.1721 -0.2508
  872MPD2    H712856   0.932   3.451  13.792  0.0113 -0.7653  0.1209
  873MPD2     C12857   1.993   3.791   0.849 -0.7090 -0.6236  0.0775
  873MPD2    C112858   2.110   3.733   0.897 -0.7658 -0.1755  0.0554
  873MPD2    C212859   2.148   3.602   0.856  0.5781  0.5815 -0.1746
  873MPD2    C312860   2.053   3.532   0.775 -0.0274 -0.0284  0.1699
  873MPD2    C412861   1.949   3.601   0.716 -0.5630 -0.4638  0.0306
  873MPD2    C512862   1.917   3.724   0.766  0.3751  0.5112  1.3447
  873MPD2     H12863   2.230   3.556   0.909  0.5430 -1.4972 -1.9027
  873MPD2    H112864   1.867   3.557   0.660 -1.2395 -1.5449  1.8626
  873MPD2    H212865   1.959   3.889   0.878 -2.0459 -1.4987  1.4202
  873MPD2    H312866   1.824   3.766   0.729  0.4591  0.5331  1.1611
  873MPD2     N12867   2.062   3.394   0.741  0.0356  0.6272 -0.3775
  873MPD2    H512868   1.994   3.357   0.675  2.4241 -0.0837 -2.4412
  873MPD2    N112869   2.189   3.814   0.979 -0.1159  0.0872 -0.3576
  873MPD2    H712870   2.153   3.904   1.009  0.1478  0.7709 -2.0958
  874MPD2     C12871   2.166   3.103  16.277  0.0505 -0.3959  0.6904
  874MPD2    C112872   2.163   3.177  16.393 -0.1618  0.0177 -0.4991
  874MPD2    C212873   2.208   3.305  16.386 -0.0028 -0.0321  0.8488
  874MPD2    C312874   2.253   3.355  16.268 -0.1673 -0.4567  0.1705
  874MPD2    C412875   2.257   3.276  16.154 -0.8287 -0.4708  0.1396
  874MPD2    C512876   2.217   3.150  16.160 -0.1947  0.3235 -0.7609
  874MPD2     H12877   2.210   3.361  16.479 -2.3131 -0.6434  1.2723
  874MPD2    H112878   2.303   3.300  16.059  1.6728  0.9288  1.7101
  874MPD2    H212879   2.154   2.995  16.272 -0.3033 -0.2917 -0.7266
  874MPD2    H312880   2.216   3.093  16.068 -3.0595 -1.4875  0.3892
  874MPD2     N12881   2.310   3.484  16.274 -0.1304 -0.3251  0.3205
  874MPD2    H512882   2.332   3.520  16.366  0.3956  0.4734 -0.1164
  874MPD2    N112883   2.123   3.098  16.506 -0.4703  0.2260 -0.9786
  874MPD2    H712884   2.096   3.003  16.483 -1.6309  0.1939  0.4653
  875MPD2     C12885   3.729   1.804  14.888  0.0106 -0.0162  0.7882
  875MPD2    C112886   3.597   1.832  14.917 -0.2471 -0.4761 -0.3996
  875MPD2    C212887   3.575   1.898  15.032 -0.3276 -0.1242  1.1103
  875MPD2    C312888   3.677   1.967  15.098 -0.2090 -0.8540 -0.1432
  875MPD2    C412889   3.807   1.954  15.048  0.9200  0.1237 -0.0958
  875MPD2    C512890   3.829   1.863  14.955  0.4837  0.6243  0.6256
  875MPD2     H12891   3.476   1.911  15.075  0.1454  1.4411  1.7138
  875MPD2    H112892   3.892   2.000  15.098  0.4175 -0.9193  1.7509
  875MPD2    H212893   3.756   1.750  14.799  0.9978 -1.4725  1.9663
  875MPD2    H312894   3.931   1.855  14.920  0.2324  0.0262  0.0422
  875MPD2     N12895   3.666   2.046  15.213  0.3239  0.3903  0.1923
  875MPD2    H512896   3.744   2.105  15.240  0.1591  0.2333  0.9975
  875MPD2    N112897   3.489   1.799  14.832 -0.2758 -0.1923 -0.1754
  875MPD2    H712898   3.400   1.839  14.861 -0.9345  0.6351 -3.4209
  876MPD2     C12899   2.342   3.293  15.730 -0.3423  0.0959  0.0189
  876MPD2    C112900   2.461   3.301  15.790 -0.7396 -0.5310  0.3251
  876MPD2    C212901   2.524   3.188  15.843  0.1339 -0.0592  0.6975
  876MPD2    C312902   2.458   3.066  15.841  0.7640 -0.3915  0.9170
  876MPD2    C412903   2.324   3.064  15.805  0.1196  0.7935  0.1246
  876MPD2    C512904   2.271   3.177  15.744  0.1825  0.4501 -0.5160
  876MPD2     H12905   2.624   3.187  15.884 -0.2810 -1.6819  1.6339
  876MPD2    H112906   2.269   2.971  15.810  0.5630  0.6223  1.9165
  876MPD2    H212907   2.293   3.370  15.671  0.9363  0.1223 -1.0056
  876MPD2    H312908   2.168   3.182  15.711 -0.0165  2.0125  0.3300
  876MPD2     N12909   2.519   2.957  15.900 -0.6554 -0.2640  0.9152
  876MPD2    H512910   2.619   2.965  15.917 -0.5351 -0.0065  0.0494
  876MPD2    N112911   2.523   3.425  15.782 -0.9276 -0.7571  0.1275
  876MPD2    H712912   2.478   3.498  15.727  2.0732 -0.6507 -2.1450
  877MPD2     C12913   2.482   3.649  15.165 -0.8025 -0.5401  0.0884
  877MPD2    C112914   2.611   3.693  15.186 -0.3053 -0.0041  0.0111
  877MPD2    C212915   2.688   3.737  15.082  0.1274 -0.5212 -0.3836
  877MPD2    C312916   2.642   3.725  14.948  0.2908 -0.3277  0.1811
  877MPD2    C412917   2.510   3.683  14.929  0.6557  0.1894  0.1673
  877MPD2    C512918   2.435   3.644  15.034 -0.2288  0.1580 -0.1735
  877MPD2     H12919   2.782   3.784  15.110  1.0470 -1.1309 -2.4248
  877MPD2    H112920   2.470   3.674  14.829 -0.1222 -1.0616  0.5979
  877MPD2    H212921   2.419   3.628  15.250 -0.8550  2.3051  0.7347
  877MPD2    H312922   2.336   3.609  15.008  0.5511 -3.2048  1.2537
  877MPD2     N12923   2.721   3.758  14.829  0.2970  0.1650 -0.0205
  877MPD2    H512924   2.666   3.786  14.748 -0.2094 -2.4712 -0.5726
  877MPD2    N112925   2.665   3.696  15.318 -0.4414  0.2809  0.1173
  877MPD2    H712926   2.758   3.737  15.328  0.4032 -1.3852 -0.8877
  878MPD2     C12927   2.869   2.999  13.399 -0.4541  0.2085  0.0402
  878MPD2    C112928   2.793   3.105  13.421 -0.4421 -0.3297 -0.0353
  878MPD2    C212929   2.738   3.131  13.543 -0.7376  0.1453 -0.5654
  878MPD2    C312930   2.746   3.037  13.647  0.3714  0.3612 -0.5272
  878MPD2    C412931   2.819   2.925  13.616  0.8692  0.4044 -0.5087
  878MPD2    C512932   2.874   2.902  13.495  0.0151 -0.3912 -0.4676
  878MPD2     H12933   2.676   3.219  13.559  0.6801  0.7671  1.6736
  878MPD2    H112934   2.839   2.857  13.698 -1.8724  1.4438  1.0227
  878MPD2    H212935   2.913   2.972  13.304 -1.1383 -0.4276 -0.0905
  878MPD2    H312936   2.939   2.817  13.475 -0.6436 -0.9212 -0.3723
  878MPD2     N12937   2.675   3.065  13.766  0.0100  0.2647 -0.2061
  878MPD2    H512938   2.632   3.157  13.768 -1.2953 -0.3531  0.1614
  878MPD2    N112939   2.760   3.189  13.312 -0.6058 -0.1217 -0.2377
  878MPD2    H712940   2.786   3.153  13.221 -0.1085 -2.0616  0.6796
  879MPD2     C12941   1.884   3.935  17.091  0.2962 -0.1526  0.6519
  879MPD2    C112942   2.010   3.892  17.048 -0.6549  0.6897 -0.2751
  879MPD2    C212943   2.019   3.806  16.936  0.8775 -0.0262  0.3336
  879MPD2    C312944   1.896   3.753  16.891  0.7037 -0.2687  0.2906
  879MPD2    C412945   1.779   3.789  16.947  0.5336  0.3693  0.0529
  879MPD2    C512946   1.774   3.875  17.045 -1.2811 -0.6212  0.2241
  879MPD2     H12947   2.117   3.777  16.898 -0.3760 -1.3282 -1.9234
  879MPD2    H112948   1.683   3.747  16.919  0.3674  0.7374  0.0783
  879MPD2    H212949   1.867   4.011  17.167 -1.4212 -0.2756  0.3774
  879MPD2    H312950   1.677   3.905  17.083 -1.4862 -2.6729  1.3061
  879MPD2     N12951   1.889   3.662  16.785  0.2429 -0.1457  0.1443
  879MPD2    H512952   1.796   3.628  16.762 -0.4983  1.6759  0.4753
  879MPD2    N112953   2.124   3.953  17.112 -0.6023  1.1445  0.1471
  879MPD2    H712954   2.118   4.036  17.170  0.6155 -0.1860  2.1761
  880MPD2     C12955   3.552   1.013  17.554  0.1369  0.1978  0.5380
  880MPD2    C112956   3.572   1.021  17.690  0.0597 -0.1000  0.5556
  880MPD2    C212957   3.574   0.911   0.015 -0.4494 -0.5111 -0.1610
  880MPD2    C312958   3.558   0.781  17.722 -0.0476  0.0272  0.1015
  880MPD2    C412959   3.533   0.776  17.588  0.3751  0.5484 -0.0711
  880MPD2    C512960   3.533   0.885  17.506  0.4502 -0.3449  0.2952
  880MPD2     H12961   3.581   0.918   0.123  1.3497  1.0191 -0.3682
  880MPD2    H112962   3.512   0.684  17.535  0.9172 -0.7138  1.8973
  880MPD2    H212963   3.527   1.098  17.491  1.2047 -0.9481 -1.4533
  880MPD2    H312964   3.507   0.869  17.402  1.2216  0.7977 -0.0732
  880MPD2     N12965   3.549   0.675   0.053  0.1132  0.1827 -0.1546
  880MPD2    H512966   3.564   0.700   0.150 -1.4351  2.4162 -0.4888
  880MPD2    N112967   3.604   1.151  17.737  0.0946  0.3504  0.3026
  880MPD2    H712968   3.600   1.224  17.667  0.0090 -0.2804 -0.3402
  881MPD2     C12969   3.765   2.118  17.542  0.2199 -0.4794 -0.1000
  881MPD2    C112970   3.821   1.999  17.496  0.6388 -0.3223 -0.0461
  881MPD2    C212971   3.808   1.888  17.575 -0.1195  0.2160 -0.2496
  881MPD2    C312972   3.741   1.889  17.696 -0.8128  0.0318  0.4863
  881MPD2    C412973   3.682   2.010  17.744 -0.3126  0.0235  0.2693
  881MPD2    C512974   3.688   2.117  17.657 -0.3466  0.6691 -0.0920
  881MPD2     H12975   3.847   1.795  17.537 -1.3260 -0.9301  1.3360
  881MPD2    H112976   3.627   2.018   0.082 -1.2558 -1.7752 -0.1442
  881MPD2    H212977   3.755   2.206  17.479  1.6742 -0.5992 -0.5115
  881MPD2    H312978   3.643   2.214  17.676 -1.1767 -0.0919  1.8979
  881MPD2     N12979   3.719   1.774   0.029  0.0311  0.0345 -0.3017
  881MPD2    H512980   3.675   1.783   0.121 -0.8094 -2.9254 -0.3889
  881MPD2    N112981   3.859   1.994  17.360 -0.3638  0.0161  0.3637
  881MPD2    H712982   3.878   2.083  17.315  0.7206  0.1247  1.0425
  882MPD2     C12983   2.630   3.899  14.147 -0.4906 -0.1282 -0.8846
  882MPD2    C112984   2.579   3.864  14.274 -0.4083 -0.7665 -0.8873
  882MPD2    C212985   2.439   3.876  14.291  0.6160  0.8269  0.7780
  882MPD2    C312986   2.366   3.933  14.183 -0.4971  0.4880 -0.4168
  882MPD2    C412987   2.417   3.955  14.055 -0.2844  0.4088  0.2993
  882MPD2    C512988   2.557   3.939  14.038 -0.3780  0.0971  0.0421
  882MPD2     H12989   2.401   3.840  14.386 -0.8962  0.4003  0.0095
  882MPD2    H112990   2.348   3.981  13.976 -1.5840 -0.9280  0.9816
  882MPD2    H212991   2.739   3.897  14.141 -0.4308  0.7008  0.0480
  882MPD2    H312992   2.610   3.950  13.945  0.8637 -0.4623  0.6792
  882MPD2     N12993   2.227   3.940  14.193  1.1396 -0.8850  0.0163
  882MPD2    H512994   2.175   3.960  14.108  4.3115 -0.9610 -1.9184
  882MPD2    N112995   2.671   3.825  14.381  0.2606  0.2305  0.0446
  882MPD2    H712996   2.627   3.819  14.473  1.7693 -0.6679  0.7022
  883MPD2     C12997   4.075   3.444  16.098 -0.4483  1.2493 -0.2340
  883MPD2    C112998   4.101   3.579  16.091 -0.0693 -0.6475 -0.5697
  883MPD2    C212999   4.162   3.640  16.200  0.3569 -0.0046 -0.0031
  883MPD2    C313000   4.186   3.574  16.322 -0.1500  0.1988  0.3841
  883MPD2    C413001   4.154   3.444  16.323 -0.4827 -0.3796 -0.1061
  883MPD2    C513002   4.101   3.378  16.214 -0.3472 -0.2727  0.3338
  883MPD2     H13003   4.194   3.744  16.193  1.2341 -0.2681  0.1374
  883MPD2    H113004   4.178   3.386  16.411  0.9665 -0.1620 -0.3654
  883MPD2    H213005   4.022   3.388  16.021  2.9272 -0.3651 -1.3755
  883MPD2    H313006   4.088   3.270  16.213 -0.3034 -0.2907  2.1611
  883MPD2     N13007   4.273   3.638  16.417 -0.7850 -0.4272 -0.0479
  883MPD2    H513008   4.308   3.728  16.385  0.4113 -0.3787  1.4271
  883MPD2    N113009   4.060   3.663  15.986  0.4139 -0.1130 -0.1375
  883MPD2    H713010   4.076   3.762  16.004  2.0267 -0.2790 -0.6410
  884MPD2     C13011   1.152   4.264  15.096 -0.2572  0.2654 -0.5786
  884MPD2    C113012   1.167   4.368  15.007 -0.4976  0.1467 -0.5661
  884MPD2    C213013   1.085   4.477  15.029  0.3705 -0.0737 -0.1441
  884MPD2    C313014   0.983   4.478  15.119 -0.1631  0.7708 -0.1898
  884MPD2    C413015   0.965   4.368  15.200 -0.2015  0.1695 -0.5749
  884MPD2    C513016   1.047   4.262  15.184 -0.1149  0.2009  0.2225
  884MPD2     H13017   1.094   4.561  14.962 -1.3349  0.0884 -0.1846
  884MPD2    H113018   0.894   4.355  15.281  1.4217  4.0853  1.4854
  884MPD2    H213019   1.223   4.183  15.109 -1.4832 -0.8782 -0.9799
  884MPD2    H313020   1.038   4.173  15.245 -0.1385  0.9008  1.2382
  884MPD2     N13021   0.904   4.593  15.123 -0.4996  0.0498 -0.3334
  884MPD2    H513022   0.922   4.676  15.067 -0.1234 -1.0066 -1.7765
  884MPD2    N113023   1.272   4.381  14.905 -0.1282 -0.0330  1.0279
  884MPD2    H713024   1.274   4.466  14.850  1.2908 -1.3010 -0.8688
  885MPD2     C13025   4.107   4.122   0.022 -0.1249 -0.2197 -0.6363
  885MPD2    C113026   4.154   4.248   0.069  0.0796 -0.5323 -0.1662
  885MPD2    C213027   4.127   4.363  17.747  0.0454  0.4815 -0.0063
  885MPD2    C313028   4.068   4.348  17.625 -0.3160 -0.3440 -0.1188
  885MPD2    C413029   4.037   4.221  17.571 -1.3771  0.5690  0.3531
  885MPD2    C513030   4.056   4.109  17.647 -0.2668 -0.2844 -0.6529
  885MPD2     H13031   4.156   4.462   0.026 -2.3848  1.7349 -1.6466
  885MPD2    H113032   3.984   4.206  17.477 -0.1313 -0.3338 -0.2108
  885MPD2    H213033   4.138   4.029   0.069 -0.9615 -1.2229 -2.0607
  885MPD2    H313034   4.034   4.009  17.611  2.8731 -1.6543  1.3172
  885MPD2     N13035   4.064   4.467  17.544 -0.4722  0.4297  0.1036
  885MPD2    H513036   4.073   4.556  17.592  3.8267  0.4742 -0.8122
  885MPD2    N113037   4.219   4.246   0.199 -0.2416  0.1929 -0.0671
  885MPD2    H713038   4.227   4.162   0.255  1.7368  1.7286  1.9942
  886MPD2     C13039   1.181   2.637  15.139 -0.2546 -0.0710 -0.0238
  886MPD2    C113040   1.245   2.724  15.233  0.2581 -0.0902  0.0671
  886MPD2    C213041   1.256   2.856  15.195 -0.0541 -0.0908 -0.2655
  886MPD2    C313042   1.223   2.901  15.074  0.6029 -0.9192 -0.0827
  886MPD2    C413043   1.168   2.809  14.983 -0.0643  0.9013  0.1996
  886MPD2    C513044   1.155   2.675  15.009  0.0200 -0.4750 -0.6676
  886MPD2     H13045   1.303   2.924  15.265 -0.4411  1.2173 -1.2870
  886MPD2    H113046   1.142   2.837  14.882 -2.3774  0.6132  0.7198
  886MPD2    H213047   1.190   2.535  15.174 -2.4627 -0.5191 -0.7494
  886MPD2    H313048   1.118   2.603  14.937  0.6195  0.3521 -1.7928
  886MPD2     N13049   1.241   3.038  15.035 -0.3353  0.3344  0.1009
  886MPD2    H513050   1.213   3.062  14.940 -0.9092  2.2419  0.7738
  886MPD2    N113051   1.294   2.687  15.355  0.2047  0.5645  0.4309
  886MPD2    H713052   1.331   2.762  15.413  1.9696 -0.9284  1.2491
  887MPD2     C13053   1.904   2.879  15.630  0.1148 -0.0403  0.1648
  887MPD2    C113054   1.776   2.919  15.600 -0.6701  0.1690  0.4228
  887MPD2    C213055   1.762   3.048  15.561 -0.1140 -0.1983 -0.9214
  887MPD2    C313056   1.874   3.122  15.512  0.0162 -0.8139 -0.2545
  887MPD2    C413057   2.003   3.079  15.524 -0.1238 -0.5638  0.5760
  887MPD2    C513058   2.013   2.955  15.584 -0.1863  0.2428  0.5140
  887MPD2     H13059   1.661   3.087  15.562 -0.3804 -0.8596 -1.6127
  887MPD2    H113060   2.091   3.136  15.495  0.3967 -0.3276  2.5982
  887MPD2    H213061   1.924   2.791  15.690  0.1675 -0.2223 -0.1155
  887MPD2    H313062   2.114   2.917  15.599 -1.2966 -2.8601  0.0715
  887MPD2     N13063   1.838   3.253  15.461  0.0731 -1.2039 -0.0307
  887MPD2    H513064   1.739   3.275  15.451  0.0735 -0.2706  1.9372
  887MPD2    N113065   1.658   2.844  15.620 -0.4367 -0.1207 -0.0032
  887MPD2    H713066   1.573   2.895  15.597 -0.6365 -0.1463  0.6746
  888MPD2     C13067   3.897   3.526  15.433  0.0137  0.9328  0.2583
  888MPD2    C113068   3.823   3.478  15.328 -0.2700  0.1503  0.2723
  888MPD2    C213069   3.801   3.561  15.218  1.0804 -0.7487  0.5427
  888MPD2    C313070   3.876   3.678  15.200  0.1708 -0.2798 -0.5834
  888MPD2    C413071   3.971   3.711  15.293 -0.1121 -0.0033 -0.0712
  888MPD2    C513072   3.978   3.632  15.410 -0.3681 -0.3206  0.5796
  888MPD2     H13073   3.737   3.542  15.133  0.3466  0.0435  0.9127
  888MPD2    H113074   4.033   3.799  15.287  0.9982 -0.8941 -1.6284
  888MPD2    H213075   3.912   3.457  15.515 -1.6235 -0.5104 -0.6718
  888MPD2    H313076   4.039   3.669  15.491  0.9793 -0.5393 -0.3354
  888MPD2     N13077   3.847   3.747  15.083 -0.2658  0.0473 -0.0127
  888MPD2    H513078   3.777   3.704  15.023  0.8041  0.2409 -1.3975
  888MPD2    N113079   3.767   3.355  15.346 -0.2670 -0.1205 -0.1372
  888MPD2    H713080   3.790   3.316  15.438  2.6368  0.2468 -0.7118
  889MPD2     C13081   3.066   2.520  12.790 -0.1700 -0.1960  0.7681
  889MPD2    C113082   3.150   2.548  12.892 -0.3338  0.2234  0.2722
  889MPD2    C213083   3.145   2.675  12.950  0.5765 -0.5196 -0.1733
  889MPD2    C313084   3.080   2.775  12.884 -0.6398  0.1607  0.7839
  889MPD2    C413085   3.015   2.747  12.768 -0.0145  0.0899  0.1039
  889MPD2    C513086   2.999   2.617  12.728 -0.5333  0.2598 -0.0233
  889MPD2     H13087   3.214   2.703  13.029  0.3277  1.3552 -0.6219
  889MPD2    H113088   2.958   2.814  12.705  0.2104 -2.2075 -2.5377
  889MPD2    H213089   3.053   2.421  12.748  0.3252  0.2924 -0.5379
  889MPD2    H313090   2.939   2.591  12.642 -0.2971 -0.6233  0.0754
  889MPD2     N13091   3.088   2.908  12.929 -0.1513 -0.6703 -0.5392
  889MPD2    H513092   3.138   2.919  13.017 -1.0056 -1.4480  0.0411
  889MPD2    N113093   3.207   2.445  12.979 -0.3238  0.1435  0.0316
  889MPD2    H713094   3.259   2.479  13.059 -0.0886  0.2294 -0.1571
  890MPD2     C13095   2.600   4.222  14.264 -0.1817  0.2179  0.4423
  890MPD2    C113096   2.734   4.242  14.294 -0.1955  1.2093  0.6003
  890MPD2    C213097   2.775   4.197  14.421 -0.3944  0.1306 -0.4378
  890MPD2    C313098   2.686   4.149  14.522  0.2778 -0.8293 -0.3044
  890MPD2    C413099   2.549   4.149  14.487  0.3670  0.1147 -0.5420
  890MPD2    C513100   2.512   4.184  14.356  0.5521 -0.7982  0.5039
  890MPD2     H13101   2.873   4.220  14.462 -0.2928  0.7995 -1.0449
  890MPD2    H113102   2.478   4.119  14.563  1.3546  0.7736  0.6557
  890MPD2    H213103   2.577   4.221  14.159  1.9917 -1.6364 -0.0252
  890MPD2    H313104   2.409   4.167  14.325  0.5931 -0.2744  0.0824
  890MPD2     N13105   2.738   4.148  14.654  0.3891 -0.3876 -0.0306
  890MPD2    H513106   2.835   4.174  14.667 -0.1392 -0.3208  3.8452
  890MPD2    N113107   2.815   4.301  14.199 -0.4104 -0.5145  0.2174
  890MPD2    H713108   2.773   4.340  14.115  0.5467 -1.6172 -0.7827
  891MPD2     C13109   0.596   3.133  16.405  0.6531  0.1209  1.0327
  891MPD2    C113110   0.516   3.149  16.518 -0.2499 -0.1370 -0.1140
  891MPD2    C213111   0.575   3.133  16.644 -0.1393 -0.7840  0.7185
  891MPD2    C313112   0.706   3.085  16.657  0.5897  0.4024 -0.4629
  891MPD2    C413113   0.783   3.073  16.548 -0.4015  0.3834 -0.4181
  891MPD2    C513114   0.725   3.091  16.422 -0.4324 -0.1551  0.4430
  891MPD2     H13115   0.521   3.160  16.734 -0.9016  0.9519 -0.2677
  891MPD2    H113116   0.884   3.034  16.544  0.4202  2.6727 -1.9374
  891MPD2    H213117   0.559   3.141  16.303 -0.4285 -0.6771  1.3608
  891MPD2    H313118   0.799   3.083  16.343  0.7534  1.9582  1.3293
  891MPD2     N13119   0.753   3.064  16.788  0.3923 -0.0863 -0.2518
  891MPD2    H513120   0.703   3.084  16.874  0.0232  2.0086 -0.9358
  891MPD2    N113121   0.384   3.188  16.499 -0.4844  0.2760  0.5604
  891MPD2    H713122   0.359   3.205  16.402 -0.2193 -4.0087 -0.2362
  892MPD2     C13123   1.635   3.799  15.012 -0.4450  0.2880 -0.5301
  892MPD2    C113124   1.547   3.828  14.910 -0.9499  0.2384  0.1049
  892MPD2    C213125   1.599   3.865  14.789 -0.7289  0.5964  0.6998
  892MPD2    C313126   1.733   3.885  14.764  0.5668  0.3344 -0.1172
  892MPD2    C413127   1.816   3.863  14.865  0.6758  0.2750  0.0927
  892MPD2    C513128   1.768   3.819  14.985 -0.0984 -0.7948  0.7162
  892MPD2     H13129   1.529   3.884  14.708  0.5235  0.5313 -0.4023
  892MPD2    H113130   1.924   3.870  14.859  0.5741  0.4838 -1.6596
  892MPD2    H213131   1.606   3.750  15.105 -0.1406  0.0840 -0.5421
  892MPD2    H313132   1.844   3.794  15.059  0.7214  0.2337  0.2186
  892MPD2     N13133   1.790   3.921  14.635 -0.0556 -0.6768 -0.0471
  892MPD2    H513134   1.890   3.923  14.616 -0.3059 -1.7986 -1.4946
  892MPD2    N113135   1.407   3.837  14.934  0.3210 -0.2375  0.1781
  892MPD2    H713136   1.356   3.871  14.852 -0.0712  0.7220  0.8317
  893MPD2     C13137   3.206   3.061   1.515  0.5740  0.1104  0.0316
  893MPD2    C113138   3.136   2.995   1.415  0.4352 -0.0206 -0.3882
  893MPD2    C213139   3.006   2.955   1.435 -0.4197  0.0233 -0.2161
  893MPD2    C313140   2.935   3.017   1.535  0.1970 -0.7107  0.5342
  893MPD2    C413141   3.002   3.099   1.628 -0.0071 -0.7580  0.0505
  893MPD2    C513142   3.137   3.115   1.619 -0.1276 -0.1847  0.0445
  893MPD2     H13143   2.954   2.892   1.363  0.3218 -1.1634  0.2752
  893MPD2    H113144   2.942   3.145   1.706 -1.7228 -1.5436 -0.8088
  893MPD2    H213145   3.313   3.075   1.510  1.0035 -2.9504  1.2343
  893MPD2    H313146   3.190   3.186   1.680  0.9351  0.5335 -1.7433
  893MPD2     N13147   2.799   2.986   1.557 -0.8452  0.5862 -0.0459
  893MPD2    H513148   2.751   3.040   1.628  1.3966  1.7671  0.5602
  893MPD2    N113149   3.218   2.956   1.305 -0.3590  0.3292 -0.1311
  893MPD2    H713150   3.318   2.975   1.309 -0.2218  0.2754 -3.3508
  894MPD2     C13151   0.991   4.479   1.111 -0.4737  0.2055  0.2118
  894MPD2    C113152   0.900   4.522   1.207 -0.7252  0.1948 -0.6143
  894MPD2    C213153   0.900   4.651   1.249 -0.1580  0.2345 -0.3008
  894MPD2    C313154   1.009   4.728   1.216  0.3246  0.5637 -0.6292
  894MPD2    C413155   1.092   4.689   1.110  0.6353  0.3321  0.2337
  894MPD2    C513156   1.084   4.561   1.062  0.0006  0.4615  0.2539
  894MPD2     H13157   0.825   4.693   1.316 -0.5846 -0.2325 -0.4812
  894MPD2    H113158   1.162   0.017   1.062 -0.7780  1.5029 -0.1908
  894MPD2    H213159   0.980   4.386   1.056  0.9504 -1.2610  2.4381
  894MPD2    H313160   1.159   4.516   0.998  0.2244 -0.1183  0.9254
  894MPD2     N13161   1.005   0.128   1.245 -0.9166 -0.3280  0.3721
  894MPD2    H513162   0.925   0.154   1.301 -0.4006 -3.4677  2.5800
  894MPD2    N113163   0.806   4.427   1.256  0.5816  0.4462  0.3463
  894MPD2    H713164   0.737   4.464   1.320  1.6161  0.4317  1.4713
  895MPD2     C13165   1.126   2.918  13.418  0.1378  0.1336  0.6144
  895MPD2    C113166   1.059   2.844  13.510 -0.2406 -0.2415  0.0688
  895MPD2    C213167   1.128   2.775  13.602 -0.1007  0.4292 -0.5813
  895MPD2    C313168   1.267   2.765  13.588 -0.2738 -0.5668 -0.0948
  895MPD2    C413169   1.335   2.839  13.497 -0.0912 -0.3287 -0.3672
  895MPD2    C513170   1.261   2.911  13.407  0.3440  0.3917  0.6172
  895MPD2     H13171   1.077   2.721  13.681  0.9507 -0.8697 -0.8080
  895MPD2    H113172   1.444   2.836  13.492 -0.0531  0.9134 -0.4656
  895MPD2    H213173   1.074   2.977  13.344  1.0072  0.6576  0.4130
  895MPD2    H313174   1.309   2.958  13.321  0.3784 -3.7194 -1.6351
  895MPD2     N13175   1.355   2.693  13.677 -0.3384  0.2270  0.7721
  895MPD2    H513176   1.453   2.718  13.669 -0.6559  1.1532 -0.2373
  895MPD2    N113177   0.916   2.835  13.514 -0.1932  0.1156 -0.1124
  895MPD2    H713178   0.881   2.767  13.581  2.6226 -2.5890 -1.3935
  896MPD2     C13179   3.144   1.440   1.300  0.1762  0.3942 -0.4092
  896MPD2    C113180   3.099   1.379   1.190  0.0238  0.3436  0.5184
  896MPD2    C213181   2.964   1.351   1.178  0.6298  0.0718 -0.4263
  896MPD2    C313182   2.877   1.399   1.278  0.6791 -0.2077 -0.1717
  896MPD2    C413183   2.924   1.476   1.378  0.1758  0.1635 -0.3849
  896MPD2    C513184   3.056   1.503   1.385 -0.6906  0.6675 -0.1149
  896MPD2     H13185   2.924   1.293   1.097 -1.2075 -0.5312  0.9153
  896MPD2    H113186   2.867   1.515   1.461  0.9327  1.7479 -0.6163
  896MPD2    H213187   3.249   1.467   1.302  0.5104 -1.0633  1.3960
  896MPD2    H313188   3.096   1.569   1.461 -1.3061  2.0216 -0.9644
  896MPD2     N13189   2.737   1.372   1.265  0.0334 -0.1498 -0.3088
  896MPD2    H513190   2.713   1.302   1.196  2.2474  0.4715 -1.7016
  896MPD2    N113191   3.196   1.314   1.104  0.4074 -0.3888  0.5215
  896MPD2    H713192   3.294   1.325   1.128  0.5373 -0.9975  0.2831
  897MPD2     C13193   4.160   2.687  10.671 -0.3236 -0.2881 -1.2466
  897MPD2    C113194   4.085   2.673  10.557 -0.4358  0.7840  0.1388
  897MPD2    C213195   4.009   2.559  10.541 -0.2675  0.3597 -0.6032
  897MPD2    C313196   3.990   2.470  10.639 -0.5680 -0.1506 -0.0312
  897MPD2    C413197   4.057   2.484  10.761 -0.2332 -0.4665 -0.8708
  897MPD2    C513198   4.152   2.588  10.771 -0.1412 -0.2028  0.3417
  897MPD2     H13199   3.943   2.539  10.458  0.3665 -0.8281 -0.8199
  897MPD2    H113200   4.026   2.435  10.853 -1.6399  1.9267 -0.0838
  897MPD2    H213201   4.224   2.774  10.682 -1.6435  0.4849  0.2726
  897MPD2    H313202   4.199   2.607  10.867 -0.7731  3.1002  0.0214
  897MPD2     N13203   3.887   2.381  10.618 -0.1406 -0.7610 -0.3255
  897MPD2    H513204   3.846   2.372  10.526 -1.7254  1.6997  0.1320
  897MPD2    N113205   4.078   2.787  10.477  0.2821  0.5984  1.0295
  897MPD2    H713206   4.147   2.861  10.491  0.9334 -0.4108  3.1244
  898MPD2     C13207   0.620   3.406   0.047  0.2042  0.1892 -0.5118
  898MPD2    C113208   0.752   3.452   0.011  0.0189  0.4332 -0.8750
  898MPD2    C213209   0.763   3.567  17.683  0.3179  0.2915  0.2836
  898MPD2    C313210   0.654   3.631  17.644  0.7856  0.8364  1.3598
  898MPD2    C413211   0.531   3.589  17.672  0.1609  0.6906 -0.3169
  898MPD2    C513212   0.511   3.484   0.007  0.1608  0.4007  0.8360
  898MPD2     H13213   0.865   3.598  17.662  0.3905  1.1009  1.8243
  898MPD2    H113214   0.450   3.637  17.618 -0.7835 -0.9974 -0.3931
  898MPD2    H213215   0.601   3.321   0.111  1.8205  0.5691  0.4802
  898MPD2    H313216   0.409   3.449   0.021  0.4556 -1.1114 -0.8069
  898MPD2     N13217   0.673   3.751  17.570  0.3982  0.1573  0.0616
  898MPD2    H513218   0.767   3.774  17.537 -0.1140 -2.4252 -3.2062
  898MPD2    N113219   0.869   3.391   0.063  0.0533 -0.4051 -0.6334
  898MPD2    H713220   0.952   3.445   0.041 -0.6667  0.5459 -1.0258
  899MPD2     C13221   2.263   4.276   0.256  0.1238 -0.4551  0.2682
  899MPD2    C113222   2.155   4.233   0.180 -0.0345 -0.2350 -0.1074
  899MPD2    C213223   2.053   4.157   0.238 -0.1170 -0.2191  1.2236
  899MPD2    C313224   2.065   4.121   0.366  0.5841 -0.2302  0.2372
  899MPD2    C413225   2.181   4.154   0.436  0.8426 -0.1907 -0.2668
  899MPD2    C513226   2.277   4.230   0.386  0.0779 -0.3862 -0.0656
  899MPD2     H13227   1.967   4.130   0.178  1.0475 -0.8179 -0.1805
  899MPD2    H113228   2.204   4.111   0.533  1.8677  1.5680  0.2629
  899MPD2    H213229   2.344   4.337   0.218 -0.1930 -0.6818 -0.7829
  899MPD2    H313230   2.375   4.239   0.431  0.3417  1.6236 -1.0403
  899MPD2     N13231   1.955   4.063   0.424 -0.4212 -1.0833  0.4089
  899MPD2    H513232   1.887   4.025   0.359 -0.7579  1.0254 -0.4726
  899MPD2    N113233   2.153   4.279   0.043  0.3452  0.7114 -0.3035
  899MPD2    H713234   2.225   4.343   0.010 -0.8401  0.5925 -3.0315
  900MPD2     C13235   1.849   0.981  12.210 -0.9436  0.1179 -0.1311
  900MPD2    C113236   1.741   0.899  12.191  0.1256 -0.3762  0.3257
  900MPD2    C213237   1.666   0.907  12.079  0.4799 -0.1535 -0.2006
  900MPD2    C313238   1.692   1.006  11.992  0.0387 -0.5158  0.3730
  900MPD2    C413239   1.805   1.086  12.000 -0.2249 -0.4844 -0.3603
  900MPD2    C513240   1.881   1.070  12.112  0.4724 -0.4021 -0.3256
  900MPD2     H13241   1.579   0.844  12.067  1.4106 -1.9736  2.6023
  900MPD2    H113242   1.847   1.139  11.915 -0.6158  1.4093  0.6518
  900MPD2    H213243   1.918   0.963  12.291 -0.5248 -0.0637 -0.5319
  900MPD2    H313244   1.969   1.132  12.119  0.0129  0.1323  0.6084
  900MPD2     N13245   1.599   1.032  11.888 -0.2136  0.3004  0.6167
  900MPD2    H513246   1.523   0.970  11.861  1.4630 -1.9601  1.1603
  900MPD2    N113247   1.720   0.802  12.291 -0.2902 -0.2809 -0.1622
  900MPD2    H713248   1.776   0.809  12.375  1.4121 -0.6369 -1.2641
  901MPD2     C13249   1.449   4.517  12.588 -0.4699  0.1397 -0.1747
  901MPD2    C113250   1.565   4.544  12.655 -0.1981 -0.2320  0.0758
  901MPD2    C213251   1.622   4.673  12.641 -0.6089 -0.1168  0.2515
  901MPD2    C313252   1.549   0.036  12.573 -0.2618  0.2515 -0.2794
  901MPD2    C413253   1.420   0.003  12.518  0.6221  0.2032  0.2756
  901MPD2    C513254   1.376   4.612  12.529 -0.3276  0.5041  0.1566
  901MPD2     H13255   1.725   4.684  12.672 -0.3331  1.6054 -1.2578
  901MPD2    H113256   1.361   0.069  12.456 -1.3152 -0.7552  1.1196
  901MPD2    H213257   1.403   4.419  12.575 -0.8211 -0.0250  2.2160
  901MPD2    H313258   1.283   4.586  12.481 -0.3660 -0.2523  0.6291
  901MPD2     N13259   1.608   0.155  12.547  0.5942  0.2807 -0.1602
  901MPD2    H513260   1.705   0.156  12.578  1.0030 -0.7404 -1.4016
  901MPD2    N113261   1.626   4.432  12.719  1.0266 -0.2492  0.2283
  901MPD2    H713262   1.592   4.342  12.688  1.3484 -0.6370  0.9953
  902MPD2     C13263   1.234   3.307  12.689  0.7177  0.5291  0.2800
  902MPD2    C113264   1.190   3.355  12.572  0.5648 -0.2009 -0.2367
  902MPD2    C213265   1.222   3.285  12.454  0.4721 -0.2371  0.5680
  902MPD2    C313266   1.299   3.168  12.465  0.0340  0.0541  0.3396
  902MPD2    C413267   1.346   3.128  12.583 -0.2201  0.9935 -0.1718
  902MPD2    C513268   1.325   3.203  12.694  0.0867 -0.1100  0.1003
  902MPD2     H13269   1.194   3.312  12.353  1.4171 -0.3448  0.2772
  902MPD2    H113270   1.403   3.036  12.588 -3.0380 -0.7104  0.5747
  902MPD2    H213271   1.210   3.356  12.783 -0.6801  0.1248  0.1212
  902MPD2    H313272   1.360   3.171  12.791 -2.5724 -2.6569  0.2395
  902MPD2     N13273   1.326   3.078  12.357 -0.2370  0.1416  0.2488
  902MPD2    H513274   1.384   2.997  12.378 -0.5207 -0.1466 -0.0718
  902MPD2    N113275   1.114   3.477  12.570 -1.1356 -1.2740 -0.4393
  902MPD2    H713276   1.098   3.521  12.660 -1.9327 -1.6137 -0.4091
  903MPD2     C13277   1.387   3.255  11.626 -0.7003  1.4807 -0.2160
  903MPD2    C113278   1.340   3.140  11.677 -0.5869  0.5775 -0.8939
  903MPD2    C213279   1.208   3.110  11.651  0.0584 -0.0754 -0.0637
  903MPD2    C313280   1.122   3.193  11.578  0.0878 -0.7532 -0.3803
  903MPD2    C413281   1.177   3.309  11.526  0.1351 -0.5024 -0.4836
  903MPD2    C513282   1.314   3.331  11.541 -0.1768  0.3128 -0.2016
  903MPD2     H13283   1.158   3.025  11.697 -1.8350 -0.9720 -3.7393
  903MPD2    H113284   1.127   3.383  11.464 -0.4892  1.0360  1.8598
  903MPD2    H213285   1.487   3.290  11.647  0.3151 -1.6193  0.0569
  903MPD2    H313286   1.354   3.424  11.501 -0.1699 -0.4670 -1.9874
  903MPD2     N13287   0.990   3.163  11.582  1.0425 -0.3866  0.1837
  903MPD2    H513288   0.973   3.079  11.637 -0.1083 -0.1417  0.1910
  903MPD2    N113289   1.423   3.064  11.761  0.7272 -0.0864 -0.3568
  903MPD2    H713290   1.499   3.115  11.804 -0.9702  3.3942 -1.4659
  904MPD2     C13291   0.686   2.718  13.795 -0.1752  0.5917  0.0557
  904MPD2    C113292   0.689   2.617  13.884 -0.0587 -0.1106 -0.5632
  904MPD2    C213293   0.796   2.601  13.972  0.2513 -0.2936 -0.8000
  904MPD2    C313294   0.896   2.692  13.976 -0.2410 -0.0489 -0.5068
  904MPD2    C413295   0.893   2.795  13.883 -0.2845  0.2590  0.1211
  904MPD2    C513296   0.785   2.811  13.799  0.9643 -0.3714 -0.1522
  904MPD2     H13297   0.803   2.520  14.043  0.5955  0.6127  0.1942
  904MPD2    H113298   0.960   2.880  13.888  0.8947 -0.7092  0.8485
  904MPD2    H213299   0.599   2.738  13.733  0.4725  3.4726  0.1152
  904MPD2    H313300   0.783   2.901  13.737  1.0602 -0.3763 -0.1619
  904MPD2     N13301   1.004   2.666  14.065  0.1267  0.1383  0.0470
  904MPD2    H513302   0.989   2.595  14.136  1.9914 -1.2254 -0.9282
  904MPD2    N113303   0.576   2.535  13.878 -0.2109 -0.4161  0.2762
  904MPD2    H713304   0.510   2.557  13.804  0.9744 -1.3542 -1.0651
  905MPD2     C13305   0.489   2.193  13.471  0.5948  0.4683 -0.1435
  905MPD2    C113306   0.506   2.302  13.549 -0.6185  0.0560  0.2222
  905MPD2    C213307   0.624   2.375  13.546  0.3414  0.2622 -0.0769
  905MPD2    C313308   0.732   2.324  13.472  0.0166 -0.4073  0.8433
  905MPD2    C413309   0.721   2.210  13.397 -0.3666 -0.1771  0.0120
  905MPD2    C513310   0.592   2.158  13.385 -0.3155 -0.0754 -0.0405
  905MPD2     H13311   0.642   2.469  13.596 -2.2033  0.4539  0.4910
  905MPD2    H113312   0.802   2.170  13.338  1.5981 -0.4487  2.8713
  905MPD2    H213313   0.394   2.140  13.465 -0.2217  1.9765 -0.5147
  905MPD2    H313314   0.570   2.078  13.316  4.1128 -0.5784 -0.8441
  905MPD2     N13315   0.862   2.372  13.484 -0.9099 -0.4689 -0.0856
  905MPD2    H513316   0.932   2.320  13.431  0.7958  1.8537 -0.1089
  905MPD2    N113317   0.398   2.343  13.623  0.1054  0.3304 -0.2329
  905MPD2    H713318   0.327   2.271  13.635  0.4582  0.4008  2.2280
  906MPD2     C13319   2.581   2.547  11.074  0.0367 -0.0041 -0.4023
  906MPD2    C113320   2.515   2.469  10.980  0.3284 -0.7851  1.0302
  906MPD2    C213321   2.418   2.380  11.023 -0.1257  0.3112 -0.5941
  906MPD2    C313322   2.393   2.359  11.157 -0.5046  0.2440 -0.3590
  906MPD2    C413323   2.459   2.438  11.247 -0.2988 -0.0719  0.1478
  906MPD2    C513324   2.555   2.530  11.209 -0.3479 -0.0065  0.9099
  906MPD2     H13325   2.362   2.323  10.949 -0.0788 -0.9741  0.3450
  906MPD2    H113326   2.423   2.426  11.349  0.0081  1.0065  0.3812
  906MPD2    H213327   2.665   2.607  11.041  1.4169 -1.1045  1.0923
  906MPD2    H313328   2.608   2.602  11.271 -0.6166  0.2501  0.8362
  906MPD2     N13329   2.280   2.279  11.204  0.8900  0.0811  0.0722
  906MPD2    H513330   2.247   2.297  11.298 -1.6015  1.8556 -1.1463
  906MPD2    N113331   2.543   2.471  10.843  0.4086  0.1966  0.6945
  906MPD2    H713332   2.501   2.390  10.800 -1.7070  0.7419  1.7318
  907MPD2     C13333   1.089   1.755  15.815 -0.4788 -0.4588  0.0284
  907MPD2    C113334   1.152   1.648  15.748  0.0752 -0.4110 -0.1720
  907MPD2    C213335   1.175   1.529  15.813 -0.5019  0.3176 -0.3048
  907MPD2    C313336   1.139   1.515  15.950  0.0286 -0.0603 -0.0408
  907MPD2    C413337   1.088   1.628  16.015  0.3185  0.3538 -0.0968
  907MPD2    C513338   1.068   1.744  15.949 -0.1360 -0.7215  0.9152
  907MPD2     H13339   1.202   1.444  15.751  2.4310  0.1695  1.1729
  907MPD2    H113340   1.076   1.641  16.122  0.2475 -0.3529 -0.0202
  907MPD2    H213341   1.079   1.854  15.774  2.0839 -0.3478 -0.3131
  907MPD2    H313342   1.019   1.819  16.010  0.1647  0.5182 -0.3501
  907MPD2     N13343   1.133   1.393  16.017 -0.0345  0.2573 -0.1865
  907MPD2    H513344   1.164   1.311  15.966 -1.5608 -0.5180  0.1445
  907MPD2    N113345   1.190   1.648  15.613 -0.3233 -0.0084 -0.0273
  907MPD2    H713346   1.243   1.570  15.576  0.3198  0.5971 -0.3822
  908MPD2     C13347   3.427   2.857   9.728  0.1627  0.0915  0.4855
  908MPD2    C113348   3.515   2.749   9.769  0.2697 -0.0139 -0.2804
  908MPD2    C213349   3.622   2.790   9.842  0.7046 -0.1189  0.7998
  908MPD2    C313350   3.644   2.919   9.878  0.8784  0.9748 -0.3562
  908MPD2    C413351   3.566   3.025   9.824  1.4017  0.0686 -0.1113
  908MPD2    C513352   3.460   2.991   9.747  0.3618  0.2583 -0.0956
  908MPD2     H13353   3.688   2.710   9.874  1.0475 -0.1776 -0.0658
  908MPD2    H113354   3.582   3.129   9.850 -0.6314  0.1860  0.6861
  908MPD2    H213355   3.347   2.828   9.661  0.3062 -0.4569  0.5543
  908MPD2    H313356   3.392   3.069   9.715 -1.1257 -0.5479  1.0743
  908MPD2     N13357   3.745   2.937   9.975  0.0664 -0.1682  0.4874
  908MPD2    H513358   3.759   2.854  10.032 -1.8544  0.2235  1.5580
  908MPD2    N113359   3.476   2.616   9.738 -0.5522  0.1420  0.0028
  908MPD2    H713360   3.395   2.601   9.679 -0.9916  1.7278  0.2128
  909MPD2     C13361   4.556   0.454  11.778  0.0526  0.6213  0.2639
  909MPD2    C113362   4.515   0.584  11.763  0.1278 -0.6000  0.8371
  909MPD2    C213363   4.409   0.625  11.840 -0.3970 -0.3060 -0.5114
  909MPD2    C313364   4.336   0.539  11.920 -0.2768 -0.2349 -0.8185
  909MPD2    C413365   4.374   0.407  11.940  0.5086  0.2839  0.6967
  909MPD2    C513366   4.491   0.368  11.869 -0.7446  0.3553  0.6023
  909MPD2     H13367   4.381   0.729  11.825  0.9043  0.1392  0.1509
  909MPD2    H113368   4.336   0.331  12.008  0.4044  1.4061  1.8887
  909MPD2    H213369   4.638   0.409  11.723 -0.5044  0.1226 -0.1591
  909MPD2    H313370   4.531   0.269  11.881  0.1412  0.6157 -0.2393
  909MPD2     N13371   4.231   0.595  11.989  0.0186 -0.4962 -1.4225
  909MPD2    H513372   4.207   0.692  11.970  0.1920 -0.5058 -1.6824
  909MPD2    N113373   4.580   0.677  11.677 -0.5102  0.0947  0.6298
  909MPD2    H713374   4.546   0.772  11.672 -0.8716 -0.0176  0.9646
  910MPD2     C13375   0.810   2.202  15.676 -0.3820 -0.5002  0.2364
  910MPD2    C113376   0.940   2.167  15.647  0.6000 -0.0693 -0.4011
  910MPD2    C213377   0.982   2.151  15.512 -0.5942  0.5598  0.3810
  910MPD2    C313378   0.893   2.183  15.408  0.2516  0.1114 -0.2718
  910MPD2    C413379   0.765   2.227  15.445  0.1802 -0.3266  0.4543
  910MPD2    C513380   0.729   2.242  15.575 -0.1886 -0.5372 -0.5996
  910MPD2     H13381   1.084   2.123  15.491 -0.5270  0.5535  0.7191
  910MPD2    H113382   0.693   2.247  15.367  0.9878  0.4986 -0.0823
  910MPD2    H213383   0.760   2.197  15.772  1.1875 -0.4981  1.0556
  910MPD2    H313384   0.625   2.273  15.588 -1.2077 -3.5167 -1.7431
  910MPD2     N13385   0.930   2.195  15.273  0.0606 -0.6188 -0.2352
  910MPD2    H513386   0.865   2.229  15.203 -0.0398 -1.5347 -0.5718
  910MPD2    N113387   1.035   2.157  15.752 -0.6644 -0.2636  0.3133
  910MPD2    H713388   1.129   2.134  15.722 -0.5726 -0.0751  0.4543
  911MPD2     C13389   3.583   2.902  16.091 -0.0352 -0.1351  0.2037
  911MPD2    C113390   3.579   2.918  16.228  0.1287  0.2526  0.0063
  911MPD2    C213391   3.493   3.020  16.267 -0.1189 -0.1549 -0.2146
  911MPD2    C313392   3.429   3.108  16.178 -0.4873  1.3749  0.5079
  911MPD2    C413393   3.455   3.096  16.045  0.7807 -0.0607 -0.1249
  911MPD2    C513394   3.521   2.983  16.000 -0.0470 -0.8724 -0.0881
  911MPD2     H13395   3.475   3.035  16.373 -2.2124 -1.3510 -0.4084
  911MPD2    H113396   3.431   3.176  15.976  1.3243  0.0173 -0.2253
  911MPD2    H213397   3.639   2.821  16.048 -1.1129 -0.5191 -0.4823
  911MPD2    H313398   3.536   2.966  15.894  0.7107  0.0778 -0.1294
  911MPD2     N13399   3.361   3.218  16.223 -0.1759  0.1161 -0.7694
  911MPD2    H513400   3.363   3.295  16.156  2.5833  1.5491  0.9279
  911MPD2    N113401   3.658   2.825  16.315 -0.2067 -0.1848  0.5334
  911MPD2    H713402   3.708   2.751  16.266 -0.7439  0.7080 -1.3628
  912MPD2     C13403   3.253   3.237  15.701 -0.2282 -0.1451  0.1185
  912MPD2    C113404   3.173   3.204  15.813  0.4570  0.4822  0.0243
  912MPD2    C213405   3.160   3.067  15.854 -0.3198 -0.0526  0.2914
  912MPD2    C313406   3.226   2.972  15.781  0.2897  0.0244  0.5059
  912MPD2    C413407   3.289   3.009  15.666  0.0247 -0.6654 -0.2296
  912MPD2    C513408   3.304   3.141  15.623  0.1932  0.2245  0.0882
  912MPD2     H13409   3.105   3.035  15.942 -0.9867 -1.9529 -0.7971
  912MPD2    H113410   3.328   2.937  15.595  0.3087  0.4285 -1.1737
  912MPD2    H213411   3.269   3.340  15.672 -0.2225  0.0788  0.9204
  912MPD2    H313412   3.356   3.169  15.533 -3.7299 -2.6587 -3.0991
  912MPD2     N13413   3.238   2.842  15.842 -0.0287  0.5831  0.0091
  912MPD2    H513414   3.180   2.838  15.925 -0.3755 -0.7289 -0.2905
  912MPD2    N113415   3.121   3.308  15.892  0.4918 -0.5139 -0.2221
  912MPD2    H713416   3.171   3.396  15.891 -1.3802  0.5668 -0.1125
  913MPD2     C13417   3.886   3.643  10.232  0.0757  0.1608  0.1307
  913MPD2    C113418   3.871   3.741  10.329  0.3466 -0.8950 -0.1237
  913MPD2    C213419   3.948   3.859  10.308 -0.4119  0.2139  0.2779
  913MPD2    C313420   4.014   3.884  10.187  0.6410 -0.9879 -0.4484
  913MPD2    C413421   4.022   3.780  10.094 -0.1856 -0.6174 -0.1856
  913MPD2    C513422   3.960   3.667  10.121 -0.1708  0.4268  0.2848
  913MPD2     H13423   3.928   3.940  10.376 -0.6569  0.7921 -0.4849
  913MPD2    H113424   4.088   3.794  10.009  0.9227 -0.2256  0.7338
  913MPD2    H213425   3.826   3.555  10.248  3.4321 -2.3773 -1.2358
  913MPD2    H313426   3.958   3.597  10.038 -0.6480  0.0496  0.6121
  913MPD2     N13427   4.091   3.999  10.161  0.1323  0.0716  1.0316
  913MPD2    H513428   4.113   4.017  10.064  0.0278  3.4035  1.6429
  913MPD2    N113429   3.803   3.700  10.451  0.3164  0.0560 -0.1639
  913MPD2    H713430   3.772   3.604  10.451 -2.2874  0.8944 -2.5551
  914MPD2     C13431   2.009   4.078  12.076  0.5221 -0.2882 -0.0529
  914MPD2    C113432   1.952   4.196  12.119  0.1735 -0.9325  0.7070
  914MPD2    C213433   1.921   4.207  12.251 -0.6111  0.0135  0.2458
  914MPD2    C313434   1.926   4.096  12.334 -0.2664  0.5424 -0.1025
  914MPD2    C413435   1.951   3.973  12.278 -0.7453  0.1965 -0.4240
  914MPD2    C513436   2.012   3.966  12.153  0.1203 -0.0363 -0.0407
  914MPD2     H13437   1.894   4.307  12.283 -2.1746 -0.9140  1.8294
  914MPD2    H113438   1.951   3.885  12.340  0.7348  0.8799  0.5514
  914MPD2    H213439   2.040   4.064  11.973 -0.2303  0.0490 -0.3261
  914MPD2    H313440   2.041   3.874  12.105  0.6326  0.4342 -0.6474
  914MPD2     N13441   1.897   4.128  12.471 -0.2749 -0.8032 -0.0105
  914MPD2    H513442   1.865   4.224  12.480 -1.8169 -1.3058 -0.1570
  914MPD2    N113443   1.933   4.300  12.026 -1.0856  0.0600  0.1246
  914MPD2    H713444   1.940   4.279  11.927 -0.4000 -2.6874  0.7310
  915MPD2     C13445   4.141   4.336  15.617  0.9584  0.7554 -0.2540
  915MPD2    C113446   4.016   4.406  15.625 -0.4174  0.4154  0.6338
  915MPD2    C213447   4.004   4.515  15.706 -0.2975 -0.2250 -0.4756
  915MPD2    C313448   4.091   4.535  15.814  1.0975 -0.0705 -0.2449
  915MPD2    C413449   4.203   4.454  15.817  0.0543  0.0892  0.0970
  915MPD2    C513450   4.229   4.367  15.717 -0.5505 -0.3539 -0.2870
  915MPD2     H13451   3.910   4.570  15.702  0.0576  0.5361  1.7662
  915MPD2    H113452   4.282   4.472  15.889 -0.8700 -0.6876  1.3116
  915MPD2    H213453   4.150   4.249  15.553 -0.0023  2.9597 -3.3609
  915MPD2    H313454   4.318   4.305  15.721 -0.3171 -0.0081  0.0002
  915MPD2     N13455   4.069   4.644  15.905 -0.2288 -0.8319  0.1248
  915MPD2    H513456   3.985   4.699  15.888 -0.8322 -2.0805 -0.9575
  915MPD2    N113457   3.918   4.365  15.536  0.3295  0.0523  0.9436
  915MPD2    H713458   3.947   4.308  15.457  0.1356 -0.1664  1.0312
  916MPD2     C13459   3.015   2.693  15.666  0.6069  0.0044 -0.1508
  916MPD2    C113460   2.961   2.579  15.717 -0.5225 -0.2865 -0.2181
  916MPD2    C213461   2.997   2.453  15.675  0.3202  0.9376 -0.2151
  916MPD2    C313462   3.063   2.439  15.552 -0.0107  0.1585  0.1204
  916MPD2    C413463   3.107   2.557  15.490  0.3653 -0.1119  0.6311
  916MPD2    C513464   3.091   2.679  15.552 -0.0857 -0.4767  0.2537
  916MPD2     H13465   2.956   2.363  15.720  1.0217  1.4863  1.4928
  916MPD2    H113466   3.170   2.554  15.402  0.9524  0.4172  1.0341
  916MPD2    H213467   2.991   2.793  15.699 -1.8898 -0.9453  0.9595
  916MPD2    H313468   3.129   2.770  15.507  2.2926 -1.1687  0.8523
  916MPD2     N13469   3.090   2.308  15.502  0.1440  0.4792  0.1029
  916MPD2    H513470   3.074   2.234  15.569 -2.2386 -1.9297 -3.0929
  916MPD2    N113471   2.871   2.609  15.820  0.3191  0.2475  0.3222
  916MPD2    H713472   2.875   2.708  15.840 -2.1893  0.3408  0.3422
  917MPD2     C13473   3.032   4.112  11.287 -0.3872 -0.2619 -0.0837
  917MPD2    C113474   3.027   4.233  11.356  0.3142 -0.5200  0.4462
  917MPD2    C213475   3.058   4.350  11.298 -0.2459  0.0294  0.1904
  917MPD2    C313476   3.095   4.349  11.161  0.1339  0.8122  0.2388
  917MPD2    C413477   3.090   4.232  11.091  0.0562  0.7094  0.0718
  917MPD2    C513478   3.065   4.115  11.157 -0.0489  0.1007 -0.0896
  917MPD2     H13479   3.062   4.440  11.358 -2.5728  0.4950 -0.3710
  917MPD2    H113480   3.130   4.239  10.990 -2.6785 -1.1209 -1.1173
  917MPD2    H213481   3.005   4.015  11.330  2.2010 -1.3218 -0.8907
  917MPD2    H313482   3.063   4.020  11.104  1.0327  1.1743 -2.0622
  917MPD2     N13483   3.132   4.465  11.088  0.0258  0.6556 -0.2415
  917MPD2    H513484   3.164   4.454  10.992  1.4811 -0.6926  0.4065
  917MPD2    N113485   2.984   4.223  11.494  0.6114 -0.0680 -0.3249
  917MPD2    H713486   2.976   4.129  11.532  0.2489 -0.1159 -0.5186
  918MPD2     C13487   2.945   0.303  12.029  0.2114  0.2659 -0.4608
  918MPD2    C113488   3.068   0.234  12.041  0.1991 -0.1470  0.1541
  918MPD2    C213489   3.065   0.098  12.025  0.3311 -0.3368  0.1798
  918MPD2    C313490   2.954   0.024  11.978 -0.0367  0.0430  0.1734
  918MPD2    C413491   2.840   0.094  11.958 -0.1213  0.0620  0.3935
  918MPD2    C513492   2.836   0.232  11.991 -1.0217 -0.4317  0.5030
  918MPD2     H13493   3.159   0.045  12.022  1.1917  1.2472 -0.7531
  918MPD2    H113494   2.746   0.061  11.916  0.2672 -0.5961  0.0276
  918MPD2    H213495   2.942   0.411  12.040 -3.3082  0.0090  1.1543
  918MPD2    H313496   2.743   0.285  11.978 -1.2141 -1.0689 -0.7111
  918MPD2     N13497   2.960   4.623  11.949 -0.3277  0.0338 -0.2370
  918MPD2    H513498   3.047   4.571  11.953 -0.3117  0.0899  0.2060
  918MPD2    N113499   3.185   0.299  12.063 -0.3153 -0.3655  0.0566
  918MPD2    H713500   3.263   0.236  12.080 -1.2672 -1.1305  1.5772
  919MPD2     C13501   3.932   3.714  12.014  0.8236 -0.4485 -0.5929
  919MPD2    C113502   3.834   3.635  11.966  0.1103  0.0501  0.2581
  919MPD2    C213503   3.787   3.655  11.834 -0.0001 -0.5816  0.4730
  919MPD2    C313504   3.852   3.739  11.751  0.0800  0.8002 -0.2614
  919MPD2    C413505   3.951   3.815  11.803  0.1173 -0.8908 -0.3908
  919MPD2    C513506   3.986   3.810  11.933  0.2129 -0.1613  0.7252
  919MPD2     H13507   3.702   3.600  11.797  0.9516 -1.3534 -0.5643
  919MPD2    H113508   4.000   3.889  11.740 -0.2550 -1.2163 -1.0582
  919MPD2    H213509   3.980   3.687  12.107  0.4069 -0.2084 -0.3110
  919MPD2    H313510   4.072   3.863  11.971  0.7685 -1.0377  0.7076
  919MPD2     N13511   3.815   3.760  11.618  0.8913 -0.4019 -0.0054
  919MPD2    H513512   3.872   3.827  11.566  1.9503 -1.2468  0.0745
  919MPD2    N113513   3.786   3.528  12.039 -0.2059  0.1373 -0.2587
  919MPD2    H713514   3.713   3.474  11.994  0.0768 -0.0968 -0.4405
  920MPD2     C13515   3.976   4.283  10.778  0.0234  0.4518  0.5603
  920MPD2    C113516   3.873   4.202  10.737 -0.3203 -0.5631  0.0446
  920MPD2    C213517   3.828   4.113  10.831  0.1268 -1.0223 -0.7616
  920MPD2    C313518   3.877   4.100  10.956  0.2632  0.0474  0.4596
  920MPD2    C413519   3.979   4.178  10.998 -0.0820 -1.3952 -0.3309
  920MPD2    C513520   4.021   4.268  10.905  0.2995 -0.2756 -0.3977
  920MPD2     H13521   3.745   4.050  10.801 -1.8092  1.9371 -1.6571
  920MPD2    H113522   4.024   4.160  11.095 -1.2295  0.3687  0.5260
  920MPD2    H213523   4.042   4.335  10.709  0.5367  1.0502  1.5011
  920MPD2    H313524   4.099   4.330  10.946  0.4097 -0.1736 -0.7542
  920MPD2     N13525   3.798   4.017  11.047 -0.2043 -0.3189  0.4832
  920MPD2    H513526   3.716   3.973  11.005  0.2409  0.8794 -1.6073
  920MPD2    N113527   3.822   4.195  10.610 -0.7500 -0.1643  0.1455
  920MPD2    H713528   3.761   4.114  10.605  1.2708 -1.5269 -2.5824
  921MPD2     C13529   4.494   3.024  16.881 -0.2048  0.1047 -0.1730
  921MPD2    C113530   4.480   2.975  16.755  0.3145  0.7094  0.2047
  921MPD2    C213531   4.363   2.915  16.714 -0.1194  0.8707 -1.2247
  921MPD2    C313532   4.255   2.896  16.800  0.6143 -0.0721  0.1163
  921MPD2    C413533   4.269   2.952  16.924 -0.4991 -1.2789  0.2542
  921MPD2    C513534   4.383   3.011  16.960 -0.3318  0.1652  0.3306
  921MPD2     H13535   4.372   2.877  16.613 -3.0844  1.5379 -1.7289
  921MPD2    H113536   4.191   2.951  16.998  0.4910 -1.1534  1.2992
  921MPD2    H213537   4.586   3.070  16.915  1.1574 -3.0485  0.4264
  921MPD2    H313538   4.387   3.056  17.059  1.8384 -0.0104  0.3386
  921MPD2     N13539   4.135   2.837  16.762  0.4516  0.2154  0.0089
  921MPD2    H513540   4.065   2.825  16.834  0.7634 -1.8325 -0.0342
  921MPD2    N113541   4.591   2.998  16.673  0.1143  0.1277  0.3382
  921MPD2    H713542   4.671   3.040  16.720  0.0294 -0.8229  1.3201
  922MPD2     C13543   4.086   0.460   0.000  0.4311 -0.5362 -0.7194
  922MPD2    C113544   4.079   0.592  17.734 -0.5617 -0.2221 -0.5117
  922MPD2    C213545   4.077   0.643  17.611 -0.6331 -0.3014 -0.5270
  922MPD2    C313546   4.073   0.556  17.499 -0.3675 -0.1004 -0.2281
  922MPD2    C413547   4.088   0.419  17.521  0.1274  0.1259  0.0263
  922MPD2    C513548   4.091   0.376  17.650 -0.0348  0.0361  0.0094
  922MPD2     H13549   4.072   0.750  17.600 -2.5215 -0.3586 -0.2180
  922MPD2    H113550   4.085   0.349  17.439  0.8662 -3.1276  2.7961
  922MPD2    H213551   4.101   0.416   0.099 -3.5288  3.7019  1.7551
  922MPD2    H313552   4.106   0.271  17.670  1.0879  0.2104  0.0558
  922MPD2     N13553   4.046   0.611  17.375 -0.3583 -0.2600 -0.4566
  922MPD2    H513554   4.051   0.713  17.375 -1.3499 -0.2094 -0.8012
  922MPD2    N113555   4.079   0.683   0.086  0.0602 -0.1938 -0.0321
  922MPD2    H713556   4.059   0.779   0.061  1.7876  0.4717  1.1493
  923MPD2     C13557   1.234   2.119   8.811 -0.3365 -0.3452  0.4898
  923MPD2    C113558   1.221   2.244   8.873 -0.6408  0.5593 -0.4842
  923MPD2    C213559   1.308   2.282   8.975 -0.1564 -0.0378  0.5247
  923MPD2    C313560   1.406   2.193   9.017 -0.4175 -0.2489  0.9767
  923MPD2    C413561   1.427   2.076   8.949  0.1662  0.1422 -0.0451
  923MPD2    C513562   1.332   2.038   8.856  0.0237  0.3226  0.4176
  923MPD2     H13563   1.285   2.372   9.032  1.3454  0.0246  1.0308
  923MPD2    H113564   1.511   2.010   8.968 -1.0004 -1.6014 -0.9730
  923MPD2    H213565   1.164   2.084   8.735 -0.3874  1.4106 -0.2834
  923MPD2    H313566   1.339   1.938   8.815 -1.1559  0.4938 -0.2155
  923MPD2     N13567   1.490   2.214   9.126 -0.1700 -0.0954  0.2836
  923MPD2    H513568   1.555   2.141   9.150  1.5285  1.4836  0.4898
  923MPD2    N113569   1.112   2.329   8.828 -0.0987 -0.1368 -0.0883
  923MPD2    H713570   1.042   2.281   8.773  0.2005 -2.0546  1.2478
  924MPD2     C13571   1.479   0.594  15.842  0.0998  0.0985 -0.4123
  924MPD2    C113572   1.533   0.717  15.877  0.4774 -0.6317  0.5845
  924MPD2    C213573   1.460   0.783  15.972 -0.0762 -0.1714 -0.3730
  924MPD2    C313574   1.335   0.738  16.018  0.2518  0.3118 -0.7300
  924MPD2    C413575   1.293   0.611  15.982 -0.2512  0.4883 -0.1302
  924MPD2    C513576   1.369   0.537  15.893  0.7576 -0.1960  0.3044
  924MPD2     H13577   1.489   0.880  16.010  1.9190 -1.2274  0.7941
  924MPD2    H113578   1.197   0.577  16.019  0.3042 -1.1705 -0.2094
  924MPD2    H213579   1.519   0.537  15.759 -0.3538 -1.1882  0.2555
  924MPD2    H313580   1.352   0.433  15.871  2.6717 -0.6434  0.9057
  924MPD2     N13581   1.250   0.828  16.083  0.5062  0.2561 -0.4391
  924MPD2    H513582   1.154   0.800  16.100  0.9973 -1.4358 -0.4905
  924MPD2    N113583   1.643   0.767  15.805 -0.6821 -0.5997 -0.3941
  924MPD2    H713584   1.693   0.702  15.745  0.9461  0.4965 -0.2256
  925MPD2     C13585   0.479   3.760  14.861  0.2064 -0.3416  0.8644
  925MPD2    C113586   0.370   3.698  14.814 -0.4160 -0.0518 -0.5533
  925MPD2    C213587   0.262   3.677  14.893 -0.6453  0.3514  0.5503
  925MPD2    C313588   0.268   3.710  15.029 -0.4068 -0.2256  0.2001
  925MPD2    C413589   0.377   3.776  15.075 -1.3085 -0.3277 -0.3191
  925MPD2    C513590   0.488   3.798  14.994  0.3110  0.0445 -0.3233
  925MPD2     H13591   0.182   3.628  14.837  0.4244 -1.2471  0.4115
  925MPD2    H113592   0.377   3.812  15.177  2.5622  0.0264 -0.4652
  925MPD2    H213593   0.563   3.786  14.796  0.1477 -1.7643  0.2265
  925MPD2    H313594   0.573   3.844  15.042 -0.2180 -0.4586  1.0996
  925MPD2     N13595   0.178   3.664  15.122  0.4870 -0.1060  0.1556
  925MPD2    H513596   0.197   3.676  15.221 -2.2143  1.4673  0.4836
  925MPD2    N113597   0.357   3.660  14.679  0.4296  0.2885 -0.0241
  925MPD2    H713598   0.266   3.668  14.635 -0.2241 -0.0151  1.2762
  926MPD2     C13599   4.230   1.604  13.520  0.2793  0.6538 -0.0928
  926MPD2    C113600   4.197   1.733  13.480 -0.2256 -0.6747  0.0592
  926MPD2    C213601   4.269   1.785  13.378  0.1367 -0.3312  0.4621
  926MPD2    C313602   4.372   1.716  13.313 -0.0061 -0.3059  0.4865
  926MPD2    C413603   4.403   1.588  13.357 -0.0060 -0.5502 -0.6994
  926MPD2    C513604   4.326   1.533  13.454 -0.1907 -0.1944 -0.9658
  926MPD2     H13605   4.237   1.884  13.349  1.9261 -0.2325 -1.2061
  926MPD2    H113606   4.477   1.526  13.307 -2.8098 -3.1634 -1.5719
  926MPD2    H213607   4.188   1.564  13.612 -0.7330 -1.3494 -1.4266
  926MPD2    H313608   4.330   1.427  13.472 -0.1904 -0.1548 -0.7414
  926MPD2     N13609   4.452   1.769  13.218  0.2590  0.0002 -0.4160
  926MPD2    H513610   4.531   1.707  13.201 -1.2220 -0.9865 -3.7665
  926MPD2    N113611   4.088   1.809  13.532  0.5577  0.6105  0.8776
  926MPD2    H713612   4.079   1.907  13.509 -0.8851  0.1855 -0.3574
  927MPD2     C13613   3.460   4.180   0.311 -0.1244  0.1382 -0.1206
  927MPD2    C113614   3.410   4.292   0.241  0.2664 -0.0450  0.0628
  927MPD2    C213615   3.426   4.306   0.103  0.0443  0.0678  0.2438
  927MPD2    C313616   3.497   4.216   0.036  0.1821 -0.0875  0.6498
  927MPD2    C413617   3.548   4.108   0.097 -0.0807 -0.9840 -0.7569
  927MPD2    C513618   3.527   4.089   0.232  0.8258 -0.2808  0.1409
  927MPD2     H13619   3.377   4.389   0.053  0.2193 -1.4367 -2.3765
  927MPD2    H113620   3.605   4.033   0.043 -2.3152 -2.3675 -1.1986
  927MPD2    H213621   3.455   4.166   0.418  1.0374  0.6005 -0.0046
  927MPD2    H313622   3.559   4.002   0.288  1.8360  0.5660  0.8802
  927MPD2     N13623   3.512   4.240  17.649  0.0806  1.0197  0.1077
  927MPD2    H513624   3.458   4.308  17.597 -0.9515 -1.1259 -1.6390
  927MPD2    N113625   3.340   4.384   0.326  0.3057 -0.0495 -0.0745
  927MPD2    H713626   3.349   4.364   0.425  1.5797  1.2853  0.0771
  928MPD2     C13627   1.400   2.227   0.990  0.6199  0.0107 -0.2342
  928MPD2    C113628   1.409   2.363   1.017 -0.1844 -0.5222  0.3952
  928MPD2    C213629   1.410   2.452   0.914  0.3763 -0.6065 -0.0921
  928MPD2    C313630   1.405   2.406   0.782 -0.1296 -0.5424 -1.2777
  928MPD2    C413631   1.400   2.272   0.757 -0.3941 -0.1801  0.0116
  928MPD2    C513632   1.395   2.183   0.862  0.3959 -0.5480 -0.1590
  928MPD2     H13633   1.415   2.560   0.921 -1.5843 -0.6371  1.5308
  928MPD2    H113634   1.397   2.228   0.658  1.6663  1.4435 -0.7771
  928MPD2    H213635   1.378   2.148   1.061  1.1066 -0.3050 -0.4371
  928MPD2    H313636   1.394   2.076   0.844 -1.3348 -0.0711 -2.8114
  928MPD2     N13637   1.424   2.493   0.670 -0.4041  0.1223  0.0412
  928MPD2    H513638   1.393   2.454   0.581  0.5276  0.9452 -0.6333
  928MPD2    N113639   1.431   2.405   1.150  0.1059 -0.0648  0.4145
  928MPD2    H713640   1.463   2.339   1.220  2.0888  0.3948 -0.0401
  929MPD2     C13641   1.207   3.282   9.866 -0.2798  0.0098  0.4894
  929MPD2    C113642   1.171   3.195   9.767  0.8053 -0.1250 -0.5204
  929MPD2    C213643   1.113   3.237   9.654 -0.3633  0.3516  0.2632
  929MPD2    C313644   1.078   3.374   9.646  0.4163  0.5623 -0.0074
  929MPD2    C413645   1.114   3.462   9.741 -0.0289 -0.0884  0.3377
  929MPD2    C513646   1.170   3.414   9.852  0.0316 -0.4381 -0.6596
  929MPD2     H13647   1.079   3.164   9.582 -0.7775 -0.7425  1.5693
  929MPD2    H113648   1.092   3.568   9.733  2.7348  0.4312 -0.0985
  929MPD2    H213649   1.251   3.251   9.961  0.3877 -1.5282 -0.3261
  929MPD2    H313650   1.192   3.493   9.923 -0.5421 -1.3434  0.5152
  929MPD2     N13651   1.003   3.422   9.536  0.5655 -0.3571 -0.2321
  929MPD2    H513652   0.990   3.523   9.530  0.5624 -0.3275  0.2478
  929MPD2    N113653   1.200   3.063   9.805  1.0041 -0.1862 -0.5123
  929MPD2    H713654   1.246   3.043   9.893 -2.8047 -0.4220  1.3815
  930MPD2     C13655   3.311   0.098  13.813  0.1921  0.1520  0.7075
  930MPD2    C113656   3.440   0.059  13.804  0.5524  0.1785  0.6142
  930MPD2    C213657   3.477   4.677  13.747  0.5961  0.0794  0.5556
  930MPD2    C313658   3.380   4.589  13.704  0.8896 -0.8060 -0.9011
  930MPD2    C413659   3.250   4.627  13.722  0.1444  0.1996 -0.3162
  930MPD2    C513660   3.210   0.010  13.775 -0.6755 -0.8916  0.1906
  930MPD2     H13661   3.579   4.647  13.724  1.6018  2.9168  1.3162
  930MPD2    H113662   3.184   4.548  13.689  1.5435 -0.7604 -0.7990
  930MPD2    H213663   3.291   0.196  13.855  1.6694  1.3117 -1.2342
  930MPD2    H313664   3.105   0.039  13.773 -0.5015 -0.2851 -0.1119
  930MPD2     N13665   3.409   4.472  13.623  0.0193  0.6652 -0.0509
  930MPD2    H513666   3.331   4.424  13.581  0.5380  0.9540 -1.3551
  930MPD2    N113667   3.530   0.165  13.835 -0.1583  0.2035  0.6414
  930MPD2    H713668   3.484   0.255  13.841  1.8345  1.2364  0.5671
  931MPD2     C13669   3.034   4.661   1.059  0.4128  0.2511  0.6274
  931MPD2    C113670   3.149   4.628   0.985 -0.6245  0.0264 -0.4363
  931MPD2    C213671   3.255   4.569   1.058  0.1640 -0.1146  0.1913
  931MPD2    C313672   3.232   4.503   1.177 -0.5221  0.0969  0.2683
  931MPD2    C413673   3.108   4.522   1.239 -0.2290 -0.1404 -0.3013
  931MPD2    C513674   3.016   4.608   1.183 -0.4371  0.0841  0.4091
  931MPD2     H13675   3.350   4.546   1.011  0.0562  0.1114 -0.1362
  931MPD2    H113676   3.079   4.484   1.336  1.2133 -0.8092 -0.1332
  931MPD2    H213677   2.943   4.701   1.017  0.2267 -0.2133  0.5884
  931MPD2    H313678   2.925   4.633   1.236 -2.3331  0.1582 -2.8902
  931MPD2     N13679   3.308   4.401   1.237 -0.0317  0.1787 -0.8329
  931MPD2    H513680   3.262   4.345   1.308  3.3312  0.3735  1.4556
  931MPD2    N113681   3.158   4.662   0.847  0.2746 -0.0577  0.1140
  931MPD2    H713682   3.078   4.707   0.803 -0.5525 -1.9785 -0.3217
  932MPD2     C13683   0.762   3.615  11.174  0.4255  0.3169  1.2346
  932MPD2    C113684   0.887   3.557  11.194  0.2666  0.4553  0.3907
  932MPD2    C213685   0.895   3.419  11.169  0.5841  1.2562  0.2527
  932MPD2    C313686   0.790   3.342  11.141  0.0236  1.3130  0.5275
  932MPD2    C413687   0.670   3.407  11.097  0.2207  0.0769 -0.3493
  932MPD2    C513688   0.659   3.541  11.121  0.4333  0.2160 -0.2907
  932MPD2     H13689   0.994   3.383  11.195  0.3725  0.3097 -0.2278
  932MPD2    H113690   0.584   3.348  11.067  0.9783 -0.7209 -0.9220
  932MPD2    H213691   0.740   3.720  11.183  0.0468  0.3558 -0.1849
  932MPD2    H313692   0.569   3.601  11.115  0.3312  0.1918  1.0310
  932MPD2     N13693   0.791   3.197  11.136 -0.2706 -0.1305 -0.5312
  932MPD2    H513694   0.701   3.159  11.107  0.4461 -0.8692 -1.7852
  932MPD2    N113695   1.000   3.627  11.234  0.3691 -0.6823 -0.4384
  932MPD2    H713696   1.084   3.571  11.239  0.9690  0.1145 -1.7027
  933MPD2     C13697   1.656   2.944   1.856 -0.1906  0.2594 -0.0466
  933MPD2    C113698   1.583   2.958   1.739 -0.1808  0.2161 -0.0970
  933MPD2    C213699   1.525   3.076   1.704 -0.8624 -0.0441 -0.1695
  933MPD2    C313700   1.540   3.187   1.786  0.8096  0.1683 -0.1746
  933MPD2    C413701   1.596   3.173   1.910  0.3014  0.0141  0.2914
  933MPD2    C513702   1.653   3.047   1.942  0.7039 -0.3311 -0.1190
  933MPD2     H13703   1.481   3.096   1.607 -0.1989  0.3485 -0.3905
  933MPD2    H113704   1.613   3.256   1.977  0.0142  0.2403  0.0871
  933MPD2    H213705   1.700   2.849   1.880 -0.4758  0.3900  0.9981
  933MPD2    H313706   1.696   3.027   2.039 -0.8816 -2.6759  0.0871
  933MPD2     N13707   1.474   3.308   1.740  0.4226  0.2494  0.1122
  933MPD2    H513708   1.434   3.313   1.647  1.7314 -0.4514 -0.4887
  933MPD2    N113709   1.580   2.840   1.667  0.0592 -0.0164  0.0435
  933MPD2    H713710   1.626   2.759   1.709  0.2069  1.0781  1.9872
  934MPD2     C13711   2.358   1.312   1.683 -0.1875 -0.1164 -0.7805
  934MPD2    C113712   2.451   1.220   1.653 -0.4519  0.5341  0.5460
  934MPD2    C213713   2.409   1.110   1.590  0.6587 -0.9612 -0.1357
  934MPD2    C313714   2.277   1.078   1.575  0.9897  0.3092 -1.1269
  934MPD2    C413715   2.183   1.178   1.609  0.3166  0.6264 -0.0860
  934MPD2    C513716   2.220   1.300   1.655  0.4287 -0.5660  0.1900
  934MPD2     H13717   2.486   1.043   1.552  0.6477 -0.5287 -0.9164
  934MPD2    H113718   2.077   1.159   1.597  1.1032 -2.0323 -2.7642
  934MPD2    H213719   2.385   1.407   1.727  0.0574 -1.4672  1.9574
  934MPD2    H313720   2.146   1.374   1.682 -0.6613 -1.5546 -0.0453
  934MPD2     N13721   2.228   0.966   1.517  0.3550  0.0185 -0.3024
  934MPD2    H513722   2.131   0.967   1.486  0.3274 -0.9624 -0.2730
  934MPD2    N113723   2.587   1.239   1.678 -0.2252 -0.2040  1.2539
  934MPD2    H713724   2.653   1.168   1.646 -0.7889  0.1257 -0.6212
  935MPD2     C13725   2.652   0.065   1.374 -0.6151  0.2432 -0.4076
  935MPD2    C113726   2.546   0.057   1.283 -0.8739 -0.1417  0.7525
  935MPD2    C213727   2.460   0.164   1.284 -0.1691  0.2431  0.3594
  935MPD2    C313728   2.466   0.269   1.373 -0.5197 -0.5206  0.4667
  935MPD2    C413729   2.570   0.263   1.463 -0.5722 -0.2416 -0.2154
  935MPD2    C513730   2.661   0.164   1.467  0.6112 -0.1076 -0.6597
  935MPD2     H13731   2.378   0.168   1.212  2.0198  1.2738 -2.0875
  935MPD2    H113732   2.569   0.324   1.553 -2.2847 -1.4508  0.5857
  935MPD2    H213733   2.727   4.726   1.375  0.1908  1.0253 -0.4553
  935MPD2    H313734   2.740   0.157   1.541 -1.0832  1.1657  1.2773
  935MPD2     N13735   2.388   0.384   1.375  0.3699  0.4698 -0.2859
  935MPD2    H513736   2.401   0.452   1.449 -1.9423  1.5936 -0.8807
  935MPD2    N113737   2.522   4.697   1.187 -0.2718 -0.4057  0.4446
  935MPD2    H713738   2.463   4.729   1.111  1.7986 -1.7896 -1.7562
  936MPD2     C13739   1.106   1.509  12.255 -0.3014 -0.0460  0.2872
  936MPD2    C113740   1.206   1.473  12.349  0.6577  0.0121 -0.4209
  936MPD2    C213741   1.323   1.548  12.352  0.2226 -0.4110 -0.2628
  936MPD2    C313742   1.355   1.643  12.252 -0.5027 -0.2392 -0.7803
  936MPD2    C413743   1.255   1.667  12.151 -0.0941  0.3101 -0.5123
  936MPD2    C513744   1.134   1.598  12.156  0.2489  0.1238 -0.6612
  936MPD2     H13745   1.388   1.520  12.434 -0.7360 -0.7106  0.3900
  936MPD2    H113746   1.283   1.720  12.060 -0.5105  2.1615  0.4484
  936MPD2    H213747   1.011   1.457  12.255 -1.0385  1.3054 -0.0222
  936MPD2    H313748   1.061   1.612  12.077 -0.6517  3.6383  0.7905
  936MPD2     N13749   1.484   1.710  12.242 -0.2512  0.1579 -0.0277
  936MPD2    H513750   1.490   1.791  12.181  2.5100 -0.1420 -0.1447
  936MPD2    N113751   1.193   1.369  12.446 -0.2470 -0.4916 -0.1023
  936MPD2    H713752   1.280   1.357  12.498  1.3378 -1.7304 -3.0431
  937MPD2     C13753   3.907   2.906  11.731 -0.5776 -0.4501 -0.1569
  937MPD2    C113754   3.958   3.025  11.772 -0.4463  0.0624 -0.3317
  937MPD2    C213755   4.017   3.102  11.676  0.0742 -0.4889 -0.5422
  937MPD2    C313756   4.048   3.054  11.558 -0.2199  0.6454 -0.2334
  937MPD2    C413757   4.008   2.929  11.526  0.0570  0.5183  0.1347
  937MPD2    C513758   3.931   2.856  11.610  0.2615 -0.4074 -0.2325
  937MPD2     H13759   4.041   3.204  11.704  0.6378 -0.3922 -1.3581
  937MPD2    H113760   4.043   2.881  11.435 -1.9767 -2.0074  0.6947
  937MPD2    H213761   3.841   2.845  11.792  0.1573 -1.9727 -0.8983
  937MPD2    H313762   3.881   2.765  11.577 -1.3108  0.7121 -0.9448
  937MPD2     N13763   4.137   3.139  11.485  0.0701 -0.1063  0.2341
  937MPD2    H513764   4.172   3.222  11.532 -0.8748  0.3906  0.0570
  937MPD2    N113765   3.913   3.090  11.885  0.3921  0.1847  0.8219
  937MPD2    H713766   3.935   3.189  11.881  1.7974 -0.0505  2.7228
  938MPD2     C13767   1.345   0.295   0.802 -0.1928  0.2853 -0.0052
  938MPD2    C113768   1.436   0.326   0.903  0.4075 -0.0612 -0.1995
  938MPD2    C213769   1.491   0.225   0.976 -0.1481  0.3148  0.3521
  938MPD2    C313770   1.454   0.086   0.950 -0.1097  0.0677 -0.0179
  938MPD2    C413771   1.362   0.063   0.854  0.0602  0.4936 -0.0157
  938MPD2    C513772   1.302   0.165   0.784 -0.7182 -0.2396  0.2503
  938MPD2     H13773   1.554   0.253   1.060 -1.3722 -0.9211  1.7087
  938MPD2    H113774   1.328   4.702   0.829 -2.3547  0.7688  2.2433
  938MPD2    H213775   1.294   0.374   0.748  0.1980 -0.6158 -1.6728
  938MPD2    H313776   1.228   0.150   0.707 -0.7875  0.5564  0.1561
  938MPD2     N13777   1.503   4.709   1.018 -0.2558 -0.6708  0.6069
  938MPD2    H513778   1.477   4.617   0.984  0.3071 -0.2414 -0.9620
  938MPD2    N113779   1.458   0.456   0.942 -0.3502 -0.3144 -0.1832
  938MPD2    H713780   1.532   0.461   1.012 -0.5521  0.5812 -0.0314
  939MPD2     C13781   2.895   1.059   0.697 -0.1596 -0.1790 -0.0454
  939MPD2    C113782   2.808   1.161   0.684 -0.1528 -0.1315  0.1758
  939MPD2    C213783   2.697   1.154   0.598 -0.9772 -0.6536  0.3271
  939MPD2    C313784   2.680   1.042   0.518  0.9721 -0.2420  0.0726
  939MPD2    C413785   2.770   0.938   0.526  0.0293  0.3784  0.0940
  939MPD2    C513786   2.863   0.940   0.625  0.0481  0.2474 -0.1651
  939MPD2     H13787   2.638   1.241   0.573  1.2030  1.1580  1.5142
  939MPD2    H113788   2.777   0.849   0.465  0.1082  1.4729 -1.4907
  939MPD2    H213789   2.985   1.059   0.758  0.6532 -0.1893 -1.2545
  939MPD2    H313790   2.932   0.857   0.634  0.8833  0.8987 -0.4890
  939MPD2     N13791   2.573   1.045   0.429 -0.2487 -0.1306 -0.3635
  939MPD2    H513792   2.530   1.135   0.408 -0.9706 -0.5157 -0.5370
  939MPD2    N113793   2.833   1.267   0.770  0.0268 -0.1020  0.0772
  939MPD2    H713794   2.925   1.272   0.813 -1.5420 -1.1710  3.5748
  940MPD2     C13795   2.024   2.388  12.729 -0.3833  0.2472 -0.3364
  940MPD2    C113796   1.998   2.263  12.771  0.1454  0.0191 -0.8972
  940MPD2    C213797   2.058   2.156  12.706  0.3311 -0.1736 -0.7222
  940MPD2    C313798   2.136   2.178  12.588 -0.2551 -0.0239  0.2488
  940MPD2    C413799   2.159   2.307  12.550  0.8298 -0.6605 -0.6112
  940MPD2    C513800   2.110   2.413  12.625  0.5853 -0.1347  0.5758
  940MPD2     H13801   2.054   2.056  12.748  1.3030  0.0188 -0.1855
  940MPD2    H113802   2.213   2.337  12.460 -0.3707 -0.6446 -1.3282
  940MPD2    H213803   1.981   2.473  12.781 -0.9254  0.0242 -0.4287
  940MPD2    H313804   2.127   2.519  12.611 -1.8962  0.4190  1.8178
  940MPD2     N13805   2.200   2.075  12.519 -1.0840  0.7611 -0.3370
  940MPD2    H513806   2.266   2.102  12.447 -0.4119 -2.2627 -0.8678
  940MPD2    N113807   1.930   2.235  12.892  0.4725  0.1561  0.0632
  940MPD2    H713808   1.932   2.139  12.925 -0.0410  0.0030 -0.3474
  941MPD2     C13809   0.423   0.448   9.932  0.0613 -0.5483 -0.3581
  941MPD2    C113810   0.532   0.471  10.009  0.1770  0.7787 -0.5111
  941MPD2    C213811   0.574   0.368  10.090 -0.1007  0.0164  0.4682
  941MPD2    C313812   0.508   0.246  10.093  0.1035 -0.0832  0.5099
  941MPD2    C413813   0.405   0.219  10.005 -0.2554  0.5074 -0.4674
  941MPD2    C513814   0.359   0.328   9.932  0.2808 -0.3052 -0.1583
  941MPD2     H13815   0.668   0.386  10.141 -2.1743  2.0295  3.6104
  941MPD2    H113816   0.361   0.120  10.007  0.7992  0.1078  3.7114
  941MPD2    H213817   0.383   0.523   9.865  0.7872  0.0476 -0.1124
  941MPD2    H313818   0.270   0.316   9.872 -0.5636 -1.0536  1.2688
  941MPD2     N13819   0.560   0.140  10.172 -0.0856  0.1182  0.2911
  941MPD2    H513820   0.520   0.051  10.145 -0.7537  0.0578  1.4803
  941MPD2    N113821   0.603   0.587  10.000 -0.3167 -0.4709 -0.2191
  941MPD2    H713822   0.663   0.598  10.081 -0.3973 -2.0137  0.0320
  942MPD2     C13823   4.524   1.717   8.808  0.1146  0.0053  0.4375
  942MPD2    C113824   4.647   1.734   8.876 -0.6373  0.4899  0.9094
  942MPD2    C213825   0.027   1.722   8.792 -1.1153  0.1530 -0.1571
  942MPD2    C313826   0.016   1.691   8.661 -0.0035 -0.2041 -0.1518
  942MPD2    C413827   4.634   1.667   8.603 -0.7286 -0.1231 -0.1957
  942MPD2    C513828   4.521   1.676   8.680  0.4482  0.7478  0.3967
  942MPD2     H13829   0.125   1.740   8.834 -0.2348 -1.5852 -1.4278
  942MPD2    H113830   4.616   1.645   8.498  1.2671  0.5412 -0.6832
  942MPD2    H213831   4.430   1.729   8.861  0.6855 -1.2844  1.7048
  942MPD2    H313832   4.431   1.649   8.627  0.2090  2.3910 -0.0614
  942MPD2     N13833   0.129   1.700   8.578 -1.0017 -0.7151  0.8663
  942MPD2    H513834   0.115   1.700   8.478  0.6029  1.3354  0.6320
  942MPD2    N113835   4.660   1.772   9.010 -0.1388  0.3640 -0.3525
  942MPD2    H713836   0.017   1.788   9.040 -0.1710 -1.0823  0.5075
  943MPD2     C13837   4.574   0.686  10.081  0.0500 -0.4086  0.0053
  943MPD2    C113838   4.628   0.741  10.196 -0.3994 -0.5404  0.4951
  943MPD2    C213839   4.675   0.872  10.193  0.3186 -0.1105 -0.0200
  943MPD2    C313840   4.680   0.943  10.073 -0.2015  0.3359  0.9596
  943MPD2    C413841   4.633   0.881   9.955  0.0776 -0.0209  0.4053
  943MPD2    C513842   4.575   0.753   9.959 -0.4030 -0.8254  0.5223
  943MPD2     H13843   4.708   0.907  10.290  0.7582 -1.0505  0.1711
  943MPD2    H113844   4.639   0.925   9.856 -2.4068  0.0209  0.2692
  943MPD2    H213845   4.532   0.587  10.079  0.0995 -0.4658  1.8416
  943MPD2    H313846   4.539   0.710   9.867  3.1480 -1.3903 -0.6009
  943MPD2     N13847   4.726   1.072  10.084  0.0619 -0.7506 -0.1036
  943MPD2    H513848   0.004   1.103  10.180  1.4858  2.6621 -1.4620
  943MPD2    N113849   4.614   0.662  10.317  0.7168 -0.1169 -0.1481
  943MPD2    H713850   4.579   0.567  10.301 -0.8848  0.1871  1.5821
  944MPD2     C13851   4.360   4.500  11.073  0.3132  0.0938  0.0282
  944MPD2    C113852   4.429   4.612  11.037 -0.5250  0.2204 -0.2745
  944MPD2    C213853   4.434   4.718  11.129 -0.0004  0.1119 -0.2806
  944MPD2    C313854   4.364   4.711  11.250  0.0318  0.2329  0.2126
  944MPD2    C413855   4.297   4.601  11.276  0.5402  0.9822 -0.2960
  944MPD2    C513856   4.298   4.498  11.193 -0.3264  0.2982  0.0435
  944MPD2     H13857   4.504   0.061  11.123 -0.9370  1.0400  1.5480
  944MPD2    H113858   4.252   4.596  11.374 -1.2622  2.2472 -1.0735
  944MPD2    H213859   4.350   4.415  11.006  2.9071  0.6510 -1.0503
  944MPD2    H313860   4.267   4.401  11.229 -1.8335  0.9364  0.4642
  944MPD2     N13861   4.388   0.076  11.338 -0.1798  1.2003  0.6836
  944MPD2    H513862   4.452   0.148  11.308 -2.6984  2.6856 -1.1477
  944MPD2    N113863   4.515   4.610  10.927  0.0413  0.1744 -0.3646
  944MPD2    H713864   4.500   4.532  10.864 -1.6616 -2.2191  3.0011
    1TMC1    C113865   2.643   0.783  14.395  0.1398  0.7867 -0.1840
    1TMC1    C213866   2.514   0.818  14.353 -0.1995  0.3951  1.0001
    1TMC1    C313867   2.451   0.733  14.270  0.3865 -0.0148  0.9124
    1TMC1    C413868   2.704   0.664  14.356  0.1492  0.2815  0.2066
    1TMC1    C513869   2.639   0.587  14.263 -0.3491 -0.3198  0.1122
    1TMC1    C613870   2.503   0.619  14.231 -1.0594  0.3624 -0.3692
    1TMC1     C13871   2.724   0.863  14.483  0.2298  0.2138  0.4684
    1TMC1     O13872   2.844   0.843  14.499  0.2238  0.4420  0.3810
    1TMC1     H13873   2.487   0.923  14.355  3.4150  1.4094 -1.6087
    1TMC1    H113874   2.805   0.649  14.393 -0.6365 -0.1285  2.1495
    1TMC1    H213875   2.442   0.550  14.173 -1.2801 -1.9874  2.6206
    1TMC1    C713876   2.658   0.444  14.275  0.3368  0.4220  0.0059
    1TMC1    C813877   2.310   0.756  14.250  0.0455 -0.6798  0.2074
    1TMC1    O113878   2.560   0.369  14.261 -0.3717  0.1035 -0.2402
    1TMC1    O213879   2.263   0.710  14.149  0.2709  0.1303  0.9862
    1TMC1    O313880   2.786   0.406  14.310 -0.0163 -0.5024  0.5269
    1TMC1    H313881   2.853   0.476  14.293 -0.2070 -0.2888  0.6531
    1TMC1    O513882   2.246   0.749  14.371  0.8947 -0.2293  0.0713
    1TMC1    H513883   2.299   0.790  14.442  3.4501 -1.0314 -1.3613
    2MPD2     C13884   2.745   1.224  14.829 -0.4505 -0.2083  0.4855
    2MPD2    C113885   2.618   1.222  14.777 -0.3908  0.4173 -0.0296
    2MPD2    C213886   2.584   1.126  14.680 -0.1513  0.5200  0.7622
    2MPD2    C313887   2.683   1.038  14.648 -0.5645 -0.6864  0.3826
    2MPD2    C413888   2.810   1.044  14.695  0.7335  0.1096  0.2734
    2MPD2    C513889   2.837   1.130  14.795  0.0278  0.4772 -0.0869
    2MPD2     H13890   2.487   1.123  14.631  0.5725 -1.5520 -0.5152
    2MPD2    H113891   2.888   0.976  14.664 -0.2344 -0.4918 -0.8264
    2MPD2    H213892   2.755   1.292  14.913 -2.7728  0.6305  0.0751
    2MPD2    H313893   2.936   1.140  14.838  1.7119 -1.7122 -3.4596
    2MPD2     N13894   2.640   0.949  14.546  0.0204  0.6908 -0.3509
    2MPD2    H513895   2.545   0.950  14.512  0.1619  1.8724 -0.6909
    2MPD2    N113896   2.532   1.327  14.812  1.0441  0.4404 -0.3683
    2MPD2    H713897   2.574   1.414  14.844  0.8043  0.6746 -0.6868
    3TMC2    C113898   2.357   1.470  14.814  0.3284  0.4630 -0.3051
    3TMC2    C213899   2.241   1.475  14.887 -0.3234  0.1508 -0.3458
    3TMC2    C313900   2.184   1.598  14.894 -0.5468  0.3579  0.4813
    3TMC2    C413901   2.406   1.575  14.735 -1.0907  0.2974 -0.0408
    3TMC2    C513902   2.331   1.682  14.722 -0.0418 -0.4104  0.2374
    3TMC2    C613903   2.225   1.702  14.811 -0.9340 -0.4117  0.1760
    3TMC2     C13904   2.403   1.337  14.774  0.3276 -0.2535  0.5740
    3TMC2     O13905   2.326   1.247  14.745  0.2428  0.1460  0.1558
    3TMC2     H13906   2.209   1.391  14.947  1.1192  0.0482  0.2925
    3TMC2    H113907   2.488   1.557  14.667 -0.8579 -0.6982  0.5040
    3TMC2    H213908   2.163   1.791  14.809  1.8191  1.5030  0.3549
    3TMC2    C713909   2.402   1.802  14.674  0.2232 -0.2654 -0.7597
    3TMC2    C813910   2.045   1.595  14.937 -0.4860 -0.2359 -0.1008
    3TMC2    O113911   2.525   1.809  14.655  0.5673 -0.2968  0.5861
    3TMC2    O213912   1.959   1.672  14.900  0.0846  0.0142 -0.4137
    3TMC2    O513913   2.048   1.552  15.068 -0.1764 -0.2297 -0.5792
    3TMC2    H513914   2.141   1.535  15.096 -0.5947 -2.2729 -0.3974
    4TMC2    C113915   1.852   2.290  13.978  0.1370 -0.0091 -0.0900
    4TMC2    C213916   1.946   2.332  13.884  0.7612 -0.3026 -0.2253
    4TMC2    C313917   2.076   2.326  13.915 -0.7647 -0.2901 -0.0744
    4TMC2    C413918   1.880   2.230  14.100  0.0874  0.2155  0.4639
    4TMC2    C513919   2.016   2.213  14.117 -0.0816  0.1226  0.9329
    4TMC2    C613920   2.117   2.265  14.032 -0.2408  1.0148 -0.1512
    4TMC2     C13921   1.716   2.248  13.928  0.4987  0.7846 -0.3522
    4TMC2     O13922   1.651   2.188  14.010  0.3262 -0.1415 -0.9312
    4TMC2     H13923   1.918   2.388  13.796 -1.2004 -0.2516  0.4292
    4TMC2    H113924   1.810   2.167  14.154 -0.1655 -1.8885 -2.3063
    4TMC2    H213925   2.223   2.250  14.047 -0.9134 -1.0342  2.4880
    4TMC2    C713926   2.058   2.147  14.239  0.6072  0.3153  0.2949
    4TMC2    C813927   2.168   2.393  13.822 -0.0014  0.4586  0.5015
    4TMC2    O113928   1.990   2.060  14.292  0.3452  0.2104  0.0878
    4TMC2    O213929   2.133   2.430  13.710 -0.0107 -0.0384 -0.2974
    4TMC2    O513930   2.264   2.448  13.897  0.0768 -0.1377  0.2612
    4TMC2    H513931   2.259   2.431  13.994 -0.5508 -2.5821 -0.1984
    5MPD2     C13932   1.358   2.202  13.580  0.3887 -0.4615  0.7448
    5MPD2    C113933   1.437   2.311  13.543  0.1080 -0.0375  0.2736
    5MPD2    C213934   1.547   2.332  13.619 -0.0049 -0.6009  0.1109
    5MPD2    C313935   1.581   2.254  13.723  0.2214 -0.9459 -0.5585
    5MPD2    C413936   1.495   2.159  13.763  0.8050  0.2937 -0.1716
    5MPD2    C513937   1.393   2.118  13.683  0.7110 -0.2731 -0.0386
    5MPD2     H13938   1.607   2.422  13.608 -0.3798 -0.2592  0.9008
    5MPD2    H113939   1.510   2.101  13.853 -0.0582  0.9760  0.4129
    5MPD2    H213940   1.264   2.193  13.527  0.0915 -2.2639  1.5647
    5MPD2    H313941   1.332   2.036  13.717 -1.8187  2.0999  1.1118
    5MPD2     N13942   1.686   2.299  13.803  0.2532  0.3582  0.8215
    5MPD2    H513943   1.742   2.375  13.767 -1.0579  0.8919 -0.1260
    5MPD2    N113944   1.386   2.380  13.442  0.0488  0.0744  0.0703
    5MPD2    H713945   1.304   2.346  13.393  1.3474 -1.5220 -0.9625
    6MPD1     C13946   0.473   4.040  12.848 -0.4438 -0.6235  1.0650
    6MPD1    C113947   0.430   3.922  12.796  0.4225 -0.0554 -0.2315
    6MPD1    C213948   0.471   3.812  12.862 -0.8825  0.3398  0.4110
    6MPD1    C313949   0.550   3.811  12.973  0.5445 -0.4942  0.6032
    6MPD1    C413950   0.595   3.932  13.018 -0.8181 -0.0946  0.7213
    6MPD1    C513951   0.544   4.044  12.964 -0.4073  0.3135  0.6586
    6MPD1     H13952   0.430   3.716  12.835  2.0061 -1.4470  2.2653
    6MPD1    H113953   0.655   3.931  13.109  0.4626  0.9901 -0.1086
    6MPD1    H213954   0.448   4.132  12.796 -1.5303 -1.5810 -0.0930
    6MPD1    H313955   0.565   4.141  13.008  0.3445  1.1274 -1.4927
    6MPD1     N13956   0.606   3.692  13.034  0.3650 -0.1597 -0.2235
    6MPD1    H513957   0.678   3.701  13.105 -1.0064 -0.1516  1.1672
    6MPD1    N113958   0.365   3.912  12.669  0.2149  0.9481  0.0703
    6MPD1    H613959   0.296   3.984  12.645 -1.9986 -1.3318 -0.3989
    6MPD1    H713960   0.334   3.822  12.633 -1.5235  1.3309  0.5894
    7MPD2     C13961   0.675   2.897  12.890 -0.8546 -0.3340  0.0677
    7MPD2    C113962   0.726   2.924  13.017  0.4680  0.2205 -0.3705
    7MPD2    C213963   0.825   2.834  13.059  1.0387  0.3092  0.3346
    7MPD2    C313964   0.887   2.737  12.974  0.2189 -0.1495 -0.0371
    7MPD2    C413965   0.838   2.718  12.845 -0.1611  0.2889 -0.0728
    7MPD2    C513966   0.730   2.803  12.806  0.0135 -0.3939 -0.2164
    7MPD2     H13967   0.872   2.844  13.156  0.4510 -2.1630  0.8773
    7MPD2    H113968   0.884   2.645  12.781  1.5074  1.3821 -0.1346
    7MPD2    H213969   0.603   2.964  12.845 -0.0678  0.6480  0.2834
    7MPD2    H313970   0.695   2.796  12.704  0.6891 -0.7515 -0.4271
    7MPD2     N13971   0.998   2.654  13.009 -0.2684  0.5175  0.0978
    7MPD2    H513972   1.043   2.598  12.937  3.5779  2.1782  1.2099
    7MPD2    N113973   0.685   3.024  13.104  0.1920  0.0314  0.0379
    7MPD2    H713974   0.748   3.044  13.181 -0.2544  0.8945  0.1729
    8TMC3    C113975   1.181   2.571  13.138  0.8066  0.4086 -0.1085
    8TMC3    C213976   1.238   2.541  13.261 -0.5697 -0.1795 -0.7337
    8TMC3    C313977   1.370   2.559  13.277  0.2381  0.0754 -0.2949
    8TMC3    C413978   1.262   2.624  13.042 -0.2015 -0.7900  0.3376
    8TMC3    C513979   1.395   2.660  13.074 -0.0186 -1.2231  0.1302
    8TMC3    C613980   1.449   2.634  13.194  0.2204  0.3256  0.4729
    8TMC3     C13981   1.047   2.625  13.135  0.2171 -0.1178  0.5273
    8TMC3     O13982   1.000   2.668  13.239 -0.5483 -0.4532  0.3129
    8TMC3     H13983   1.177   2.507  13.344  0.8142  1.8085  1.0727
    8TMC3    H113984   1.233   2.647  12.941  1.7813 -1.7380 -0.4549
    8TMC3    H213985   1.552   2.662  13.213 -0.0215  0.8739  0.9855
    8TMC3    C713986   1.419   2.796  13.031 -0.6179 -0.4361  0.3048
    8TMC3    C813987   1.449   2.488  13.385  0.3625 -0.3169  0.9968
    8TMC3    O113988   1.532   2.840  13.020  0.1795  0.0389  0.0928
    8TMC3    O213989   1.562   2.519  13.396 -0.7818 -0.3004 -0.5727
    9TMC3    C113990   0.632   3.459  13.044  0.0118  0.4556  0.3273
    9TMC3    C213991   0.758   3.475  13.093  0.4587  0.5472  0.0367
    9TMC3    C313992   0.819   3.370  13.157 -0.4695  0.2285  0.3347
    9TMC3    C413993   0.564   3.347  13.073 -0.3830  0.5569 -0.0239
    9TMC3    C513994   0.630   3.247  13.140  0.1807 -0.5954  0.1303
    9TMC3    C613995   0.759   3.259  13.186  0.6729  0.3301  0.4312
    9TMC3     C13996   0.547   3.563  13.009 -0.5640  0.9776 -0.3120
    9TMC3     O13997   0.449   3.533  12.945  0.2826  0.0817 -0.7654
    9TMC3     H13998   0.811   3.564  13.060 -0.3610  1.1444  0.3157
    9TMC3    H113999   0.456   3.341  13.064 -0.5177  1.9413  0.8107
    9TMC3    H214000   0.814   3.180  13.235 -0.5466 -1.2533 -0.7572
    9TMC3    C714001   0.598   3.127  13.068 -0.3580 -0.3659 -0.4320
    9TMC3    C814002   0.963   3.370  13.140 -0.2147 -0.7945 -0.3787
    9TMC3    O114003   0.534   3.137  12.967  0.4057  0.8169  0.5165
    9TMC3    O214004   1.025   3.475  13.143 -0.2518 -0.9093  0.8296
   10MPD2     C14005   1.389   3.094  13.031 -0.4760 -0.7462 -0.3443
   10MPD2    C114006   1.285   3.006  13.056 -0.3816  0.7821 -0.3145
   10MPD2    C214007   1.157   3.059  13.074 -0.2807  0.2611  0.9471
   10MPD2    C314008   1.142   3.198  13.086  0.4670  0.1286  0.4807
   10MPD2    C414009   1.247   3.287  13.066  0.8367 -0.1945 -0.2564
   10MPD2    C514010   1.373   3.227  13.039  0.1529  0.0768  1.1949
   10MPD2     H14011   1.071   2.993  13.082 -0.8130  1.0272  1.5315
   10MPD2    H114012   1.243   3.395  13.076  3.4875 -0.0271 -0.8811
   10MPD2    H214013   1.492   3.067  13.014  0.7948  2.6656  2.0203
   10MPD2    H314014   1.461   3.287  13.021 -0.8765  0.3760 -2.7595
   10MPD2     N14015   1.011   3.247  13.114 -0.3908  0.5002  0.6877
   10MPD2    H514016   0.948   3.168  13.118 -1.8786  1.7177  1.4795
   10MPD2    N114017   1.303   2.862  13.063 -0.5642  0.2576 -0.1692
   10MPD2    H714018   1.215   2.814  13.073 -1.6133  2.2301  0.0584
   11MPD2     C14019   2.449   2.067  14.553 -0.1852 -0.1885 -0.6944
   11MPD2    C114020   2.330   1.995  14.537  0.0271  0.0594 -0.0133
   11MPD2    C214021   2.235   2.039  14.450 -0.2557  0.5823  0.1457
   11MPD2    C314022   2.253   2.159  14.384 -0.4152 -0.2231 -0.3874
   11MPD2    C414023   2.367   2.235  14.408  0.6145 -0.1387 -0.5100
   11MPD2    C514024   2.453   2.190  14.502  0.1534 -0.2504 -0.6936
   11MPD2     H14025   2.145   1.980  14.440 -1.5439  1.9328  3.9583
   11MPD2    H114026   2.378   2.331  14.359  1.5274  0.5496  1.0240
   11MPD2    H214027   2.523   2.039  14.627  0.0595 -0.0156 -0.8729
   11MPD2    H314028   2.543   2.250  14.517 -0.4400 -0.1059  2.2908
   11MPD2     N14029   2.165   2.213  14.294 -0.3384  0.4915  0.2434
   11MPD2    H514030   2.191   2.294  14.238  0.1032 -0.3576 -0.7976
   11MPD2    N114031   2.309   1.875  14.602 -0.6918  0.0659  0.7479
   11MPD2    H714032   2.213   1.845  14.591 -0.2626 -0.5176 -1.4702
    1MPD1     C14033   4.712   3.373  17.719 -0.7580  0.0265  0.0098
    1MPD1    C114034   4.641   3.312  17.623 -0.0791 -0.5253  0.1120
    1MPD1    C214035   4.675   3.337  17.491 -0.0213 -0.4692 -0.8210
    1MPD1    C314036   0.061   3.392  17.460 -0.9602  0.4121  0.0045
    1MPD1    C414037   0.140   3.443  17.558 -0.1331  0.1117  0.0414
    1MPD1    C514038   0.090   3.434  17.685  0.9123  0.3685  0.5238
    1MPD1     H14039   4.604   3.304  17.416  0.1779 -1.7811 -0.4418
    1MPD1    H114040   0.236   3.485  17.530  0.0608 -0.8466 -0.7339
    1MPD1    H214041   4.670   3.377   0.065  0.0876 -0.1060  0.3686
    1MPD1    H314042   0.151   3.471   0.012  0.7914 -0.4268  0.9789
    1MPD1     N14043   0.104   3.414  17.327 -0.2203  0.2595  0.4306
    1MPD1    H514044   0.181   3.478  17.311 -0.2913  0.1937 -0.1777
    1MPD1    N114045   4.523   3.247  17.653  0.6837 -0.0963  0.5007
    1MPD1    H614046   4.540   3.177  17.725 -2.4659 -2.5224 -1.1272
    1MPD1    H714047   4.479   3.186  17.585 -1.6830  0.0590  1.8792
    2MPD1     C14048   0.214   4.225  17.263 -0.0938 -0.5341  0.4160
    2MPD1    C114049   0.270   4.129  17.336 -0.1960  0.4480  0.6994
    2MPD1    C214050   0.244   4.002  17.294  0.1026  0.1357  0.4126
    2MPD1    C314051   0.185   3.973  17.168 -0.3777 -0.1758 -0.7678
    2MPD1    C414052   0.148   4.077  17.093 -0.5563 -0.4700  0.1897
    2MPD1    C514053   0.152   4.201  17.143 -0.0102  0.3205  0.3426
    2MPD1     H14054   0.270   3.923  17.363  0.6091  1.5533  1.8598
    2MPD1    H114055   0.108   4.056  16.994  1.3025  1.3821 -0.9594
    2MPD1    H214056   0.227   4.327  17.299  2.1282 -0.1903 -1.3905
    2MPD1    H314057   0.109   4.278  17.080  0.7786  1.8129  1.6368
    2MPD1     N14058   0.169   3.840  17.133  0.3922 -0.3096  0.1434
    2MPD1    H514059   0.193   3.770  17.202 -3.0392 -1.9195 -0.3103
    2MPD1    N114060   0.306   4.153  17.468  0.2001 -0.2419  0.7056
    2MPD1    H614061   0.360   4.239  17.476  0.7000 -0.3494 -1.5589
    2MPD1    H714062   0.372   4.085  17.505 -0.7285 -1.8735 -0.6120
    3TMC3    C114063   0.101   3.648  17.007 -0.0276 -0.3312  0.4565
    3TMC3    C214064   0.069   3.596  16.885 -0.5105  0.4675  0.1626
    3TMC3    C314065   0.043   3.463  16.873 -0.4585 -1.0088 -0.2912
    3TMC3    C414066   0.103   3.579  17.128 -0.0373  0.2648 -0.1279
    3TMC3    C514067   0.067   3.447  17.104 -0.1541  0.5170  0.1942
    3TMC3    C614068   0.040   3.388  16.983 -0.0270 -0.0811 -0.3428
    3TMC3     C14069   0.121   3.798  17.013  0.4405  0.5617  0.4814
    3TMC3     O14070   0.094   3.857  16.910  0.2575  0.2093 -0.3613
    3TMC3     H14071   0.099   3.647  16.794  1.8867  2.6800  2.2094
    3TMC3    H114072   0.094   3.617  17.229  0.1829  0.2205 -0.0934
    3TMC3    H214073   0.009   3.285  16.972 -0.4026 -0.0898  0.8447
    3TMC3    C714074   0.029   3.369  17.219 -0.1036 -0.3351 -0.4487
    3TMC3    C814075   4.708   3.404  16.760  0.8497  0.5062 -0.7851
    3TMC3    O114076   4.684   3.284  17.201 -0.5065  0.1492  0.5676
    3TMC3    O214077   4.637   3.308  16.787  0.6270  0.8686 -0.5830
    4MPD1     C14078   4.519   3.436  16.281  0.4929  0.2119 -0.3728
    4MPD1    C114079   4.628   3.516  16.297 -0.3879 -0.2039 -0.2685
    4MPD1    C214080   4.693   3.524  16.417 -0.3070 -0.7579  0.2338
    4MPD1    C314081   4.649   3.446  16.520  0.0695 -0.0398 -0.1929
    4MPD1    C414082   4.536   3.361  16.508  0.0797  0.0531 -0.2122
    4MPD1    C514083   4.473   3.360  16.384 -0.6392 -0.6945  0.1757
    4MPD1     H14084   0.031   3.600  16.433  0.3298 -1.2845 -0.3492
    4MPD1    H114085   4.495   3.305  16.592  2.4150 -1.8210 -0.3306
    4MPD1    H214086   4.478   3.418  16.183 -0.3720 -0.6615  0.1546
    4MPD1    H314087   4.388   3.303  16.349 -0.3742 -0.4044 -0.9467
    4MPD1     N14088   4.720   3.476  16.641  0.5869  0.2818  0.2801
    4MPD1    H514089   0.053   3.548  16.636 -0.1435  1.1522  2.6583
    4MPD1    N114090   4.664   3.605  16.194 -0.1352 -1.0107 -0.6289
    4MPD1    H614091   4.642   3.561  16.105 -0.5453  0.3783 -1.2115
    4MPD1    H714092   0.027   3.605  16.202 -0.2014 -2.1379  0.1309
    1TCq1    O114093   1.515   2.745  12.642  0.1081 -0.1284  0.2716
    1TCq1    C114094   1.463   2.759  12.516 -1.1121  0.0343  0.4106
    1TCq1    O214095   1.488   2.856  12.440  0.4739 -0.2287 -0.2795
    1TCq1    C214096   1.427   2.631  12.463  0.3588  0.1344  0.7469
    1TCq1    C314097   1.361   2.540  12.538  0.0625  0.0289  0.2768
    1TCq1    C414098   1.315   2.428  12.472  0.4436 -0.0782 -0.2651
    1TCq1    C514099   1.361   2.390  12.351  0.2820 -0.1604  0.1177
    1TCq1    C614100   1.435   2.481  12.283  0.2638  1.3916 -0.1907
    1TCq1    C714101   1.469   2.604  12.333  0.0550  0.2826  0.6257
    1TCq1    C814102   1.475   2.449  12.150 -0.2743 -0.2720  0.9129
    1TCq1    O414103   1.577   2.509  12.109  0.1942  0.3770 -0.0513
    1TCq1    C914104   1.247   2.328  12.555  0.1767 -0.2767 -0.6720
    1TCq1    O514105   1.256   2.351  12.681  0.3398 -0.1844  0.1664
    1TCq1    O614106   1.207   2.220  12.505 -0.0438 -0.9862 -0.0513
    1TCq1    H114107   1.485   2.665  12.692  0.8266  0.7628  2.1212
    1TCq1    H214108   1.316   2.574  12.631 -0.0431 -0.8980  0.5648
    1TCq1    H314109   1.350   2.287  12.319  0.3701 -0.3581  0.7356
    1TCq1    H414110   1.523   2.675  12.271 -1.7606 -0.2243 -1.5162
    2MPD1     C14111   1.298   2.359  11.671 -0.4346 -0.4648 -0.6090
    2MPD1    C114112   1.210   2.323  11.763 -0.8275 -0.3296 -0.1311
    2MPD1    C214113   1.240   2.318  11.897  0.0365 -0.0698  0.1377
    2MPD1    C314114   1.362   2.369  11.939  0.1349  0.3184 -0.3061
    2MPD1    C414115   1.458   2.404  11.845  0.0632  0.1087 -0.5355
    2MPD1    C514116   1.425   2.401  11.713  0.3350  0.3021  0.1742
    2MPD1     H14117   1.167   2.285  11.969 -1.3157  2.3212 -0.1512
    2MPD1    H114118   1.546   2.449  11.889 -0.4574  0.5300  0.0767
    2MPD1    H214119   1.278   2.349  11.565  0.1882 -0.8908 -0.6827
    2MPD1    H314120   1.499   2.430  11.639  1.0798 -1.1571  0.3385
    2MPD1     N14121   1.373   2.389  12.082  0.1798  0.1716  0.1712
    2MPD1    H514122   1.295   2.361  12.141  0.3435 -1.4807 -0.3885
    2MPD1    N114123   1.088   2.266  11.719 -0.4606 -0.4054  0.3079
    2MPD1    H614124   1.044   2.305  11.636  0.2696  2.5815  1.3168
    2MPD1    H714125   1.018   2.245  11.791  0.7941  2.5912  2.4235
    1TMC1    C114126   2.827   0.465   1.238  0.3996 -0.2628 -0.1171
    1TMC1    C214127   2.882   0.373   1.155 -0.0806 -0.4497 -0.2693
    1TMC1    C314128   2.822   0.340   1.038  0.6357 -0.5101  0.6462
    1TMC1    C414129   2.708   0.533   1.210 -0.5965  0.2202  0.7900
    1TMC1    C514130   2.644   0.488   1.096 -0.3901  0.0003  0.2908
    1TMC1    C614131   2.701   0.397   1.008 -0.2606  0.1043  0.5900
    1TMC1     C14132   2.922   0.527   1.335  0.2425 -0.1138 -0.4265
    1TMC1     O14133   3.044   0.513   1.316  0.2780  0.0813  0.1466
    1TMC1     H14134   2.981   0.335   1.177 -0.2347 -0.5728  0.2064
    1TMC1    H114135   2.653   0.594   1.281  0.2216  2.6408 -0.6777
    1TMC1    H214136   2.649   0.355   0.923 -0.5149 -0.0937  0.8407
    1TMC1    C714137   2.500   0.516   1.080  0.1354 -0.6006 -0.3705
    1TMC1    C814138   2.881   0.255   0.939 -0.6428 -0.2390  0.4940
    1TMC1    O114139   2.425   0.440   1.013 -0.1728 -0.2083  0.1907
    1TMC1    O214140   2.820   0.193   0.853  0.1678 -0.2111 -0.2120
    1TMC1    O314141   2.482   0.652   1.083 -0.0966 -0.6111  0.3989
    1TMC1    H314142   2.556   0.708   1.116 -1.3315  0.4866  1.3037
    1TMC1    O514143   3.004   0.314   0.916  0.4221 -0.8366 -0.7010
    1TMC1    H514144   3.031   0.391   0.972 -1.4124  0.6154 -1.8156
    2MPD1     C14145   3.029   0.810   1.737  0.0762  0.2143  0.1174
    2MPD1    C114146   2.921   0.737   1.767  0.4380 -0.2888  0.1063
    2MPD1    C214147   2.859   0.659   1.665 -0.3755  0.3248  0.9186
    2MPD1    C314148   2.918   0.656   1.534  0.9614 -0.6389 -0.5883
    2MPD1    C414149   3.035   0.722   1.512 -0.2904  0.7160 -0.2683
    2MPD1    C514150   3.093   0.793   1.613  0.2627  0.3356  0.1344
    2MPD1     H14151   2.767   0.607   1.685  0.2238 -0.5647  1.3314
    2MPD1    H114152   3.073   0.738   1.412 -0.2708 -1.4148 -0.6032
    2MPD1    H214153   3.066   0.882   1.810  0.8709 -0.5454  0.4629
    2MPD1    H314154   3.185   0.847   1.594  0.0789  0.4039 -0.5675
    2MPD1     N14155   2.855   0.593   1.433 -0.1022  0.0057  0.0870
    2MPD1    H514156   2.757   0.576   1.455 -0.1845  0.3830  0.0186
    2MPD1    N114157   2.863   0.757   1.890  0.3045 -0.2989 -0.6570
    2MPD1    H614158   2.921   0.804   1.959 -0.8021  0.0301  0.0369
    2MPD1    H714159   2.813   0.680   1.934 -1.5415  1.5108  0.3906
    1MPD1     C14160   2.524   2.812  12.654  0.1784 -0.2911  0.2888
    1MPD1    C114161   2.496   2.942  12.626  0.5074 -0.4564 -0.2009
    1MPD1    C214162   2.589   3.003  12.545 -0.3304 -0.1939 -0.2056
    1MPD1    C314163   2.704   2.947  12.496 -0.1093  0.0087 -0.2000
    1MPD1    C414164   2.730   2.817  12.531 -0.9853 -0.5608  0.3539
    1MPD1    C514165   2.637   2.750  12.608 -0.1674 -0.7998  0.1196
    1MPD1     H14166   2.559   3.101  12.510  0.4219 -0.1953 -0.8495
    1MPD1    H114167   2.824   2.766  12.518 -0.2272  1.3430 -1.7660
    1MPD1    H214168   2.455   2.749  12.710 -0.0048 -1.3759 -1.1482
    1MPD1    H314169   2.642   2.645  12.632  4.9465 -0.4794  0.4326
    1MPD1     N14170   2.794   3.022  12.410  0.0611 -0.2815  0.1771
    1MPD1    H514171   2.767   3.117  12.387  1.9779 -0.1708 -1.7202
    1MPD1    N114172   2.362   2.985  12.653 -0.3011  0.4327 -0.2172
    1MPD1    H614173   2.352   3.087  12.649 -1.2622  0.3618  0.2054
    1MPD1    H714174   2.322   2.947  12.738  0.0132  0.8579  0.1166
    2MPD1     C14175   2.317   3.488  11.296  0.7420 -0.4133  0.4480
    2MPD1    C114176   2.276   3.376  11.234  0.9289  0.0601 -0.3029
    2MPD1    C214177   2.363   3.316  11.144  0.6705  0.5290 -0.4638
    2MPD1    C314178   2.495   3.358  11.125  0.2202 -0.2161  0.0110
    2MPD1    C414179   2.534   3.472  11.190  0.1535  0.4136 -0.0061
    2MPD1    C514180   2.442   3.537  11.268 -0.7372  0.4659 -0.4412
    2MPD1     H14181   2.338   3.212  11.122 -4.5336  1.9750 -1.4791
    2MPD1    H114182   2.636   3.507  11.185  0.9492 -1.5207  2.3786
    2MPD1    H214183   2.257   3.539  11.371  2.1517 -1.2576  2.1559
    2MPD1    H314184   2.483   3.626  11.316 -0.3397  1.0554 -1.8679
    2MPD1     N14185   2.579   3.280  11.046 -0.8461 -0.2528 -0.0572
    2MPD1    H514186   2.675   3.311  11.051 -0.9848  0.2606 -0.5486
    2MPD1    N114187   2.162   3.310  11.279  0.1088  0.0085  0.0787
    2MPD1    H614188   2.131   3.247  11.205 -0.8152  0.1227  0.3652
    2MPD1    H714189   2.084   3.373  11.300 -0.8798 -1.1255 -0.2094
    3MPD1     C14190   2.481   2.658  10.191  0.0390 -0.3639  0.0634
    3MPD1    C114191   2.388   2.660  10.291 -0.6430  0.3203 -0.1092
    3MPD1    C214192   2.418   2.729  10.412 -0.4333 -0.4618  0.2405
    3MPD1    C314193   2.537   2.799  10.426  0.0461  0.3769 -0.4944
    3MPD1    C414194   2.630   2.784  10.323 -0.4962  0.1906  1.0475
    3MPD1    C514195   2.601   2.716  10.208  0.7634 -0.3976 -0.1967
    3MPD1     H14196   2.349   2.734  10.495 -1.4093  1.2172 -0.6783
    3MPD1    H114197   2.728   2.830  10.327  1.2375 -3.1493 -3.3690
    3MPD1    H214198   2.455   2.616  10.095  0.0693 -1.0292  0.3502
    3MPD1    H314199   2.669   2.716  10.123  1.1478  1.6053  0.1233
    3MPD1     N14200   2.560   2.869  10.548 -0.0820  0.4634  0.2809
    3MPD1    H514201   2.479   2.872  10.609 -1.0101  1.3188 -0.9766
    3MPD1    N114202   2.265   2.602  10.274 -0.3449 -0.0086  0.5920
    3MPD1    H614203   2.271   2.525  10.207 -0.1324 -0.0718  0.6845
    3MPD1    H714204   2.243   2.553  10.360 -0.8991  0.9970  1.0210
    4MPD2     C14205   2.953   3.485  11.799 -0.3589  0.1030  0.7408
    4MPD2    C114206   3.059   3.423  11.855  0.0681 -0.4637  0.1664
    4MPD2    C214207   3.184   3.423  11.788 -0.2698 -0.1603 -0.4472
    4MPD2    C314208   3.202   3.466  11.657 -0.6896  0.0144 -0.2316
    4MPD2    C414209   3.092   3.522  11.601 -0.0718 -0.3007 -0.6137
    4MPD2    C514210   2.971   3.535  11.667  0.9410 -0.1867 -0.7675
    4MPD2     H14211   3.265   3.385  11.849 -0.8074  0.4445  0.6349
    4MPD2    H114212   3.098   3.564  11.502 -1.1761 -0.3509 -0.6943
    4MPD2    H214213   2.861   3.506  11.853  0.9459 -0.2072  3.0802
    4MPD2    H314214   2.898   3.592  11.611  0.9440 -0.5712 -1.1547
    4MPD2     N14215   3.325   3.456  11.581 -0.1796 -0.2000 -0.3336
    4MPD2    H514216   3.326   3.509  11.494  1.7226  0.6001  0.1934
    4MPD2    N114217   3.069   3.378  11.991 -0.2318  0.1243  0.2424
    4MPD2    H714218   3.162   3.356  12.027 -0.4645 -0.3344  0.5570
    5TMC3    C114219   3.000   3.288  12.194  0.6660 -0.5728  0.4785
    5TMC3    C214220   2.918   3.182  12.223  0.3362  0.2792 -0.3651
    5TMC3    C314221   2.983   3.066  12.261 -0.4234 -0.2359  0.0569
    5TMC3    C414222   3.135   3.277  12.204  0.0060 -0.0658  0.0044
    5TMC3    C514223   3.201   3.159  12.226 -0.2553  0.0536 -0.5625
    5TMC3    C614224   3.121   3.056  12.258 -0.4276  0.3602 -0.5002
    5TMC3     C14225   2.958   3.345  12.068  0.2547 -0.4878 -0.7806
    5TMC3     O14226   2.836   3.344  12.037 -0.2608  0.3054 -0.5584
    5TMC3     H14227   2.811   3.200  12.225  0.3891  0.6255 -0.7866
    5TMC3    H114228   3.196   3.367  12.200  0.1561 -0.2102 -0.9208
    5TMC3    H214229   3.168   2.962  12.284  0.7973  1.3317  0.7807
    5TMC3    C714230   3.294   3.146  12.119 -0.0070 -0.3633 -0.3161
    5TMC3    C814231   2.907   2.972  12.350 -0.5183  0.3972 -0.3681
    5TMC3    O114232   3.297   3.249  12.051  0.0439 -0.6963  0.2082
    5TMC3    O214233   2.956   2.860  12.378 -0.1612  0.5060 -0.6639
    6TMC3    C114234   2.646   3.109  10.885 -0.6285  0.1693  0.1849
    6TMC3    C214235   2.620   3.028  10.776  0.0753  0.2574  0.1652
    6TMC3    C314236   2.720   2.956  10.716 -0.0373  0.7701 -0.0146
    6TMC3    C414237   2.776   3.122  10.929  0.0173  0.4515  0.4072
    6TMC3    C514238   2.872   3.041  10.868  0.5704 -0.6367 -0.0050
    6TMC3    C614239   2.842   2.950  10.769 -0.1138 -0.2437 -0.0147
    6TMC3     C14240   2.536   3.198  10.939  0.3687  0.7367 -0.0339
    6TMC3     O14241   2.422   3.172  10.897 -0.4556 -0.0283  0.0148
    6TMC3     H14242   2.523   3.036  10.726 -1.0970 -4.1018  1.6950
    6TMC3    H114243   2.802   3.187  11.011  0.0591  0.5778  0.2932
    6TMC3    H214244   2.912   2.884  10.721  0.5752 -0.3729  1.1671
    6TMC3    C714245   3.005   3.042  10.931 -0.1344 -0.2717  0.4277
    6TMC3    C814246   2.692   2.904  10.582  0.1535 -0.2324  0.6523
    6TMC3    O114247   3.017   3.106  11.034 -0.1862 -0.1339  0.1751
    6TMC3    O214248   2.800   2.873  10.530  0.4328  0.0513  0.6844
    7MPD2     C14249   3.552   2.850  11.797  0.0742  0.3104 -0.2705
    7MPD2    C114250   3.526   2.988  11.796  0.4760 -0.2952  0.2372
    7MPD2    C214251   3.452   3.045  11.898 -0.0873 -0.7830 -0.3074
    7MPD2    C314252   3.399   2.964  12.000 -0.0954  0.9950  0.0795
    7MPD2    C414253   3.424   2.825  11.997  1.1830  0.4348  0.1038
    7MPD2    C514254   3.506   2.776  11.900  0.5664  0.1974 -0.4245
    7MPD2     H14255   3.429   3.151  11.898  1.1068 -0.5208 -0.6131
    7MPD2    H114256   3.385   2.763  12.077 -0.7286  0.8433 -0.5159
    7MPD2    H214257   3.603   2.812  11.709 -0.5833 -1.2863  0.0261
    7MPD2    H314258   3.522   2.669  11.894  1.4124  0.1636  2.5710
    7MPD2     N14259   3.320   3.016  12.099  0.3722 -0.2078 -0.0317
    7MPD2    H514260   3.287   2.953  12.172 -0.9972  0.4390 -0.1056
    7MPD2    N114261   3.564   3.078  11.691  0.1108 -0.5038  0.3583
    7MPD2    H714262   3.542   3.176  11.709 -0.5917 -0.4529 -0.7782
    8TMC3    C114263   3.647   3.158  11.498  0.0406  0.3781  0.4983
    8TMC3    C214264   3.595   3.128  11.374 -0.7366 -0.1124 -0.4846
    8TMC3    C314265   3.512   3.216  11.313  0.0248  0.6443  0.1626
    8TMC3    C414266   3.623   3.278  11.559  0.3355  0.0908 -0.5186
    8TMC3    C514267   3.525   3.354  11.504 -0.4900 -0.0428  0.3597
    8TMC3    C614268   3.472   3.330  11.384  0.5253  0.2413 -0.5144
    8TMC3     C14269   3.628   3.041  11.577  0.5118  0.0701 -0.0807
    8TMC3     O14270   3.639   2.928  11.529  0.2204 -0.1009  0.0601
    8TMC3     H14271   3.600   3.029  11.329  3.0503 -0.5968  1.0557
    8TMC3    H114272   3.676   3.315  11.647  0.8402 -2.3665  0.2021
    8TMC3    H214273   3.387   3.381  11.341 -0.8848 -2.4792 -0.9401
    8TMC3    C714274   3.437   3.393  11.613 -0.3699  0.6201  0.4955
    8TMC3    C814275   3.434   3.182  11.199  0.6156 -0.6405 -0.1801
    8TMC3    O114276   3.458   3.329  11.718  0.2530  0.4893  0.2750
    8TMC3    O214277   3.317   3.220  11.197 -0.3576  0.4103 -0.3391
    9MPD2     C14278   3.520   2.964  10.915  0.5142  0.2835 -0.9582
    9MPD2    C114279   3.437   3.022  11.013  0.4889 -0.6364 -0.1347
    9MPD2    C214280   3.302   3.025  11.000  0.6442  0.5701 -0.4725
    9MPD2    C314281   3.242   2.968  10.890 -0.0268 -0.7813  0.2929
    9MPD2    C414282   3.324   2.915  10.793 -0.0290 -0.2079  0.4638
    9MPD2    C514283   3.461   2.899  10.809 -0.4507 -0.6611  0.1134
    9MPD2     H14284   3.244   3.065  11.082 -1.2208  0.1835 -1.5974
    9MPD2    H114285   3.276   2.884  10.701  1.6677 -0.8095 -0.2207
    9MPD2    H214286   3.628   2.977  10.917  0.4126  1.1625 -0.8981
    9MPD2    H314287   3.520   2.852  10.731 -0.6221 -1.2618  0.3454
    9MPD2     N14288   3.102   2.967  10.863  0.4206 -0.2542 -0.1661
    9MPD2    H514289   3.067   2.914  10.784  1.1603  0.5395 -1.0342
    9MPD2    N114290   3.500   3.094  11.123  0.0836 -0.4954  0.0172
    9MPD2    H714291   3.597   3.077  11.145  0.5362  0.1871 -1.4490
    1MPD1     C14292   2.888   2.887  16.362 -0.9412  0.2889 -0.5771
    1MPD1    C114293   2.995   2.808  16.325 -1.2380  0.2808  0.2453
    1MPD1    C214294   2.978   2.672  16.306  0.6207 -0.1511  0.3326
    1MPD1    C314295   2.856   2.608  16.336  0.2965  0.0275  0.6112
    1MPD1    C414296   2.749   2.688  16.377 -0.0332  0.0433 -0.3070
    1MPD1    C514297   2.766   2.828  16.385 -0.0164  1.0005  0.3019
    1MPD1     H14298   3.057   2.606  16.274  1.0402  0.9901 -0.9694
    1MPD1    H114299   2.647   2.658  16.401  0.3353 -0.6334  0.4219
    1MPD1    H214300   2.902   2.993  16.384  0.7175 -0.3042  1.2333
    1MPD1    H314301   2.686   2.894  16.417  3.1445  3.9347  2.1084
    1MPD1     N14302   2.832   2.468  16.324  0.0338  0.4696  0.0336
    1MPD1    H514303   2.738   2.438  16.349  0.7082 -1.9879 -0.3357
    1MPD1    N114304   3.107   2.874  16.283 -0.6868 -0.5012 -0.1326
    1MPD1    H614305   3.124   2.970  16.313  0.3698 -0.7517  0.1061
    1MPD1    H714306   3.190   2.816  16.299  0.1346  1.0790  1.3896
    2TMC2    C114307   2.760   2.082  16.113 -0.2589  0.0934 -0.0316
    2TMC2    C214308   2.672   2.042  16.212 -0.2076  0.1411 -0.4003
    2TMC2    C314309   2.671   2.109  16.332 -0.1486  0.8075 -0.1406
    2TMC2    C414310   2.843   2.186  16.127 -0.2151  0.1836  0.3207
    2TMC2    C514311   2.846   2.247  16.253 -0.1424 -0.1564  0.0405
    2TMC2    C614312   2.761   2.203  16.355  0.3585  0.5969  0.0474
    2TMC2     C14313   2.730   2.025  15.980  0.7658 -0.2610 -0.2208
    2TMC2     O14314   2.679   1.915  15.968 -0.1743  0.2366  0.4745
    2TMC2     H14315   2.613   1.957  16.180 -0.8016  0.2914  0.2896
    2TMC2    H114316   2.905   2.217  16.043  1.9406 -1.1622  1.4077
    2TMC2    H214317   2.745   2.256  16.448  4.2442 -2.1553  2.2820
    2TMC2    C714318   2.920   2.373  16.275  0.2415 -0.0025 -0.1504
    2TMC2    C814319   2.599   2.051  16.439 -0.2957 -0.2228  0.0686
    2TMC2    O114320   3.022   2.384  16.208  0.3624  0.3865 -0.2734
    2TMC2    O214321   2.611   2.079  16.555 -0.1304  0.3758 -0.5950
    2TMC2    O514322   2.479   2.030  16.380 -0.8285 -0.2461  0.2826
    2TMC2    H514323   2.478   2.039  16.282 -0.9465 -0.0026  0.3070
    3MPD1     C14324   2.811   1.999  15.470 -0.4298 -0.3326  0.4673
    3MPD1    C114325   2.781   2.130  15.511 -0.1221  0.3784 -0.0603
    3MPD1    C214326   2.769   2.166  15.643 -0.3513  0.7469  0.3764
    3MPD1    C314327   2.781   2.064  15.739 -0.8425  0.0326 -0.5085
    3MPD1    C414328   2.799   1.931  15.700  0.2723  0.8514  0.0203
    3MPD1    C514329   2.814   1.902  15.567 -0.4016 -0.2414 -0.0663
    3MPD1     H14330   2.762   2.267  15.683  0.3168 -0.4474  3.4879
    3MPD1    H114331   2.812   1.857  15.777 -1.7380  0.7911  0.3118
    3MPD1    H214332   2.832   1.974  15.366  1.4267 -2.2601  1.2944
    3MPD1    H314333   2.830   1.801  15.532 -0.3231 -0.3821  0.3751
    3MPD1     N14334   2.767   2.105  15.875 -0.1613 -0.1180  0.4338
    3MPD1    H514335   2.773   2.204  15.898  2.5849  0.6371 -3.4882
    3MPD1    N114336   2.756   2.226  15.407  0.2469  0.8804  0.4896
    3MPD1    H614337   2.752   2.321  15.443  0.2296  0.9076  0.4174
    3MPD1    H714338   2.790   2.219  15.311 -1.4773  0.1268 -0.0596
    1TMC1    C114339   0.885   0.626  12.902 -0.3851 -0.9456  0.1602
    1TMC1    C214340   0.874   0.550  13.021 -0.3402  0.1654 -0.4754
    1TMC1    C314341   0.767   0.468  13.040  0.1093  0.0931  0.1378
    1TMC1    C414342   0.775   0.627  12.815 -0.1600 -0.3687  0.7232
    1TMC1    C514343   0.669   0.551  12.852  0.3228 -0.0167  0.0633
    1TMC1    C614344   0.657   0.466  12.963 -0.3449  0.7078  0.3901
    1TMC1     C14345   0.991   0.728  12.889  0.5782  0.4902 -0.7049
    1TMC1     O14346   0.990   0.797  12.790  0.1330 -0.4279  0.0144
    1TMC1     H14347   0.959   0.531  13.086  1.5650  0.6396 -2.8174
    1TMC1    H114348   0.766   0.711  12.747  0.4807 -0.7422  0.1663
    1TMC1    H214349   0.572   0.399  12.972  0.4227  0.0058  2.3350
    1TMC1    C714350   0.560   0.569  12.761 -0.7387 -0.5234 -0.1901
    1TMC1    C814351   0.798   0.369  13.137 -0.2591  0.3176  0.1698
    1TMC1    O114352   0.441   0.548  12.782  0.7237  0.6255  0.1543
    1TMC1    O214353   0.909   0.319  13.152  0.4074 -0.2985  0.3101
    1TMC1    O314354   0.615   0.563  12.638 -0.1046  0.3326 -0.0634
    1TMC1    H314355   0.712   0.547  12.642 -0.0361  0.5288 -0.9891
    1TMC1    O514356   0.689   0.335  13.204 -0.4659  0.1733  0.3064
    1TMC1    H514357   0.603   0.369  13.171 -1.6989 -1.4341  1.9312
    2MPD2     C14358   1.280   0.816  12.936  0.0692  0.4278  0.3054
    2MPD2    C114359   1.176   0.828  13.028  0.0474 -0.0084 -0.0306
    2MPD2    C214360   1.205   0.878  13.150  0.2116  0.3187 -0.7478
    2MPD2    C314361   1.332   0.926  13.176 -0.2624  0.1971  0.1143
    2MPD2    C414362   1.428   0.922  13.082  0.0106  0.3385 -0.5403
    2MPD2    C514363   1.404   0.860  12.959 -0.1097  0.1602 -0.3309
    2MPD2     H14364   1.125   0.896  13.221  1.0242  2.2894 -0.3390
    2MPD2    H114365   1.531   0.955  13.095 -0.3267  1.5578 -0.9788
    2MPD2    H214366   1.256   0.781  12.836 -1.5211  3.4956 -0.3648
    2MPD2    H314367   1.476   0.862  12.878 -0.7596 -0.0503 -0.9193
    2MPD2     N14368   1.356   0.986  13.308  0.3108 -0.7652  0.4878
    2MPD2    H514369   1.278   0.982  13.372  1.2242  0.7045  1.6969
    2MPD2    N114370   1.053   0.757  13.008 -0.2105  0.2664 -0.6682
    2MPD2    H714371   0.999   0.714  13.083  0.9465 -1.0938 -0.6203
    3TCq1    O114372   1.365   1.402  13.754 -0.0331  0.4449  0.0043
    3TCq1    C114373   1.313   1.291  13.705  0.3062  0.1142  0.0731
    3TCq1    O214374   1.209   1.276  13.642  0.1820 -0.4624 -0.0363
    3TCq1    C214375   1.415   1.200  13.667  0.2334 -0.4056  0.3189
    3TCq1    C314376   1.509   1.147  13.750  0.6414 -0.3594  0.1186
    3TCq1    C414377   1.586   1.044  13.703  0.1613 -0.3664  0.3081
    3TCq1    C514378   1.578   0.992  13.578  0.4038  0.2644  0.5197
    3TCq1    C614379   1.479   1.038  13.501  0.0848 -0.8736 -0.3415
    3TCq1    C714380   1.386   1.132  13.548 -0.2473 -0.3953 -0.0035
    3TCq1    C814381   1.481   0.991  13.366  0.4014 -0.3353 -0.2183
    3TCq1    O414382   1.587   0.974  13.311  0.3307 -0.3170 -0.5554
    3TCq1    C914383   1.686   0.985  13.795 -0.2936 -0.7688 -0.0525
    3TCq1    O514384   1.687   1.014  13.919 -0.4924 -0.4063  0.6357
    3TCq1    O614385   1.773   0.909  13.740 -0.0979 -0.6097  0.4852
    3TCq1    H114386   1.450   1.381  13.799 -1.0651 -2.1713  0.7251
    3TCq1    H214387   1.534   1.186  13.848  1.4686 -0.5613 -0.0114
    3TCq1    H314388   1.648   0.914  13.549 -0.1505  0.6130 -1.7695
    3TCq1    H414389   1.301   1.159  13.486 -1.1956  1.6245  2.1496
    1MPD2     C14390   0.443   1.783  14.659 -0.0446  0.4872 -0.1820
    1MPD2    C114391   0.314   1.819  14.679  0.7514 -0.4502  0.2045
    1MPD2    C214392   0.213   1.733  14.640 -0.2018  0.1034 -0.7894
    1MPD2    C314393   0.245   1.622  14.566 -0.0167  0.5969 -0.0669
    1MPD2    C414394   0.370   1.590  14.535 -0.2791 -0.2256 -0.2349
    1MPD2    C514395   0.470   1.669  14.590  0.8354  0.5342  0.5577
    1MPD2     H14396   0.111   1.767  14.654  1.2048  3.9979  0.1538
    1MPD2    H114397   0.393   1.496  14.486 -0.3709  0.4964 -1.6667
    1MPD2    H214398   0.527   1.848  14.682  0.4555 -0.3236  0.2960
    1MPD2    H314399   0.575   1.647  14.573  0.8701  0.2069  1.2109
    1MPD2     N14400   0.144   1.527  14.523  0.3201  0.3602 -0.6753
    1MPD2    H514401   0.183   1.448  14.473 -2.0472 -0.9930 -0.4201
    1MPD2    N114402   0.282   1.939  14.762 -0.3601  0.4022 -0.3593
    1MPD2    H714403   0.352   2.006  14.790 -1.6964  1.6429 -0.0183
    2TMC3    C114404   0.142   2.080  14.901 -0.1297  0.9050  0.1131
    2TMC3    C214405   0.046   2.059  15.007  0.4443 -0.3771  0.3064
    2TMC3    C314406   4.688   2.152  15.025  0.2202  0.1478  0.7257
    2TMC3    C414407   0.140   2.189  14.819 -0.1023  0.3665 -0.0920
    2TMC3    C514408   0.041   2.283  14.849  0.0334  0.0561  0.4457
    2TMC3    C614409   4.698   2.272  14.958  0.0542 -0.4026 -0.3203
    2TMC3     C14410   0.164   1.952  14.837  0.8252 -0.4429 -0.9677
    2TMC3     O14411   0.079   1.866  14.862  0.1190 -0.2198 -0.2886
    2TMC3     H14412   0.060   1.974  15.072  0.0024  0.6309  1.7251
    2TMC3    H114413   0.205   2.194  14.733  1.9018  1.3796  1.4861
    2TMC3    H214414   4.620   2.344  14.982 -0.0136 -0.1526 -1.2612
    2TMC3    C714415   0.025   2.397  14.766 -0.1539 -0.4276 -0.2128
    2TMC3    C814416   4.552   2.095  15.005 -1.0307  0.2740  0.2311
    2TMC3    O114417   4.662   2.464  14.772 -0.3232  0.4424 -0.1647
    2TMC3    O214418   4.451   2.152  15.046  0.1753  0.2920 -0.4195
    3TCq1    O114419   0.601   3.304  14.429 -0.1020 -0.3088  0.2752
    3TCq1    C114420   0.709   3.255  14.495  0.0671  0.0759 -0.1088
    3TCq1    O214421   0.820   3.297  14.481 -0.2193 -0.0191 -0.4892
    3TCq1    C214422   0.694   3.108  14.517 -0.5099 -0.2896 -0.8278
    3TCq1    C314423   0.778   3.048  14.608  0.2147 -0.5280 -0.3692
    3TCq1    C414424   0.761   2.918  14.644  0.7219  0.2775  0.2413
    3TCq1    C514425   0.667   2.841  14.590  0.3652  0.3833  0.3605
    3TCq1    C614426   0.593   2.908  14.495 -0.7045  0.0619 -0.0893
    3TCq1    C714427   0.596   3.044  14.458  0.4198 -0.3078  0.2927
    3TCq1    C814428   0.474   2.853  14.436 -0.0709  0.7990 -0.2250
    3TCq1    O414429   0.407   2.918  14.355  0.5909  0.3594 -0.1869
    3TCq1    C914430   0.845   2.858  14.748  0.1747  0.3451 -0.7377
    3TCq1    O514431   0.924   2.941  14.799 -0.2448  0.7615  0.0858
    3TCq1    O614432   0.812   2.745  14.793  0.3642 -0.0188  0.2078
    3TCq1    H114433   0.515   3.273  14.465 -0.2079 -1.6248 -1.0839
    3TCq1    H214434   0.856   3.113  14.646 -0.8004  1.2984 -1.4467
    3TCq1    H314435   0.671   2.733  14.599 -2.0568  0.3469  0.8244
    3TCq1    H414436   0.540   3.086  14.375  0.0150  0.2755  0.8615
    4MPD2     C14437   0.202   2.726  14.425  0.0655 -0.5048  0.0825
    4MPD2    C114438   0.304   2.678  14.502  0.5477  0.0088  0.6391
    4MPD2    C214439   0.282   2.578  14.587  0.0828 -0.2305  0.2781
    4MPD2    C314440   0.151   2.535  14.618  0.1261  0.3470 -0.3749
    4MPD2    C414441   0.045   2.592  14.541  0.4536 -0.2049 -0.1839
    4MPD2    C514442   0.075   2.678  14.438  0.7356  0.4439  0.0695
    4MPD2     H14443   0.365   2.532  14.639  0.3205 -1.5600 -1.2912
    4MPD2    H114444   4.680   2.570  14.557 -0.2053  3.0619  0.0470
    4MPD2    H214445   0.218   2.798  14.346 -0.2308 -0.6400 -0.0995
    4MPD2    H314446   4.736   2.720  14.375  0.5510 -1.2961 -0.8724
    4MPD2     N14447   0.139   2.432  14.709 -0.0799 -0.8160  0.6194
    4MPD2    H514448   0.222   2.380  14.735  0.7048  0.5769  0.8957
    4MPD2    N114449   0.435   2.734  14.501  0.2078  0.1619 -0.0363
    4MPD2    H714450   0.499   2.691  14.566  0.3417  2.5679  1.3965
    5TMC2    C114451   4.462   1.376  14.604 -0.1798  0.1688 -0.4304
    5TMC2    C214452   4.519   1.263  14.651  0.1703  0.2205  0.0592
    5TMC2    C314453   4.646   1.233  14.620  0.0926 -0.0921 -0.3930
    5TMC2    C414454   4.536   1.459  14.524 -0.3211  0.0390 -0.1117
    5TMC2    C514455   4.670   1.435  14.512  0.0388 -0.9998  0.2991
    5TMC2    C614456   4.726   1.315  14.550 -1.0352 -0.7189 -0.1817
    5TMC2     C14457   4.381   1.443  14.707 -0.0728  0.4073  0.2182
    5TMC2     O14458   4.285   1.388  14.757  0.0487 -0.3121  0.1573
    5TMC2     H14459   4.458   1.214  14.726  1.4005  1.4196  1.8522
    5TMC2    H114460   4.491   1.553  14.494 -0.4706 -0.2453 -0.7744
    5TMC2    H214461   0.092   1.305  14.522 -0.5705  1.2623  0.8556
    5TMC2    C714462   0.008   1.546  14.544 -0.6329 -0.6435 -0.9356
    5TMC2    C814463   4.704   1.119  14.692 -0.4063 -1.0162 -0.2569
    5TMC2    O114464   4.683   1.643  14.589 -0.1643 -0.3831 -0.4519
    5TMC2    O214465   4.660   1.058  14.790 -0.1210 -0.1220 -0.0663
    5TMC2    O514466   0.080   1.091  14.633  0.2085 -0.0926 -0.3098
    5TMC2    H514467   0.072   1.119  14.539  0.2539  1.7355  0.2417
    6MPD2     C14468   4.342   1.863  14.991  0.2219 -0.0493 -0.7118
    6MPD2    C114469   4.469   1.870  14.934 -0.6471 -0.6203 -0.7742
    6MPD2    C214470   4.500   1.756  14.856  0.1894  0.4724 -0.0288
    6MPD2    C314471   4.412   1.651  14.838 -0.0276 -0.5559 -0.1464
    6MPD2    C414472   4.282   1.662  14.887  0.1748 -0.2064 -0.7205
    6MPD2    C514473   4.251   1.769  14.959 -0.4438  0.2009 -0.1096
    6MPD2     H14474   4.598   1.753  14.810  0.2289  0.0721  0.0826
    6MPD2    H114475   4.202   1.596  14.855  1.9142 -2.8674  0.4982
    6MPD2    H214476   4.315   1.951  15.049 -1.8125 -1.2814  0.2261
    6MPD2    H314477   4.151   1.783  14.998  0.3905  0.8935  1.7809
    6MPD2     N14478   4.449   1.561  14.739 -0.1679  0.6745 -0.0074
    6MPD2    H514479   4.537   1.583  14.694 -0.7317  3.7525  0.3721
    6MPD2    N114480   4.568   1.973  14.943  0.4776 -0.2619  0.4783
    6MPD2    H714481   4.661   1.949  14.912  0.5707 -0.0230  0.5643
  945NH4     N114482   1.614   3.324   7.696  0.1587 -0.5366  0.9884
  945NH4     H214483   1.616   3.355   7.795  0.7911 -0.6267  1.0039
  945NH4     H314484   1.587   3.224   7.691 -1.9069 -0.0344  2.1339
  945NH4     H414485   1.716   3.318   7.676  0.8004 -0.3858  4.2533
  945NH4     H514486   1.562   3.390   7.636 -0.6581 -1.0736  1.1111
  946SOD     NA14487   2.182   1.901  17.722  0.3379 -0.3402  0.0256
  947SOD     NA14488   0.642   1.637  16.245  0.7196 -0.2306  0.0502
  948SOD     NA14489   3.186   2.068  13.699  0.2629  0.2456 -0.3204
  949SOD     NA14490   2.592   1.587  15.775 -0.2940 -0.0788 -0.1385
  950SOD     NA14491   1.530   0.939  14.266 -0.1898 -0.1606  0.0486
  951SOD     NA14492   1.779   3.807   3.136 -0.0261  0.2749 -0.2915
  952SOD     NA14493   2.069   3.546  12.904  0.3723  0.0654  0.2292
  953SOL     OW14494   0.452   4.669   0.705 -0.6895 -0.5957 -0.0576
  953SOL    HW114495   0.419   0.020   0.709 -1.6034 -0.8982 -0.7049
  953SOL    HW214496   0.539   4.690   0.739 -0.8567 -1.6711  1.0489
  954SOL     OW14497   0.482   0.048   1.849 -0.1558  0.1219  0.0986
  954SOL    HW114498   0.463   4.706   1.802 -0.1765  0.4640 -0.4863
  954SOL    HW214499   0.447   0.032   1.937  0.1557 -0.1556  0.1759
  955SOL     OW14500   4.210   4.412  13.166 -0.0211 -0.5529  0.0607
  955SOL    HW114501   4.156   4.340  13.198 -1.8484  0.7767  0.0399
  955SOL    HW214502   4.271   4.361  13.114 -0.0625 -0.1065 -0.4237
  956SOL     OW14503   1.944   0.162   7.771 -0.7124 -0.3685  0.1278
  956SOL    HW114504   2.004   0.175   7.845 -0.6276  1.8985 -0.3218
  956SOL    HW214505   1.987   0.081   7.744  1.3289  0.2045  1.6313
  957SOL     OW14506   4.601   3.952   6.797  0.0432 -0.4957  0.1271
  957SOL    HW114507   4.608   3.881   6.861  0.2874  0.6952  1.4236
  957SOL    HW214508   4.655   4.020   6.838 -0.4511 -1.0688  1.7224
  958SOL     OW14509   2.338   4.158   6.978 -0.0749  0.5532  0.4525
  958SOL    HW114510   2.291   4.223   6.926 -2.3847 -0.2742  1.4989
  958SOL    HW214511   2.426   4.172   6.942 -0.0822  0.4040  0.3722
  959SOL     OW14512   1.532   1.244   8.360 -0.2464 -0.3783 -0.1794
  959SOL    HW114513   1.624   1.226   8.340 -0.2196 -0.8122  0.3324
  959SOL    HW214514   1.504   1.309   8.296  3.4921  1.7643  0.3300
  960SOL     OW14515   1.916   2.488   9.920  0.1818 -0.2233 -0.3200
  960SOL    HW114516   1.960   2.566   9.887 -0.1509  0.3115  0.5058
  960SOL    HW214517   1.841   2.481   9.862 -0.1922 -0.8075  0.2351
  961SOL     OW14518   2.341   4.445  10.623  0.2441 -0.5323 -0.2131
  961SOL    HW114519   2.261   4.427  10.672  0.0851  1.9359  0.4516
  961SOL    HW214520   2.390   4.370  10.656 -0.6128 -0.0464  2.1435
  962SOL     OW14521   1.673   1.045   3.782  0.4219  0.0090 -0.3672
  962SOL    HW114522   1.588   1.065   3.742 -0.1683 -1.3476  0.1979
  962SOL    HW214523   1.734   1.073   3.713 -2.0229  1.2999 -2.0098
  963SOL     OW14524   3.531   3.173   8.428 -0.0980  0.3181  0.9266
  963SOL    HW114525   3.566   3.250   8.473 -0.5607  1.2755 -0.3651
  963SOL    HW214526   3.448   3.157   8.473 -2.2961 -0.1064 -3.3220
  964SOL     OW14527   2.497   0.992   4.486 -0.0301  0.2931  0.4144
  964SOL    HW114528   2.508   1.045   4.407 -2.3996  0.7253  0.3870
  964SOL    HW214529   2.466   0.910   4.446 -1.5056  1.2732 -0.4268
  965SOL     OW14530   2.690   2.036  11.264  0.1173  0.7469 -0.5039
  965SOL    HW114531   2.683   1.983  11.343  0.5687 -0.6669 -1.3899
  965SOL    HW214532   2.620   1.996  11.212 -0.3179 -0.6629  1.1783
  966SOL     OW14533   4.576   0.449   8.193  0.3444  0.2804 -0.1770
  966SOL    HW114534   4.654   0.441   8.247  1.7627  2.2165 -1.9113
  966SOL    HW214535   4.518   0.509   8.240 -0.3155 -0.5193  0.0166
  967SOL     OW14536   2.762   3.060  15.675  0.1443  0.0442  0.6663
  967SOL    HW114537   2.822   3.042  15.604 -0.4779 -0.6315  0.3048
  967SOL    HW214538   2.725   3.143  15.646 -0.7778 -0.6089 -0.0229
  968SOL     OW14539   0.330   0.893   0.451 -0.4984 -0.0142 -0.3306
  968SOL    HW114540   0.290   0.896   0.364 -2.6755 -0.2994  0.6521
  968SOL    HW214541   0.255   0.912   0.507 -1.1146 -3.1894 -0.1120
  969SOL     OW14542   0.182   0.451   8.008 -0.0036 -0.2139 -0.1495
  969SOL    HW114543   0.229   0.369   7.994 -1.0700 -0.5808 -1.5648
  969SOL    HW214544   0.230   0.514   7.953 -3.1140  1.1814 -1.2596
  970SOL     OW14545   4.412   3.498  17.675  0.1969  0.0523 -0.3287
  970SOL    HW114546   4.465   3.418  17.679 -0.5865 -0.4567 -0.0573
  970SOL    HW214547   4.477   3.557  17.714 -0.9795  1.1440 -0.0161
  971SOL     OW14548   1.310   3.355  14.436 -0.3189 -0.3829 -0.1459
  971SOL    HW114549   1.238   3.324  14.490 -1.4714  0.1015 -1.4238
  971SOL    HW214550   1.328   3.437  14.482 -2.5415  0.1471 -0.2632
  972SOL     OW14551   4.052   4.692   7.096 -0.7717 -0.6407 -0.0495
  972SOL    HW114552   3.973   4.638   7.090 -0.6564 -0.7471 -0.5681
  972SOL    HW214553   4.071   4.693   7.190 -0.5701  1.2297 -0.1244
  973SOL     OW14554   3.956   3.405   8.885 -0.1955  0.2706 -0.4335
  973SOL    HW114555   3.993   3.429   8.800 -0.2269 -0.4198 -0.6370
  973SOL    HW214556   3.973   3.476   8.948  1.0182 -1.3149  1.0199
  974SOL     OW14557   0.287   3.122   7.553  0.6782  0.4447 -0.2387
  974SOL    HW114558   0.201   3.148   7.518 -0.1714  0.6785  2.0572
  974SOL    HW214559   0.295   3.034   7.517 -0.1329 -0.5001  1.8825
  975SOL     OW14560   1.267   0.905  14.557 -0.1860 -0.1277 -0.0665
  975SOL    HW114561   1.337   0.902  14.492  0.9465  1.1635  1.0774
  975SOL    HW214562   1.286   0.845  14.629 -2.0350 -0.8864 -0.2223
  976SOL     OW14563   2.711   1.001  17.136 -0.3753  0.3764 -0.3357
  976SOL    HW114564   2.667   1.064  17.193  1.7227  0.4466  1.2134
  976SOL    HW214565   2.772   1.062  17.095  0.6263 -0.8342 -0.6373
  977SOL     OW14566   0.182   3.066   3.140 -0.1863 -0.4045 -0.2077
  977SOL    HW114567   0.112   3.099   3.084 -1.3263 -2.0054  0.2900
  977SOL    HW214568   0.228   3.148   3.157  0.5272 -0.3930 -2.1351
  978SOL     OW14569   3.593   3.327  14.714  0.3368 -0.4816 -0.1588
  978SOL    HW114570   3.577   3.235  14.696 -0.2917 -0.5517  0.7618
  978SOL    HW214571   3.510   3.358  14.751  0.3368  0.7675 -1.2034
  979SOL     OW14572   0.799   0.809  13.980 -0.4469 -0.0119  0.1887
  979SOL    HW114573   0.797   0.900  14.010  1.3483  0.3798 -0.8631
  979SOL    HW214574   0.709   0.795  14.009 -0.4153  0.4409  0.5109
  980SOL     OW14575   0.448   0.468   4.805  0.7082 -0.4857  0.0542
  980SOL    HW114576   0.487   0.408   4.742  1.5945 -0.0854  0.2175
  980SOL    HW214577   0.443   0.414   4.884 -0.1139  0.7307  0.8304
  981SOL     OW14578   4.107   1.161   4.788  0.3354 -0.5036  0.0781
  981SOL    HW114579   4.075   1.072   4.777 -0.0198 -0.3385 -0.2302
  981SOL    HW214580   4.198   1.160   4.756  0.3954  0.9148  0.2121
  982SOL     OW14581   3.112   0.904   3.867  0.2912  0.1676  0.3179
  982SOL    HW114582   3.088   0.837   3.930  0.3909 -0.1444  0.0222
  982SOL    HW214583   3.193   0.866   3.833 -0.0978  0.4731 -0.9689
  983SOL     OW14584   4.451   0.986  15.823  0.0916  0.1011  0.4045
  983SOL    HW114585   4.433   0.908  15.876  0.2167 -0.9476 -1.0763
  983SOL    HW214586   4.500   1.042  15.884  1.1976  1.5852 -1.8574
  984SOL     OW14587   0.497   3.813   3.608 -0.4861  0.1157 -0.0223
  984SOL    HW114588   0.471   3.845   3.694  1.8787 -2.4308  1.6603
  984SOL    HW214589   0.529   3.895   3.572  0.0693 -0.2090 -0.2685
  985SOL     OW14590   2.066   0.368   5.965 -0.9222 -0.1542 -0.5249
  985SOL    HW114591   2.068   0.435   5.897 -1.3938  1.6064  1.1799
  985SOL    HW214592   2.156   0.339   5.956 -0.2806  1.3305  0.9655
  986SOL     OW14593   3.272   3.707   6.971  0.2072  0.3743  0.3256
  986SOL    HW114594   3.210   3.680   6.905  0.8750 -0.7851  0.1716
  986SOL    HW214595   3.350   3.670   6.930  0.1306  2.1071 -1.3747
  987SOL     OW14596   2.151   1.001   7.138 -0.1999 -0.4002 -0.5350
  987SOL    HW114597   2.230   0.994   7.190  0.4547 -0.3606 -1.5177
  987SOL    HW214598   2.168   0.935   7.071 -1.7240 -0.1950 -1.1268
  988SOL     OW14599   3.156   0.665   6.314  0.1322  0.2912 -0.1912
  988SOL    HW114600   3.180   0.695   6.401 -1.1378 -2.3405  1.0751
  988SOL    HW214601   3.192   0.576   6.308  0.6762  0.4030  1.6030
  989SOL     OW14602   0.520   1.123  12.713 -0.3274 -0.6732  0.0874
  989SOL    HW114603   0.519   1.197  12.773 -1.0525 -1.4218  0.9943
  989SOL    HW214604   0.604   1.089  12.741  0.0084  0.1140  0.0388
  990SOL     OW14605   0.158   4.208   9.526  0.0730 -0.2092 -0.2295
  990SOL    HW114606   0.172   4.301   9.507  0.5022 -0.1090  0.5875
  990SOL    HW214607   0.081   4.230   9.579  0.7065  0.7908  0.2701
  991SOL     OW14608   0.101   3.032   9.197 -0.0249 -0.0785 -0.1104
  991SOL    HW114609   0.054   3.113   9.220 -1.5361 -1.2098  0.7741
  991SOL    HW214610   0.180   3.063   9.152 -0.7102 -0.5327 -1.6040
  992SOL     OW14611   1.209   2.960   4.336 -0.6858 -0.9172 -0.4050
  992SOL    HW114612   1.159   2.963   4.254 -0.0438 -1.6488 -0.8288
  992SOL    HW214613   1.181   3.042   4.377 -0.1540 -1.5867  1.2860
  993SOL     OW14614   4.295   0.374   7.707  0.3687  0.8622  0.2900
  993SOL    HW114615   4.343   0.393   7.787 -0.5721  0.5547  0.9244
  993SOL    HW214616   4.208   0.354   7.742  1.9458 -2.6087  2.1746
  994SOL     OW14617   3.234   3.194   5.377 -0.4684 -0.4094  0.3628
  994SOL    HW114618   3.188   3.122   5.335  1.1861 -0.8533 -0.6931
  994SOL    HW214619   3.237   3.259   5.306  0.3284  1.1785  1.8451
  995SOL     OW14620   0.627   2.654   1.009 -0.3075 -0.3440 -0.2234
  995SOL    HW114621   0.649   2.654   1.102  0.5637  0.9000 -0.4276
  995SOL    HW214622   0.702   2.611   0.967 -0.4219 -0.5716 -0.1918
  996SOL     OW14623   1.080   2.642   3.928  0.4551 -0.0635  0.2347
  996SOL    HW114624   1.034   2.630   4.011 -1.3910 -2.3545 -1.1203
  996SOL    HW214625   1.105   2.735   3.927 -3.0298  0.8759  1.5686
  997SOL     OW14626   0.106   1.603   8.311 -0.3625 -1.0944  0.0815
  997SOL    HW114627   0.065   1.516   8.307 -2.0919 -0.2666 -0.1509
  997SOL    HW214628   0.185   1.589   8.259  0.4745  0.2354  1.0148
  998SOL     OW14629   0.508   2.414   6.316  0.4155 -0.0522 -0.1925
  998SOL    HW114630   0.421   2.388   6.287  1.1452 -0.9525 -1.5700
  998SOL    HW214631   0.483   2.502   6.344 -1.5892 -0.7480  0.1858
  999SOL     OW14632   0.811   4.372   8.588 -0.2301  0.0217  0.0621
  999SOL    HW114633   0.895   4.325   8.584 -0.0533  0.3571 -0.1854
  999SOL    HW214634   0.833   4.436   8.520 -3.3998  1.2313  0.1978
 1000SOL     OW14635   3.840   2.492  17.559  0.4537  0.1286  0.3881
 1000SOL    HW114636   3.807   2.553  17.625  0.3629 -1.0501  1.4284
 1000SOL    HW214637   3.762   2.480  17.504 -0.0907 -0.2293  1.2355
 1001SOL     OW14638   0.902   1.891   4.049  0.7080  0.0936 -0.2701
 1001SOL    HW114639   0.867   1.829   3.984  1.8934 -2.1819  1.2531
 1001SOL    HW214640   0.949   1.956   3.997 -1.3108 -0.3884 -2.7102
 1002SOL     OW14641   0.252   2.515   7.811 -0.4531  0.0319  0.7261
 1002SOL    HW114642   0.269   2.532   7.718 -0.6880 -0.3520  0.6139
 1002SOL    HW214643   0.335   2.486   7.848  0.1047  0.0928 -0.4661
 1003SOL     OW14644   4.170   0.790   3.780  0.5540  0.2486  0.0960
 1003SOL    HW114645   4.100   0.760   3.839  2.0877  0.0951  1.8341
 1003SOL    HW214646   4.124   0.804   3.697  0.5961 -1.4239 -0.2052
 1004SOL     OW14647   0.070   1.796   7.648  0.4008  0.6094  0.1837
 1004SOL    HW114648   4.724   1.763   7.676  0.7166  0.7617  1.3278
 1004SOL    HW214649   0.073   1.889   7.668 -0.6320  0.3596  1.5205
 1005SOL     OW14650   3.187   2.778   3.440 -0.1726  0.0086  0.1249
 1005SOL    HW114651   3.167   2.696   3.484  0.4752  0.4335  1.2004
 1005SOL    HW214652   3.099   2.814   3.433 -0.4630  0.1641  4.4663
 1006SOL     OW14653   2.403   3.585  14.132  0.2529  0.3499  0.1593
 1006SOL    HW114654   2.487   3.543  14.151 -0.3641  0.2368  2.6289
 1006SOL    HW214655   2.418   3.616  14.043 -2.9336 -0.6578 -0.7324
 1007SOL     OW14656   2.366   2.102   8.388 -0.1118 -0.0482  0.0770
 1007SOL    HW114657   2.330   2.070   8.305 -1.9653  1.2193  0.3929
 1007SOL    HW214658   2.429   2.173   8.377  0.4711 -0.5530  0.1141
 1008SOL     OW14659   3.642   2.507   2.078  0.2107 -0.5359  0.6749
 1008SOL    HW114660   3.643   2.577   2.144 -0.2211 -0.7907  0.9553
 1008SOL    HW214661   3.603   2.557   2.006 -0.9584 -1.0571  0.9382
 1009SOL     OW14662   4.463   2.467   6.130  0.2353  0.3971  0.1054
 1009SOL    HW114663   4.404   2.393   6.116 -0.2314  1.4866 -3.7383
 1009SOL    HW214664   4.494   2.443   6.217 -0.9821  2.0734  1.0010
 1010SOL     OW14665   4.182   3.309   3.553 -1.0173  0.0849  0.2941
 1010SOL    HW114666   4.263   3.306   3.604 -0.9058 -0.2769  0.0993
 1010SOL    HW214667   4.207   3.362   3.477  0.0529 -2.0086 -0.8165
 1011SOL     OW14668   3.540   4.578   4.151 -0.7925 -0.3395  0.1184
 1011SOL    HW114669   3.584   4.562   4.235 -0.7104  0.0842  0.1535
 1011SOL    HW214670   3.501   4.664   4.169  0.3864  0.3783 -0.7681
 1012SOL     OW14671   1.612   4.607   4.747  0.3844  0.4302 -0.7212
 1012SOL    HW114672   1.611   4.517   4.781  1.3612 -0.4510 -2.9926
 1012SOL    HW214673   1.600   4.653   4.830 -0.5099 -2.1095  0.5612
 1013SOL     OW14674   2.930   0.198  15.836  0.1392  0.5486  0.1709
 1013SOL    HW114675   3.025   0.189  15.831  0.0612 -0.2695  0.0914
 1013SOL    HW214676   2.912   0.291  15.845 -0.2748  0.4465  0.4251
 1014SOL     OW14677   1.227   3.667   5.098 -0.6475 -0.0910  0.2485
 1014SOL    HW114678   1.286   3.693   5.169 -0.3533 -1.1961  0.4169
 1014SOL    HW214679   1.249   3.574   5.091  0.9464  0.5367 -2.8165
 1015SOL     OW14680   1.099   3.931   2.671 -0.2425  0.3062  0.2760
 1015SOL    HW114681   1.012   3.890   2.666  0.7316 -1.6921 -0.2027
 1015SOL    HW214682   1.075   4.024   2.679  0.6885  0.4471  1.4988
 1016SOL     OW14683   3.847   3.357   4.979 -0.2372  0.0203  0.0749
 1016SOL    HW114684   3.943   3.360   4.969 -0.2662  0.6325 -0.0255
 1016SOL    HW214685   3.831   3.277   4.929 -0.6808  0.1751 -0.0294
 1017SOL     OW14686   1.748   0.683   1.789 -0.1102 -0.5829 -0.0624
 1017SOL    HW114687   1.762   0.589   1.786 -2.6231 -1.0757  3.5672
 1017SOL    HW214688   1.697   0.678   1.870 -0.0725  0.2309  0.0138
 1018SOL     OW14689   3.951   0.255   5.121  0.2703  0.2969  0.3122
 1018SOL    HW114690   4.042   0.251   5.091  0.4299 -1.4674  1.0512
 1018SOL    HW214691   3.949   0.206   5.203  2.8131 -1.9423 -0.9317
 1019SOL     OW14692   4.349   0.860   2.236 -0.3341 -0.1748  0.0817
 1019SOL    HW114693   4.388   0.776   2.260 -2.7992 -2.1635 -2.8446
 1019SOL    HW214694   4.400   0.919   2.291 -1.1768 -0.0668  0.7503
 1020SOL     OW14695   1.762   2.501   6.565 -0.1122 -0.2561 -0.0214
 1020SOL    HW114696   1.798   2.569   6.508 -0.2300 -1.4227 -1.4767
 1020SOL    HW214697   1.758   2.547   6.649  1.8724  1.2669 -0.7673
 1021SOL     OW14698   2.373   1.071  15.994 -0.4382 -0.2529  0.1468
 1021SOL    HW114699   2.462   1.096  15.970 -1.2819  2.1553 -0.5151
 1021SOL    HW214700   2.392   1.062  16.087 -1.7243  1.8425  0.6089
 1022SOL     OW14701   3.050   0.717   2.197  0.3113 -0.5584  0.0893
 1022SOL    HW114702   3.108   0.764   2.257  1.6037 -2.5450  0.3887
 1022SOL    HW214703   2.996   0.792   2.173 -0.0221 -0.5933  0.7213
 1023SOL     OW14704   1.674   2.403  15.488 -0.1673  0.1745 -0.4492
 1023SOL    HW114705   1.653   2.410  15.395  0.6019 -0.8680 -0.7081
 1023SOL    HW214706   1.606   2.340  15.511 -1.3899  1.2143 -1.2098
 1024SOL     OW14707   1.998   0.820  15.510  0.0414 -0.0876 -0.0869
 1024SOL    HW114708   2.004   0.911  15.537 -2.3395 -0.2462  0.9804
 1024SOL    HW214709   2.037   0.821  15.423 -2.5887 -0.2700 -1.2560
 1025SOL     OW14710   0.891   0.411  10.516  0.3172  0.3346 -0.1951
 1025SOL    HW114711   0.960   0.347  10.499 -0.1529 -0.5468  1.1629
 1025SOL    HW214712   0.894   0.450  10.429 -0.5964  1.3931  0.2431
 1026SOL     OW14713   3.565   3.599   0.574 -0.1505  0.0211 -0.1282
 1026SOL    HW114714   3.479   3.637   0.557 -0.2483 -0.4255 -0.6152
 1026SOL    HW214715   3.544   3.520   0.623  2.7572 -0.6679  0.0517
 1027SOL     OW14716   0.628   3.299   1.462  0.3403  0.0909 -0.5185
 1027SOL    HW114717   0.693   3.339   1.519 -1.4800  2.3160  0.0088
 1027SOL    HW214718   0.651   3.331   1.375 -0.3398  0.0868 -0.6989
 1028SOL     OW14719   1.764   1.878   8.367  0.4054 -0.3848 -0.3543
 1028SOL    HW114720   1.689   1.838   8.412 -0.2529  1.6418  0.3536
 1028SOL    HW214721   1.715   1.948   8.324  1.2499 -0.0056 -0.6886
 1029SOL     OW14722   4.635   4.229  16.057  0.6000  0.3404 -0.0184
 1029SOL    HW114723   4.721   4.205  16.092 -0.3067 -1.4240  0.9805
 1029SOL    HW214724   4.583   4.149  16.047  0.4073  0.5815 -0.9849
 1030SOL     OW14725   2.950   4.156   6.416  0.0029 -0.1183 -0.0146
 1030SOL    HW114726   2.966   4.177   6.324 -0.2178 -2.0038 -0.4816
 1030SOL    HW214727   3.009   4.217   6.460  1.0530  0.2432 -1.9402
 1031SOL     OW14728   3.777   1.407  10.417 -0.0234  0.1766 -0.2254
 1031SOL    HW114729   3.740   1.482  10.371 -0.9848 -0.2636 -0.1621
 1031SOL    HW214730   3.867   1.441  10.415 -0.3338  1.0478  0.6130
 1032SOL     OW14731   0.351   3.731   9.015 -0.4039  0.0357 -0.2835
 1032SOL    HW114732   0.358   3.710   9.108 -2.4892  0.7739  0.0365
 1032SOL    HW214733   0.446   3.742   9.004 -0.2269 -0.7251  0.4835
 1033SOL     OW14734   0.146   2.286   3.786 -0.3938  0.0453 -0.2424
 1033SOL    HW114735   0.172   2.372   3.753 -1.0945  1.0710  1.8719
 1033SOL    HW214736   0.163   2.229   3.711 -4.1737 -1.0675 -0.2904
 1034SOL     OW14737   1.870   4.104   4.329  0.0127  0.4721  0.2460
 1034SOL    HW114738   1.870   4.193   4.364  2.4035  0.8538 -0.7311
 1034SOL    HW214739   1.961   4.079   4.348  0.1331 -1.0714 -2.3432
 1035SOL     OW14740   3.116   4.355   6.506  0.0263 -0.4048  0.1541
 1035SOL    HW114741   3.092   4.397   6.588 -1.5556  0.2134 -0.6361
 1035SOL    HW214742   3.113   4.439   6.461 -0.3231 -2.1450 -3.0562
 1036SOL     OW14743   4.531   4.147   9.310  0.5861  0.3604  0.2329
 1036SOL    HW114744   4.476   4.225   9.319 -0.8476 -0.7702  1.3789
 1036SOL    HW214745   4.621   4.179   9.304  0.6482 -0.0794 -1.2162
 1037SOL     OW14746   4.507   3.175   3.703 -0.4938 -0.3610  0.0603
 1037SOL    HW114747   4.497   3.140   3.792 -0.8093 -0.3153  0.0443
 1037SOL    HW214748   4.460   3.106   3.656  0.8352  0.4879 -2.4879
 1038SOL     OW14749   1.642   0.750   7.101  0.0715  0.2576 -0.3245
 1038SOL    HW114750   1.605   0.825   7.147  1.1240  0.1669  0.6738
 1038SOL    HW214751   1.718   0.730   7.155  0.7010 -0.0914 -1.3393
 1039SOL     OW14752   2.703   3.775   5.411 -0.2810 -0.0410 -0.3519
 1039SOL    HW114753   2.635   3.731   5.360  0.1179  0.2966 -1.1809
 1039SOL    HW214754   2.740   3.703   5.461 -0.6827 -0.0823 -0.1127
 1040SOL     OW14755   4.363   3.170   0.215 -0.2011  0.3318  0.1457
 1040SOL    HW114756   4.453   3.150   0.190  0.2027  0.9177  1.1360
 1040SOL    HW214757   4.373   3.255   0.257  1.4784  1.0737 -1.7390
 1041SOL     OW14758   4.403   4.506   2.469  0.4264 -0.7342 -0.1109
 1041SOL    HW114759   4.385   4.554   2.550 -3.2568 -0.9279 -0.7812
 1041SOL    HW214760   4.491   4.538   2.452  1.3090 -2.3288  1.5092
 1042SOL     OW14761   4.220   0.233   5.964  0.3082  0.2972  0.2859
 1042SOL    HW114762   4.137   0.249   6.009 -0.7858 -2.8493 -0.6154
 1042SOL    HW214763   4.267   0.178   6.028 -3.7661 -1.9872  1.3347
 1043SOL     OW14764   1.912   1.124  17.205  0.3577 -0.0249  0.1296
 1043SOL    HW114765   1.879   1.170  17.128 -1.9554  2.6873  2.7253
 1043SOL    HW214766   1.967   1.059  17.161  0.8687 -0.9950  2.2125
 1044SOL     OW14767   0.301   1.570   8.146  0.2199  0.1453 -0.5523
 1044SOL    HW114768   0.367   1.593   8.081 -1.0231  2.1271 -1.1258
 1044SOL    HW214769   0.305   1.474   8.143 -0.8877  0.0948 -0.3511
 1045SOL     OW14770   1.357   0.324   8.793  0.5369  0.0868 -0.0810
 1045SOL    HW114771   1.268   0.293   8.806 -0.3296  2.2658 -0.9186
 1045SOL    HW214772   1.413   0.262   8.840  0.2727  1.1046  1.5529
 1046SOL     OW14773   3.103   2.790   8.699 -0.2098  0.3195 -0.0497
 1046SOL    HW114774   3.038   2.860   8.691 -1.1953 -0.5514  0.4119
 1046SOL    HW214775   3.137   2.817   8.784 -1.2320  0.5952  0.2674
 1047SOL     OW14776   2.811   2.108   8.014  0.3028  0.0894 -0.2729
 1047SOL    HW114777   2.849   2.174   8.072 -0.6680  0.6007 -0.2104
 1047SOL    HW214778   2.728   2.088   8.057 -0.7055  1.3124 -1.6403
 1048SOL     OW14779   3.833   2.323   5.764 -0.1465 -0.0346 -0.4257
 1048SOL    HW114780   3.794   2.263   5.827  0.6238 -0.5538 -0.4382
 1048SOL    HW214781   3.866   2.259   5.700  1.6150  1.6756 -1.2487
 1049SOL     OW14782   2.286   1.190  10.607 -0.0740 -0.3305  0.3547
 1049SOL    HW114783   2.353   1.123  10.623  0.6972  0.1947 -0.6986
 1049SOL    HW214784   2.215   1.134  10.637 -0.5758 -0.2905 -0.7729
 1050SOL     OW14785   3.543   2.023  17.009 -0.4968  0.1463 -0.1938
 1050SOL    HW114786   3.487   2.058  16.940 -0.2733 -0.6542 -0.7802
 1050SOL    HW214787   3.538   1.929  16.991 -0.6950  0.4227 -1.6012
 1051SOL     OW14788   1.164   1.167   0.574  0.0074 -0.3759  0.1799
 1051SOL    HW114789   1.180   1.095   0.513 -0.1853 -0.7533  0.5749
 1051SOL    HW214790   1.114   1.130   0.647 -0.1136  0.5714  0.5731
 1052SOL     OW14791   3.879   0.341   8.896  0.4825  0.3893 -0.2625
 1052SOL    HW114792   3.948   0.402   8.870  0.7918 -0.1907 -0.8083
 1052SOL    HW214793   3.879   0.363   8.989 -0.1910  0.4087 -0.2665
 1053SOL     OW14794   0.971   2.975   3.648 -0.6918  0.1959  0.7573
 1053SOL    HW114795   1.001   2.884   3.652  0.6498  0.6066  0.2623
 1053SOL    HW214796   0.921   2.977   3.729  0.2459 -0.5945  1.3635
 1054SOL     OW14797   2.909   3.258  10.575  0.3665 -0.1762 -0.1348
 1054SOL    HW114798   2.932   3.344  10.540 -0.3248  0.2628  0.4795
 1054SOL    HW214799   2.952   3.211  10.504  0.4688 -0.2979  0.0094
 1055SOL     OW14800   2.636   1.719   2.189  0.1187 -0.4589  0.2876
 1055SOL    HW114801   2.637   1.748   2.098 -0.6664 -1.6962 -0.1138
 1055SOL    HW214802   2.638   1.802   2.235 -2.6218 -0.4311  0.3837
 1056SOL     OW14803   3.070   1.413  12.429  0.5063  0.8132  0.2296
 1056SOL    HW114804   3.049   1.503  12.404  0.2135  0.9064  0.8045
 1056SOL    HW214805   3.063   1.399  12.523  2.8237  0.6085  0.3832
 1057SOL     OW14806   2.086   3.397   3.097 -0.1697  0.0973  0.4209
 1057SOL    HW114807   2.067   3.304   3.110  0.1408 -0.0044  0.1405
 1057SOL    HW214808   2.019   3.422   3.033  2.2241  0.3154 -1.9850
 1058SOL     OW14809   0.328   3.417   0.571 -0.1800  0.5528  0.2824
 1058SOL    HW114810   0.300   3.376   0.489 -0.2748 -2.0638  1.6082
 1058SOL    HW214811   0.396   3.478   0.543  0.4489 -0.7967 -1.1355
 1059SOL     OW14812   1.689   1.168   5.813  0.2313  0.1095 -0.0263
 1059SOL    HW114813   1.687   1.110   5.737  2.3829  1.0605 -0.8069
 1059SOL    HW214814   1.748   1.241   5.793  3.5457 -2.6768 -0.4392
 1060SOL     OW14815   0.532   4.333   9.208  0.1278 -0.1138 -0.1129
 1060SOL    HW114816   0.610   4.337   9.152 -1.2966 -0.7779 -2.1703
 1060SOL    HW214817   0.466   4.313   9.141  0.0612  2.6973 -0.8603
 1061SOL     OW14818   3.519   2.663   4.353 -0.5902  0.0310  0.1724
 1061SOL    HW114819   3.609   2.635   4.337 -1.1331 -1.2018 -0.7426
 1061SOL    HW214820   3.521   2.649   4.448  3.1764 -0.1418  0.0626
 1062SOL     OW14821   1.149   4.563  16.785 -0.3985  0.1913  0.0175
 1062SOL    HW114822   1.109   4.476  16.782  0.1262  0.0470 -2.5993
 1062SOL    HW214823   1.195   4.564  16.700 -1.4894  0.3530 -0.5651
 1063SOL     OW14824   3.844   3.832   3.053 -0.2750 -0.5362 -0.0382
 1063SOL    HW114825   3.851   3.917   3.098  0.6040 -0.2185 -0.7716
 1063SOL    HW214826   3.865   3.774   3.126 -0.9002  0.3708  0.8617
 1064SOL     OW14827   0.217   2.468   0.715 -0.0433  0.0575 -0.0337
 1064SOL    HW114828   0.276   2.394   0.734 -0.2365 -0.0697  0.0675
 1064SOL    HW214829   0.272   2.534   0.757 -1.6026  1.4122 -0.1083
 1065SOL     OW14830   4.145   4.218   8.340  0.4378  0.4441 -0.0646
 1065SOL    HW114831   4.215   4.226   8.275 -0.5308  1.7163 -0.9295
 1065SOL    HW214832   4.129   4.310   8.361  0.1666  0.4893 -0.4735
 1066SOL     OW14833   3.013   1.531   2.938  0.1591  0.5061  0.4906
 1066SOL    HW114834   2.948   1.465   2.965 -0.5641  0.5350 -1.2207
 1066SOL    HW214835   3.024   1.570   3.025  0.0072  1.6586 -0.0193
 1067SOL     OW14836   4.654   3.490   6.840  0.2174  0.0530 -0.3125
 1067SOL    HW114837   4.582   3.442   6.881 -0.2086  1.3751  0.4795
 1067SOL    HW214838   4.692   3.427   6.778 -1.3200 -0.6263 -0.5752
 1068SOL     OW14839   2.093   1.693  10.548  0.2626  0.0139  0.1429
 1068SOL    HW114840   2.072   1.604  10.520  0.8080 -0.1873  0.3460
 1068SOL    HW214841   2.019   1.712  10.606 -1.6333 -0.0348 -2.2806
 1069SOL     OW14842   3.624   1.423   4.216 -0.3992  0.2809 -0.0745
 1069SOL    HW114843   3.609   1.333   4.186  3.2671 -0.1705 -0.5576
 1069SOL    HW214844   3.559   1.480   4.176  0.7181 -0.0095 -2.2960
 1070SOL     OW14845   0.429   2.591   3.069 -0.7790 -0.2504 -0.0725
 1070SOL    HW114846   0.481   2.538   3.009 -1.0698  1.1256 -1.5457
 1070SOL    HW214847   0.347   2.542   3.073 -0.7498 -0.0846  2.5783
 1071SOL     OW14848   3.954   3.070  12.782 -0.0456 -0.4863  0.0372
 1071SOL    HW114849   3.965   3.161  12.757 -0.5633 -0.4844 -0.1811
 1071SOL    HW214850   3.906   3.080  12.865  1.4263  0.6621  0.7479
 1072SOL     OW14851   2.663   1.071   5.087 -0.1200  0.0021 -0.0584
 1072SOL    HW114852   2.578   1.113   5.074  0.2735  1.0616  0.7984
 1072SOL    HW214853   2.644   0.980   5.063 -1.5707 -0.2907  2.1754
 1073SOL     OW14854   0.849   3.061  16.050 -0.0757 -0.3468  0.2330
 1073SOL    HW114855   0.813   3.018  16.127 -1.5766  0.5918  0.0603
 1073SOL    HW214856   0.802   3.015  15.980 -1.7525  0.5080  0.8029
 1074SOL     OW14857   2.584   0.654  10.923 -0.0630  0.3304 -0.2945
 1074SOL    HW114858   2.609   0.562  10.921 -0.5237  0.2457 -1.9104
 1074SOL    HW214859   2.663   0.700  10.951 -0.0331  0.6218 -0.8674
 1075SOL     OW14860   2.141   3.208   6.695 -0.0191 -0.0551  0.4174
 1075SOL    HW114861   2.052   3.200   6.728 -0.1471  0.6782  0.2531
 1075SOL    HW214862   2.133   3.198   6.600  0.3712 -2.6344  0.6350
 1076SOL     OW14863   0.485   3.299   5.387 -0.2452  0.3499 -0.4755
 1076SOL    HW114864   0.523   3.304   5.475  0.4474  0.2569 -0.7741
 1076SOL    HW214865   0.408   3.356   5.389  1.2504  2.2665  1.9628
 1077SOL     OW14866   4.329   2.446   9.164 -0.1372 -0.3636 -0.2198
 1077SOL    HW114867   4.394   2.509   9.133 -0.7185 -0.3887 -1.4964
 1077SOL    HW214868   4.260   2.502   9.199  1.6374  2.6025 -1.4172
 1078SOL     OW14869   0.042   3.547   3.016 -0.4031 -0.3184  0.4670
 1078SOL    HW114870   4.699   3.581   3.052 -1.7038 -2.0623 -0.8078
 1078SOL    HW214871   0.021   3.465   2.971  2.3967  0.4050 -2.1694
 1079SOL     OW14872   4.462   1.252   8.276 -0.0946 -0.1257  0.1104
 1079SOL    HW114873   4.535   1.207   8.319 -0.4914  0.3053  1.2339
 1079SOL    HW214874   4.486   1.237   8.185 -1.0328 -2.2180  0.2065
 1080SOL     OW14875   4.486   1.300   0.552 -0.1706  0.2750 -0.4509
 1080SOL    HW114876   4.549   1.312   0.481  1.5458 -0.4956  0.9462
 1080SOL    HW214877   4.473   1.392   0.578  2.5004  0.0429  1.7079
 1081SOL     OW14878   3.760   3.583   9.739 -0.0277 -0.5479 -0.5728
 1081SOL    HW114879   3.832   3.531   9.702  1.0940  0.6621 -0.0653
 1081SOL    HW214880   3.762   3.555   9.830 -1.1893  0.4061 -0.2610
 1082SOL     OW14881   0.073   1.441   0.593  0.3610  0.1962  0.0653
 1082SOL    HW114882   0.021   1.433   0.513 -1.8918 -0.4268  1.5729
 1082SOL    HW214883   0.029   1.513   0.639 -1.5603 -0.4469 -0.7561
 1083SOL     OW14884   4.556   4.023   1.753 -0.1207 -0.0405  0.0310
 1083SOL    HW114885   4.581   4.012   1.845  0.5997 -3.7734 -0.6028
 1083SOL    HW214886   4.541   4.117   1.763  0.4979 -0.0864  1.4012
 1084SOL     OW14887   3.238   2.581   5.317  0.1528  0.3869  0.4333
 1084SOL    HW114888   3.160   2.624   5.353 -1.4213 -2.3498  0.2571
 1084SOL    HW214889   3.241   2.489   5.342  1.2178  0.8098  1.9352
 1085SOL     OW14890   0.458   1.721   4.368  0.1065  0.0862 -0.3920
 1085SOL    HW114891   0.526   1.778   4.333 -1.7235  2.3185 -0.2518
 1085SOL    HW214892   0.388   1.783   4.383  0.4405 -0.1189  2.0597
 1086SOL     OW14893   2.847   4.401   4.628 -0.1616  0.2505  0.2839
 1086SOL    HW114894   2.915   4.360   4.576 -0.8351 -0.8129  0.2330
 1086SOL    HW214895   2.817   4.471   4.570 -0.2316 -1.0618 -1.2668
 1087SOL     OW14896   3.456   4.303  12.794  0.5089 -0.1803  0.6984
 1087SOL    HW114897   3.434   4.343  12.710 -0.0417  3.2229  2.4644
 1087SOL    HW214898   3.545   4.272  12.779 -0.5489 -1.9676 -1.9993
 1088SOL     OW14899   4.724   2.133  16.628  0.0742  0.4943 -1.0356
 1088SOL    HW114900   4.662   2.118  16.699 -1.2215  2.0696 -1.8275
 1088SOL    HW214901   4.665   2.169  16.562  1.0753  2.3525 -0.8974
 1089SOL     OW14902   3.954   3.280   1.626 -0.4257  0.0463 -0.7573
 1089SOL    HW114903   4.040   3.316   1.604  0.1368 -0.9556 -0.2099
 1089SOL    HW214904   3.903   3.296   1.547  0.4216  0.8941 -1.1210
 1090SOL     OW14905   2.103   3.256   3.451 -0.0028 -0.4428 -0.2371
 1090SOL    HW114906   2.031   3.221   3.503 -0.9568  0.1228 -1.1840
 1090SOL    HW214907   2.070   3.250   3.362 -0.9630 -0.0255  0.0942
 1091SOL     OW14908   1.199   0.930   5.086  0.3332 -0.5086 -0.6610
 1091SOL    HW114909   1.233   0.942   5.175 -0.7782  1.6816 -0.5256
 1091SOL    HW214910   1.275   0.876   5.063  0.9404 -0.4791  1.2448
 1092SOL     OW14911   2.464   2.039   8.894  0.0726 -0.1096 -0.1593
 1092SOL    HW114912   2.496   2.034   8.805  1.1173  1.5207  0.1444
 1092SOL    HW214913   2.524   1.975   8.933 -1.7975 -2.4472 -1.1329
 1093SOL     OW14914   4.598   2.322   2.919 -0.0617 -0.7955 -0.3114
 1093SOL    HW114915   4.586   2.306   3.013 -0.1379  0.1207 -0.1662
 1093SOL    HW214916   4.632   2.411   2.928 -3.1223  0.4358 -0.9374
 1094SOL     OW14917   3.730   3.569   5.100 -0.6093 -0.2446 -0.3233
 1094SOL    HW114918   3.782   3.512   5.043  1.5394  1.0421  0.3895
 1094SOL    HW214919   3.786   3.646   5.103  0.2124 -0.8073 -1.1325
 1095SOL     OW14920   3.768   2.681   3.336 -0.1818 -0.1239 -0.2109
 1095SOL    HW114921   3.810   2.752   3.384 -0.7583  1.5744 -2.2214
 1095SOL    HW214922   3.811   2.604   3.374 -1.0493  0.4365  1.8624
 1096SOL     OW14923   2.196   2.625   8.675 -0.2771  0.3065 -0.0374
 1096SOL    HW114924   2.106   2.622   8.707  0.3231 -2.5178  1.4543
 1096SOL    HW214925   2.214   2.532   8.691 -0.9995  0.1186 -0.3046
 1097SOL     OW14926   0.320   4.465   1.500  0.3891  0.1710  0.3094
 1097SOL    HW114927   0.344   4.434   1.413  0.0896  1.1334 -0.1085
 1097SOL    HW214928   0.326   4.381   1.545  4.2719  1.4214  2.0933
 1098SOL     OW14929   3.435   2.817   1.727 -0.5436 -0.8658  0.0029
 1098SOL    HW114930   3.447   2.839   1.635 -0.3166 -1.8779 -0.2100
 1098SOL    HW214931   3.479   2.890   1.770 -0.3693 -1.6944  1.2155
 1099SOL     OW14932   4.111   1.592   8.750  0.0241  0.0741  0.2405
 1099SOL    HW114933   4.041   1.651   8.777  0.3602  0.2323  0.7627
 1099SOL    HW214934   4.161   1.580   8.830 -0.7553 -3.7032  0.1240
 1100SOL     OW14935   1.617   1.840   3.211  0.6089  0.2650 -0.5150
 1100SOL    HW114936   1.674   1.771   3.178 -0.9865 -1.3106  0.0077
 1100SOL    HW214937   1.668   1.921   3.205  0.1643  0.5386 -0.6185
 1101SOL     OW14938   0.284   0.857   3.897 -0.0831  0.0761 -0.1659
 1101SOL    HW114939   0.337   0.839   3.974 -0.4162 -1.4778 -0.3055
 1101SOL    HW214940   0.275   0.953   3.894  0.4837  0.1438  0.3953
 1102SOL     OW14941   2.849   3.225   8.917  0.3290  0.0998 -0.9026
 1102SOL    HW114942   2.904   3.243   8.993 -1.4949 -1.7618  0.8607
 1102SOL    HW214943   2.835   3.310   8.874 -0.1274  0.9115  0.8840
 1103SOL     OW14944   2.268   3.882  13.397 -0.0240  0.0359 -0.4407
 1103SOL    HW114945   2.264   3.969  13.436 -0.1005 -1.4572  2.8269
 1103SOL    HW214946   2.258   3.906  13.305  1.2787 -0.6116 -0.7502
 1104SOL     OW14947   4.583   3.136  11.897  0.3916  0.3341 -0.2446
 1104SOL    HW114948   4.643   3.172  11.832  1.0390  0.7725  0.5868
 1104SOL    HW214949   4.625   3.051  11.908  2.7102  1.3412 -1.4320
 1105SOL     OW14950   3.835   3.880  17.510  0.1377 -0.3563  0.1195
 1105SOL    HW114951   3.796   3.956  17.551 -1.2837 -1.4479  0.7777
 1105SOL    HW214952   3.773   3.811  17.532 -0.7865  0.6051  0.4889
 1106SOL     OW14953   2.450   2.759   3.479 -0.0351 -0.2996  0.2229
 1106SOL    HW114954   2.422   2.850   3.470  3.2371  0.4071 -3.1397
 1106SOL    HW214955   2.506   2.771   3.555  2.9315  0.8847 -2.1327
 1107SOL     OW14956   3.043   1.879   1.155  0.2122 -0.4952 -0.1581
 1107SOL    HW114957   2.980   1.860   1.225 -1.5376 -1.0901 -1.9020
 1107SOL    HW214958   3.018   1.971   1.146  1.2886 -0.5450 -3.4296
 1108SOL     OW14959   1.094   2.067   3.387 -0.1628  0.3702  0.2107
 1108SOL    HW114960   1.189   2.080   3.378 -0.2290  1.7152  1.4676
 1108SOL    HW214961   1.066   2.131   3.321 -0.6276  0.9679  0.9895
 1109SOL     OW14962   3.452   2.926   8.663  0.3255 -0.4549 -0.6638
 1109SOL    HW114963   3.396   2.997   8.631  0.6269 -1.2618 -3.0143
 1109SOL    HW214964   3.458   2.874   8.582  0.5502 -0.5616 -0.5805
 1110SOL     OW14965   0.841   1.973  17.347  0.2208 -0.4358  0.0116
 1110SOL    HW114966   0.882   1.933  17.270 -0.2720  1.5919 -1.3084
 1110SOL    HW214967   0.831   1.899  17.407 -1.5650 -1.6656 -1.8159
 1111SOL     OW14968   0.868   2.178   7.801  0.1372 -0.0260  0.5123
 1111SOL    HW114969   0.931   2.170   7.873 -0.8578  0.3985  1.4202
 1111SOL    HW214970   0.935   2.177   7.732 -1.9881 -1.7621 -1.5389
 1112SOL     OW14971   1.586   1.533  10.524  0.2439  0.5000 -0.0622
 1112SOL    HW114972   1.503   1.486  10.524  1.0814 -0.9528  0.3384
 1112SOL    HW214973   1.578   1.599  10.593 -1.9419  1.7655 -1.5200
 1113SOL     OW14974   3.352   1.621   7.449 -0.1912 -0.2435 -0.4272
 1113SOL    HW114975   3.359   1.698   7.506  0.1290 -1.1365  0.7281
 1113SOL    HW214976   3.443   1.593   7.462 -0.0643 -0.3856 -1.5549
 1114SOL     OW14977   1.573   3.848   7.925 -0.4151 -0.1653  0.2942
 1114SOL    HW114978   1.572   3.942   7.907  0.9521 -0.4266 -1.2226
 1114SOL    HW214979   1.664   3.818   7.927  0.1468  1.4433 -0.7939
 1115SOL     OW14980   3.937   3.132  17.147  0.5946  0.3486 -0.1966
 1115SOL    HW114981   4.021   3.147  17.190 -0.0774  1.5873  0.6827
 1115SOL    HW214982   3.960   3.170  17.063 -0.1900 -0.6802 -0.8707
 1116SOL     OW14983   3.028   0.157   8.287  0.0238 -0.2841  0.2465
 1116SOL    HW114984   3.091   0.136   8.218  0.4295 -0.3764  0.6456
 1116SOL    HW214985   2.952   0.113   8.249 -0.8483  0.6781  0.8800
 1117SOL     OW14986   1.618   0.983  14.578 -0.2308  0.5258 -0.2191
 1117SOL    HW114987   1.557   0.917  14.612 -0.0407  0.2329 -0.4436
 1117SOL    HW214988   1.701   0.935  14.583  0.3275  1.5478  0.3668
 1118SOL     OW14989   2.535   3.648   5.228 -0.2245  0.1029 -0.5321
 1118SOL    HW114990   2.554   3.563   5.189 -1.6434  0.3753 -1.8081
 1118SOL    HW214991   2.555   3.704   5.153  1.4946 -1.6982 -1.4230
 1119SOL     OW14992   4.566   1.677   7.684 -0.0109 -0.2953 -0.2014
 1119SOL    HW114993   4.487   1.701   7.636  1.0481  3.2044 -0.1529
 1119SOL    HW214994   4.543   1.718   7.767  1.5286  0.4516 -0.1552
 1120SOL     OW14995   1.285   0.224   8.036  0.3240  0.3334 -0.0273
 1120SOL    HW114996   1.309   0.186   8.121 -2.5055  0.2633  0.7315
 1120SOL    HW214997   1.278   0.317   8.056  0.4124  0.1731  0.7626
 1121SOL     OW14998   4.684   1.160  15.035  0.0426  0.6064  0.3367
 1121SOL    HW114999   4.608   1.215  15.016  0.1614  0.6878  0.0876
 1121SOL    HW215000   4.696   1.111  14.954  0.0737 -1.6694  1.7323
 1122SOL     OW15001   1.752   2.387   5.165  0.1583  0.5429 -0.2408
 1122SOL    HW115002   1.672   2.337   5.181 -0.6953  2.4139  1.3127
 1122SOL    HW215003   1.700   2.461   5.133  0.8172  0.7230 -0.9061
 1123SOL     OW15004   4.674   0.318   3.531  0.1385 -0.0110 -0.0277
 1123SOL    HW115005   4.633   0.238   3.499  0.4365 -0.3276  0.3797
 1123SOL    HW215006   0.028   0.298   3.526  0.1942 -0.0624  1.2255
 1124SOL     OW15007   2.880   4.666  17.159 -0.7555  0.1154 -0.0660
 1124SOL    HW115008   2.935   4.667  17.081 -0.7431 -0.2750 -0.0612
 1124SOL    HW215009   2.922   4.733  17.214 -0.7963 -1.1728  1.5445
 1125SOL     OW15010   2.187   2.407  11.456  0.0991 -0.1462 -0.5221
 1125SOL    HW115011   2.258   2.412  11.519 -1.4998  1.6748  1.1314
 1125SOL    HW215012   2.205   2.483  11.401 -0.1103  1.2019  1.2584
 1126SOL     OW15013   0.159   1.734   7.376  0.3140 -0.4755  0.0212
 1126SOL    HW115014   0.244   1.766   7.408  0.0018  0.8251 -0.4479
 1126SOL    HW215015   0.110   1.725   7.458  2.0553  1.2732  1.2588
 1127SOL     OW15016   1.494   0.169   7.222  0.2490 -0.2193  0.7301
 1127SOL    HW115017   1.570   0.154   7.279  1.7027  2.3101 -0.5305
 1127SOL    HW215018   1.519   0.254   7.186  2.6446 -1.0869  0.3307
 1128SOL     OW15019   3.101   2.235   3.567  0.9580  0.8453 -0.1893
 1128SOL    HW115020   3.173   2.193   3.616 -2.3293 -1.4144  2.6757
 1128SOL    HW215021   3.118   2.203   3.479 -0.4038 -0.7182  0.1158
 1129SOL     OW15022   4.080   1.069  17.608 -0.3581  0.5836  0.2876
 1129SOL    HW115023   4.101   1.159  17.586  0.3297 -0.0056 -1.4129
 1129SOL    HW215024   4.159   1.044  17.656  0.5909  0.8068 -1.1935
 1130SOL     OW15025   0.851   3.913   7.920 -0.0200 -0.8739 -0.4122
 1130SOL    HW115026   0.912   3.844   7.896  2.1052  1.0929 -0.6642
 1130SOL    HW215027   0.905   3.990   7.905 -1.8886  0.4846 -0.2038
 1131SOL     OW15028   1.880   2.815   5.007 -0.4638  0.5288  0.1535
 1131SOL    HW115029   1.954   2.768   4.971  0.5080  3.3867 -1.5150
 1131SOL    HW215030   1.824   2.807   4.930 -0.9457 -0.9519  0.6532
 1132SOL     OW15031   1.763   0.694   7.356  0.2562  0.1071 -0.0121
 1132SOL    HW115032   1.801   0.766   7.407 -0.3951 -0.4961  1.3358
 1132SOL    HW215033   1.696   0.657   7.414  2.0050 -2.2353  0.5415
 1133SOL     OW15034   1.146   0.620   6.823  0.5321 -0.6451  0.5787
 1133SOL    HW115035   1.174   0.667   6.901  0.8320 -0.6848  0.4947
 1133SOL    HW215036   1.220   0.645   6.766 -0.6739  0.4847 -0.4894
 1134SOL     OW15037   4.721   4.432  12.290  0.2807 -0.2309  0.7380
 1134SOL    HW115038   4.738   4.417  12.197 -0.0311 -0.5953  0.7435
 1134SOL    HW215039   4.684   4.348  12.316 -1.2002 -0.2960 -1.6015
 1135SOL     OW15040   4.038   3.567   4.612 -0.2262  0.2091  0.0667
 1135SOL    HW115041   4.082   3.623   4.677 -1.6644 -0.9047  1.9704
 1135SOL    HW215042   3.951   3.606   4.608  0.3399  1.3875 -0.8575
 1136SOL     OW15043   0.047   1.126  17.499 -0.1460 -0.1492  0.0885
 1136SOL    HW115044   0.090   1.183  17.435 -1.8171  0.2743 -0.6637
 1136SOL    HW215045   0.005   1.063  17.442 -2.7917  1.4045  0.3254
 1137SOL     OW15046   0.274   0.122   2.115 -0.1886  0.1852 -0.2999
 1137SOL    HW115047   0.236   0.046   2.158  0.8507  0.4046  0.9993
 1137SOL    HW215048   0.200   0.157   2.065 -0.9706 -2.1340 -0.7857
 1138SOL     OW15049   0.191   0.470   3.159  0.0151  0.4398  0.2879
 1138SOL    HW115050   0.241   0.537   3.207  0.1600  0.0283  0.7174
 1138SOL    HW215051   0.192   0.394   3.217  1.7263  1.6170  1.8250
 1139SOL     OW15052   2.056   3.008   9.004  0.2041  0.5103  0.1579
 1139SOL    HW115053   2.146   2.983   9.027  0.3968  2.0110  1.0209
 1139SOL    HW215054   2.041   3.084   9.059 -0.6340  0.4061  0.0740
 1140SOL     OW15055   3.512   1.531   1.053  0.2788 -0.1587  0.3970
 1140SOL    HW115056   3.533   1.445   1.090  2.3110 -0.7650 -2.1829
 1140SOL    HW215057   3.483   1.506   0.965  0.5497 -0.4968  0.4041
 1141SOL     OW15058   1.115   2.734  12.731  0.7446  0.7526 -0.1392
 1141SOL    HW115059   1.110   2.639  12.744 -0.8266  0.6930 -1.1724
 1141SOL    HW215060   1.098   2.748  12.638  3.3318  4.1151 -0.0767
 1142SOL     OW15061   3.712   1.167   9.407  0.0609  0.4761 -0.0895
 1142SOL    HW115062   3.779   1.185   9.474  2.4697 -0.0011 -2.4000
 1142SOL    HW215063   3.764   1.196   9.333 -1.4106  1.6214 -0.6825
 1143SOL     OW15064   1.411   3.307   8.342  0.2430 -0.2504  0.1025
 1143SOL    HW115065   1.415   3.309   8.247  0.5936 -0.8203  0.1038
 1143SOL    HW215066   1.322   3.331   8.367  0.6562  1.0476  0.3405
 1144SOL     OW15067   3.335   0.813  16.175 -0.0354  0.1385  0.1928
 1144SOL    HW115068   3.400   0.757  16.132  0.0694  0.8302 -0.5443
 1144SOL    HW215069   3.348   0.790  16.267  0.9201 -0.6148 -0.1280
 1145SOL     OW15070   3.880   2.107  12.836 -0.0051  0.2278 -0.5252
 1145SOL    HW115071   3.869   2.015  12.813 -1.1871  0.2590 -0.0450
 1145SOL    HW215072   3.965   2.108  12.880  0.3630 -0.6835 -1.2193
 1146SOL     OW15073   4.506   3.332   6.508  0.8000  0.1439  0.3303
 1146SOL    HW115074   4.533   3.290   6.590  0.4796 -1.5470 -0.4111
 1146SOL    HW215075   4.507   3.422   6.539 -2.5859  0.2479  0.1807
 1147SOL     OW15076   4.362   3.130   5.951  0.1779  0.1889 -0.3129
 1147SOL    HW115077   4.386   3.206   5.898  1.4232  1.5360  2.1467
 1147SOL    HW215078   4.312   3.082   5.885  1.9013  0.5790 -1.9191
 1148SOL     OW15079   4.016   0.909  17.361 -0.2850 -0.4766 -0.2215
 1148SOL    HW115080   4.000   0.948  17.446  1.0119  0.0235 -0.2188
 1148SOL    HW215081   3.943   0.941  17.308 -0.0163 -0.3637 -0.5217
 1149SOL     OW15082   2.451   2.549   9.294  0.3619  0.2412  0.5369
 1149SOL    HW115083   2.493   2.482   9.239  0.2521  0.4454  0.2009
 1149SOL    HW215084   2.520   2.616   9.295 -0.0920  0.7378 -0.6685
 1150SOL     OW15085   0.011   3.039  12.331 -0.0164  0.4452 -0.3436
 1150SOL    HW115086   0.024   3.033  12.426  1.1048  0.1178 -0.5213
 1150SOL    HW215087   0.075   3.106  12.307 -0.5499  0.8083 -0.7556
 1151SOL     OW15088   1.562   2.717  15.116 -0.7444  0.0263 -0.3599
 1151SOL    HW115089   1.470   2.708  15.095 -1.5673  3.6315  1.5694
 1151SOL    HW215090   1.545   2.765  15.197  0.8518 -1.7357  1.0309
 1152SOL     OW15091   0.489   3.957   1.795  0.3154 -0.2775  0.3776
 1152SOL    HW115092   0.433   3.881   1.779 -1.0357  1.3955 -2.7522
 1152SOL    HW215093   0.479   3.953   1.890  0.6605  1.1986  0.4779
 1153SOL     OW15094   1.064   1.845   4.255 -0.3817 -0.1435  0.6786
 1153SOL    HW115095   1.101   1.931   4.237  0.3672 -0.2486  1.6884
 1153SOL    HW215096   0.989   1.839   4.197 -0.4953 -1.2404  0.9311
 1154SOL     OW15097   0.062   0.440   7.389 -0.2117  0.2552 -0.1879
 1154SOL    HW115098   0.038   0.415   7.478 -0.2229 -0.4754 -0.4005
 1154SOL    HW215099   0.033   0.367   7.334  1.5516 -1.0903  0.6566
 1155SOL     OW15100   1.516   0.780  16.390  0.2138 -0.9229  0.0812
 1155SOL    HW115101   1.584   0.714  16.375 -0.0757 -1.7334  2.3017
 1155SOL    HW215102   1.571   0.855  16.370 -1.6712  0.2822 -0.5280
 1156SOL     OW15103   0.360   2.232   0.459 -0.1901 -0.3986 -0.0557
 1156SOL    HW115104   0.378   2.247   0.551  1.6659 -0.6761 -0.3854
 1156SOL    HW215105   0.442   2.189   0.436 -0.8328 -1.3884 -0.5364
 1157SOL     OW15106   3.456   4.451   2.706 -0.0603 -0.3645  0.2826
 1157SOL    HW115107   3.501   4.369   2.727  0.4820 -0.7507 -2.3085
 1157SOL    HW215108   3.538   4.499   2.693 -0.3156  0.1169  0.4585
 1158SOL     OW15109   3.985   1.982   9.288 -0.1199 -0.5915 -0.5316
 1158SOL    HW115110   4.053   1.960   9.352  0.1021 -1.1238 -0.9482
 1158SOL    HW215111   4.025   2.062   9.253 -1.8583  0.5743  0.1650
 1159SOL     OW15112   1.621   3.782   1.127  0.7830 -0.0356 -0.4283
 1159SOL    HW115113   1.591   3.778   1.218 -2.1033  0.2362 -1.3593
 1159SOL    HW215114   1.715   3.787   1.145  0.4929 -1.0100  1.3291
 1160SOL     OW15115   2.679   1.600   0.213 -0.0159  0.2454  0.2131
 1160SOL    HW115116   2.688   1.652   0.293  1.7283  0.3276 -0.0499
 1160SOL    HW215117   2.772   1.584   0.196 -0.5224 -1.0946 -1.2979
 1161SOL     OW15118   4.240   2.378   9.869  0.0153  0.8167  0.3617
 1161SOL    HW115119   4.283   2.312   9.923  2.4807  1.6694 -0.5724
 1161SOL    HW215120   4.265   2.357   9.779 -1.9067  1.3740 -0.3166
 1162SOL     OW15121   1.496   0.561   2.758  0.3150  0.1851 -0.6232
 1162SOL    HW115122   1.573   0.618   2.755  1.3727 -1.2097  0.0522
 1162SOL    HW215123   1.437   0.586   2.687  1.5316  1.6644 -1.1028
 1163SOL     OW15124   3.920   1.600  16.620  0.1872  0.1039 -0.2621
 1163SOL    HW115125   3.930   1.509  16.649 -2.2913  0.9962  3.4006
 1163SOL    HW215126   3.989   1.605  16.554  1.7448 -0.0409  1.3634
 1164SOL     OW15127   1.950   0.896   7.718  0.5905  0.4294 -0.8717
 1164SOL    HW115128   1.967   0.853   7.801  0.6873  1.6155 -0.2798
 1164SOL    HW215129   1.954   0.991   7.732  1.4707  0.1192  0.8885
 1165SOL     OW15130   1.186   4.244  16.009  0.2628  0.7271 -0.2319
 1165SOL    HW115131   1.164   4.336  16.026 -0.1648  1.0156 -2.3538
 1165SOL    HW215132   1.247   4.231  16.082 -0.3642 -1.6009 -0.1443
 1166SOL     OW15133   2.804   3.838   9.659  0.2097 -0.2752  0.6486
 1166SOL    HW115134   2.744   3.763   9.663 -0.7743  0.5385  1.3483
 1166SOL    HW215135   2.889   3.799   9.637 -1.0099 -1.0602 -2.5924
 1167SOL     OW15136   0.246   1.966  13.353  0.0300 -0.5605  0.1308
 1167SOL    HW115137   0.209   1.903  13.291  0.9821  0.4677 -1.4984
 1167SOL    HW215138   0.247   2.051  13.308 -0.7003  0.0259  1.2170
 1168SOL     OW15139   2.367   0.698   4.118  0.6774  0.2326 -0.4324
 1168SOL    HW115140   2.429   0.770   4.127  0.1714  0.7472 -1.0729
 1168SOL    HW215141   2.362   0.676   4.212  2.9807  1.4326 -0.0275
 1169SOL     OW15142   0.228   2.882   6.824 -0.0582  0.2232 -0.1912
 1169SOL    HW115143   0.313   2.900   6.783  1.1795 -0.1656  2.1870
 1169SOL    HW215144   0.184   2.962   6.794  0.9408  0.4839 -0.9810
 1170SOL     OW15145   1.582   0.885   6.768  0.2831  0.5254  0.0425
 1170SOL    HW115146   1.673   0.864   6.791 -0.5949 -2.5784  0.6262
 1170SOL    HW215147   1.574   0.974   6.803  1.6574  1.2953 -1.6049
 1171SOL     OW15148   2.413   1.161   5.008  0.2590  0.1388  0.1500
 1171SOL    HW115149   2.401   1.247   4.967  0.4141 -0.5639 -1.3667
 1171SOL    HW215150   2.429   1.113   4.927  0.1548  0.0307  0.1946
 1172SOL     OW15151   4.066   3.641   6.928 -0.1360 -0.2644 -0.2976
 1172SOL    HW115152   4.036   3.730   6.944  1.6616  0.6142 -1.8202
 1172SOL    HW215153   4.143   3.662   6.874  0.0280 -3.5694 -1.3511
 1173SOL     OW15154   0.034   4.711   3.842  0.4063  0.6378 -0.1472
 1173SOL    HW115155   4.697   4.706   3.785 -0.1046 -0.9317  0.6876
 1173SOL    HW215156   0.043   0.067   3.846 -0.4462  0.6245  2.1267
 1174SOL     OW15157   0.942   2.165   8.659 -0.0530 -0.4525 -0.6524
 1174SOL    HW115158   0.862   2.114   8.665 -0.1854 -0.5553 -3.3349
 1174SOL    HW215159   0.987   2.127   8.583  0.0989 -0.5220 -0.5284
 1175SOL     OW15160   1.365   1.449   8.184 -0.3925  0.7912 -0.3358
 1175SOL    HW115161   1.316   1.490   8.255 -4.4352 -2.5187 -1.2012
 1175SOL    HW215162   1.445   1.500   8.194  0.5752 -0.6310 -0.7405
 1176SOL     OW15163   3.011   3.098   8.484 -0.2308  0.2676  0.0280
 1176SOL    HW115164   2.983   3.086   8.575 -2.4302 -1.9997 -0.9404
 1176SOL    HW215165   3.008   3.193   8.474  2.3967  0.3367  0.0960
 1177SOL     OW15166   3.433   3.552   6.784 -0.1946  0.1036  0.0793
 1177SOL    HW115167   3.498   3.489   6.816 -0.9909 -0.7240  0.0922
 1177SOL    HW215168   3.390   3.501   6.714 -0.0170  0.3328 -0.1955
 1178SOL     OW15169   4.005   0.645  13.811  0.5228  0.6935  0.6275
 1178SOL    HW115170   3.930   0.633  13.752 -0.3340  3.1574  1.2399
 1178SOL    HW215171   4.049   0.722  13.776 -1.4549  1.0217 -1.1494
 1179SOL     OW15172   0.810   3.857   2.703 -0.0325 -0.6895  0.0758
 1179SOL    HW115173   0.846   3.770   2.689  0.8351  0.0024 -2.0443
 1179SOL    HW215174   0.771   3.858   2.616  1.2087 -0.3193 -0.4833
 1180SOL     OW15175   3.616   1.539   1.378  0.0562  0.2329  0.2183
 1180SOL    HW115176   3.665   1.514   1.457  1.9562 -0.3586 -1.1439
 1180SOL    HW215177   3.569   1.458   1.356 -2.0389  1.1167  1.4408
 1181SOL     OW15178   2.906   2.538   9.889  0.0161  0.0706  0.2449
 1181SOL    HW115179   2.894   2.472   9.958  1.9608  0.7419  1.2124
 1181SOL    HW215180   2.998   2.555   9.907  0.2301 -1.4526  0.5589
 1182SOL     OW15181   4.005   0.862   2.589  0.6271 -0.1577 -0.0694
 1182SOL    HW115182   4.054   0.841   2.668  2.2746 -2.0508 -1.5831
 1182SOL    HW215183   4.066   0.917   2.539 -0.5336  1.0348 -0.1621
 1183SOL     OW15184   3.666   0.614   5.994  0.0368  0.2329 -0.0229
 1183SOL    HW115185   3.659   0.575   5.907 -0.6040  0.5678 -0.1221
 1183SOL    HW215186   3.575   0.640   6.009  0.1435  0.7766 -0.3217
 1184SOL     OW15187   2.903   0.684   2.508 -0.5111  0.6558  0.0354
 1184SOL    HW115188   2.908   0.779   2.524 -0.4427  0.6352  0.1407
 1184SOL    HW215189   2.814   0.684   2.473 -0.5269 -1.5678  0.1320
 1185SOL     OW15190   2.846   2.153  15.149 -0.1281  0.1413 -0.0354
 1185SOL    HW115191   2.905   2.205  15.094  0.6801  0.2257  0.9102
 1185SOL    HW215192   2.812   2.090  15.086 -1.6357 -0.1824  1.1087
 1186SOL     OW15193   0.264   3.029   1.009 -0.0453  0.2538  0.5555
 1186SOL    HW115194   0.319   3.092   1.057 -2.3732  2.5117  0.2698
 1186SOL    HW215195   0.175   3.063   1.020  0.0047  0.4870  0.2339
 1187SOL     OW15196   4.515   2.927   6.570  0.3509 -0.5476  0.7287
 1187SOL    HW115197   4.572   2.855   6.543 -0.8632 -0.9046 -0.8861
 1187SOL    HW215198   4.545   2.989   6.503  1.6411 -2.7338 -0.7243
 1188SOL     OW15199   1.280   0.881   2.917  0.0180  0.6333 -0.1051
 1188SOL    HW115200   1.363   0.842   2.889 -0.3739  0.4408 -0.9878
 1188SOL    HW215201   1.234   0.895   2.834  0.5005 -1.4744 -0.7384
 1189SOL     OW15202   2.631   0.604  12.425  0.7658 -0.0913  0.1529
 1189SOL    HW115203   2.652   0.696  12.440 -0.7989  0.2393  0.3106
 1189SOL    HW215204   2.693   0.560  12.484  1.3833  1.4326  0.6398
 1190SOL     OW15205   4.405   4.099   4.175 -0.2961 -0.6532 -0.2637
 1190SOL    HW115206   4.365   4.112   4.261 -0.8756 -1.7521 -0.3675
 1190SOL    HW215207   4.460   4.175   4.156  0.3446 -0.4533  2.3383
 1191SOL     OW15208   3.085   1.665  13.841 -0.1521  0.0176 -0.3335
 1191SOL    HW115209   3.064   1.650  13.933 -2.0779  0.4380 -0.7010
 1191SOL    HW215210   3.023   1.605  13.799 -3.1522  1.3953  2.0329
 1192SOL     OW15211   1.143   1.352   8.438  0.4672  0.5037 -0.1734
 1192SOL    HW115212   1.054   1.328   8.413  0.1856  2.2097 -0.8036
 1192SOL    HW215213   1.189   1.268   8.435  0.5583  0.6187 -1.8087
 1193SOL     OW15214   2.548   3.346  11.520  0.6690  0.1984 -0.2749
 1193SOL    HW115215   2.453   3.337  11.519  0.7759 -0.5306 -2.7892
 1193SOL    HW215216   2.564   3.255  11.545  0.6462  0.4370  0.6047
 1194SOL     OW15217   3.406   4.489   6.900 -0.1007  0.3990  0.3152
 1194SOL    HW115218   3.472   4.431   6.939 -1.3100 -1.0623  0.1761
 1194SOL    HW215219   3.326   4.444   6.928 -0.1689 -0.3101 -1.0394
 1195SOL     OW15220   1.507   3.996   8.904 -0.4856  0.0700  0.4129
 1195SOL    HW115221   1.492   3.916   8.955  0.5178  0.4880  1.3639
 1195SOL    HW215222   1.467   3.978   8.819 -2.4309 -2.9818  1.9446
 1196SOL     OW15223   3.094   1.945   8.204 -0.6254  0.2032  0.3569
 1196SOL    HW115224   3.178   1.905   8.224 -0.0381  1.2459 -0.0062
 1196SOL    HW215225   3.089   1.923   8.111 -1.0626  0.0495  0.4164
 1197SOL     OW15226   1.248   3.654   2.538 -0.1934  0.2727  0.5004
 1197SOL    HW115227   1.337   3.629   2.513  0.2812  2.8883 -0.3799
 1197SOL    HW215228   1.236   3.620   2.627 -1.9957  1.1018  0.5682
 1198SOL     OW15229   1.350   2.244   6.797 -0.0095  0.5959  0.3608
 1198SOL    HW115230   1.367   2.331   6.761  0.8741  0.5461  0.6667
 1198SOL    HW215231   1.358   2.196   6.714  0.4265 -2.4455  2.1286
 1199SOL     OW15232   3.947   2.290  13.887 -0.1053 -0.9557  0.1195
 1199SOL    HW115233   4.001   2.355  13.843 -2.3911 -0.8836 -2.6212
 1199SOL    HW215234   4.001   2.290  13.966  2.6409  1.5563 -1.7902
 1200SOL     OW15235   0.168   1.782   4.177  1.4037 -0.2328 -0.0528
 1200SOL    HW115236   0.079   1.819   4.181  1.2512 -0.5481 -0.6031
 1200SOL    HW215237   0.150   1.705   4.231  0.4675  0.5762  0.7884
 1201SOL     OW15238   1.262   0.014   7.244 -0.0063 -0.3932  0.4665
 1201SOL    HW115239   1.329   0.075   7.211  1.3578 -2.9451 -1.5039
 1201SOL    HW215240   1.177   0.050   7.220 -0.0282 -0.7514 -0.0052
 1202SOL     OW15241   4.505   2.020   0.074  0.3582  0.4253 -0.5204
 1202SOL    HW115242   4.438   1.975   0.125 -1.5688  3.4416 -0.4363
 1202SOL    HW215243   4.481   2.112   0.082 -1.2188  0.0504 -0.9441
 1203SOL     OW15244   2.684   0.848   8.521  0.4453 -0.7607 -0.7885
 1203SOL    HW115245   2.688   0.755   8.501  0.7770 -0.5314 -1.8279
 1203SOL    HW215246   2.776   0.860   8.544 -0.0769  0.0775  0.8456
 1204SOL     OW15247   3.840   2.038  13.955  0.2252  0.7621 -0.6865
 1204SOL    HW115248   3.852   2.127  13.924  0.4229  0.9416 -0.0999
 1204SOL    HW215249   3.931   2.015  13.971 -1.0753 -3.3851  1.0394
 1205SOL     OW15250   4.473   3.811  16.210  0.0377 -0.1104 -0.3852
 1205SOL    HW115251   4.540   3.744  16.222  0.1535 -0.0444 -0.6788
 1205SOL    HW215252   4.490   3.861  16.290  0.0415  0.0571 -0.4904
 1206SOL     OW15253   2.299   0.856   3.881 -0.3877  0.1378 -0.0853
 1206SOL    HW115254   2.283   0.790   3.949  0.6046  1.3206  1.2831
 1206SOL    HW215255   2.391   0.848   3.858 -0.9415  0.5304 -2.3951
 1207SOL     OW15256   4.246   1.907   4.994 -0.6035  0.6724 -0.3342
 1207SOL    HW115257   4.230   1.996   4.960 -1.5888  0.7375  0.3000
 1207SOL    HW215258   4.286   1.854   4.925 -1.9559 -0.7185 -0.0391
 1208SOL     OW15259   4.076   0.019   1.885  0.0424 -0.0337  0.1838
 1208SOL    HW115260   4.073   4.734   1.978 -1.1656  1.4044  0.5218
 1208SOL    HW215261   3.981   0.034   1.880  0.0804 -0.5507 -2.0045
 1209SOL     OW15262   2.485   2.417   5.847  0.1630 -0.0912  0.0169
 1209SOL    HW115263   2.555   2.481   5.855  1.2687 -1.3198  0.1997
 1209SOL    HW215264   2.522   2.349   5.792  2.4050 -0.2642  1.7718
 1210SOL     OW15265   2.182   0.870   5.446 -0.1029  0.3844 -0.5325
 1210SOL    HW115266   2.273   0.877   5.418  0.5782 -1.0393  1.3559
 1210SOL    HW215267   2.182   0.814   5.523 -1.0489  3.3869  1.6250
 1211SOL     OW15268   0.379   3.186   5.169  0.2660 -0.3518 -0.4806
 1211SOL    HW115269   0.441   3.235   5.224 -0.6086  0.3669 -0.1401
 1211SOL    HW215270   0.414   3.211   5.084  1.5215  0.8993  0.4046
 1212SOL     OW15271   1.363   0.944   4.632 -0.0312  0.3550 -0.3174
 1212SOL    HW115272   1.396   0.890   4.560  2.6320  0.9515  0.4651
 1212SOL    HW215273   1.356   1.030   4.592  1.9657 -0.4277 -2.3141
 1213SOL     OW15274   1.586   4.250   8.788 -0.6912  0.6000 -0.5538
 1213SOL    HW115275   1.567   4.164   8.826 -1.1666  0.8952 -0.1133
 1213SOL    HW215276   1.659   4.222   8.734 -0.4155  0.6215 -0.1952
 1214SOL     OW15277   3.891   2.377   8.149 -0.0584  0.1382  0.1586
 1214SOL    HW115278   3.883   2.297   8.202  0.2888  0.9131  1.3906
 1214SOL    HW215279   3.802   2.393   8.120  0.0302  1.8340  0.8037
 1215SOL     OW15280   1.429   0.511   9.154  0.6205 -0.4497  0.2811
 1215SOL    HW115281   1.446   0.433   9.208 -0.6437  0.0364  1.3840
 1215SOL    HW215282   1.371   0.484   9.083 -0.1141 -0.0655  0.7342
 1216SOL     OW15283   0.233   0.235  14.126 -0.2557  0.0251  0.0870
 1216SOL    HW115284   0.323   0.203  14.126 -0.3360 -0.1985 -0.3220
 1216SOL    HW215285   0.191   0.157  14.163 -1.2719 -0.4407 -2.0013
 1217SOL     OW15286   1.645   4.359   4.850  0.5771 -0.1825  0.2008
 1217SOL    HW115287   1.694   4.304   4.911  1.9282  0.1542 -0.5792
 1217SOL    HW215288   1.702   4.361   4.773 -0.3384 -0.1750 -0.4742
 1218SOL     OW15289   4.533   1.368   8.664 -0.3526  0.1406  0.5774
 1218SOL    HW115290   4.598   1.317   8.712  0.3964  1.2961  0.7939
 1218SOL    HW215291   4.550   1.449   8.712  2.3704 -0.7896  1.1574
 1219SOL     OW15292   3.435   2.456   7.752  0.0139  0.2487  0.6486
 1219SOL    HW115293   3.510   2.509   7.723 -0.7498  1.7241  1.3551
 1219SOL    HW215294   3.377   2.529   7.774 -0.6267 -0.0931  0.0927
 1220SOL     OW15295   3.228   2.363  16.592 -0.5105 -0.4589 -0.6240
 1220SOL    HW115296   3.244   2.386  16.683 -0.4872 -1.7502 -0.2925
 1220SOL    HW215297   3.278   2.433  16.550 -0.0091 -1.3397 -1.5066
 1221SOL     OW15298   2.929   3.250  11.544 -0.3574  0.1041  0.3530
 1221SOL    HW115299   2.957   3.330  11.588  2.3847 -2.0147  2.5341
 1221SOL    HW215300   2.918   3.195  11.622  0.0093  0.8436  0.9261
 1222SOL     OW15301   1.274   2.102  17.256  0.2536  0.1651  0.3661
 1222SOL    HW115302   1.221   2.181  17.244 -1.7249 -1.5570 -2.1562
 1222SOL    HW215303   1.231   2.061  17.331  1.2292  0.3195  1.0217
 1223SOL     OW15304   3.040   0.825   9.444 -0.1426 -0.0804 -0.5675
 1223SOL    HW115305   3.077   0.880   9.514  0.2336 -0.2799 -0.6126
 1223SOL    HW215306   2.957   0.872   9.433 -1.2908 -1.8325  0.6523
 1224SOL     OW15307   2.252   4.725  14.081 -0.0674  0.1858 -0.3632
 1224SOL    HW115308   2.295   0.065  14.113 -1.0049  0.9532 -1.0116
 1224SOL    HW215309   2.162   0.017  14.073  0.3346  1.3968 -0.1597
 1225SOL     OW15310   1.007   1.876   2.251 -0.1779 -0.0079 -0.2104
 1225SOL    HW115311   0.951   1.806   2.219 -0.0679  0.7191 -2.0012
 1225SOL    HW215312   1.025   1.864   2.344 -1.8981  1.5729  0.3356
 1226SOL     OW15313   1.837   4.444  12.488 -0.5391 -0.4752 -0.3245
 1226SOL    HW115314   1.927   4.458  12.518 -0.3068  1.3185 -1.8093
 1226SOL    HW215315   1.820   4.528  12.444 -0.7539 -2.2899 -3.7327
 1227SOL     OW15316   2.028   1.565   6.629 -0.0548 -0.2437 -0.0064
 1227SOL    HW115317   2.007   1.658   6.619 -1.5861 -0.5593  0.3107
 1227SOL    HW215318   2.085   1.581   6.704 -0.0900 -0.3452  0.0412
 1228SOL     OW15319   1.138   1.502   1.758 -0.4921 -0.0176 -0.6817
 1228SOL    HW115320   1.094   1.564   1.701  0.2556  0.8024 -0.3735
 1228SOL    HW215321   1.110   1.549   1.837  2.2485 -2.7993  2.0046
 1229SOL     OW15322   3.486   2.659   4.873 -0.1746  0.0137 -0.4471
 1229SOL    HW115323   3.451   2.612   4.949 -1.5254  2.3838  0.3859
 1229SOL    HW215324   3.574   2.676   4.908  0.1329  2.0124 -2.1794
 1230SOL     OW15325   3.210   2.805  13.295 -0.8879  0.0403  0.0541
 1230SOL    HW115326   3.121   2.772  13.282 -0.3251 -1.3885 -0.2803
 1230SOL    HW215327   3.189   2.887  13.339 -1.1462 -0.6065  1.1421
 1231SOL     OW15328   1.771   1.436   9.145 -0.3506 -0.0688  0.7492
 1231SOL    HW115329   1.795   1.520   9.184 -0.7743 -0.0917  1.0582
 1231SOL    HW215330   1.783   1.382   9.223 -0.9655 -2.7603 -1.0201
 1232SOL     OW15331   0.684   0.998   5.836 -0.0525  0.3008  0.1700
 1232SOL    HW115332   0.687   1.075   5.779 -2.9963  0.4759  0.2499
 1232SOL    HW215333   0.765   0.958   5.803 -0.6376  1.0268 -2.1868
 1233SOL     OW15334   4.499   4.174   3.239 -0.3834 -0.0886 -0.0877
 1233SOL    HW115335   4.496   4.227   3.159  0.6966  1.4791  0.9283
 1233SOL    HW215336   4.409   4.174   3.273 -0.7256  0.6199 -0.9839
 1234SOL     OW15337   2.065   4.066   2.395 -0.5533 -0.0286 -0.4960
 1234SOL    HW115338   2.075   3.974   2.417  0.0366 -0.4094 -2.4054
 1234SOL    HW215339   2.012   4.064   2.315  0.8326  1.9289 -1.4681
 1235SOL     OW15340   3.443   0.620   6.528  0.4874 -0.8963  0.1508
 1235SOL    HW115341   3.436   0.680   6.454  1.0498 -1.0916 -0.0614
 1235SOL    HW215342   3.537   0.603   6.532  0.5881 -0.5646 -0.9801
 1236SOL     OW15343   1.873   3.101   7.262 -0.3769 -0.2119 -0.0638
 1236SOL    HW115344   1.790   3.072   7.299  1.2851 -0.8852  3.1750
 1236SOL    HW215345   1.834   3.167   7.204  0.5451 -0.2873 -0.7740
 1237SOL     OW15346   0.318   2.824   8.190 -0.4305  0.3568  0.4436
 1237SOL    HW115347   0.396   2.789   8.147 -0.5338  1.1084 -0.3784
 1237SOL    HW215348   0.261   2.748   8.185 -0.0133  0.0451  0.3869
 1238SOL     OW15349   3.957   2.661   7.357  0.0292 -0.4393  0.8719
 1238SOL    HW115350   4.040   2.684   7.315 -0.0117 -0.7310  0.6241
 1238SOL    HW215351   3.942   2.741   7.407  1.6405  0.6348 -0.3351
 1239SOL     OW15352   3.023   1.327   6.013 -0.4119  0.0190 -0.0036
 1239SOL    HW115353   3.098   1.362   6.062 -1.4029 -1.1775  2.3423
 1239SOL    HW215354   2.950   1.340   6.073  0.4755  1.9968  0.6522
 1240SOL     OW15355   3.544   0.082   1.649  0.0944  0.7093  0.7434
 1240SOL    HW115356   3.549   0.126   1.564 -3.4847 -0.4692 -0.1025
 1240SOL    HW215357   3.488   0.145   1.694  1.3581  1.0351  1.8558
 1241SOL     OW15358   1.099   0.050   9.287  0.3089 -0.5368  0.3643
 1241SOL    HW115359   1.184   0.037   9.328  0.7744  1.1165 -0.0847
 1241SOL    HW215360   1.041   0.055   9.363  0.0894  0.7114  0.1078
 1242SOL     OW15361   1.461   3.649   3.908  0.2040  0.2150  0.4713
 1242SOL    HW115362   1.498   3.718   3.853  0.0668 -0.8650 -0.9596
 1242SOL    HW215363   1.457   3.695   3.992 -2.6313 -2.4885  1.8176
 1243SOL     OW15364   3.778   3.776   6.992 -0.0368 -0.5733  0.3268
 1243SOL    HW115365   3.767   3.681   7.004 -0.3615 -0.7569 -1.3968
 1243SOL    HW215366   3.808   3.778   6.901 -0.9884 -1.1426 -0.0066
 1244SOL     OW15367   4.392   0.933   7.928 -0.0944 -0.3326 -0.6337
 1244SOL    HW115368   4.313   0.971   7.966 -0.4495 -0.6003 -1.1220
 1244SOL    HW215369   4.464   0.994   7.915 -0.7654  0.0273 -2.5831
 1245SOL     OW15370   1.502   2.993   6.715  0.2595  0.2933  0.4442
 1245SOL    HW115371   1.466   3.031   6.635  1.4476 -0.4026 -0.4047
 1245SOL    HW215372   1.593   3.016   6.701 -0.2080  1.5286 -0.5180
 1246SOL     OW15373   1.069   2.278   0.728 -0.5268 -0.0418  0.1881
 1246SOL    HW115374   1.142   2.285   0.789 -1.5031 -1.3084  1.5071
 1246SOL    HW215375   1.112   2.233   0.654 -0.4333  2.7772 -1.4566
 1247SOL     OW15376   3.324   4.693   5.685 -0.0869  0.2993 -0.0818
 1247SOL    HW115377   3.410   4.667   5.718  0.0356  1.7770  0.7439
 1247SOL    HW215378   3.326   4.638   5.606  2.7245 -0.1734  0.3271
 1248SOL     OW15379   1.259   2.475   4.227  0.3986 -0.3721  0.5409
 1248SOL    HW115380   1.322   2.411   4.195  1.3679  1.1527 -0.6248
 1248SOL    HW215381   1.307   2.550   4.263 -0.9948  0.3562  0.8926
 1249SOL     OW15382   0.017   1.183   5.389 -0.0961  0.0714 -0.3280
 1249SOL    HW115383   4.733   1.273   5.411  0.4727 -0.3482  2.0164
 1249SOL    HW215384   0.112   1.183   5.402  0.1686  1.1847 -2.2122
 1250SOL     OW15385   4.026   1.862   8.799  0.0376  0.3611 -0.1886
 1250SOL    HW115386   4.079   1.928   8.754  0.3313  0.4370  0.2613
 1250SOL    HW215387   4.034   1.886   8.892 -0.6109  0.2445 -0.1067
 1251SOL     OW15388   2.543   3.190   5.614  0.2609  0.4036  0.0750
 1251SOL    HW115389   2.500   3.224   5.693  2.3096 -1.2847  1.9407
 1251SOL    HW215390   2.502   3.243   5.546 -1.4980  1.7385  2.1730
 1252SOL     OW15391   3.843   0.827   8.770  0.2234  0.0348 -0.0269
 1252SOL    HW115392   3.829   0.763   8.700 -1.6251  0.7150 -0.2889
 1252SOL    HW215393   3.860   0.907   8.720  2.7933 -0.1169  0.6435
 1253SOL     OW15394   0.734   1.012   5.426  0.5847  0.4747 -0.2371
 1253SOL    HW115395   0.762   1.077   5.490 -0.1469  0.8699 -0.3184
 1253SOL    HW215396   0.798   1.023   5.356  0.9078  0.5004  0.0667
 1254SOL     OW15397   1.316   3.168   5.003  0.0887  1.0191  0.4360
 1254SOL    HW115398   1.249   3.120   5.053  0.4256  0.6869  0.5755
 1254SOL    HW215399   1.317   3.137   4.913  4.4927 -0.8551  1.1446
 1255SOL     OW15400   3.920   4.641   1.605 -0.4392 -0.1701  0.0121
 1255SOL    HW115401   3.954   4.562   1.647 -1.7697 -1.0046 -0.4696
 1255SOL    HW215402   3.902   4.701   1.678  2.3489  0.6658 -0.0093
 1256SOL     OW15403   3.716   0.691  17.214  0.2619 -0.7930  0.1240
 1256SOL    HW115404   3.723   0.760  17.280  0.4476  0.3732 -1.1181
 1256SOL    HW215405   3.715   0.619  17.277  0.5637  0.0752  1.1240
 1257SOL     OW15406   1.462   1.997  14.243  0.1258  0.6225 -0.3513
 1257SOL    HW115407   1.454   1.907  14.211  1.1278  0.2412  0.4962
 1257SOL    HW215408   1.426   2.051  14.172 -3.5680  1.3822  2.1158
 1258SOL     OW15409   2.615   2.317   4.350 -0.1727  0.0623  0.1903
 1258SOL    HW115410   2.665   2.398   4.339  0.3112 -0.1852  0.5675
 1258SOL    HW215411   2.530   2.354   4.374 -0.2852 -1.4483  2.1979
 1259SOL     OW15412   2.040   1.920   7.893 -0.3685 -0.0481 -0.0344
 1259SOL    HW115413   1.967   1.889   7.839 -0.2105 -1.5328  0.6105
 1259SOL    HW215414   1.989   1.927   7.973 -0.6678  0.9380 -0.3094
 1260SOL     OW15415   2.273   3.888   7.410  0.3529  0.1951 -0.6912
 1260SOL    HW115416   2.342   3.828   7.383  0.2665 -0.0122 -0.4481
 1260SOL    HW215417   2.235   3.907   7.324  0.0917  1.0149 -0.4025
 1261SOL     OW15418   4.113   2.387   5.505 -0.3459  0.5382  0.3385
 1261SOL    HW115419   4.030   2.339   5.496 -0.3720  0.4667  0.9725
 1261SOL    HW215420   4.097   2.443   5.430 -0.2682  0.9638  0.6411
 1262SOL     OW15421   2.515   3.787   8.295  0.2914 -0.0620  0.4274
 1262SOL    HW115422   2.546   3.852   8.357 -0.9524 -0.2449  1.2460
 1262SOL    HW215423   2.447   3.740   8.344  0.5758  1.0072  1.8199
 1263SOL     OW15424   3.063   3.828  10.904 -0.0445 -0.3442 -0.1608
 1263SOL    HW115425   3.110   3.752  10.938 -1.2311  0.3325  3.0255
 1263SOL    HW215426   3.120   3.902  10.924 -1.4398  0.2317  1.7550
 1264SOL     OW15427   3.375   0.905   4.175  0.2363  0.4539 -0.2434
 1264SOL    HW115428   3.305   0.924   4.238 -0.1150 -0.1746 -0.4386
 1264SOL    HW215429   3.332   0.913   4.090 -1.3376  2.3763  0.7272
 1265SOL     OW15430   0.574   1.143   4.094  0.1251  0.2256  0.2443
 1265SOL    HW115431   0.601   1.234   4.083  4.5606 -0.9754  0.9940
 1265SOL    HW215432   0.573   1.129   4.188  1.5398  1.4579  0.4508
 1266SOL     OW15433   1.197   0.549   8.948 -0.4192 -0.4905  0.3131
 1266SOL    HW115434   1.124   0.488   8.957  0.0855 -1.0902  0.4034
 1266SOL    HW215435   1.154   0.634   8.956 -0.7243 -0.5238 -1.0616
 1267SOL     OW15436   1.723   3.567   5.536  0.4970 -0.2045  0.3924
 1267SOL    HW115437   1.708   3.656   5.506 -0.1332 -0.5036 -0.1810
 1267SOL    HW215438   1.673   3.567   5.618  2.7484  0.5560  1.7481
 1268SOL     OW15439   0.107   1.242   0.283 -0.5572 -0.2205 -0.4493
 1268SOL    HW115440   0.058   1.307   0.334 -1.0370  0.5311 -1.8670
 1268SOL    HW215441   0.062   1.160   0.304 -1.1191  0.2205  0.0828
 1269SOL     OW15442   4.436   2.366   0.495 -0.5473  0.0514 -0.0243
 1269SOL    HW115443   4.412   2.450   0.456  0.0768  1.0511  1.7465
 1269SOL    HW215444   4.531   2.372   0.503 -0.4934 -1.1319  0.2844
 1270SOL     OW15445   3.640   2.241   3.992  0.2076  0.0468  0.4443
 1270SOL    HW115446   3.714   2.275   4.043 -0.4567  0.3944  1.1880
 1270SOL    HW215447   3.639   2.302   3.918 -0.9500 -0.3769  0.1101
 1271SOL     OW15448   0.115   1.397  15.042 -0.6216  0.0419 -1.1249
 1271SOL    HW115449   0.047   1.330  15.047  0.7285 -1.1992  0.5477
 1271SOL    HW215450   0.170   1.361  14.972 -1.8030  0.5595 -2.3332
 1272SOL     OW15451   0.532   4.361   5.812  0.3343 -0.0723  0.4969
 1272SOL    HW115452   0.553   4.290   5.872  2.5028 -1.1034 -1.4870
 1272SOL    HW215453   0.549   4.325   5.725  1.2267 -0.9413  1.0285
 1273SOL     OW15454   3.434   3.887   4.007 -0.0608 -0.3254 -0.0096
 1273SOL    HW115455   3.434   3.799   4.043  0.8250 -0.2200  0.2535
 1273SOL    HW215456   3.521   3.884   3.968  0.3028 -0.4357  0.8096
 1274SOL     OW15457   0.960   1.959   1.713 -0.0982  0.8525 -0.5484
 1274SOL    HW115458   0.949   2.050   1.741  1.6213  0.6765  0.7054
 1274SOL    HW215459   1.055   1.964   1.703 -0.0811  0.9281 -0.3568
 1275SOL     OW15460   4.466   1.488   6.397 -0.4082  0.3848  0.3710
 1275SOL    HW115461   4.426   1.460   6.479 -1.1322  0.7612  0.1480
 1275SOL    HW215462   4.440   1.418   6.337 -1.1580  0.7192  0.2973
 1276SOL     OW15463   2.598   3.500   8.958 -0.0115  0.0834 -0.2378
 1276SOL    HW115464   2.660   3.503   8.885  1.0228  0.7476  0.6782
 1276SOL    HW215465   2.613   3.588   8.993 -0.8449 -0.8909  2.5792
 1277SOL     OW15466   1.201   0.888   1.590 -0.0817  0.2178 -0.1498
 1277SOL    HW115467   1.157   0.869   1.507  2.5021  1.8639 -1.8635
 1277SOL    HW215468   1.233   0.798   1.601  1.6468  0.8316 -0.3181
 1278SOL     OW15469   1.572   2.042   8.218  0.0837  0.5257 -0.1705
 1278SOL    HW115470   1.632   2.110   8.246 -1.2548  1.4277  0.5122
 1278SOL    HW215471   1.597   2.046   8.125 -2.2596 -0.4679 -0.8576
 1279SOL     OW15472   0.891   3.099   8.688  0.5149 -0.1997 -0.5426
 1279SOL    HW115473   0.832   3.175   8.698  2.4811  1.2191  0.1983
 1279SOL    HW215474   0.915   3.110   8.596  1.2950  0.8785 -0.2123
 1280SOL     OW15475   1.950   4.295   5.830 -0.1199  0.3475  0.0301
 1280SOL    HW115476   1.943   4.216   5.777 -1.0592  1.2139 -1.1259
 1280SOL    HW215477   1.861   4.314   5.859 -0.5415 -1.4787 -0.0841
 1281SOL     OW15478   4.535   2.981  12.143  0.2732 -0.1275  0.1428
 1281SOL    HW115479   4.571   3.010  12.227  0.8926  0.6403 -0.3917
 1281SOL    HW215480   4.532   3.059  12.089  2.2749  0.1961  0.4868
 1282SOL     OW15481   1.370   4.310   3.569 -0.1514 -0.3858  0.0434
 1282SOL    HW115482   1.463   4.296   3.587 -0.4172  0.4739  2.0495
 1282SOL    HW215483   1.375   4.406   3.567 -0.9209 -0.2917  2.2587
 1283SOL     OW15484   0.113   2.929   8.721  0.5014 -0.1931 -0.8145
 1283SOL    HW115485   0.176   2.923   8.649 -2.1339 -1.9197 -2.9784
 1283SOL    HW215486   0.165   2.968   8.791  1.4166 -0.8563 -1.1268
 1284SOL     OW15487   4.397   2.765   3.209 -0.1005  0.6603 -0.2057
 1284SOL    HW115488   4.327   2.704   3.188 -0.9280  1.8698 -0.9397
 1284SOL    HW215489   4.446   2.728   3.282  0.7256  2.3369  0.0875
 1285SOL     OW15490   0.193   2.050   7.469 -0.1614  0.2170  0.2059
 1285SOL    HW115491   0.124   2.024   7.530  0.2745  0.2019  0.6972
 1285SOL    HW215492   0.268   2.064   7.528  0.5834 -1.8505 -0.2635
 1286SOL     OW15493   2.865   2.157   2.646 -0.6391 -0.4484 -0.2522
 1286SOL    HW115494   2.863   2.077   2.698  1.1940 -0.3129  0.0180
 1286SOL    HW215495   2.951   2.139   2.608 -0.1781 -0.7250  0.9217
 1287SOL     OW15496   0.548   0.411   1.876 -0.0442 -0.1836  0.0935
 1287SOL    HW115497   0.586   0.340   1.928 -0.8196 -0.2018  0.6207
 1287SOL    HW215498   0.456   0.413   1.901 -0.1907 -0.8222 -0.3923
 1288SOL     OW15499   2.278   1.112  17.073 -0.8888  0.0704  0.5484
 1288SOL    HW115500   2.230   1.195  17.073  0.2318  0.7299 -0.5237
 1288SOL    HW215501   2.333   1.123  16.996 -0.4354 -1.9268  0.5786
 1289SOL     OW15502   3.265   0.401   6.353  0.1355  0.4704  0.7605
 1289SOL    HW115503   3.293   0.332   6.412 -0.3363  0.8315  1.3993
 1289SOL    HW215504   3.348   0.448   6.343 -0.2204  1.0546  0.5886
 1290SOL     OW15505   2.514   2.967   0.114  0.0810 -0.2195 -0.5631
 1290SOL    HW115506   2.441   2.917   0.077 -0.5100  0.2427 -0.0201
 1290SOL    HW215507   2.529   2.915   0.193  1.5743  1.3995  0.2139
 1291SOL     OW15508   3.376   0.443   3.715  0.7793  0.3417 -0.0216
 1291SOL    HW115509   3.281   0.455   3.712  0.7962  0.5573  0.2385
 1291SOL    HW215510   3.396   0.423   3.624  1.0282  0.8999 -0.0935
 1292SOL     OW15511   0.386   2.036   5.570  0.0238 -0.2888 -0.4822
 1292SOL    HW115512   0.478   2.008   5.571 -0.3802 -1.6103  1.3084
 1292SOL    HW215513   0.344   1.962   5.614 -1.0328 -0.0960 -1.1689
 1293SOL     OW15514   1.758   1.949  16.495 -0.4200  0.1608  0.0106
 1293SOL    HW115515   1.713   1.867  16.516  1.8805 -1.1879 -0.3230
 1293SOL    HW215516   1.834   1.943  16.553 -1.1028 -1.5762  0.7243
 1294SOL     OW15517   0.804   1.984  12.330  0.0637 -0.2631  0.5780
 1294SOL    HW115518   0.869   2.005  12.262  0.6099 -1.6537  0.6588
 1294SOL    HW215519   0.766   1.903  12.296 -0.1177  0.0882 -0.0656
 1295SOL     OW15520   0.714   4.567   6.615 -0.0537 -0.0368 -0.1913
 1295SOL    HW115521   0.654   4.625   6.662  1.2516  2.0556 -1.0597
 1295SOL    HW215522   0.797   4.612   6.633  1.4013 -2.0842 -1.8614
 1296SOL     OW15523   3.241   0.212   3.962  0.3650  0.4742 -0.2977
 1296SOL    HW115524   3.176   0.278   3.985 -1.8426 -0.3681 -4.1293
 1296SOL    HW215525   3.239   0.223   3.867 -0.3291 -0.8772 -0.4544
 1297SOL     OW15526   1.125   0.124   8.681  0.3916 -0.1410 -0.0483
 1297SOL    HW115527   1.130   0.162   8.593 -1.6447 -1.0017 -0.5492
 1297SOL    HW215528   1.196   0.060   8.679  0.9898  0.5099  0.4570
 1298SOL     OW15529   4.283   0.844  11.523  0.2469 -0.1739 -0.0223
 1298SOL    HW115530   4.354   0.891  11.566  1.0709 -1.1193 -0.3322
 1298SOL    HW215531   4.236   0.913  11.476  1.5865  0.1546 -0.9202
 1299SOL     OW15532   4.428   2.595   9.433  0.1052  0.4032 -0.2477
 1299SOL    HW115533   4.444   2.687   9.413  0.9644  0.7695  2.1512
 1299SOL    HW215534   4.485   2.545   9.375  0.8104  0.3087  0.5235
 1300SOL     OW15535   3.605   2.431  17.420 -0.2490 -0.9798 -0.0219
 1300SOL    HW115536   3.637   2.481  17.345  2.4460 -0.1136  1.7241
 1300SOL    HW215537   3.562   2.361  17.371 -0.2912  0.8626 -2.6802
 1301SOL     OW15538   2.384   4.661   2.135  0.2079 -0.1446  0.3523
 1301SOL    HW115539   2.386   4.659   2.231 -1.5098 -0.9246  0.3717
 1301SOL    HW215540   2.433   4.583   2.109  0.3227 -0.1075  0.4557
 1302SOL     OW15541   0.958   4.374   3.484 -0.0205  0.0826  0.0470
 1302SOL    HW115542   0.992   4.315   3.551  0.8107  0.4653 -0.0335
 1302SOL    HW215543   1.015   4.451   3.480  0.3408 -0.1342  0.9606
 1303SOL     OW15544   3.554   1.264   7.272 -0.4006 -0.0930 -0.1383
 1303SOL    HW115545   3.638   1.268   7.226  0.5367 -1.0783  1.5035
 1303SOL    HW215546   3.528   1.172   7.263 -1.3001  0.2817 -1.4143
 1304SOL     OW15547   0.277   0.368   1.279  0.2797  0.1457  0.4858
 1304SOL    HW115548   0.303   0.395   1.367  0.0135  0.4084  0.4859
 1304SOL    HW215549   0.188   0.336   1.293  0.6105  0.0009  2.2796
 1305SOL     OW15550   2.337   4.260   8.238 -0.0049 -0.3524 -0.2261
 1305SOL    HW115551   2.360   4.170   8.213  0.9682 -0.1859  0.0705
 1305SOL    HW215552   2.245   4.248   8.264  0.4765 -2.7002  0.4604
 1306SOL     OW15553   2.864   3.672   2.678 -0.0548 -0.4183 -0.5195
 1306SOL    HW115554   2.930   3.705   2.739  0.0858  0.1182 -0.9689
 1306SOL    HW215555   2.788   3.666   2.736  1.2954 -1.2091  1.1760
 1307SOL     OW15556   1.929   0.169   1.441 -0.1605 -0.5508  0.5185
 1307SOL    HW115557   1.921   0.092   1.497 -2.3909  0.1015  1.0961
 1307SOL    HW215558   2.004   0.211   1.483 -1.6629  1.1838  1.4510
 1308SOL     OW15559   2.712   3.602   3.176  0.7563 -0.5555  0.0251
 1308SOL    HW115560   2.658   3.645   3.242  1.1539  0.6728 -0.4477
 1308SOL    HW215561   2.794   3.632   3.216 -0.1964  0.4177  1.2313
 1309SOL     OW15562   0.854   3.595   2.128  0.5045  0.4638  0.4036
 1309SOL    HW115563   0.798   3.612   2.204  1.2457  0.2680  0.9888
 1309SOL    HW215564   0.894   3.512   2.155 -2.7917 -1.4770 -0.6422
 1310SOL     OW15565   0.402   2.065   1.069 -0.0956  0.5530 -0.5817
 1310SOL    HW115566   0.449   2.073   0.986  1.8783  0.3354  0.5140
 1310SOL    HW215567   0.435   2.132   1.129  0.7701  2.2695 -2.9650
 1311SOL     OW15568   3.306   2.569   0.481  0.0748 -0.0945 -0.0097
 1311SOL    HW115569   3.321   2.503   0.548 -2.1954  0.3816  0.9891
 1311SOL    HW215570   3.319   2.651   0.528  1.7715  0.5228 -1.5706
 1312SOL     OW15571   0.129   1.692   2.627  0.4918  0.1831  0.3564
 1312SOL    HW115572   0.042   1.652   2.628  0.7746 -0.4162  1.1996
 1312SOL    HW215573   0.143   1.714   2.719  1.1080  0.5236  0.1836
 1313SOL     OW15574   3.946   4.217   5.340  0.9364  0.1964 -0.1469
 1313SOL    HW115575   3.854   4.234   5.316  1.0043 -0.8157 -1.1138
 1313SOL    HW215576   3.965   4.130   5.304 -0.7077  0.2392 -1.1319
 1314SOL     OW15577   2.794   3.595   6.217 -0.3797 -0.4960  0.1191
 1314SOL    HW115578   2.811   3.687   6.197 -2.4510  0.0270  0.7354
 1314SOL    HW215579   2.746   3.596   6.299 -1.7225 -0.6758 -0.6612
 1315SOL     OW15580   2.604   3.723   0.722 -0.1555  0.0007  0.2172
 1315SOL    HW115581   2.524   3.773   0.736 -0.9125 -0.7121 -1.5472
 1315SOL    HW215582   2.566   3.638   0.699 -1.0855  1.1578 -2.5481
 1316SOL     OW15583   0.087   1.047  12.094  0.0268  0.0968 -0.4391
 1316SOL    HW115584   0.007   1.009  12.057 -1.3953  0.8902  1.7786
 1316SOL    HW215585   0.136   1.057  12.013  1.5673 -1.4554  0.2871
 1317SOL     OW15586   0.127   0.109   8.514  0.2024  0.2146 -0.2501
 1317SOL    HW115587   0.056   0.081   8.457 -0.2866 -1.8954  1.4007
 1317SOL    HW215588   0.096   0.200   8.511  1.2869  0.6882  2.2890
 1318SOL     OW15589   3.863   4.090  16.736 -0.3316 -0.2286  0.0427
 1318SOL    HW115590   3.930   4.157  16.754  0.6604 -1.5379  1.1698
 1318SOL    HW215591   3.916   4.012  16.752  0.2888  0.2004  0.0999
 1319SOL     OW15592   3.566   4.282   6.153  0.4876  0.5325 -0.0724
 1319SOL    HW115593   3.556   4.203   6.100  0.3913  0.4311  0.0973
 1319SOL    HW215594   3.643   4.256   6.203  1.1551  2.5566 -0.0334
 1320SOL     OW15595   0.267   4.396  16.074  0.0990 -0.1162  0.0135
 1320SOL    HW115596   0.226   4.310  16.086  0.6609 -0.4466 -0.4567
 1320SOL    HW215597   0.224   4.453  16.138  0.8564  0.8893 -0.3807
 1321SOL     OW15598   1.183   0.890   4.286 -0.1536  0.2283  0.0244
 1321SOL    HW115599   1.184   0.843   4.369 -2.7197 -0.1257 -0.1667
 1321SOL    HW215600   1.090   0.913   4.282 -0.2213 -0.2259 -1.0020
 1322SOL     OW15601   0.644   2.254   1.476 -0.0922  0.9430 -0.0684
 1322SOL    HW115602   0.719   2.306   1.504  1.8485 -0.3488 -2.9112
 1322SOL    HW215603   0.677   2.164   1.480  0.0751  0.9630 -1.1471
 1323SOL     OW15604   2.403   4.679   2.475  0.1679 -0.2612  0.2334
 1323SOL    HW115605   2.358   4.674   2.559 -1.1498 -0.5921 -0.4856
 1323SOL    HW215606   2.489   4.642   2.497  0.4231 -0.9114 -1.7850
 1324SOL     OW15607   3.083   1.474  17.321  0.3347 -0.1112 -0.1157
 1324SOL    HW115608   3.038   1.472  17.237  0.3935 -2.5597 -0.0754
 1324SOL    HW215609   3.139   1.551  17.313 -0.2716  0.0913 -2.1566
 1325SOL     OW15610   0.058   3.392   7.724  0.1878  0.0617  0.2198
 1325SOL    HW115611   0.112   3.332   7.776 -0.1232  0.7073  1.2940
 1325SOL    HW215612   4.715   3.352   7.753 -0.4950  1.2052 -0.1360
 1326SOL     OW15613   2.393   2.126   0.593 -0.1706 -0.0731  0.5442
 1326SOL    HW115614   2.477   2.092   0.627 -1.0615 -2.3653  0.4892
 1326SOL    HW215615   2.429   2.171   0.516  1.5430  2.1026  2.6069
 1327SOL     OW15616   0.174   4.244   3.711  0.0571  0.2515 -0.1529
 1327SOL    HW115617   0.209   4.207   3.630 -0.5730  4.2092 -2.2678
 1327SOL    HW215618   0.194   4.337   3.704  0.1590  0.2703  0.3702
 1328SOL     OW15619   4.315   3.465   1.160  0.0143  0.4157 -0.3809
 1328SOL    HW115620   4.234   3.457   1.210  0.5990  2.4827  0.9439
 1328SOL    HW215621   4.285   3.439   1.073  1.6812 -1.1835 -0.4994
 1329SOL     OW15622   1.568   0.071   7.575  0.4185 -0.1492 -0.5312
 1329SOL    HW115623   1.630   0.081   7.503 -1.7120  0.3194 -2.2913
 1329SOL    HW215624   1.605   0.125   7.644 -2.1252  2.3920 -1.1615
 1330SOL     OW15625   3.359   1.695   6.710  0.4515  0.0924  0.5280
 1330SOL    HW115626   3.454   1.707   6.716  0.7173 -2.2758  0.9560
 1330SOL    HW215627   3.320   1.782   6.720  0.1226  0.0374 -0.2842
 1331SOL     OW15628   2.773   1.937   7.809  0.2048 -0.2838 -0.1683
 1331SOL    HW115629   2.732   1.861   7.850  1.5350 -0.6056  0.5422
 1331SOL    HW215630   2.793   1.989   7.887 -0.2078 -1.2300  0.5675
 1332SOL     OW15631   3.803   4.660  11.570 -0.6312 -0.3166  0.1786
 1332SOL    HW115632   3.865   4.681  11.500 -0.8494 -1.9766 -0.5200
 1332SOL    HW215633   3.855   4.665  11.650 -1.2629 -2.1406  0.7047
 1333SOL     OW15634   0.433   4.461   7.951  0.0967 -0.2866  0.1960
 1333SOL    HW115635   0.438   4.528   8.020  2.0011 -0.1968 -0.0292
 1333SOL    HW215636   0.525   4.478   7.928 -0.0649  0.1103 -0.1597
 1334SOL     OW15637   3.406   4.655   9.187  0.2056 -0.3438 -0.5804
 1334SOL    HW115638   3.472   4.605   9.141 -1.0939 -1.1756 -1.5321
 1334SOL    HW215639   3.406   4.737   9.137 -1.3028 -0.0132 -0.0559
 1335SOL     OW15640   3.544   3.636   5.309  0.5216 -0.5775  0.0195
 1335SOL    HW115641   3.591   3.704   5.358 -1.0740 -1.0731  2.2611
 1335SOL    HW215642   3.606   3.610   5.241 -0.9238 -0.7099 -1.2301
 1336SOL     OW15643   3.647   3.613  14.896  0.6400  0.4568 -0.0820
 1336SOL    HW115644   3.560   3.631  14.860  1.0531  3.0698  0.1985
 1336SOL    HW215645   3.683   3.555  14.829  1.1427  1.0229 -0.3040
 1337SOL     OW15646   2.985   1.314  14.070  0.5631 -0.3812  0.9361
 1337SOL    HW115647   2.890   1.301  14.074  0.5636 -0.2758  1.3211
 1337SOL    HW215648   2.995   1.403  14.103 -1.0825 -0.0269  0.5096
 1338SOL     OW15649   2.778   1.154   6.123  0.2094 -0.0909 -0.2911
 1338SOL    HW115650   2.685   1.146   6.101 -0.6164  1.1435  2.8116
 1338SOL    HW215651   2.793   1.247   6.142 -1.6110 -0.1645  1.3930
 1339SOL     OW15652   1.446   0.109   3.507  0.3110 -0.2054 -0.0892
 1339SOL    HW115653   1.527   0.129   3.554  0.5569 -1.3502 -0.0230
 1339SOL    HW215654   1.430   0.189   3.457 -0.3407  1.2893  2.4861
 1340SOL     OW15655   2.984   2.990  10.187 -0.0241  0.5467 -0.6342
 1340SOL    HW115656   3.039   2.919  10.155  2.1595  1.1449  1.7348
 1340SOL    HW215657   2.903   2.972  10.140  0.7749  0.0791 -1.8199
 1341SOL     OW15658   3.737   1.305  12.689  0.0044  0.1343 -0.0619
 1341SOL    HW115659   3.768   1.230  12.640 -2.0154  0.0352 -1.1958
 1341SOL    HW215660   3.813   1.362  12.692 -0.6469  0.9569  1.2664
 1342SOL     OW15661   2.015   0.489   3.878  0.0437 -0.4388 -0.0805
 1342SOL    HW115662   1.955   0.554   3.843  0.4008  0.2406  0.5530
 1342SOL    HW215663   1.966   0.472   3.958  2.2629  2.1448  1.8558
 1343SOL     OW15664   2.409   2.363   1.992 -0.0912 -0.1617 -0.0217
 1343SOL    HW115665   2.407   2.446   2.040 -0.5003 -0.4416  0.4426
 1343SOL    HW215666   2.398   2.315   2.074 -0.3565 -0.3608 -0.1744
 1344SOL     OW15667   2.026   1.944   7.158  0.0153  0.0127 -0.4610
 1344SOL    HW115668   2.029   1.860   7.111  2.1199 -1.3169  2.0451
 1344SOL    HW215669   2.034   1.996   7.078  1.8513 -1.2471 -1.1128
 1345SOL     OW15670   4.332   2.455  11.474 -0.0464  0.1974  0.2650
 1345SOL    HW115671   4.381   2.446  11.392 -0.9867  0.4000 -0.3144
 1345SOL    HW215672   4.398   2.428  11.538 -1.7053  1.8313  2.6031
 1346SOL     OW15673   3.577   4.444   9.069  0.5272 -0.4545 -0.2362
 1346SOL    HW115674   3.588   4.452   8.974  2.0541  1.7021  0.1130
 1346SOL    HW215675   3.504   4.383   9.077  0.5960 -1.1013 -4.7851
 1347SOL     OW15676   1.462   4.599   3.237 -0.0913  1.2314 -0.1605
 1347SOL    HW115677   1.395   4.667   3.247  0.4531  1.6266  0.7675
 1347SOL    HW215678   1.536   4.635   3.285  0.1990  1.2018 -0.5845
 1348SOL     OW15679   2.649   4.041   9.434 -0.4059 -0.5218 -0.0630
 1348SOL    HW115680   2.662   4.136   9.431  2.9820 -0.9844 -0.2749
 1348SOL    HW215681   2.732   4.002   9.461 -1.2883 -1.1627  1.7583
 1349SOL     OW15682   1.426   0.303   0.481  1.1799  0.5191 -0.2645
 1349SOL    HW115683   1.405   0.385   0.527 -1.9347 -0.8980  0.8086
 1349SOL    HW215684   1.434   0.353   0.400 -0.2769  1.2008  0.0202
 1350SOL     OW15685   1.858   3.768   6.675 -0.1309 -0.5309 -0.0757
 1350SOL    HW115686   1.913   3.841   6.645 -0.4742  0.4242  1.5943
 1350SOL    HW215687   1.891   3.692   6.627 -0.6682 -1.0161  0.3239
 1351SOL     OW15688   3.536   3.380   5.184 -0.3022 -0.2715 -0.0528
 1351SOL    HW115689   3.495   3.455   5.227  0.5429  0.1259  0.0666
 1351SOL    HW215690   3.603   3.425   5.132  0.5289 -0.7585  0.5929
 1352SOL     OW15691   2.968   4.425   9.048 -0.4111 -0.0886 -0.3033
 1352SOL    HW115692   2.999   4.363   8.982 -0.4098 -1.1152  0.6797
 1352SOL    HW215693   2.940   4.494   8.987  0.0299 -1.2013 -1.7781
 1353SOL     OW15694   2.307   2.919   9.036 -0.7064  0.0027 -0.1020
 1353SOL    HW115695   2.331   3.005   9.003  0.5271 -0.3953 -0.2292
 1353SOL    HW215696   2.393   2.879   9.025 -0.5917  0.1501  0.2558
 1354SOL     OW15697   1.804   0.339   4.062 -0.3466  0.1090  0.3724
 1354SOL    HW115698   1.820   0.431   4.081 -1.5713  0.4356 -0.1610
 1354SOL    HW215699   1.730   0.316   4.118 -0.6072  1.6360  0.6453
 1355SOL     OW15700   2.837   4.006   8.287 -0.3056 -0.1979 -0.2303
 1355SOL    HW115701   2.880   3.929   8.250  1.5201  0.8564 -0.2941
 1355SOL    HW215702   2.816   4.053   8.206  2.2454  1.4477  0.0487
 1356SOL     OW15703   3.949   3.035   1.956 -0.2236  0.0482 -0.2079
 1356SOL    HW115704   3.965   3.052   1.863  1.8060  2.4418  0.5840
 1356SOL    HW215705   3.973   3.118   1.997  0.4723 -1.0486  1.6017
 1357SOL     OW15706   2.855   4.612   2.731  0.1786  0.3759 -0.0404
 1357SOL    HW115707   2.892   4.569   2.808  1.8276 -0.0332 -1.0715
 1357SOL    HW215708   2.780   4.652   2.774  1.4853  4.1357 -1.2388
 1358SOL     OW15709   2.628   0.432  10.202  0.3354  0.2495  0.2442
 1358SOL    HW115710   2.656   0.429  10.294  1.8850  1.4641 -0.2008
 1358SOL    HW215711   2.534   0.432  10.221 -0.0791 -1.1358 -1.8636
 1359SOL     OW15712   1.704   0.733   6.329 -0.5849  0.2830 -0.2014
 1359SOL    HW115713   1.689   0.706   6.420 -0.7976 -1.1896 -0.6782
 1359SOL    HW215714   1.622   0.772   6.300 -0.1495  0.3934 -1.2768
 1360SOL     OW15715   4.270   0.768   9.061  0.1602  0.7301 -0.2497
 1360SOL    HW115716   4.208   0.722   9.004  2.6019 -0.2755 -2.1296
 1360SOL    HW215717   4.267   0.718   9.143  1.5628 -2.2444 -2.0060
 1361SOL     OW15718   1.669   2.670  11.934  0.3335 -0.1546 -0.2356
 1361SOL    HW115719   1.681   2.757  11.972 -0.5809  1.2605 -3.1280
 1361SOL    HW215720   1.649   2.617  12.011  0.2124  2.2333  1.3568
 1362SOL     OW15721   0.669   2.043  17.631 -0.6969  0.4896 -0.0511
 1362SOL    HW115722   0.675   2.110  17.562  1.0936 -0.1549 -0.5327
 1362SOL    HW215723   0.664   1.960  17.583 -0.5521  1.2285 -1.3588
 1363SOL     OW15724   1.104   1.084  17.101 -0.4417 -0.2928  0.1236
 1363SOL    HW115725   1.140   1.128  17.023  1.3276 -0.2772  0.9499
 1363SOL    HW215726   1.037   1.023  17.070  0.1245 -0.7004 -0.3084
 1364SOL     OW15727   4.643   4.256   8.649  0.0194 -0.2598  0.1202
 1364SOL    HW115728   4.558   4.264   8.605 -0.9528 -3.6685  1.3842
 1364SOL    HW215729   4.663   4.350   8.649 -1.7522  0.1333  1.2134
 1365SOL     OW15730   2.288   1.887   7.360  0.2109 -0.2909 -0.0298
 1365SOL    HW115731   2.217   1.906   7.299  0.8392  0.2134 -0.6053
 1365SOL    HW215732   2.353   1.947   7.323  2.0557 -2.8870 -0.9470
 1366SOL     OW15733   4.076   4.027   9.828 -0.0436  0.1448 -0.1790
 1366SOL    HW115734   4.085   3.960   9.760  1.8793 -1.7787  1.9675
 1366SOL    HW215735   4.150   4.078   9.798  0.1990 -0.7900 -1.1918
 1367SOL     OW15736   2.210   3.495   4.089 -0.5473  0.4441 -0.1765
 1367SOL    HW115737   2.226   3.456   4.175  2.0018  0.2494 -0.7335
 1367SOL    HW215738   2.298   3.474   4.057  0.2128  0.9242  1.5797
 1368SOL     OW15739   3.133   3.709   7.912 -0.0389  0.4941  0.0457
 1368SOL    HW115740   3.186   3.670   7.981 -0.6976 -0.1134  0.2139
 1368SOL    HW215741   3.114   3.632   7.859 -0.8609  0.7666 -0.0629
 1369SOL     OW15742   3.440   3.163   9.166  0.3808  0.1188  0.1568
 1369SOL    HW115743   3.516   3.139   9.112 -1.2568 -1.6530 -1.3384
 1369SOL    HW215744   3.374   3.171   9.098  0.4794 -1.2039 -0.1044
 1370SOL     OW15745   0.568   2.075   0.324 -0.7040 -0.0236 -0.0227
 1370SOL    HW115746   0.530   2.085   0.237  0.3151  3.3510 -0.0884
 1370SOL    HW215747   0.659   2.056   0.304 -0.7565  0.2019 -0.4837
 1371SOL     OW15748   3.035   2.779   5.933 -0.0613  0.5125 -0.3591
 1371SOL    HW115749   3.123   2.751   5.958 -0.7340 -2.4229 -1.3188
 1371SOL    HW215750   3.027   2.855   5.990  1.5340 -0.6158  1.3797
 1372SOL     OW15751   1.478   3.874   9.405  0.0442  0.0651 -0.3145
 1372SOL    HW115752   1.435   3.955   9.378  0.9815  0.1617 -1.5091
 1372SOL    HW215753   1.512   3.885   9.494 -0.9334 -3.2074  0.4597
 1373SOL     OW15754   3.608   3.098   3.604 -0.1008 -0.2329 -0.1325
 1373SOL    HW115755   3.524   3.094   3.649 -0.7112  0.0514 -1.2646
 1373SOL    HW215756   3.669   3.124   3.673 -2.7099  1.4573  1.5371
 1374SOL     OW15757   1.526   4.731   4.268  0.3774 -0.0379 -0.1458
 1374SOL    HW115758   1.589   0.030   4.208  1.2524 -0.6764  0.3733
 1374SOL    HW215759   1.459   4.704   4.205  1.0982 -1.5900 -0.2496
 1375SOL     OW15760   2.321   0.495   7.339 -0.1179 -0.3280 -0.2803
 1375SOL    HW115761   2.365   0.411   7.354 -0.2691 -0.3920 -0.2016
 1375SOL    HW215762   2.245   0.470   7.287 -0.9130  0.7588  0.3715
 1376SOL     OW15763   0.106   2.342  12.751 -0.2146 -0.1161  0.1837
 1376SOL    HW115764   0.152   2.278  12.805 -1.3806 -3.1123 -2.4115
 1376SOL    HW215765   0.153   2.326  12.669  1.6938  1.9531  0.8540
 1377SOL     OW15766   1.557   2.838   8.748 -0.0533  0.1084  0.6988
 1377SOL    HW115767   1.627   2.789   8.791  2.0987  0.7922 -2.0406
 1377SOL    HW215768   1.501   2.866   8.820  0.1430  0.3488  0.7540
 1378SOL     OW15769   3.933   1.328  16.637  0.1883  0.2170 -0.6251
 1378SOL    HW115770   4.014   1.325  16.586  0.0380 -0.6103 -0.8180
 1378SOL    HW215771   3.864   1.324  16.570 -0.9393 -2.4035  0.6962
 1379SOL     OW15772   0.548   1.746  17.408 -0.3934 -0.1897  0.5689
 1379SOL    HW115773   0.472   1.804  17.419 -0.3181  0.4780 -2.4327
 1379SOL    HW215774   0.573   1.741  17.500 -1.5688 -1.3572  0.8364
 1380SOL     OW15775   3.067   1.621   5.809 -0.1026  0.1337 -0.1200
 1380SOL    HW115776   3.085   1.560   5.880 -1.3257  0.4157  0.4328
 1380SOL    HW215777   2.972   1.630   5.818  0.1025  2.5118 -0.2431
 1381SOL     OW15778   4.521   0.213   0.302  0.2345  0.3052  0.0365
 1381SOL    HW115779   4.564   0.167   0.373  1.4605  1.1022 -0.1832
 1381SOL    HW215780   4.428   0.198   0.319 -0.2228  0.4586 -2.3382
 1382SOL     OW15781   3.326   2.581   6.619 -0.4792  0.0875 -0.1777
 1382SOL    HW115782   3.302   2.494   6.588 -1.2688 -0.8214  2.9146
 1382SOL    HW215783   3.366   2.544   6.698 -1.1919 -0.1505  0.0712
 1383SOL     OW15784   4.321   1.859   6.595  0.7999 -0.4225  0.0733
 1383SOL    HW115785   4.232   1.873   6.626  1.1147  1.9724 -0.1527
 1383SOL    HW215786   4.309   1.912   6.516 -1.6502 -1.3448 -0.1863
 1384SOL     OW15787   2.273   0.220   9.260  0.5408 -0.3725  0.5187
 1384SOL    HW115788   2.240   0.141   9.217  0.3973  0.7159 -1.3514
 1384SOL    HW215789   2.318   0.175   9.332  1.5994 -1.1835 -0.6305
 1385SOL     OW15790   3.682   3.142   7.589  0.6907  0.3701 -0.6391
 1385SOL    HW115791   3.734   3.160   7.667 -0.0681  0.9440 -0.2698
 1385SOL    HW215792   3.628   3.220   7.601 -0.1087 -0.5303  1.6245
 1386SOL     OW15793   2.262   3.080   3.169 -0.2256 -0.6803 -0.3509
 1386SOL    HW115794   2.170   3.095   3.191 -0.0450  0.6531 -0.5222
 1386SOL    HW215795   2.295   3.141   3.103  2.3284  0.5093  2.0144
 1387SOL     OW15796   0.484   3.164   7.177 -0.1348  0.0523 -0.3130
 1387SOL    HW115797   0.476   3.074   7.145 -0.3104  0.0220 -0.1869
 1387SOL    HW215798   0.527   3.203   7.102  1.4762  0.8404  1.0312
 1388SOL     OW15799   2.405   3.920   0.711  0.3742  0.1036 -0.2704
 1388SOL    HW115800   2.336   3.906   0.647  1.5332 -1.4415 -1.1669
 1388SOL    HW215801   2.365   3.995   0.755  0.8013  1.3158 -1.9630
 1389SOL     OW15802   4.087   2.097   5.326  0.4538 -0.4118 -0.1762
 1389SOL    HW115803   4.162   2.126   5.378 -0.8792  1.6151  0.6070
 1389SOL    HW215804   4.101   2.005   5.302 -2.2530 -0.6159 -0.9503
 1390SOL     OW15805   4.044   1.885   6.336  0.0243  0.2063  0.3644
 1390SOL    HW115806   4.036   1.881   6.431  2.2113 -2.7171  0.4248
 1390SOL    HW215807   4.099   1.808   6.320 -1.7087 -0.5141 -2.2107
 1391SOL     OW15808   0.901   4.479   6.862  0.2411 -0.2239  0.5478
 1391SOL    HW115809   0.867   4.427   6.934  1.1659 -0.2843  0.9388
 1391SOL    HW215810   0.896   4.417   6.790 -2.0837 -1.2754  1.6122
 1392SOL     OW15811   3.302   0.966  10.880 -0.2179 -0.2556  0.0913
 1392SOL    HW115812   3.292   0.940  10.972  0.1894 -0.2598  0.1350
 1392SOL    HW215813   3.226   1.024  10.871 -0.4716 -0.7740 -1.2275
 1393SOL     OW15814   2.156   0.891   6.771  0.1167  0.9273 -0.2654
 1393SOL    HW115815   2.244   0.919   6.748 -0.0731  1.5109 -0.2934
 1393SOL    HW215816   2.166   0.843   6.853  0.1005  0.9689 -0.2390
 1394SOL     OW15817   0.091   4.393   6.094 -1.0154  0.3701 -0.2740
 1394SOL    HW115818   0.118   4.479   6.126 -2.6166  0.6803  0.2639
 1394SOL    HW215819   4.736   4.410   6.084 -1.2187 -0.0836  0.9176
 1395SOL     OW15820   3.976   0.097   9.013 -0.2233  0.5944  0.5491
 1395SOL    HW115821   3.903   0.036   9.022 -0.1618  0.4039 -0.2896
 1395SOL    HW215822   3.928   0.179   8.997 -0.8445 -0.0553 -0.8553
 1396SOL     OW15823   0.395   1.807   2.218 -0.0942  0.0511 -0.2046
 1396SOL    HW115824   0.386   1.800   2.313 -0.1988 -1.2958 -0.3179
 1396SOL    HW215825   0.312   1.836   2.179  1.5906  1.1489 -3.0229
 1397SOL     OW15826   2.858   2.286   0.624 -0.6958  0.2815  0.7597
 1397SOL    HW115827   2.943   2.307   0.662 -0.0412 -1.1606  0.0701
 1397SOL    HW215828   2.840   2.354   0.559 -1.2469  0.1142  0.7318
 1398SOL     OW15829   0.217   4.718   4.163  0.1455 -0.3126  0.3194
 1398SOL    HW115830   0.248   4.700   4.075  1.8150 -0.7327  0.9978
 1398SOL    HW215831   0.225   0.074   4.177 -2.2555  0.1632 -1.4837
 1399SOL     OW15832   0.772   4.259  14.441 -0.6617  0.2926 -0.1736
 1399SOL    HW115833   0.853   4.252  14.391  0.4064  0.6102  1.5030
 1399SOL    HW215834   0.798   4.318  14.512  2.7196 -0.0799 -1.0669
 1400SOL     OW15835   0.803   0.303  13.470 -0.4124  0.1364 -0.1243
 1400SOL    HW115836   0.888   0.277  13.504 -1.2453 -1.1447  1.0246
 1400SOL    HW215837   0.814   0.296  13.375  0.9078 -0.3263  0.0733
 1401SOL     OW15838   0.644   2.444  12.503  0.0590 -0.2097  0.3940
 1401SOL    HW115839   0.701   2.368  12.505  0.0320 -0.2144  0.9029
 1401SOL    HW215840   0.654   2.478  12.414 -4.1454 -0.8760 -0.3528
 1402SOL     OW15841   0.904   1.961   5.030 -0.3301  0.1006 -0.2658
 1402SOL    HW115842   0.958   1.898   5.078  0.4018 -0.0974 -1.3726
 1402SOL    HW215843   0.964   2.021   4.985 -0.1107 -1.0181 -1.4487
 1403SOL     OW15844   1.554   2.156   3.710  0.3515  0.0380  0.9678
 1403SOL    HW115845   1.570   2.218   3.639  0.4940  0.2938  1.2239
 1403SOL    HW215846   1.468   2.123   3.685  0.7262  1.6347 -2.3695
 1404SOL     OW15847   3.238   4.296   3.344 -0.5148  0.1254 -0.8225
 1404SOL    HW115848   3.239   4.313   3.438  2.8697 -1.2933 -0.5877
 1404SOL    HW215849   3.299   4.222   3.336 -2.1377 -0.9323 -3.1856
 1405SOL     OW15850   0.695   0.957   2.885  0.0651 -0.2364  0.1185
 1405SOL    HW115851   0.625   0.951   2.821  1.5903  1.0488 -1.6745
 1405SOL    HW215852   0.732   0.868   2.882  0.2250 -0.1357 -0.7651
 1406SOL     OW15853   0.731   1.779  12.163 -0.1651  0.0211 -0.2031
 1406SOL    HW115854   0.734   1.784  12.067 -0.2443  1.3324 -0.1447
 1406SOL    HW215855   0.751   1.686  12.168  1.9510  0.3927 -1.8142
 1407SOL     OW15856   3.039   3.406   4.510 -0.1332 -0.4546 -0.0022
 1407SOL    HW115857   3.017   3.428   4.601 -1.0552  1.6638 -0.7211
 1407SOL    HW215858   3.084   3.323   4.522  1.0534 -0.0299 -1.5942
 1408SOL     OW15859   4.316   1.090   4.402  0.5389  0.0865 -0.4165
 1408SOL    HW115860   4.341   1.101   4.494  0.3866  0.2866 -0.3999
 1408SOL    HW215861   4.260   1.167   4.390 -1.0699 -0.7585  1.5048
 1409SOL     OW15862   4.025   1.555   5.886 -0.3329  0.0007 -0.6672
 1409SOL    HW115863   4.072   1.626   5.841  2.3608 -2.0736 -1.1013
 1409SOL    HW215864   3.985   1.611   5.953  1.4269 -0.7141  0.9658
 1410SOL     OW15865   0.319   4.617  11.120  0.8051 -0.0695 -0.2844
 1410SOL    HW115866   0.236   4.661  11.139  0.8326  0.3937 -1.1979
 1410SOL    HW215867   0.372   4.690  11.086 -1.2982  2.2661  1.4169
 1411SOL     OW15868   1.654   4.169   9.478 -0.0057  0.2489 -0.8939
 1411SOL    HW115869   1.702   4.115   9.416 -0.2430 -0.6421 -0.3003
 1411SOL    HW215870   1.657   4.102   9.546  0.5952  1.4241  0.2519
 1412SOL     OW15871   3.852   0.737  16.573 -0.2118  0.6112  0.3567
 1412SOL    HW115872   3.890   0.812  16.619  0.5670  0.8780 -0.7037
 1412SOL    HW215873   3.928   0.705  16.523 -1.8520 -0.4306 -1.4536
 1413SOL     OW15874   2.545   2.151   3.136 -0.5976 -0.2308 -0.3123
 1413SOL    HW115875   2.465   2.164   3.085  0.2735 -0.4250 -1.7526
 1413SOL    HW215876   2.589   2.088   3.079 -0.4753 -1.8894  1.6367
 1414SOL     OW15877   3.849   3.695  14.173  0.2191  0.5970  0.0996
 1414SOL    HW115878   3.818   3.636  14.104  2.9917  0.1469 -0.7494
 1414SOL    HW215879   3.886   3.771  14.130 -2.4072 -0.9975 -4.9982
 1415SOL     OW15880   3.448   0.797  11.317 -0.1817 -0.0566  0.1002
 1415SOL    HW115881   3.539   0.791  11.344 -0.6119 -0.6259  1.4004
 1415SOL    HW215882   3.429   0.723  11.260  2.6680 -0.4118 -0.3903
 1416SOL     OW15883   0.727   3.908   5.060 -0.0647 -0.2060 -0.2359
 1416SOL    HW115884   0.817   3.912   5.027 -0.5611 -1.1648 -1.6898
 1416SOL    HW215885   0.733   3.841   5.129 -0.2121 -0.8538 -0.8516
 1417SOL     OW15886   0.664   4.558  16.449  0.0616  0.3464 -0.0969
 1417SOL    HW115887   0.578   4.529  16.420  0.3554 -1.8493  1.2324
 1417SOL    HW215888   0.662   4.648  16.416 -0.0161  0.9743  1.6182
 1418SOL     OW15889   3.708   1.648  13.490 -0.2308 -0.2600 -0.1799
 1418SOL    HW115890   3.699   1.569  13.543 -3.0361  0.1125 -0.1064
 1418SOL    HW215891   3.803   1.657  13.486 -0.1182 -1.6683 -0.5540
 1419SOL     OW15892   2.572   0.228   4.429  0.5059 -0.2193  0.1244
 1419SOL    HW115893   2.556   0.204   4.520  2.5581  0.8311  0.7567
 1419SOL    HW215894   2.655   0.189   4.401  0.9135  0.0772  0.9396
 1420SOL     OW15895   0.854   3.833   7.225 -0.1124 -0.1221  0.3161
 1420SOL    HW115896   0.881   3.785   7.304  0.2014 -2.1337 -1.0019
 1420SOL    HW215897   0.842   3.759   7.165  0.4034  0.7687 -0.8801
 1421SOL     OW15898   3.158   4.102   2.249  0.4033 -0.2128  0.2412
 1421SOL    HW115899   3.063   4.094   2.240  0.4281  2.1399 -2.0967
 1421SOL    HW215900   3.166   4.176   2.189  1.6915  0.4030  1.1735
 1422SOL     OW15901   0.969   3.491  11.834  0.2154  0.0219 -0.7379
 1422SOL    HW115902   1.006   3.523  11.916 -4.2090 -0.2843  1.3966
 1422SOL    HW215903   0.977   3.396  11.842  0.9092  0.1245 -0.2271
 1423SOL     OW15904   3.421   1.918   0.474 -0.2348  0.2149 -0.1119
 1423SOL    HW115905   3.446   1.838   0.520 -0.1892  0.0390 -0.4462
 1423SOL    HW215906   3.328   1.911   0.496 -0.4326 -0.5120 -1.1656
 1424SOL     OW15907   1.129   0.231   6.601  1.3353 -0.1091  0.4094
 1424SOL    HW115908   1.171   0.304   6.556 -0.6486  0.7057 -0.1044
 1424SOL    HW215909   1.178   0.236   6.683  2.1644  2.4873 -0.2486
 1425SOL     OW15910   1.369   2.158   3.355  0.3524  0.8315 -0.2344
 1425SOL    HW115911   1.430   2.222   3.318  1.9077  0.8951  2.4470
 1425SOL    HW215912   1.423   2.103   3.411 -1.7618  0.3125  1.3077
 1426SOL     OW15913   0.597   3.983   4.826  0.0100 -0.3570  0.0517
 1426SOL    HW115914   0.514   3.938   4.813 -0.4175 -0.5431  3.4251
 1426SOL    HW215915   0.633   3.949   4.908  2.0558  3.7975  0.8643
 1427SOL     OW15916   0.237   3.538   9.615 -0.4968 -0.0294  0.2529
 1427SOL    HW115917   0.331   3.522   9.624 -0.5084 -0.3745 -0.2137
 1427SOL    HW215918   0.213   3.581   9.697  0.3732  1.6744 -0.3977
 1428SOL     OW15919   2.967   3.719   5.675 -0.0283  0.5337 -0.1356
 1428SOL    HW115920   3.055   3.696   5.704 -0.5918 -1.1758  0.2460
 1428SOL    HW215921   2.953   3.648   5.611 -0.6255  0.4005  0.1395
 1429SOL     OW15922   2.369   3.424   7.953  0.3404 -0.3312  0.0809
 1429SOL    HW115923   2.452   3.465   7.978  1.3592 -1.7051 -1.0383
 1429SOL    HW215924   2.362   3.441   7.859  0.4772 -0.2658  0.0815
 1430SOL     OW15925   4.209   3.260   8.113  0.2058 -0.1452 -0.1207
 1430SOL    HW115926   4.298   3.234   8.092  0.0681 -0.6395 -0.1002
 1430SOL    HW215927   4.187   3.209   8.191 -0.1983 -0.3185 -0.3494
 1431SOL     OW15928   4.242   3.217   6.504 -0.6918 -0.6801  0.7308
 1431SOL    HW115929   4.215   3.232   6.595  0.4015  0.6312  0.8465
 1431SOL    HW215930   4.328   3.260   6.499 -0.0457 -2.1411 -0.6305
 1432SOL     OW15931   0.424   3.203  12.725 -0.3560 -0.3254 -0.3976
 1432SOL    HW115932   0.478   3.185  12.802  0.8647  1.2992 -0.8649
 1432SOL    HW215933   0.349   3.149  12.750 -0.1045 -0.0097  1.0757
 1433SOL     OW15934   0.301   2.137  12.822 -0.5268  0.2082  0.0894
 1433SOL    HW115935   0.324   2.126  12.914  2.0164 -0.3020 -0.6039
 1433SOL    HW215936   0.386   2.160  12.785 -0.0282 -2.4144 -0.3610
 1434SOL     OW15937   3.963   4.120  15.272 -0.0228 -0.2095 -0.1000
 1434SOL    HW115938   3.940   4.054  15.338 -2.7738  1.0859  0.1954
 1434SOL    HW215939   4.025   4.078  15.212  0.5765  0.1195  0.2818
 1435SOL     OW15940   4.306   3.798  11.135 -0.0526  0.0601 -0.5347
 1435SOL    HW115941   4.257   3.850  11.071 -0.6722  1.5742  1.1465
 1435SOL    HW215942   4.295   3.704  11.122 -1.6337  0.4767 -2.1698
 1436SOL     OW15943   4.210   0.116   5.122 -0.1882  0.5822  0.0176
 1436SOL    HW115944   4.208   0.087   5.213  1.9025 -4.7703 -1.5991
 1436SOL    HW215945   4.257   0.198   5.138  2.6371 -0.9550 -0.2209
 1437SOL     OW15946   1.259   0.169   9.056 -0.3799 -0.8552  0.1387
 1437SOL    HW115947   1.211   0.114   9.118 -1.3840  1.1088  1.0977
 1437SOL    HW215948   1.191   0.226   9.021  2.3964  0.4509 -3.1352
 1438SOL     OW15949   1.778   0.080   3.263 -0.0614 -0.6077  0.1053
 1438SOL    HW115950   1.725   0.152   3.296  0.6155  0.1918 -0.5308
 1438SOL    HW215951   1.751   0.082   3.171  0.1081  0.4634  0.0809
 1439SOL     OW15952   4.673   3.337   8.161  0.0648 -0.4595  0.1070
 1439SOL    HW115953   0.004   3.367   8.219  0.1339  0.7626 -0.6203
 1439SOL    HW215954   4.620   3.416   8.163  1.7783  0.6904  0.4905
 1440SOL     OW15955   0.999   2.034   0.858  0.5202 -0.5059 -0.2156
 1440SOL    HW115956   1.002   2.050   0.764 -0.8141 -0.9587 -0.3390
 1440SOL    HW215957   0.967   2.120   0.884 -0.0063 -0.5688 -0.6625
 1441SOL     OW15958   0.494   2.380  17.689  0.0294  0.2410 -0.0939
 1441SOL    HW115959   0.557   2.451  17.700 -1.1336  1.0554  1.2892
 1441SOL    HW215960   0.438   2.409  17.617 -0.4432  1.0993  0.6131
 1442SOL     OW15961   3.001   0.562  12.822 -0.1219  0.0777 -0.0581
 1442SOL    HW115962   3.084   0.601  12.848 -0.9503 -0.4394  3.3186
 1442SOL    HW215963   2.940   0.589  12.890 -1.4212  0.5395 -1.3936
 1443SOL     OW15964   2.296   3.510  17.211 -0.4297 -0.3930  0.0314
 1443SOL    HW115965   2.275   3.599  17.183  1.2552 -0.3055 -0.9593
 1443SOL    HW215966   2.268   3.512  17.303  1.0669  0.9671  0.4472
 1444SOL     OW15967   1.862   2.658   3.268  0.4142 -0.1705  0.3916
 1444SOL    HW115968   1.893   2.595   3.332 -0.0732 -0.7877  0.0210
 1444SOL    HW215969   1.773   2.671   3.300  1.3216  1.6042  2.1894
 1445SOL     OW15970   4.341   0.595   2.387  0.0032 -0.0797  0.3371
 1445SOL    HW115971   4.405   0.629   2.450  0.4870 -0.1691 -0.1079
 1445SOL    HW215972   4.271   0.555   2.438 -0.7063 -0.6074 -1.0579
 1446SOL     OW15973   1.931   4.417   8.505 -0.3629  0.4561  0.2334
 1446SOL    HW115974   1.859   4.360   8.478 -1.2577  0.7695  1.9576
 1446SOL    HW215975   1.977   4.346   8.550  1.1560  1.7649  0.7514
 1447SOL     OW15976   2.145   3.557  14.199  0.4277 -0.2148 -0.7419
 1447SOL    HW115977   2.239   3.577  14.200  0.8265 -2.1937  0.2349
 1447SOL    HW215978   2.128   3.528  14.109  2.4659 -1.9697 -0.5511
 1448SOL     OW15979   0.641   1.428   5.766  0.1727  0.9721 -0.1223
 1448SOL    HW115980   0.690   1.458   5.843 -1.2618 -1.4883  1.7361
 1448SOL    HW215981   0.684   1.480   5.698  1.4817 -2.1761 -1.7101
 1449SOL     OW15982   2.245   2.989   2.888  0.4261 -0.3110  0.2300
 1449SOL    HW115983   2.325   2.989   2.942  1.2389 -0.6316 -0.9775
 1449SOL    HW215984   2.195   2.915   2.921 -1.7456  0.8444 -0.5122
 1450SOL     OW15985   2.754   1.598   7.364  0.1530  0.4620  0.0113
 1450SOL    HW115986   2.723   1.598   7.273 -1.7295  0.9114  0.6432
 1450SOL    HW215987   2.729   1.687   7.388  1.2083  1.0209 -0.9580
 1451SOL     OW15988   1.923   3.810   4.992  0.1401  0.7079  0.0329
 1451SOL    HW115989   1.870   3.733   5.010  1.6787 -0.2017  0.6399
 1451SOL    HW215990   1.950   3.800   4.901 -1.0352  0.7661 -0.3213
 1452SOL     OW15991   0.060   0.586   6.202 -0.1446 -0.4421 -0.6513
 1452SOL    HW115992   4.716   0.574   6.156  0.4045  0.3120 -1.8414
 1452SOL    HW215993   0.110   0.509   6.174  1.2008 -0.1609  0.9785
 1453SOL     OW15994   1.839   4.031   1.933 -0.1276  0.1278 -0.0828
 1453SOL    HW115995   1.815   4.003   1.845 -0.7115  1.3040 -0.3111
 1453SOL    HW215996   1.933   4.046   1.923  0.2597 -1.3827  1.4104
 1454SOL     OW15997   3.544   0.945   5.485 -0.4315 -0.7666  1.0774
 1454SOL    HW115998   3.547   0.924   5.578  0.1744 -0.2442  1.1757
 1454SOL    HW215999   3.505   0.868   5.444 -0.9975 -1.2504  2.5190
 1455SOL     OW16000   3.882   2.481  13.047  0.2068  0.5438 -0.0382
 1455SOL    HW116001   3.787   2.481  13.062  0.3244 -0.9909  0.6878
 1455SOL    HW216002   3.909   2.573  13.041  1.6806  0.1079  0.1425
 1456SOL     OW16003   2.271   2.976   0.336 -0.0632  0.1135 -0.2645
 1456SOL    HW116004   2.229   2.891   0.320  0.7814  0.0192 -1.9765
 1456SOL    HW216005   2.362   2.944   0.333  0.1363  0.8109 -2.1040
 1457SOL     OW16006   4.693   1.912  10.341 -0.2427 -0.3945 -0.3057
 1457SOL    HW116007   4.672   1.819  10.349 -1.0548 -0.2540 -0.7936
 1457SOL    HW216008   0.021   1.902  10.274 -0.5474 -1.8842 -0.3861
 1458SOL     OW16009   4.433   4.259   6.222 -0.3106  0.5821 -0.0817
 1458SOL    HW116010   4.363   4.260   6.156  0.9007 -0.1675 -1.3667
 1458SOL    HW216011   4.460   4.168   6.210  1.8173  1.3182 -0.8152
 1459SOL     OW16012   4.149   1.119  12.652  0.2572 -0.3776  0.0715
 1459SOL    HW116013   4.235   1.145  12.621  0.5859 -0.1431  1.1872
 1459SOL    HW216014   4.095   1.122  12.573 -1.3559  1.7678  1.2695
 1460SOL     OW16015   1.165   3.737   2.978 -0.4801  0.0580 -0.4678
 1460SOL    HW116016   1.160   3.642   2.976 -3.1948  0.1687  1.5482
 1460SOL    HW216017   1.074   3.759   2.999  0.0742  1.8328  0.1208
 1461SOL     OW16018   2.569   1.647   6.549 -0.1301 -0.0528  0.0806
 1461SOL    HW116019   2.585   1.552   6.549  0.5053  0.0502  2.5142
 1461SOL    HW216020   2.474   1.662   6.551  0.0637  1.2909 -0.7948
 1462SOL     OW16021   2.798   1.690   8.694  0.4660 -0.3748  0.3311
 1462SOL    HW116022   2.844   1.764   8.655 -1.5937 -0.8279 -3.0225
 1462SOL    HW216023   2.779   1.727   8.780 -0.2416 -3.1542  1.3765
 1463SOL     OW16024   1.958   4.504   8.852 -0.7985 -0.0189 -0.3762
 1463SOL    HW116025   2.044   4.464   8.839  0.0450  1.8965 -0.7539
 1463SOL    HW216026   1.945   4.547   8.768 -3.3438 -0.6315 -0.2795
 1464SOL     OW16027   1.490   2.808   3.896  0.0996  0.4841 -0.2007
 1464SOL    HW116028   1.542   2.733   3.867 -0.8012 -0.0796 -0.3795
 1464SOL    HW216029   1.523   2.827   3.984  0.6817 -2.4767  0.2156
 1465SOL     OW16030   3.255   2.474   4.569  0.3762  0.4181 -0.4427
 1465SOL    HW116031   3.302   2.438   4.494 -0.2146 -0.0077 -0.6112
 1465SOL    HW216032   3.171   2.438   4.541 -0.4510  1.5928  0.5119
 1466SOL     OW16033   4.376   0.118   3.952  0.3357 -0.7376  0.5021
 1466SOL    HW116034   4.403   0.130   4.043 -0.0620 -0.8049  0.6310
 1466SOL    HW216035   4.399   0.203   3.914  1.4164 -0.5466  1.6256
 1467SOL     OW16036   4.017   4.251  12.470  0.1116  0.0404 -0.2112
 1467SOL    HW116037   4.072   4.328  12.452  0.0793  0.2374  0.5368
 1467SOL    HW216038   4.053   4.177  12.422 -2.0003  0.0299 -1.7686
 1468SOL     OW16039   1.801   4.733   6.963 -0.4828 -0.2013 -0.1749
 1468SOL    HW116040   1.809   0.053   6.888  2.5909 -0.3381  0.0580
 1468SOL    HW216041   1.706   4.737   6.976 -0.5375  0.0137 -0.6396
 1469SOL     OW16042   3.155   3.166  11.417  0.1953  0.4679 -0.4291
 1469SOL    HW116043   3.231   3.206  11.373  0.1815  0.2902 -0.6153
 1469SOL    HW216044   3.088   3.234  11.424  1.5821  1.7104  0.8255
 1470SOL     OW16045   2.844   4.528  10.661 -0.1717  0.1034 -0.2739
 1470SOL    HW116046   2.757   4.569  10.669  0.8269  2.1776 -0.0632
 1470SOL    HW216047   2.849   4.501  10.753  3.8962 -0.8308 -0.8046
 1471SOL     OW16048   4.205   0.188   7.160  0.1705 -0.4023 -0.7140
 1471SOL    HW116049   4.152   0.112   7.136  0.3892 -0.1649 -1.9273
 1471SOL    HW216050   4.189   0.191   7.255  1.4540  0.1392 -0.5183
 1472SOL     OW16051   0.790   0.964   7.763  0.7168 -0.2998  0.2775
 1472SOL    HW116052   0.716   1.013   7.799 -0.9250 -1.7779 -1.0893
 1472SOL    HW216053   0.819   1.017   7.689  4.2502  0.0062  1.8747
 1473SOL     OW16054   3.511   0.109   0.303 -0.2663 -0.4807  0.1755
 1473SOL    HW116055   3.584   0.143   0.355 -0.7630  1.2017 -0.2023
 1473SOL    HW216056   3.523   0.018   0.328 -1.0143 -0.7054 -0.2889
 1474SOL     OW16057   0.583   1.553   4.552 -0.3991  0.0938  0.0524
 1474SOL    HW116058   0.526   1.593   4.488 -0.4883  1.3282  0.9024
 1474SOL    HW216059   0.609   1.633   4.597  0.8948 -0.8524  0.9918
 1475SOL     OW16060   1.696   3.614   8.460 -0.0525 -0.4446  0.0043
 1475SOL    HW116061   1.616   3.562   8.465  0.2733 -0.8555  1.1209
 1475SOL    HW216062   1.750   3.592   8.537  1.3129 -0.2125 -0.8837
 1476SOL     OW16063   2.610   3.201   9.778  0.0091 -0.2732 -0.3781
 1476SOL    HW116064   2.530   3.249   9.754  0.2222  0.3332  0.1012
 1476SOL    HW216065   2.603   3.210   9.873  1.6058 -3.4145  0.0185
 1477SOL     OW16066   2.262   4.483   8.064  0.1564  0.6370  0.0766
 1477SOL    HW116067   2.256   4.548   8.134  2.4473  1.0821 -0.1197
 1477SOL    HW216068   2.315   4.412   8.099 -0.6734 -0.1236 -0.2384
 1478SOL     OW16069   0.332   1.623   3.526  0.7063 -0.5066 -0.6268
 1478SOL    HW116070   0.270   1.656   3.462  0.4382 -0.9577 -0.6045
 1478SOL    HW216071   0.280   1.575   3.591  0.7804 -0.1820 -0.3258
 1479SOL     OW16072   1.506   2.604   7.587  0.0473 -0.1269 -0.1212
 1479SOL    HW116073   1.474   2.586   7.499  1.1520  0.3414 -0.6222
 1479SOL    HW216074   1.461   2.686   7.606 -2.0390 -1.2584 -0.2622
 1480SOL     OW16075   0.636   0.505   8.570  0.1774  0.1128  0.1461
 1480SOL    HW116076   0.672   0.417   8.578  0.3587 -0.0185 -1.9293
 1480SOL    HW216077   0.596   0.494   8.484 -0.4534  2.2587  0.1653
 1481SOL     OW16078   1.094   3.927   9.523 -0.4752  0.2709 -0.1707
 1481SOL    HW116079   1.169   3.943   9.580 -1.7600  1.5395  1.1638
 1481SOL    HW216080   1.048   3.848   9.552  0.6922 -0.4897 -0.3954
 1482SOL     OW16081   3.489   2.071  17.395 -0.6812 -0.4918 -0.6299
 1482SOL    HW116082   3.486   1.980  17.422 -0.0916  0.2647  1.9661
 1482SOL    HW216083   3.458   2.123  17.469 -0.1013 -2.3902  0.9195
 1483SOL     OW16084   3.322   0.567   9.594  0.2725  0.4143 -0.6090
 1483SOL    HW116085   3.251   0.585   9.657 -1.4546  1.0811 -2.7561
 1483SOL    HW216086   3.388   0.635   9.604 -0.8868  1.6091 -1.1109
 1484SOL     OW16087   4.162   2.204   7.074 -0.0741 -0.3618  0.2694
 1484SOL    HW116088   4.221   2.187   7.147 -0.0706  0.0853  0.3715
 1484SOL    HW216089   4.106   2.276   7.104 -1.7845 -1.1051 -1.1418
 1485SOL     OW16090   3.403   0.143   4.748  0.3134 -0.0626 -0.0331
 1485SOL    HW116091   3.397   0.174   4.658  2.5160  0.2022 -0.0910
 1485SOL    HW216092   3.310   0.145   4.771 -0.2393  0.1676 -2.2797
 1486SOL     OW16093   2.019   1.729   2.951 -0.5283  0.2328  0.4042
 1486SOL    HW116094   2.063   1.779   3.020  0.1324 -0.0072  0.1625
 1486SOL    HW216095   2.004   1.797   2.886 -2.5767  1.8636  2.5902
 1487SOL     OW16096   1.048   3.490   2.435 -0.1652  0.0630 -0.5996
 1487SOL    HW116097   1.095   3.413   2.403 -0.3667 -0.7453  1.0338
 1487SOL    HW216098   1.116   3.540   2.479  1.3309 -2.5632  0.0546
 1488SOL     OW16099   2.112   2.508   2.427 -0.0427 -0.2999  0.4863
 1488SOL    HW116100   2.017   2.517   2.418  0.0181  0.8367  0.9329
 1488SOL    HW216101   2.147   2.591   2.460 -1.5412  0.8036 -0.7281
 1489SOL     OW16102   1.910   0.584  13.549  0.0802  0.4474  0.5306
 1489SOL    HW116103   2.000   0.551  13.552 -0.2182 -0.3668  0.4122
 1489SOL    HW216104   1.914   0.677  13.528  0.6022  0.2159 -0.4052
 1490SOL     OW16105   2.867   2.019  17.313  0.0500  0.0830 -0.4468
 1490SOL    HW116106   2.890   2.097  17.262 -0.9192  0.0468 -0.9452
 1490SOL    HW216107   2.859   1.959  17.238  2.8931  1.3479 -1.7604
 1491SOL     OW16108   0.869   2.208   7.171  0.5602 -0.3799  0.2439
 1491SOL    HW116109   0.885   2.141   7.105 -2.6865 -0.8997 -0.0060
 1491SOL    HW216110   0.882   2.150   7.247 -0.9500 -0.5311  0.3866
 1492SOL     OW16111   0.533   0.292  10.836  0.1492 -0.0199 -0.0665
 1492SOL    HW116112   0.583   0.351  10.781 -0.2943 -1.1273 -1.6441
 1492SOL    HW216113   0.478   0.360  10.876  1.2602  0.6724  0.2708
 1493SOL     OW16114   2.986   1.884   7.431 -0.6083  0.2281  0.3935
 1493SOL    HW116115   2.991   1.791   7.407  0.9709  0.6560 -1.0115
 1493SOL    HW216116   2.891   1.891   7.420 -0.7449  0.3687  1.7307
 1494SOL     OW16117   0.731   0.954  16.462 -0.3472  0.0554  0.1057
 1494SOL    HW116118   0.652   0.902  16.449 -0.2143 -0.3771  1.0700
 1494SOL    HW216119   0.728   1.003  16.379 -0.4904 -1.3594 -0.7203
 1495SOL     OW16120   3.172   3.511  17.123 -0.5922  0.0330  0.0343
 1495SOL    HW116121   3.132   3.555  17.047 -1.2988  1.6363  1.3427
 1495SOL    HW216122   3.257   3.490  17.083 -1.9444 -1.5533 -1.9988
 1496SOL     OW16123   4.097   4.650   5.010 -0.4113 -0.4756  0.3901
 1496SOL    HW116124   4.010   4.670   5.044 -1.4414 -0.7939 -2.0610
 1496SOL    HW216125   4.143   4.730   5.035 -4.0526  1.3583  1.1283
 1497SOL     OW16126   4.298   3.040   4.205  0.1154 -0.0079  0.3282
 1497SOL    HW116127   4.302   3.033   4.301 -2.1145  0.7534  0.4596
 1497SOL    HW216128   4.249   2.959   4.193 -0.1231  0.3624 -1.1889
 1498SOL     OW16129   0.562   1.838  16.356  0.0231 -0.4450 -0.1794
 1498SOL    HW116130   0.497   1.866  16.292 -0.0682  0.0174  0.1175
 1498SOL    HW216131   0.599   1.924  16.375  0.7403 -1.4595  2.8976
 1499SOL     OW16132   4.691   2.446   5.725  0.5216  0.2317  0.2904
 1499SOL    HW116133   4.635   2.524   5.725 -0.1190 -0.2225 -1.1819
 1499SOL    HW216134   4.636   2.372   5.699  1.0434 -0.2267  0.4989
 1500SOL     OW16135   4.362   1.259   6.276  0.1399  0.6337  0.1915
 1500SOL    HW116136   4.370   1.173   6.235  1.4757  0.6288  0.4423
 1500SOL    HW216137   4.271   1.267   6.304 -0.3202 -0.2970 -1.0642
 1501SOL     OW16138   0.909   0.873   1.175  0.4908 -0.0331  0.0426
 1501SOL    HW116139   0.997   0.904   1.194  0.3325  0.2405  0.3290
 1501SOL    HW216140   0.878   0.936   1.109  0.6971 -0.3793 -0.3868
 1502SOL     OW16141   4.504   2.101   0.732 -0.1642  0.4968  0.5153
 1502SOL    HW116142   4.486   2.187   0.694  1.3604 -0.1075 -1.6073
 1502SOL    HW216143   4.589   2.091   0.689 -1.9626  3.7560 -3.7837
 1503SOL     OW16144   0.257   1.483  17.331 -0.0799 -0.1797  0.6605
 1503SOL    HW116145   0.338   1.506  17.285 -0.7821  0.1439 -0.4157
 1503SOL    HW216146   0.293   1.435  17.405 -2.3127 -0.2134  1.7115
 1504SOL     OW16147   3.966   2.830   4.993  0.2439 -0.6352  0.2757
 1504SOL    HW116148   4.018   2.829   5.074 -1.9200  1.8222  1.6803
 1504SOL    HW216149   4.022   2.883   4.936  0.1908 -0.4402  0.4045
 1505SOL     OW16150   2.181   1.190  14.524  0.0073  0.8181  0.1250
 1505SOL    HW116151   2.175   1.250  14.450 -1.7927 -0.4809 -0.7977
 1505SOL    HW216152   2.233   1.233  14.591  1.5734  2.9785 -2.4729
 1506SOL     OW16153   3.980   3.474   1.832  0.5221 -0.7471  0.5877
 1506SOL    HW116154   3.972   3.386   1.796  0.0721  0.0507 -1.2584
 1506SOL    HW216155   3.897   3.512   1.803  0.8515 -0.0708  0.5202
 1507SOL     OW16156   2.575   1.149   4.287  0.3759 -0.2346 -0.3344
 1507SOL    HW116157   2.631   1.207   4.339 -0.3776  0.0349  0.1740
 1507SOL    HW216158   2.497   1.199   4.262  0.2215 -0.4240 -0.2300
 1508SOL     OW16159   2.197   4.303   7.343  0.0963  0.9725 -0.5580
 1508SOL    HW116160   2.132   4.276   7.279  1.4154  0.0105 -1.5069
 1508SOL    HW216161   2.164   4.252   7.417  1.5416 -2.7115 -2.4499
 1509SOL     OW16162   4.691   0.405   5.619 -0.7873  0.1578 -0.4442
 1509SOL    HW116163   4.685   0.441   5.531  1.5983 -0.3290 -0.8187
 1509SOL    HW216164   0.006   0.480   5.645 -1.7076  0.6806 -0.0061
 1510SOL     OW16165   3.605   2.183   5.929  0.1445 -0.1754 -0.0812
 1510SOL    HW116166   3.520   2.178   5.885  0.2575 -1.6081 -0.1341
 1510SOL    HW216167   3.590   2.272   5.963  0.7720 -0.3490  0.6487
 1511SOL     OW16168   2.222   3.136   4.115 -0.0584 -0.0891 -0.6737
 1511SOL    HW116169   2.285   3.206   4.099 -1.3418  0.6096 -2.6351
 1511SOL    HW216170   2.278   3.069   4.153 -0.5971  0.3184  0.8131
 1512SOL     OW16171   4.391   3.351   1.721 -0.2724 -0.0763  0.1933
 1512SOL    HW116172   4.450   3.426   1.732 -0.4475 -0.1139  1.3399
 1512SOL    HW216173   4.395   3.298   1.801 -0.1834 -1.3458 -0.6392
 1513SOL     OW16174   1.362   4.339  12.922  0.1408 -0.1043 -0.5167
 1513SOL    HW116175   1.385   4.283  12.847  1.2938 -0.4238  0.0650
 1513SOL    HW216176   1.378   4.427  12.889 -1.8937  0.3374 -0.2621
 1514SOL     OW16177   0.639   3.225  16.021 -0.1048  0.1810  0.1005
 1514SOL    HW116178   0.733   3.213  16.033  0.2043  0.5410 -2.0020
 1514SOL    HW216179   0.626   3.257  15.932 -2.6972  1.0988  0.8238
 1515SOL     OW16180   4.735   2.336  11.910 -0.4388 -0.2392  0.0796
 1515SOL    HW116181   4.660   2.278  11.926 -0.9869  0.3527 -0.3504
 1515SOL    HW216182   4.690   2.419  11.927  1.8615  1.1112 -0.4303
 1516SOL     OW16183   3.388   0.366   5.737  0.4947  0.2951 -0.3610
 1516SOL    HW116184   3.378   0.322   5.822 -0.4442 -1.8353 -1.5702
 1516SOL    HW216185   3.372   0.457   5.762  0.3196 -0.1223  1.0814
 1517SOL     OW16186   3.359   1.458   9.635 -0.3242 -0.0899 -0.0886
 1517SOL    HW116187   3.275   1.493   9.605 -0.8756 -2.2796 -1.0928
 1517SOL    HW216188   3.408   1.443   9.553 -0.2606 -0.3134 -0.0088
 1518SOL     OW16189   3.536   0.019   4.939 -0.3745 -0.5079 -0.1793
 1518SOL    HW116190   3.583   4.688   4.892 -2.6189 -0.7508 -2.0860
 1518SOL    HW216191   3.490   0.057   4.864 -0.9180  1.9917  1.4232
 1519SOL     OW16192   4.612   3.886   9.323 -0.4429  0.4244 -0.0532
 1519SOL    HW116193   4.572   3.973   9.313  0.1156  1.0414  2.9760
 1519SOL    HW216194   4.623   3.871   9.417 -0.1944  0.8957 -0.0060
 1520SOL     OW16195   1.701   3.696  12.645  0.0640  0.0575 -0.3434
 1520SOL    HW116196   1.725   3.698  12.553 -0.0639 -1.3304 -0.4124
 1520SOL    HW216197   1.679   3.786  12.668 -1.8514 -0.4542 -0.1448
 1521SOL     OW16198   4.613   4.007   5.080 -0.0767  0.7763 -0.3394
 1521SOL    HW116199   4.681   4.066   5.113  1.7172 -1.3363 -0.2163
 1521SOL    HW216200   4.664   3.950   5.023 -0.6302 -0.6829  0.6283
 1522SOL     OW16201   2.741   2.727   6.329 -0.2716  0.0287  0.1614
 1522SOL    HW116202   2.763   2.817   6.354  2.3736 -0.3998 -0.6092
 1522SOL    HW216203   2.664   2.738   6.273  1.0757  0.1410 -1.6800
 1523SOL     OW16204   4.440   2.178   1.385  0.4679  0.3965 -0.3125
 1523SOL    HW116205   4.388   2.097   1.384  1.0987 -0.0341  1.6114
 1523SOL    HW216206   4.371   2.235   1.352 -0.3021  0.1564  0.8737
 1524SOL     OW16207   1.002   1.931  10.841  0.2550  0.0403  0.9031
 1524SOL    HW116208   0.962   2.010  10.879  0.7259  1.1223 -0.8647
 1524SOL    HW216209   0.925   1.880  10.816  0.3694 -0.3442  1.3396
 1525SOL     OW16210   1.739   1.246  16.294 -0.1249 -0.2737  0.1188
 1525SOL    HW116211   1.729   1.270  16.202 -0.0032 -0.5195  0.0405
 1525SOL    HW216212   1.829   1.273  16.313 -0.7281  1.8190 -0.0099
 1526SOL     OW16213   0.082   0.496  15.191 -0.6209  0.6915 -0.4937
 1526SOL    HW116214   0.112   0.504  15.100  0.9986 -3.2341 -0.3156
 1526SOL    HW216215   0.044   0.584  15.195  1.3668  1.6011 -1.9034
 1527SOL     OW16216   4.138   3.793   2.714  0.1218 -0.2796  0.1181
 1527SOL    HW116217   4.081   3.869   2.703  0.8271  0.2113 -0.1517
 1527SOL    HW216218   4.111   3.737   2.641  1.6817 -1.0051  0.0819
 1528SOL     OW16219   3.040   4.259  15.572 -0.0700  0.0914  0.3310
 1528SOL    HW116220   3.133   4.283  15.565  0.0787 -0.6784 -0.3721
 1528SOL    HW216221   3.024   4.257  15.666  1.4359  0.6465  0.6053
 1529SOL     OW16222   3.695   3.569   8.942 -0.0522  0.2321  0.0113
 1529SOL    HW116223   3.763   3.537   8.883 -2.2317  0.9156 -2.8279
 1529SOL    HW216224   3.720   3.661   8.958 -1.9515  0.7980 -0.3493
 1530SOL     OW16225   2.849   0.710  11.017  0.1848 -0.3036  0.2034
 1530SOL    HW116226   2.911   0.677  10.953 -1.1863  0.9346 -1.7863
 1530SOL    HW216227   2.907   0.758  11.076  0.3093 -1.0105  0.6444
 1531SOL     OW16228   1.622   0.436  11.007 -0.4796 -0.3758  0.1392
 1531SOL    HW116229   1.690   0.433  10.939 -0.6879 -0.1409 -0.0764
 1531SOL    HW216230   1.669   0.390  11.077  1.3074  4.3734  2.0665
 1532SOL     OW16231   3.239   1.861   5.124 -0.4531 -0.0562  0.5504
 1532SOL    HW116232   3.295   1.800   5.172 -0.0506 -0.3280 -0.2718
 1532SOL    HW216233   3.201   1.802   5.060 -1.9522 -0.3368  1.7127
 1533SOL     OW16234   1.888   2.695   6.402  0.7887 -0.4210 -0.0312
 1533SOL    HW116235   1.938   2.670   6.324  1.1183 -1.5665  0.5376
 1533SOL    HW216236   1.817   2.739   6.356  0.6990  1.3228  1.7859
 1534SOL     OW16237   3.487   1.621   3.847  0.4412 -0.3803  0.1896
 1534SOL    HW116238   3.462   1.546   3.901 -1.0654  0.9303  1.3150
 1534SOL    HW216239   3.542   1.668   3.910  1.8931 -1.1623 -0.4984
 1535SOL     OW16240   0.949   2.224   1.831 -0.1527 -0.2418 -1.4144
 1535SOL    HW116241   0.954   2.317   1.809  0.3935  0.1794  0.4679
 1535SOL    HW216242   0.862   2.220   1.870  1.1577 -1.8084  1.3583
 1536SOL     OW16243   3.854   3.448   6.311  0.1953  0.0361  0.6636
 1536SOL    HW116244   3.905   3.391   6.254  0.1346  2.3920 -1.7180
 1536SOL    HW216245   3.925   3.481   6.366  0.4996  1.2729 -0.4732
 1537SOL     OW16246   3.046   1.667   9.099  0.3445  0.1210 -0.5014
 1537SOL    HW116247   2.976   1.602   9.097 -1.1035  1.7227 -1.5176
 1537SOL    HW216248   3.117   1.613   9.135  0.3118 -0.3372 -1.1288
 1538SOL     OW16249   1.700   0.747   3.402  0.0775  0.4080 -0.6508
 1538SOL    HW116250   1.690   0.781   3.313 -1.4534 -0.4558 -0.8061
 1538SOL    HW216251   1.788   0.783   3.413 -0.3058  1.2446 -0.3158
 1539SOL     OW16252   4.276   4.721   3.582 -0.3256 -0.2468  0.8935
 1539SOL    HW116253   4.192   4.715   3.627 -1.0460 -0.8025 -0.5168
 1539SOL    HW216254   4.269   0.070   3.545  0.7106 -0.1218  0.9878
 1540SOL     OW16255   2.676   1.946   3.830 -0.0718 -0.2636  0.9334
 1540SOL    HW116256   2.729   1.903   3.898  1.6992  0.0244 -0.2782
 1540SOL    HW216257   2.738   1.993   3.775 -1.5084  1.1188  0.5134
 1541SOL     OW16258   3.835   0.376   3.112 -0.2926 -0.1182 -0.1244
 1541SOL    HW116259   3.859   0.468   3.105  0.4409  0.0627  5.0328
 1541SOL    HW216260   3.740   0.387   3.120 -0.3761  2.0335 -3.9128
 1542SOL     OW16261   0.955   0.508  10.260  0.4653 -0.7756  0.4182
 1542SOL    HW116262   0.971   0.463  10.177  3.9102  1.4107 -0.1087
 1542SOL    HW216263   0.993   0.595  10.246 -0.0470 -0.3251  1.8259
 1543SOL     OW16264   1.467   1.838   0.109  0.0885 -0.6010  0.2340
 1543SOL    HW116265   1.428   1.767   0.058 -0.2890 -0.7033  0.6638
 1543SOL    HW216266   1.551   1.798   0.132  1.8022  1.7165 -2.0750
 1544SOL     OW16267   1.898   1.904  17.367 -0.8132  0.1880 -0.6976
 1544SOL    HW116268   1.934   1.926  17.281  0.3355 -1.2158 -0.5835
 1544SOL    HW216269   1.813   1.946  17.353 -0.2944  1.2782 -0.5665
 1545SOL     OW16270   3.735   4.036   8.811 -0.3892  0.2305  0.0735
 1545SOL    HW116271   3.662   4.097   8.799  1.0509  2.2636  1.7348
 1545SOL    HW216272   3.795   4.078   8.872  1.6120 -0.0018 -1.7172
 1546SOL     OW16273   1.271   2.071   2.414  0.4238  0.2021  0.1434
 1546SOL    HW116274   1.324   2.020   2.353  0.5081 -0.8475  1.1127
 1546SOL    HW216275   1.279   2.011   2.488  2.6458 -1.3201 -1.3401
 1547SOL     OW16276   3.114   4.493   2.308 -0.7073  0.4575 -0.1308
 1547SOL    HW116277   3.094   4.510   2.400 -1.5637  1.1597 -0.4393
 1547SOL    HW216278   3.137   4.584   2.290 -1.3987  0.6078 -0.2877
 1548SOL     OW16279   2.992   2.713   3.807  0.2464  0.0762 -0.0428
 1548SOL    HW116280   2.967   2.630   3.766 -0.5486  0.5669 -0.5545
 1548SOL    HW216281   2.979   2.688   3.898 -1.3707  2.5945  0.4089
 1549SOL     OW16282   4.719   0.846   3.590  0.9156 -0.0483  0.3732
 1549SOL    HW116283   4.693   0.756   3.569  0.5286 -0.2863  1.8523
 1549SOL    HW216284   4.689   0.870   3.677 -0.6922 -2.0032  0.3703
 1550SOL     OW16285   1.934   2.546   8.129  0.2368  0.0505 -0.1152
 1550SOL    HW116286   1.843   2.535   8.100  0.6864 -1.4542 -1.0081
 1550SOL    HW216287   1.921   2.602   8.205  1.2724 -0.5976  0.5501
 1551SOL     OW16288   0.946   0.523   2.017 -0.0892  0.2461 -0.6956
 1551SOL    HW116289   0.855   0.553   2.029  0.1995  1.1399 -0.7083
 1551SOL    HW216290   0.996   0.603   1.997  1.0925 -0.5069 -0.7245
 1552SOL     OW16291   0.841   1.012  17.273  0.6529 -0.0542 -0.4013
 1552SOL    HW116292   0.793   0.929  17.278 -0.0775  0.4157  0.2668
 1552SOL    HW216293   0.781   1.061  17.217  0.7466 -0.1515 -0.5904
 1553SOL     OW16294   2.458   1.623   2.676 -0.5540  0.2777 -0.2645
 1553SOL    HW116295   2.379   1.664   2.640 -0.0033  0.2410 -1.5126
 1553SOL    HW216296   2.422   1.564   2.742  1.8465  1.9460  2.5399
 1554SOL     OW16297   1.638   0.411   3.122  0.3459 -0.3671 -0.1304
 1554SOL    HW116298   1.692   0.478   3.081 -1.0838  0.0135 -1.3904
 1554SOL    HW216299   1.686   0.336   3.085  2.1347  1.0940 -0.7671
 1555SOL     OW16300   1.860   0.924   9.702  0.4449 -0.2311  0.0090
 1555SOL    HW116301   1.796   0.982   9.744  1.4170  1.5330 -0.9330
 1555SOL    HW216302   1.905   0.888   9.778 -0.6494 -2.1040 -0.2379
 1556SOL     OW16303   4.192   3.774   1.256 -0.7467  0.3420  0.7874
 1556SOL    HW116304   4.148   3.693   1.231  1.3009  0.0722 -1.9661
 1556SOL    HW216305   4.152   3.846   1.207  1.0735  0.4613 -0.5249
 1557SOL     OW16306   1.642   1.824  15.191  0.7458 -0.6020  0.3524
 1557SOL    HW116307   1.675   1.747  15.145 -1.8168 -2.1791  1.1833
 1557SOL    HW216308   1.567   1.841  15.133  1.0456 -1.9836 -0.4449
 1558SOL     OW16309   0.174   0.950  14.172 -0.2105  0.3062  0.0755
 1558SOL    HW116310   0.257   0.928  14.214  1.0825  0.2203 -2.5179
 1558SOL    HW216311   0.186   0.908  14.086 -3.1618 -0.2538 -0.0563
 1559SOL     OW16312   3.370   4.255   5.716 -0.2376  0.2371  0.3471
 1559SOL    HW116313   3.301   4.321   5.701 -0.7475 -1.4923 -4.8176
 1559SOL    HW216314   3.391   4.235   5.625  2.0834 -0.8201  1.1227
 1560SOL     OW16315   3.376   2.171   0.360 -0.0693  1.0061  0.5205
 1560SOL    HW116316   3.436   2.239   0.391 -2.0504  2.7779  0.4988
 1560SOL    HW216317   3.405   2.090   0.402  0.1916  1.1196  0.5582
 1561SOL     OW16318   4.204   2.329   3.679  0.4250 -0.1948 -0.2567
 1561SOL    HW116319   4.286   2.283   3.694 -0.8312 -2.3615  0.0078
 1561SOL    HW216320   4.140   2.271   3.720  0.5735  1.3024  2.0949
 1562SOL     OW16321   4.267   4.268   8.752 -0.3702 -0.1571  0.4254
 1562SOL    HW116322   4.271   4.316   8.835  1.0640  0.4925 -0.0251
 1562SOL    HW216323   4.330   4.196   8.761 -0.3138 -0.2852 -0.9435
 1563SOL     OW16324   2.721   2.610   2.185  0.3535  0.1751  0.0164
 1563SOL    HW116325   2.698   2.703   2.194 -0.2618 -0.0230  0.4947
 1563SOL    HW216326   2.776   2.615   2.107 -2.0251 -1.8520 -1.7977
 1564SOL     OW16327   3.596   4.171   4.190  0.4560  0.1219  0.2801
 1564SOL    HW116328   3.674   4.218   4.217  0.3429  0.8998 -0.7494
 1564SOL    HW216329   3.582   4.100   4.254  0.7851  0.8360  1.1379
 1565SOL     OW16330   3.557   0.560   8.695  0.2275 -0.4804  0.1696
 1565SOL    HW116331   3.551   0.468   8.722 -1.6908 -0.2302  0.5709
 1565SOL    HW216332   3.597   0.561   8.608 -1.0719  0.6750 -0.4020
 1566SOL     OW16333   2.625   4.421  13.031 -0.1471  0.4606 -0.1096
 1566SOL    HW116334   2.681   4.499  13.033  0.5299 -0.0474  0.6579
 1566SOL    HW216335   2.541   4.452  12.997  0.2812  0.4124 -1.2204
 1567SOL     OW16336   3.766   2.626   8.519  0.1161 -0.7646 -0.1826
 1567SOL    HW116337   3.774   2.704   8.575 -0.3639 -1.6501  1.1250
 1567SOL    HW216338   3.815   2.656   8.443 -0.9736 -0.4333 -0.7525
 1568SOL     OW16339   3.370   0.715   4.963 -0.3449  0.0312 -0.0084
 1568SOL    HW116340   3.304   0.645   4.961 -1.3726  1.1085 -3.0431
 1568SOL    HW216341   3.334   0.772   4.895  2.8699 -0.5107 -2.1615
 1569SOL     OW16342   2.916   4.541   9.532  0.0993 -0.1985  0.5761
 1569SOL    HW116343   2.879   4.580   9.452  1.0996  0.1247  0.2665
 1569SOL    HW216344   2.974   4.610   9.564 -0.2642  1.0335 -1.4223
 1570SOL     OW16345   3.566   1.237   2.107 -0.2150  0.0090 -0.4300
 1570SOL    HW116346   3.605   1.319   2.138 -0.4559  0.1739 -0.5666
 1570SOL    HW216347   3.641   1.180   2.127 -1.9597 -1.5635  1.6526
 1571SOL     OW16348   4.249   1.468   2.317 -0.0180 -0.4298 -0.5529
 1571SOL    HW116349   4.306   1.439   2.246 -0.8681 -2.0825 -0.5516
 1571SOL    HW216350   4.289   1.418   2.388  1.1529 -1.0715 -1.6699
 1572SOL     OW16351   3.003   1.499   3.970 -0.0954  0.5507  0.0737
 1572SOL    HW116352   3.031   1.590   3.960  1.8319 -0.3317 -2.5047
 1572SOL    HW216353   2.997   1.471   3.878 -2.3548 -0.7839  0.6260
 1573SOL     OW16354   2.025   2.268   0.106  0.0178  0.0995 -0.5236
 1573SOL    HW116355   1.973   2.286   0.027 -1.2202  0.3674  0.3519
 1573SOL    HW216356   1.970   2.195   0.133  1.4324 -0.9932 -0.6241
 1574SOL     OW16357   2.022   3.316   5.171  0.0807  0.4586  0.4084
 1574SOL    HW116358   1.989   3.369   5.243 -0.5258 -0.2455  0.6525
 1574SOL    HW216359   1.943   3.272   5.139  1.4968 -0.5702 -1.6553
 1575SOL     OW16360   0.372   0.759   6.013  0.2064  0.2371  0.6813
 1575SOL    HW116361   0.361   0.664   6.022 -0.4351  0.1532 -0.9108
 1575SOL    HW216362   0.443   0.766   5.949 -0.0792 -0.9257  0.2306
 1576SOL     OW16363   0.733   0.975   6.642  0.0536  0.3727 -0.1263
 1576SOL    HW116364   0.658   1.016   6.601  0.6784  3.6069  2.0059
 1576SOL    HW216365   0.796   0.983   6.569  0.4001 -0.6069  0.0589
 1577SOL     OW16366   3.470   0.095   8.279 -0.0350  0.2911 -0.1499
 1577SOL    HW116367   3.447   0.003   8.293 -0.7796  0.6035  0.6862
 1577SOL    HW216368   3.475   0.101   8.184 -0.8481  0.3933 -0.1847
 1578SOL     OW16369   0.947   2.991  12.379 -0.3115 -0.1089  0.3186
 1578SOL    HW116370   1.009   2.933  12.422  0.4136  0.1117 -0.4355
 1578SOL    HW216371   0.916   3.051  12.448 -0.5547  0.2899 -0.1347
 1579SOL     OW16372   0.912   4.376   3.167  0.2728  0.0895 -0.2673
 1579SOL    HW116373   0.925   4.302   3.227  1.3869  0.0362 -0.5749
 1579SOL    HW216374   0.834   4.347   3.120 -0.3169  3.1344 -1.1162
 1580SOL     OW16375   1.118   0.515   5.206 -0.6202 -0.4918 -0.1380
 1580SOL    HW116376   1.077   0.429   5.211  1.7433 -1.7297 -1.7370
 1580SOL    HW216377   1.213   0.500   5.214 -0.4876  1.3354  1.8357
 1581SOL     OW16378   0.864   2.487  17.644  0.8527 -0.1866 -0.4329
 1581SOL    HW116379   0.803   2.535  17.588  2.9163  2.9859  0.0366
 1581SOL    HW216380   0.893   2.561  17.697 -0.4219  0.5453 -0.7606
 1582SOL     OW16381   0.502   3.824   4.336  0.4266  0.3123 -0.4319
 1582SOL    HW116382   0.575   3.768   4.364 -0.8554 -1.4175 -0.5802
 1582SOL    HW216383   0.499   3.900   4.394 -0.4353  0.7431 -1.0538
 1583SOL     OW16384   2.154   3.966   9.224  0.4642  0.4015 -0.2033
 1583SOL    HW116385   2.135   4.042   9.278 -1.0453 -3.1592  4.3055
 1583SOL    HW216386   2.224   3.929   9.278 -1.4630 -3.3590 -0.2799
 1584SOL     OW16387   0.983   2.981  12.769 -0.6472  0.1037  0.0673
 1584SOL    HW116388   1.059   2.925  12.787 -1.4063 -0.8325  0.3902
 1584SOL    HW216389   0.909   2.919  12.772  0.2095 -0.9930 -1.9157
 1585SOL     OW16390   3.711   4.263   7.856  0.2031  0.4645 -1.1792
 1585SOL    HW116391   3.656   4.202   7.806  0.7558 -1.5768  0.7144
 1585SOL    HW216392   3.792   4.249   7.807  1.7158 -0.9125  1.7343
 1586SOL     OW16393   4.267   1.863  15.774 -0.0289 -0.0502  0.3602
 1586SOL    HW116394   4.197   1.798  15.778 -0.8719  0.6542 -2.4758
 1586SOL    HW216395   4.300   1.867  15.684 -0.3514  1.4666  0.3065
 1587SOL     OW16396   1.515   1.494   1.993  0.2047  0.8397  0.4439
 1587SOL    HW116397   1.598   1.458   1.963 -0.6911 -0.7775 -0.1156
 1587SOL    HW216398   1.456   1.419   1.991 -0.3361  1.2359  1.6017
 1588SOL     OW16399   2.067   3.517  13.934  0.5036 -0.3664  0.0311
 1588SOL    HW116400   2.033   3.486  13.850 -0.6958  2.4433 -0.5299
 1588SOL    HW216401   1.987   3.559  13.966  1.9533  1.3831  1.3890
 1589SOL     OW16402   2.208   4.249  14.553 -0.5032 -0.3115  0.2514
 1589SOL    HW116403   2.265   4.325  14.569  2.8278 -2.3506 -1.7947
 1589SOL    HW216404   2.234   4.243  14.461  0.5525 -0.6065  0.5615
 1590SOL     OW16405   1.233   2.295   3.529  0.0822  0.2489  0.2182
 1590SOL    HW116406   1.187   2.232   3.583  1.8037 -0.9767  0.2565
 1590SOL    HW216407   1.265   2.235   3.461  1.3127  0.0219  1.0181
 1591SOL     OW16408   3.715   1.383   7.466 -0.3340 -0.2960  0.5203
 1591SOL    HW116409   3.654   1.339   7.407 -0.8709 -1.0294  1.6274
 1591SOL    HW216410   3.650   1.423   7.524 -0.3465 -1.8514  1.5612
 1592SOL     OW16411   2.231   4.212  11.029 -0.2963 -0.1665  0.2497
 1592SOL    HW116412   2.224   4.227  11.123  2.1711  3.5581 -0.1381
 1592SOL    HW216413   2.163   4.147  11.011 -0.4936  0.1266 -0.0758
 1593SOL     OW16414   1.740   0.305  11.223  0.6005 -0.7164  0.4518
 1593SOL    HW116415   1.789   0.223  11.220  0.9320 -0.5331  0.8171
 1593SOL    HW216416   1.785   0.356  11.291  0.4879  1.6798 -1.2542
 1594SOL     OW16417   4.512   2.389   6.390 -0.2603 -0.0827  0.0189
 1594SOL    HW116418   4.579   2.433   6.442  0.2725 -1.4297  0.4641
 1594SOL    HW216419   4.445   2.374   6.456 -0.1354 -0.4997  0.0554
 1595SOL     OW16420   1.402   3.281  15.818 -0.2244  0.2383 -0.1952
 1595SOL    HW116421   1.388   3.292  15.912 -0.1365 -0.3798 -0.1106
 1595SOL    HW216422   1.497   3.292  15.819 -0.2305  0.3021 -0.4095
 1596SOL     OW16423   2.396   0.357  14.961  0.3163  0.4636 -0.2078
 1596SOL    HW116424   2.416   0.322  14.875  1.1101  0.0982  0.1342
 1596SOL    HW216425   2.479   0.341  15.006  0.1074 -1.4358 -0.5231
 1597SOL     OW16426   2.250   0.479   5.387 -0.1973  0.3086 -0.3692
 1597SOL    HW116427   2.344   0.464   5.382 -0.4729 -1.0426 -1.4316
 1597SOL    HW216428   2.240   0.440   5.474 -1.8629 -0.8933 -1.1019
 1598SOL     OW16429   0.576   3.451  16.288 -0.6072  0.1151  0.0773
 1598SOL    HW116430   0.522   3.381  16.250 -0.2759  0.5699 -1.2150
 1598SOL    HW216431   0.663   3.418  16.264 -0.6524  0.6910 -0.8886
 1599SOL     OW16432   1.735   1.760   1.636  0.3237  0.0343 -0.1316
 1599SOL    HW116433   1.699   1.680   1.674 -0.2664 -0.1591 -1.1041
 1599SOL    HW216434   1.770   1.820   1.703  1.9229  0.0387 -0.9675
 1600SOL     OW16435   2.920   1.942   8.631  0.1352 -0.3588 -0.5721
 1600SOL    HW116436   2.920   2.000   8.707  1.4077 -3.5775  1.8487
 1600SOL    HW216437   2.934   2.006   8.561  0.9644 -0.9450 -0.9395
 1601SOL     OW16438   2.651   2.720   9.377 -0.1322 -0.6101 -0.1877
 1601SOL    HW116439   2.717   2.750   9.439 -1.2904  1.1938  0.1578
 1601SOL    HW216440   2.617   2.803   9.344  3.0709  0.6406 -0.4367
 1602SOL     OW16441   4.105   2.767   4.063  0.2047 -0.0315 -0.6156
 1602SOL    HW116442   4.140   2.686   4.025  0.2047 -0.0474 -0.5814
 1602SOL    HW216443   4.091   2.817   3.982  1.3003  1.2492 -0.0079
 1603SOL     OW16444   2.335   1.487   7.741  0.4863  0.0312 -0.3511
 1603SOL    HW116445   2.291   1.402   7.743  0.3083  0.1554  1.0712
 1603SOL    HW216446   2.261   1.546   7.755  0.1694 -0.7540  1.3830
 1604SOL     OW16447   4.192   4.533  13.641  0.4206 -0.3650 -0.6230
 1604SOL    HW116448   4.252   4.591  13.688 -1.7268  1.8142 -0.5756
 1604SOL    HW216449   4.177   4.582  13.560 -4.2058 -1.9085 -0.6702
 1605SOL     OW16450   4.702   1.411   3.024  0.2755 -0.6533  0.5369
 1605SOL    HW116451   0.005   1.326   3.028 -1.0348 -1.4443 -2.4035
 1605SOL    HW216452   0.038   1.459   2.991  1.0809 -1.2488  1.5109
 1606SOL     OW16453   4.367   4.097   2.971  0.0387  0.3823 -0.3670
 1606SOL    HW116454   4.389   4.189   2.983 -1.6179  0.8443 -0.8999
 1606SOL    HW216455   4.271   4.100   2.973 -0.0157 -1.9420  0.3445
 1607SOL     OW16456   0.551   4.063  15.663  0.4478  0.2086  0.4071
 1607SOL    HW116457   0.607   3.994  15.697  2.3314  1.2578 -0.6034
 1607SOL    HW216458   0.574   4.123  15.734 -2.0996 -0.3962  1.7518
 1608SOL     OW16459   4.671   2.090   5.231 -0.2935  0.9367 -0.5323
 1608SOL    HW116460   4.678   2.115   5.323 -0.0849  0.5018 -0.4279
 1608SOL    HW216461   0.011   2.124   5.189 -0.3260  2.9742  1.0957
 1609SOL     OW16462   0.886   0.851   5.746  0.3666  0.6898  0.2991
 1609SOL    HW116463   0.960   0.912   5.748  0.8336  0.1960 -2.4279
 1609SOL    HW216464   0.933   0.774   5.715  0.0785  1.4337 -1.9741
 1610SOL     OW16465   1.237   0.003   7.915 -0.5745 -0.6599 -0.2345
 1610SOL    HW116466   1.189   4.698   7.985 -0.0741 -0.3993  0.2694
 1610SOL    HW216467   1.264   0.090   7.944 -0.3154 -0.5152 -0.8924
 1611SOL     OW16468   4.509   0.963  16.204 -0.0128 -0.3571  0.2058
 1611SOL    HW116469   4.596   0.977  16.166 -0.7589 -0.3999 -1.5355
 1611SOL    HW216470   4.472   0.916  16.129  2.3846 -0.7933 -0.7168
 1612SOL     OW16471   1.020   3.272   6.046  0.2907 -0.3673  0.8559
 1612SOL    HW116472   1.065   3.233   5.972  0.6136 -0.6223  1.1870
 1612SOL    HW216473   0.930   3.261   6.015 -0.0964  0.2557  1.7482
 1613SOL     OW16474   0.239   2.367   6.206 -0.5280 -0.6005  0.3673
 1613SOL    HW116475   0.246   2.290   6.150  0.2271  0.9386 -1.6359
 1613SOL    HW216476   0.177   2.420   6.156  1.2510  0.5256 -0.6434
 1614SOL     OW16477   1.380   4.365   5.807 -0.7075  0.6065  0.7043
 1614SOL    HW116478   1.449   4.320   5.758 -1.5051  1.2197 -0.9886
 1614SOL    HW216479   1.386   4.330   5.896  0.4441  1.6333  1.0459
 1615SOL     OW16480   2.351   3.168   8.929  0.0054  0.0877  0.1492
 1615SOL    HW116481   2.415   3.201   8.991 -1.1136  1.6405  0.4769
 1615SOL    HW216482   2.283   3.234   8.940  0.4187  0.6390 -0.5431
 1616SOL     OW16483   0.322   1.172   8.609  0.3160  0.4136  0.6860
 1616SOL    HW116484   0.304   1.102   8.546  1.2142  0.3929  0.4471
 1616SOL    HW216485   0.352   1.118   8.682  2.9860  0.6706 -0.2053
 1617SOL     OW16486   2.449   2.811   7.248  0.0169 -0.3811 -0.3004
 1617SOL    HW116487   2.398   2.841   7.174  0.0024  1.8658  0.6197
 1617SOL    HW216488   2.534   2.847   7.223 -0.6054 -0.2219 -2.1486
 1618SOL     OW16489   1.815   0.724  14.938 -0.8901  0.5807 -0.3501
 1618SOL    HW116490   1.750   0.705  14.871  1.1516 -1.5216 -1.7469
 1618SOL    HW216491   1.773   0.803  14.971 -1.8548 -0.3683  0.7015
 1619SOL     OW16492   4.708   0.162  12.327  0.2511 -0.0960  0.2326
 1619SOL    HW116493   4.711   0.091  12.262  1.3207 -1.2399  1.5394
 1619SOL    HW216494   0.005   0.129  12.409  4.5645  0.8193 -1.2956
 1620SOL     OW16495   0.314   0.115   6.410  0.2124  0.3360  0.1291
 1620SOL    HW116496   0.373   0.165   6.466 -0.6605  0.8919  0.5513
 1620SOL    HW216497   0.240   0.175   6.399  0.0240  0.3778  1.5914
 1621SOL     OW16498   2.044   1.736   6.943  0.1957 -0.1544  0.3444
 1621SOL    HW116499   1.955   1.701   6.949  1.1675 -2.2695  2.1684
 1621SOL    HW216500   2.025   1.829   6.927  0.7898 -0.1716 -0.5089
 1622SOL     OW16501   1.035   0.049   3.984 -0.2002  0.3478 -0.3572
 1622SOL    HW116502   1.037   0.064   3.889  1.5795 -1.3815 -0.5794
 1622SOL    HW216503   0.948   0.084   4.004  0.4424  1.3452  0.6836
 1623SOL     OW16504   3.478   2.293   7.450  0.5104 -0.7193 -0.0228
 1623SOL    HW116505   3.518   2.363   7.399 -1.3881 -0.2124 -0.7740
 1623SOL    HW216506   3.470   2.334   7.536  1.2097  0.8033 -0.6814
 1624SOL     OW16507   2.850   4.469   8.210 -0.1603  0.2919 -0.0512
 1624SOL    HW116508   2.763   4.433   8.226 -0.3662 -0.6998 -3.3214
 1624SOL    HW216509   2.889   4.449   8.295  3.8806  0.3386 -1.8641
 1625SOL     OW16510   2.097   0.031   7.344 -0.2495 -0.0429  0.0333
 1625SOL    HW116511   2.156   0.101   7.371  1.1335 -1.7398  1.3797
 1625SOL    HW216512   2.122   4.694   7.396 -0.6243  0.8225  1.4682
 1626SOL     OW16513   2.421   4.712  15.859  0.4224  0.4690  0.2351
 1626SOL    HW116514   2.514   4.730  15.851  0.2013  1.2782 -0.4854
 1626SOL    HW216515   2.409   4.627  15.816 -0.4202  1.9788 -2.5330
 1627SOL     OW16516   1.275   0.231   6.824 -0.2756 -0.2461 -0.1061
 1627SOL    HW116517   1.241   0.297   6.884 -2.5033 -1.2290 -0.3073
 1627SOL    HW216518   1.368   0.237   6.846 -0.3800  1.2763 -0.0485
 1628SOL     OW16519   1.926   1.534   2.664  0.1861 -0.2171 -0.0986
 1628SOL    HW116520   1.838   1.538   2.626 -0.0330 -1.4339  0.2543
 1628SOL    HW216521   1.981   1.503   2.593  0.2581 -0.4427  0.0543
 1629SOL     OW16522   1.889   1.668   1.883 -0.1108 -0.4195 -0.3950
 1629SOL    HW116523   1.921   1.579   1.899 -2.0182 -0.9907  0.2972
 1629SOL    HW216524   1.923   1.694   1.798 -1.0582 -2.6950 -1.4685
 1630SOL     OW16525   3.008   4.234   5.137 -0.2887 -0.1708  0.2056
 1630SOL    HW116526   2.952   4.308   5.160  0.5042 -0.5617  3.4440
 1630SOL    HW216527   3.015   4.197   5.225 -1.0614  0.4275  0.5199
 1631SOL     OW16528   0.291   4.177   2.471 -0.5306 -0.0882 -0.0544
 1631SOL    HW116529   0.340   4.098   2.450  0.9617  0.4072  1.5127
 1631SOL    HW216530   0.222   4.128   2.515 -0.9874  0.8065  0.2435
 1632SOL     OW16531   2.000   3.301   2.746 -0.1110  0.4382 -0.4530
 1632SOL    HW116532   1.950   3.221   2.730  1.9014 -0.9640  0.4266
 1632SOL    HW216533   2.076   3.302   2.687  0.5688 -1.2107  0.4068
 1633SOL     OW16534   3.685   0.692   8.937 -0.8344 -0.0502  0.1370
 1633SOL    HW116535   3.732   0.742   8.870 -1.6946  3.2126  1.9867
 1633SOL    HW216536   3.651   0.620   8.882 -0.3113 -1.4803  1.7059
 1634SOL     OW16537   4.440   1.735   7.932  0.2114  0.1534 -0.0747
 1634SOL    HW116538   4.423   1.643   7.956  1.7377 -0.0244  0.3512
 1634SOL    HW216539   4.403   1.784   8.006  0.2094 -0.8580  0.5988
 1635SOL     OW16540   0.928   0.903   8.872 -0.4272 -0.3064  0.0517
 1635SOL    HW116541   1.017   0.931   8.893 -0.8208  0.3677  0.8109
 1635SOL    HW216542   0.919   0.815   8.908 -2.0217 -0.0923  0.1708
 1636SOL     OW16543   4.179   0.806   2.030 -0.4204  0.2271 -0.1165
 1636SOL    HW116544   4.222   0.852   2.102 -0.9182  2.1127 -1.0146
 1636SOL    HW216545   4.131   0.878   1.987 -3.3053 -0.4460  1.9878
 1637SOL     OW16546   3.493   1.378  17.481 -0.1738 -0.2476 -0.7488
 1637SOL    HW116547   3.422   1.441  17.495 -1.6635 -1.6248 -2.2427
 1637SOL    HW216548   3.566   1.435  17.454  0.7124 -0.1296  1.9206
 1638SOL     OW16549   1.245   2.769  11.492 -0.1185  0.1021  0.0068
 1638SOL    HW116550   1.153   2.794  11.484 -0.3137 -0.8249 -0.5899
 1638SOL    HW216551   1.267   2.792  11.583  1.0363 -0.3341 -0.1566
 1639SOL     OW16552   3.022   0.806   3.574  0.3441 -0.0115 -0.0255
 1639SOL    HW116553   3.074   0.808   3.655 -0.1211 -0.6430  0.2858
 1639SOL    HW216554   3.021   0.900   3.555 -1.3323  0.3091  1.6070
 1640SOL     OW16555   1.166   0.306   2.664  0.4598  0.1071 -0.1125
 1640SOL    HW116556   1.243   0.250   2.676  0.4229 -0.1693 -1.1584
 1640SOL    HW216557   1.152   0.284   2.572 -2.0886  2.1605 -0.2170
 1641SOL     OW16558   1.662   3.455   2.629 -0.5539  0.3449  0.1033
 1641SOL    HW116559   1.645   3.474   2.721  2.0049 -1.0550  0.8492
 1641SOL    HW216560   1.612   3.375   2.614  0.8326  0.0359 -2.9550
 1642SOL     OW16561   4.681   0.409   7.887  0.0275 -0.2688  0.2460
 1642SOL    HW116562   0.013   0.415   7.951  2.5388 -0.0158 -2.5986
 1642SOL    HW216563   4.655   0.501   7.882 -1.8624 -0.9359 -1.7778
 1643SOL     OW16564   0.202   3.048   3.425  0.2579 -0.2579 -0.5584
 1643SOL    HW116565   0.114   3.083   3.441  0.4544  0.3613 -0.8101
 1643SOL    HW216566   0.193   3.016   3.336 -0.6087  0.2437 -0.6557
 1644SOL     OW16567   2.558   4.385   6.230 -0.1075  0.1722 -0.4396
 1644SOL    HW116568   2.609   4.333   6.292 -1.4799 -0.5961  0.0564
 1644SOL    HW216569   2.615   4.387   6.154 -0.1875 -1.9299 -0.5526
 1645SOL     OW16570   4.104   0.043   8.666 -0.5150 -0.6648  0.0249
 1645SOL    HW116571   4.162   0.060   8.592  0.4718 -2.2380  0.4453
 1645SOL    HW216572   4.039   0.113   8.667 -2.0860 -2.1356  0.0193
 1646SOL     OW16573   2.649   0.340   9.955 -0.6674  0.4375  0.1124
 1646SOL    HW116574   2.571   0.298   9.918 -0.3265  0.1972 -0.3350
 1646SOL    HW216575   2.622   0.344  10.047  0.1096  3.0686  0.2207
 1647SOL     OW16576   1.740   4.134  17.348  0.3703  0.2834 -0.0668
 1647SOL    HW116577   1.657   4.108  17.308 -0.3294  3.1413 -0.4775
 1647SOL    HW216578   1.738   4.228  17.326 -0.7512 -0.0875 -1.5280
 1648SOL     OW16579   0.083   1.180   5.762  0.1979  0.1733 -0.0033
 1648SOL    HW116580   0.066   1.130   5.842  1.7648 -0.1954  0.1137
 1648SOL    HW216581   0.022   1.249   5.786 -0.5060  0.1047 -1.5864
 1649SOL     OW16582   0.609   1.404  11.525 -0.5807 -0.4131  0.3320
 1649SOL    HW116583   0.591   1.375  11.614 -1.3843 -1.3784 -0.1451
 1649SOL    HW216584   0.639   1.493  11.546 -1.0189 -0.3299  0.6200
 1650SOL     OW16585   0.468   2.025   6.312 -0.0323 -0.2786  0.5714
 1650SOL    HW116586   0.519   1.945   6.296  0.8960  0.4253  0.0415
 1650SOL    HW216587   0.382   1.995   6.343 -0.4524 -0.9365 -1.2742
 1651SOL     OW16588   3.456   3.085   4.712  0.2863  0.3876 -0.0693
 1651SOL    HW116589   3.516   3.065   4.783  2.2569  1.2648 -1.4708
 1651SOL    HW216590   3.479   3.027   4.640 -0.9799 -0.7813  0.4583
 1652SOL     OW16591   1.614   2.158   1.287  0.4618  0.2765 -0.0624
 1652SOL    HW116592   1.583   2.092   1.350 -1.2732  1.5071  0.3801
 1652SOL    HW216593   1.630   2.106   1.208  0.2847  1.2407 -0.7282
 1653SOL     OW16594   1.989   4.682  14.777 -0.1068 -0.2109  0.6312
 1653SOL    HW116595   1.905   4.637  14.776 -0.5927  0.7061 -0.6140
 1653SOL    HW216596   1.996   4.704  14.870 -0.4884  0.6050  0.4660
 1654SOL     OW16597   0.933   0.974  11.876 -0.2180 -0.0070  0.5571
 1654SOL    HW116598   0.923   1.013  11.963 -2.2665  0.0466  0.2985
 1654SOL    HW216599   0.849   0.969  11.830  0.6181  0.7470 -1.0537
 1655SOL     OW16600   2.639   4.371   5.323  0.0675  0.5453  0.5246
 1655SOL    HW116601   2.622   4.397   5.232 -1.1133 -0.1382  0.5499
 1655SOL    HW216602   2.708   4.431   5.350  2.2494 -2.6473  2.0299
 1656SOL     OW16603   2.630   1.410   5.096 -0.1680  0.1957  0.2092
 1656SOL    HW116604   2.556   1.427   5.038 -0.4808  1.5964  1.0208
 1656SOL    HW216605   2.580   1.402   5.177 -0.3544  2.4956  0.3363
 1657SOL     OW16606   4.082   2.887   3.807  0.1112 -0.0228  0.3236
 1657SOL    HW116607   4.005   2.932   3.843 -0.7012  0.6153 -2.1664
 1657SOL    HW216608   4.088   2.952   3.737  0.8567  0.6442  1.0186
 1658SOL     OW16609   0.623   3.952  16.286  0.1101 -0.0698  0.2276
 1658SOL    HW116610   0.617   4.042  16.254  2.4620  0.0643  0.1856
 1658SOL    HW216611   0.676   3.905  16.222  2.0213  1.5971  0.6055
 1659SOL     OW16612   1.413   1.444  15.556  0.0901 -0.4583 -0.3442
 1659SOL    HW116613   1.452   1.436  15.468  1.0427 -3.3210  0.3206
 1659SOL    HW216614   1.489   1.475  15.604 -1.0786  0.6677  0.7507
 1660SOL     OW16615   1.284   0.576  10.471  0.8933  0.1837  0.0895
 1660SOL    HW116616   1.234   0.570  10.552  0.4784  0.5294 -0.1396
 1660SOL    HW216617   1.315   0.486  10.466 -0.6004 -0.2583 -1.2050
 1661SOL     OW16618   2.842   0.568   2.745 -0.1388  0.3119  0.1831
 1661SOL    HW116619   2.890   0.540   2.667  0.3240  0.3766  0.4410
 1661SOL    HW216620   2.878   0.657   2.750 -1.1432  0.6410  1.5134
 1662SOL     OW16621   1.040   2.009  13.568  0.5943 -0.4168  0.3317
 1662SOL    HW116622   1.037   2.012  13.473 -0.7628  0.5688  0.4098
 1662SOL    HW216623   1.112   1.946  13.572  1.8160  0.8433 -2.0783
 1663SOL     OW16624   1.440   2.971   8.983  0.1860  0.3325 -0.2613
 1663SOL    HW116625   1.352   2.939   8.964  0.6641 -0.4865 -1.1271
 1663SOL    HW216626   1.459   2.933   9.069 -2.7098  0.3308  0.3746
 1664SOL     OW16627   1.811   0.230  12.747  0.3712  0.5007 -0.1219
 1664SOL    HW116628   1.863   0.307  12.770  0.0662  0.4023  0.8954
 1664SOL    HW216629   1.858   0.164  12.798  2.3592  1.8214 -0.2258
 1665SOL     OW16630   3.162   3.404   2.102 -0.0306 -0.6293  0.2958
 1665SOL    HW116631   3.216   3.473   2.140 -2.4954  0.1699  2.3407
 1665SOL    HW216632   3.138   3.354   2.180 -0.2469  1.9099  1.8473
 1666SOL     OW16633   4.549   0.552   6.037 -0.0397 -0.1559 -0.6223
 1666SOL    HW116634   4.487   0.577   5.968 -1.1758 -2.6378 -0.5296
 1666SOL    HW216635   4.509   0.610   6.101  0.9478  1.2223 -1.2683
 1667SOL     OW16636   0.270   4.622  12.692  0.1506  0.2327 -0.3821
 1667SOL    HW116637   0.320   4.703  12.690  1.9545 -0.8460  0.3892
 1667SOL    HW216638   0.184   4.646  12.726  0.2809  0.1533  0.0159
 1668SOL     OW16639   1.618   3.988  16.686 -0.2115 -0.2811 -0.0140
 1668SOL    HW116640   1.561   3.911  16.678 -2.0927  1.2655 -1.7200
 1668SOL    HW216641   1.576   4.044  16.751 -1.5520 -1.0769 -0.1838
 1669SOL     OW16642   3.921   0.895   3.104  0.1636  0.6995  0.6375
 1669SOL    HW116643   3.826   0.887   3.105  0.2138  0.4577  2.8025
 1669SOL    HW216644   3.942   0.964   3.041  0.2686  0.1627  0.0856
 1670SOL     OW16645   1.937   1.083  15.597  0.2110 -0.2892 -0.0686
 1670SOL    HW116646   1.884   1.021  15.646 -0.9938  1.4307  0.8262
 1670SOL    HW216647   1.870   1.147  15.572 -0.6710 -2.1772 -2.5520
 1671SOL     OW16648   4.522   1.727   8.241  0.5140 -0.3574 -0.3772
 1671SOL    HW116649   4.523   1.812   8.284 -1.2711 -0.0430 -0.9638
 1671SOL    HW216650   4.585   1.750   8.172  1.3142  0.5228  0.6593
 1672SOL     OW16651   4.646   0.321   5.907 -0.2065 -0.0660  0.8465
 1672SOL    HW116652   4.635   0.397   5.964 -3.5727  0.3795 -0.4315
 1672SOL    HW216653   4.663   0.367   5.825  1.6855  1.2667  1.9738
 1673SOL     OW16654   3.509   2.125   2.338 -0.4304 -0.1833 -0.1856
 1673SOL    HW116655   3.516   2.059   2.408 -0.8906 -1.2133 -1.1042
 1673SOL    HW216656   3.493   2.065   2.265 -1.2226  0.0271 -0.1881
 1674SOL     OW16657   4.024   3.504   1.322 -0.3274 -0.1972 -0.4442
 1674SOL    HW116658   3.959   3.568   1.353  1.5088  1.2626  0.4103
 1674SOL    HW216659   4.067   3.467   1.399 -0.5071  2.2340  0.8334
 1675SOL     OW16660   2.688   2.483   7.356 -0.5434  0.2963  0.0425
 1675SOL    HW116661   2.618   2.434   7.398 -2.4529  0.7295 -2.6120
 1675SOL    HW216662   2.651   2.571   7.352  1.8720  1.2493 -1.5440
 1676SOL     OW16663   0.691   1.288   2.945 -0.1712  0.1762 -0.1365
 1676SOL    HW116664   0.648   1.254   2.867 -2.0405  3.1152 -0.4045
 1676SOL    HW216665   0.716   1.377   2.918  1.4767  0.3396  1.9124
 1677SOL     OW16666   4.324   0.730   8.750 -0.5296  0.2922 -0.6191
 1677SOL    HW116667   4.365   0.729   8.836  1.4006  1.3567 -1.5183
 1677SOL    HW216668   4.366   0.809   8.714  0.2291  0.5293  0.7790
 1678SOL     OW16669   3.927   1.584   1.245 -0.1346  0.5782 -0.0161
 1678SOL    HW116670   3.918   1.508   1.303 -1.0860  1.1019  0.5123
 1678SOL    HW216671   3.865   1.646   1.282 -0.3521  0.9293 -0.9758
 1679SOL     OW16672   3.505   3.671  10.375  0.6042 -0.3887 -0.0925
 1679SOL    HW116673   3.526   3.765  10.375 -0.0037 -0.2463 -0.0908
 1679SOL    HW216674   3.452   3.659  10.296  1.0539  1.9937 -0.7720
 1680SOL     OW16675   3.014   3.815   8.192 -0.1551  0.3592 -0.2784
 1680SOL    HW116676   3.018   3.724   8.162  2.4133  0.8063 -1.2836
 1680SOL    HW216677   3.084   3.851   8.138 -1.0678  0.2925 -1.5073
 1681SOL     OW16678   4.103   4.714   5.362 -0.5679  0.4658 -0.2233
 1681SOL    HW116679   4.161   4.639   5.346 -1.2511  0.2628 -1.6644
 1681SOL    HW216680   4.012   4.686   5.354 -0.7504  0.7977  0.6908
 1682SOL     OW16681   4.702   4.524   4.863 -0.2504 -0.5438  0.2650
 1682SOL    HW116682   4.639   4.595   4.873 -0.6313 -0.7831 -0.4423
 1682SOL    HW216683   4.653   4.453   4.823  0.5088  0.6431 -2.7638
 1683SOL     OW16684   0.964   4.121   9.675  0.1538 -0.7629  0.3417
 1683SOL    HW116685   0.928   4.044   9.718 -0.6902 -0.3579  0.3807
 1683SOL    HW216686   1.010   4.076   9.604 -0.2534 -3.0298  1.5485
 1684SOL     OW16687   2.654   0.399   9.267 -0.4400  0.1060 -0.4391
 1684SOL    HW116688   2.604   0.321   9.241 -1.2195  0.8507 -1.1712
 1684SOL    HW216689   2.596   0.466   9.230 -0.6685  0.7956  1.1751
 1685SOL     OW16690   0.995   1.370   5.731  0.1450 -0.0261 -0.2676
 1685SOL    HW116691   1.083   1.407   5.745 -0.7136  1.7464  0.5029
 1685SOL    HW216692   0.972   1.323   5.811  0.5961 -0.8045 -0.5991
 1686SOL     OW16693   3.525   0.535   6.945 -0.6283  0.0782  0.1794
 1686SOL    HW116694   3.532   0.629   6.963  1.3063 -0.7612  3.7195
 1686SOL    HW216695   3.524   0.497   7.032 -2.5162  0.9247  0.5215
 1687SOL     OW16696   0.718   1.562  11.756  0.1177 -0.1848 -0.0941
 1687SOL    HW116697   0.811   1.572  11.736  0.9777 -3.4102  2.1745
 1687SOL    HW216698   0.727   1.524  11.844 -1.4230  1.6735  0.8650
 1688SOL     OW16699   3.506   2.405   5.338  0.1301  0.4015 -0.3480
 1688SOL    HW116700   3.417   2.377   5.356  0.5280 -1.4808 -1.2698
 1688SOL    HW216701   3.508   2.486   5.390  1.3084  0.7488 -0.9233
 1689SOL     OW16702   1.593   4.563   5.982  0.1012 -0.2572  0.1380
 1689SOL    HW116703   1.596   4.468   5.972 -1.7465 -0.2879 -0.1374
 1689SOL    HW216704   1.648   4.581   5.905 -0.9269  0.0388 -0.5292
 1690SOL     OW16705   1.370   4.563   6.627  0.3827 -0.7050 -0.0366
 1690SOL    HW116706   1.435   4.594   6.564 -1.9512 -1.0980 -2.6782
 1690SOL    HW216707   1.419   4.548   6.707 -0.3287  1.3049  0.7852
 1691SOL     OW16708   3.162   3.953   5.304  0.2459 -0.7976 -0.4548
 1691SOL    HW116709   3.066   3.946   5.296  0.1067 -0.9832  1.2425
 1691SOL    HW216710   3.191   3.869   5.269  0.1334 -1.0184 -0.0231
 1692SOL     OW16711   4.712   0.341   5.161 -0.9537  0.2270 -0.0690
 1692SOL    HW116712   4.728   0.260   5.209 -0.4521 -0.2514 -1.0514
 1692SOL    HW216713   0.037   0.323   5.093  0.3723 -2.2758  1.8639
 1693SOL     OW16714   1.976   3.795   4.171  0.0210  0.4344  0.3327
 1693SOL    HW116715   2.052   3.781   4.114 -0.5560  0.1595 -0.3808
 1693SOL    HW216716   2.009   3.825   4.255  0.6558 -0.8310  0.5202
 1694SOL     OW16717   0.893   2.918   7.373 -0.3286  0.1397  0.2393
 1694SOL    HW116718   0.885   2.991   7.312  1.6947 -0.7286 -1.0346
 1694SOL    HW216719   0.965   2.870   7.333 -0.3250  1.1810 -0.9852
 1695SOL     OW16720   1.586   3.877   0.014  0.0037  0.2089  0.7333
 1695SOL    HW116721   1.677   3.855  17.747  0.6647  3.0364  0.6910
 1695SOL    HW216722   1.597   3.939   0.085  0.5025 -0.2713  1.0739
 1696SOL     OW16723   3.333   2.047   6.732 -0.5039  0.0945 -0.3520
 1696SOL    HW116724   3.404   2.055   6.795 -1.2028 -0.9424  0.5656
 1696SOL    HW216725   3.263   2.087   6.783  0.3128  0.2038  0.6702
 1697SOL     OW16726   3.415   3.233   5.875 -0.0993 -0.2631 -0.1968
 1697SOL    HW116727   3.361   3.202   5.948 -0.5589 -0.4676 -0.6184
 1697SOL    HW216728   3.430   3.150   5.829  0.1856 -0.7366  0.7463
 1698SOL     OW16729   3.479   3.956  16.577 -0.9433 -0.0102 -0.2393
 1698SOL    HW116730   3.532   3.949  16.656 -2.4996 -2.5984  0.5507
 1698SOL    HW216731   3.440   4.041  16.599 -0.2574 -0.0702  1.1823
 1699SOL     OW16732   2.768   3.915  12.517 -0.1098  0.3029  0.4916
 1699SOL    HW116733   2.784   4.009  12.510 -2.2888  0.6194 -0.3878
 1699SOL    HW216734   2.859   3.887  12.528 -0.6199 -0.6070  2.4115
 1700SOL     OW16735   1.786   2.309   3.474  0.5397  0.3237 -0.0021
 1700SOL    HW116736   1.707   2.360   3.490  0.5708  1.1947 -2.6417
 1700SOL    HW216737   1.783   2.233   3.533  0.3955  0.0069 -0.4172
 1701SOL     OW16738   4.366   0.242   5.551  0.0278  0.2008 -0.0181
 1701SOL    HW116739   4.351   0.311   5.615 -1.9929 -1.6247  1.4471
 1701SOL    HW216740   4.326   0.170   5.599 -0.4951  1.4773  1.4578
 1702SOL     OW16741   0.021   1.487  14.196  0.2048  0.1237  0.4033
 1702SOL    HW116742   0.052   1.409  14.151  0.0554  0.0185  0.4853
 1702SOL    HW216743   4.674   1.502  14.158  1.3588  1.5721 -1.6334
 1703SOL     OW16744   3.375   2.859  11.475  0.1319 -0.3359  0.2868
 1703SOL    HW116745   3.455   2.881  11.522  1.4884 -2.2611 -1.1018
 1703SOL    HW216746   3.417   2.823  11.397 -1.1480  1.6241 -1.3068
 1704SOL     OW16747   3.905   1.086  16.110 -0.4309  0.2091 -0.2395
 1704SOL    HW116748   3.889   1.180  16.107  0.4850  0.3125 -1.5548
 1704SOL    HW216749   3.894   1.063  16.018  0.4217  0.8817 -0.5059
 1705SOL     OW16750   4.122   0.443  16.208 -0.4863  0.6178  0.4684
 1705SOL    HW116751   4.217   0.438  16.203 -0.5419  1.4636 -1.4887
 1705SOL    HW216752   4.100   0.518  16.153 -0.1325  2.7895  3.2888
 1706SOL     OW16753   3.274   2.708  16.862 -0.0146  0.3624 -0.3649
 1706SOL    HW116754   3.229   2.702  16.778  0.4588  2.1412 -0.7436
 1706SOL    HW216755   3.201   2.678  16.916  0.3426  1.5262  0.7750
 1707SOL     OW16756   2.437   0.401   3.445  0.2769 -0.1533 -0.2688
 1707SOL    HW116757   2.401   0.487   3.463 -1.4506 -0.5371 -1.8549
 1707SOL    HW216758   2.399   0.347   3.514  0.1774  0.0326 -0.1800
 1708SOL     OW16759   3.400   1.217   7.734 -0.4113  0.0525 -0.2242
 1708SOL    HW116760   3.365   1.129   7.750  1.4334 -0.8577 -1.1996
 1708SOL    HW216761   3.324   1.263   7.768  0.7512  1.3964  0.5697
 1709SOL     OW16762   2.182   2.902   4.980  0.0383  0.1128  0.0565
 1709SOL    HW116763   2.261   2.868   5.023  0.2411  0.0674 -0.3492
 1709SOL    HW216764   2.169   2.973   5.043  3.6457 -0.4841  1.4835
 1710SOL     OW16765   1.845   1.623  17.441  0.4628  0.0001  0.3998
 1710SOL    HW116766   1.854   1.717  17.422 -1.7296  0.3866  1.2277
 1710SOL    HW216767   1.854   1.592  17.351 -2.3420  0.2073  0.0359
 1711SOL     OW16768   2.171   2.330  13.340  0.2068  0.2400  0.2591
 1711SOL    HW116769   2.106   2.399  13.326  0.6880  0.5596 -0.3967
 1711SOL    HW216770   2.123   2.250  13.319  1.1282 -0.7313  1.8932
 1712SOL     OW16771   2.904   3.485   6.522  0.1801  0.2962  1.0671
 1712SOL    HW116772   2.884   3.505   6.614 -0.7095 -0.1312  0.9642
 1712SOL    HW216773   2.826   3.513   6.475  0.7980 -2.1697 -1.4144
 1713SOL     OW16774   0.876   1.220   7.601  0.1508  0.0391  0.2727
 1713SOL    HW116775   0.830   1.277   7.663  0.3938 -0.5222  0.9593
 1713SOL    HW216776   0.924   1.291   7.557 -1.0256 -0.1921 -1.3717
 1714SOL     OW16777   3.070   3.883   3.282 -0.1383  1.2333 -0.1656
 1714SOL    HW116778   3.060   3.788   3.289  0.1409  1.2011 -0.2016
 1714SOL    HW216779   3.040   3.902   3.372  0.3276 -0.4418  0.3364
 1715SOL     OW16780   3.801   4.139  14.079  0.6870  0.1006 -0.2743
 1715SOL    HW116781   3.856   4.064  14.059  1.4441  0.2643  1.2622
 1715SOL    HW216782   3.786   4.185  13.996 -0.6168  1.9766  0.9852
 1716SOL     OW16783   2.136   0.285   1.585  0.0402 -0.1658  0.2689
 1716SOL    HW116784   2.209   0.346   1.578  1.1482 -1.9187 -3.5987
 1716SOL    HW216785   2.104   0.330   1.664 -0.3522 -2.3731  1.3650
 1717SOL     OW16786   1.702   4.622   3.469  0.4460 -0.0690 -0.5621
 1717SOL    HW116787   1.740   4.679   3.402  1.3482 -0.4147 -0.3351
 1717SOL    HW216788   1.712   4.688   3.538  1.2950  1.1891 -1.8875
 1718SOL     OW16789   1.078   3.655   8.460 -0.2882 -0.1551 -0.5737
 1718SOL    HW116790   1.118   3.570   8.442  1.6126  0.1761  2.0185
 1718SOL    HW216791   0.991   3.638   8.423  0.5651 -1.7564 -1.8261
 1719SOL     OW16792   0.214   4.397   2.315 -0.3593  0.3267 -0.4688
 1719SOL    HW116793   0.267   4.321   2.336 -1.0611 -0.7817 -2.6841
 1719SOL    HW216794   0.243   4.463   2.377 -2.4961  0.2447  0.6381
 1720SOL     OW16795   1.586   4.013   7.210  0.2502  0.0000 -0.2808
 1720SOL    HW116796   1.628   4.044   7.130  2.2580 -0.2768  0.6544
 1720SOL    HW216797   1.509   3.965   7.179  0.7928 -1.6485  0.8603
 1721SOL     OW16798   3.253   1.465   2.267  0.2132 -0.5476  0.4757
 1721SOL    HW116799   3.226   1.406   2.197  0.5394 -2.4810  1.9432
 1721SOL    HW216800   3.290   1.536   2.215  1.0571 -1.5618 -0.2999
 1722SOL     OW16801   1.763   1.028   2.758 -0.8606 -0.7241  0.1623
 1722SOL    HW116802   1.699   1.076   2.704  2.2070  2.1751 -0.9127
 1722SOL    HW216803   1.780   1.098   2.821  4.4755 -2.0536  0.1838
 1723SOL     OW16804   1.299   0.625  10.842 -0.0225 -0.0623 -0.1213
 1723SOL    HW116805   1.226   0.608  10.782 -0.3405 -2.1626  0.8821
 1723SOL    HW216806   1.311   0.542  10.886  1.1178 -0.4914 -1.2378
 1724SOL     OW16807   2.795   1.661   5.835 -0.2422 -0.2400 -0.2558
 1724SOL    HW116808   2.799   1.756   5.828  0.5190 -0.0568  2.6959
 1724SOL    HW216809   2.702   1.656   5.855 -0.1960  1.1871  0.3293
 1725SOL     OW16810   0.270   4.263   8.028  0.2895  0.1569 -0.0257
 1725SOL    HW116811   0.199   4.258   7.964 -0.8791 -1.2373  1.3742
 1725SOL    HW216812   0.321   4.335   7.991  0.6896  0.7609  1.6819
 1726SOL     OW16813   1.903   0.506   7.536 -0.3815 -0.5947 -0.1217
 1726SOL    HW116814   1.971   0.533   7.474 -0.6142  0.3070  0.0141
 1726SOL    HW216815   1.934   0.547   7.616 -1.2607 -1.2112  0.5300
 1727SOL     OW16816   0.243   0.010  16.293 -0.2208  0.6943  0.3017
 1727SOL    HW116817   0.185   0.056  16.354 -2.3312  0.0263 -1.1955
 1727SOL    HW216818   0.281   4.681  16.348  1.4231 -0.0130 -1.6834
 1728SOL     OW16819   2.325   2.585   3.299 -0.0673  0.0264 -0.5490
 1728SOL    HW116820   2.266   2.657   3.279 -0.9048 -0.3747  0.4790
 1728SOL    HW216821   2.394   2.637   3.340  0.5005 -0.8225 -0.4248
 1729SOL     OW16822   3.048   1.946   0.749  0.0578  0.1543 -0.1281
 1729SOL    HW116823   3.020   2.006   0.681  0.3814  0.7023  0.2227
 1729SOL    HW216824   3.087   1.998   0.819 -0.5353  2.5233 -1.5807
 1730SOL     OW16825   3.378   4.006   6.908 -0.6578  0.1227  0.4051
 1730SOL    HW116826   3.391   4.074   6.843 -0.0309 -1.3605 -0.9977
 1730SOL    HW216827   3.384   3.929   6.851  4.1185 -0.0769  1.1932
 1731SOL     OW16828   3.289   1.388   2.816 -0.0355  0.2201 -0.2974
 1731SOL    HW116829   3.284   1.326   2.744  0.1067 -0.6178  0.4119
 1731SOL    HW216830   3.218   1.447   2.792  0.4413  0.8916 -0.0782
 1732SOL     OW16831   1.904   3.056   2.642  0.3790  0.1435  0.4952
 1732SOL    HW116832   1.980   3.026   2.593 -0.0404 -0.0045 -0.0783
 1732SOL    HW216833   1.892   2.974   2.690  2.0683 -0.2221  0.2928
 1733SOL     OW16834   0.077   2.259   1.366  0.0472 -0.3134 -0.0061
 1733SOL    HW116835   0.077   2.209   1.285  0.3559 -0.6798  0.2162
 1733SOL    HW216836   0.162   2.302   1.358 -0.5129  0.8925  0.5421
 1734SOL     OW16837   3.073   0.510   4.593 -0.0712  0.3945  0.0542
 1734SOL    HW116838   3.035   0.561   4.522 -0.4547  2.1633  1.5210
 1734SOL    HW216839   3.012   0.436   4.597 -1.1656  1.3602  1.6363
 1735SOL     OW16840   2.557   0.069  15.552 -0.4544  0.4787  0.3051
 1735SOL    HW116841   2.619   0.029  15.490 -2.3591 -0.4873 -0.9629
 1735SOL    HW216842   2.614   0.068  15.629 -0.3626 -2.2450  0.1859
 1736SOL     OW16843   3.973   2.573   6.740  0.1766  0.1989  0.0486
 1736SOL    HW116844   4.068   2.573   6.748  0.3960  1.1974 -2.3824
 1736SOL    HW216845   3.952   2.665   6.759 -1.4451 -0.0397 -0.6039
 1737SOL     OW16846   0.940   2.483   7.134 -0.1528 -0.0558  0.6461
 1737SOL    HW116847   0.967   2.398   7.169  1.8325  0.7679  1.1481
 1737SOL    HW216848   0.845   2.474   7.129 -0.3183  1.6835  0.7231
 1738SOL     OW16849   1.118   2.487   6.939 -0.2585 -0.1942 -0.5170
 1738SOL    HW116850   1.200   2.487   6.987 -0.4216  1.7555 -0.2717
 1738SOL    HW216851   1.053   2.487   7.010  0.9503  1.1667  0.5785
 1739SOL     OW16852   0.569   4.402   3.192  0.0560  0.1280  0.1206
 1739SOL    HW116853   0.538   4.428   3.105  0.2450 -2.9270 -0.8357
 1739SOL    HW216854   0.621   4.323   3.181 -0.0179  0.2546 -1.1465
 1740SOL     OW16855   0.577   0.384  11.389 -0.5053 -0.2135 -0.9722
 1740SOL    HW116856   0.503   0.388  11.329 -0.4151  0.4032 -1.0522
 1740SOL    HW216857   0.648   0.417  11.334  0.5220  0.7166  0.9112
 1741SOL     OW16858   1.126   3.195   5.800 -0.1410  0.1838 -0.0192
 1741SOL    HW116859   1.122   3.100   5.803 -0.0519  0.1300 -1.4433
 1741SOL    HW216860   1.163   3.205   5.712  0.1262 -0.0332  0.0652
 1742SOL     OW16861   0.245   4.557   3.923 -0.1927  0.1815 -0.0975
 1742SOL    HW116862   0.159   4.575   3.884  0.0337 -1.2123 -1.2192
 1742SOL    HW216863   0.294   4.618   3.868 -1.1774  0.8615 -0.2297
 1743SOL     OW16864   1.863   0.807   9.462 -0.2325  0.4296 -0.6813
 1743SOL    HW116865   1.846   0.819   9.555  0.6514 -1.1665 -0.3096
 1743SOL    HW216866   1.862   0.711   9.464  1.1855  0.4210 -0.5485
 1744SOL     OW16867   0.891   2.745   1.723  0.3161 -0.7525  0.4393
 1744SOL    HW116868   0.910   2.807   1.652 -0.9824 -1.4315 -0.5151
 1744SOL    HW216869   0.804   2.774   1.749  1.0487  0.4539  1.5544
 1745SOL     OW16870   1.904   3.107   5.730  0.0282 -0.6081  0.7142
 1745SOL    HW116871   1.894   3.103   5.635 -0.1273  0.3315  0.6894
 1745SOL    HW216872   1.996   3.083   5.744 -0.0208 -2.0126 -1.3342
 1746SOL     OW16873   3.118   3.806   9.315  0.5734 -0.3023 -0.4349
 1746SOL    HW116874   3.139   3.726   9.362  0.4488  0.5405  1.0551
 1746SOL    HW216875   3.166   3.873   9.364  1.3569 -0.1484 -1.3906
 1747SOL     OW16876   1.982   0.220  14.749  0.1257  0.2619  0.4983
 1747SOL    HW116877   2.063   0.233  14.798  1.1638 -4.1540 -0.0434
 1747SOL    HW216878   1.976   0.124  14.758  1.9836 -0.0334 -1.4748
 1748SOL     OW16879   2.558   2.768   9.013 -0.3017 -0.0849 -0.5378
 1748SOL    HW116880   2.645   2.744   9.047 -0.4000  0.4420  0.0915
 1748SOL    HW216881   2.548   2.707   8.940  1.6443  0.0191 -0.8963
 1749SOL     OW16882   4.341   3.695   6.874  0.5129 -0.2481 -0.6498
 1749SOL    HW116883   4.339   3.610   6.918 -0.2190 -0.1747 -0.5332
 1749SOL    HW216884   4.398   3.745   6.933 -0.9161  1.3489 -0.6104
 1750SOL     OW16885   0.770   4.491  15.777  0.4764  0.5204  0.4658
 1750SOL    HW116886   0.703   4.491  15.846  0.9374  2.4815  0.9164
 1750SOL    HW216887   0.713   4.512  15.703 -0.0167  0.0523  0.7091
 1751SOL     OW16888   1.280   2.362   6.386 -0.0762 -0.5616  0.7813
 1751SOL    HW116889   1.195   2.401   6.401 -1.2060 -1.6178 -2.9114
 1751SOL    HW216890   1.242   2.290   6.335 -0.8875  0.0038  0.5891
 1752SOL     OW16891   4.188   0.229   3.518 -0.2322  0.2116  0.1232
 1752SOL    HW116892   4.105   0.218   3.564  0.4566  0.9018  1.5152
 1752SOL    HW216893   4.160   0.250   3.429  1.9380  0.4777 -0.4887
 1753SOL     OW16894   3.603   3.076  14.976  0.1397  0.1451 -0.2606
 1753SOL    HW116895   3.671   3.137  15.003  1.1232 -0.4814 -1.3300
 1753SOL    HW216896   3.611   3.073  14.881  0.4775 -1.7412 -0.1702
 1754SOL     OW16897   3.742   3.361  14.492 -0.4668  0.3040 -0.0893
 1754SOL    HW116898   3.697   3.373  14.575 -1.1133 -1.5945 -0.1493
 1754SOL    HW216899   3.782   3.447  14.487 -2.4110  1.3057  1.7837
 1755SOL     OW16900   2.161   4.102   4.359  0.3998 -0.1258  0.4733
 1755SOL    HW116901   2.205   4.068   4.281 -0.0823  0.8802 -0.2413
 1755SOL    HW216902   2.150   4.025   4.415  0.1967 -0.2208  0.3041
 1756SOL     OW16903   3.334   3.836   6.114 -0.0648 -0.1589  0.0159
 1756SOL    HW116904   3.291   3.765   6.066  1.1616 -1.0634  0.2481
 1756SOL    HW216905   3.261   3.866   6.167 -1.7779 -0.3763 -2.2030
 1757SOL     OW16906   4.101   1.414  10.910  0.4894 -0.4601 -0.3450
 1757SOL    HW116907   4.012   1.438  10.885  0.2614  1.8332  2.7185
 1757SOL    HW216908   4.081   1.334  10.959 -0.9912 -0.8722 -1.5938
 1758SOL     OW16909   0.251   2.400   4.447 -0.3733  0.3591  0.2032
 1758SOL    HW116910   0.340   2.366   4.451  0.3644  2.1014 -1.3387
 1758SOL    HW216911   0.208   2.364   4.525 -0.6407 -2.1665 -1.1070
 1759SOL     OW16912   2.555   3.369   5.410  0.1397  0.1009 -0.2576
 1759SOL    HW116913   2.575   3.381   5.317 -0.9071 -0.1256 -0.5043
 1759SOL    HW216914   2.620   3.433   5.439 -0.2562  1.1213 -1.6381
 1760SOL     OW16915   2.248   0.500  10.001  0.1695  0.3127 -0.1589
 1760SOL    HW116916   2.303   0.541   9.933  1.6717  0.7148  1.3017
 1760SOL    HW216917   2.189   0.572  10.024  0.7322  0.1545  1.7212
 1761SOL     OW16918   3.664   0.070   2.862  0.3522  0.7799  0.1075
 1761SOL    HW116919   3.572   0.043   2.861  0.3388  0.8239  0.1181
 1761SOL    HW216920   3.688   0.072   2.954  2.1190 -1.2739 -0.3120
 1762SOL     OW16921   3.717   3.893   9.421 -0.1540 -0.1146  0.2905
 1762SOL    HW116922   3.790   3.924   9.367 -2.9784  2.5177 -2.0068
 1762SOL    HW216923   3.677   3.827   9.365 -1.2613  1.0231 -0.2782
 1763SOL     OW16924   2.991   0.902   7.007  0.1890 -0.4756 -1.0592
 1763SOL    HW116925   2.904   0.933   6.983 -0.3217 -1.4383 -0.4690
 1763SOL    HW216926   2.987   0.812   6.974  0.4335 -1.0381  0.4742
 1764SOL     OW16927   0.009   0.268  15.313 -0.3655 -0.1964 -0.1161
 1764SOL    HW116928   0.056   0.345  15.280 -1.2318  0.5112  0.2897
 1764SOL    HW216929   4.675   0.318  15.351 -0.2363  0.2337 -0.4303
 1765SOL     OW16930   3.890   4.309   2.770 -0.0837 -0.6190  0.0135
 1765SOL    HW116931   3.957   4.241   2.766  1.2845  0.6671  1.3199
 1765SOL    HW216932   3.928   4.397   2.764  0.5328 -1.0240 -1.9562
 1766SOL     OW16933   1.896   0.210   7.099  0.1024 -0.3838  0.1225
 1766SOL    HW116934   1.953   0.271   7.053  0.5288 -0.7719  0.1502
 1766SOL    HW216935   1.907   0.125   7.057 -1.5345 -0.5809  0.0703
 1767SOL     OW16936   4.454   1.009   5.944 -0.2254 -0.0396 -0.7966
 1767SOL    HW116937   4.387   0.981   6.006  1.7955 -1.7123  0.6415
 1767SOL    HW216938   4.438   0.966   5.860 -1.4725  2.0014 -1.6022
 1768SOL     OW16939   3.440   3.810   6.715  0.7697 -0.5212 -0.0509
 1768SOL    HW116940   3.430   3.719   6.746  2.1977 -0.9088 -0.7323
 1768SOL    HW216941   3.505   3.805   6.645  1.4621  0.6560  0.5068
 1769SOL     OW16942   2.767   4.247  13.196  0.0523  0.1342 -0.0860
 1769SOL    HW116943   2.722   4.301  13.131 -1.2779 -2.9757 -1.7464
 1769SOL    HW216944   2.856   4.281  13.190 -0.6938  2.1869  0.3592
 1770SOL     OW16945   2.898   1.484   3.727  0.1015 -0.0082 -0.1419
 1770SOL    HW116946   2.851   1.567   3.722  0.1701 -0.0495 -1.3559
 1770SOL    HW216947   2.834   1.439   3.672 -0.8627 -2.3104  2.8408
 1771SOL     OW16948   0.378   1.025   8.831  0.4338 -0.2153 -0.7301
 1771SOL    HW116949   0.387   1.091   8.900 -1.0287 -2.3092  1.4393
 1771SOL    HW216950   0.463   0.980   8.835  1.0391  0.7204 -3.3643
 1772SOL     OW16951   0.262   4.387   5.860 -0.7363 -0.2323  0.2484
 1772SOL    HW116952   0.236   4.407   5.950  0.3595  1.8023  0.1075
 1772SOL    HW216953   0.356   4.396   5.845 -0.7509  0.4023  0.5608
 1773SOL     OW16954   2.347   0.054  13.144 -0.0552  0.3390 -0.4140
 1773SOL    HW116955   2.296   4.712  13.150  0.7435 -0.0967  0.4426
 1773SOL    HW216956   2.382   0.054  13.233 -0.5387  1.3149 -0.2247
 1774SOL     OW16957   2.881   1.111  16.621 -0.4009  0.2415  0.2413
 1774SOL    HW116958   2.815   1.146  16.682  1.0550  2.4818  0.5446
 1774SOL    HW216959   2.914   1.193  16.585 -1.2566 -0.1366 -1.4078
 1775SOL     OW16960   2.009   2.796   5.625 -0.1865 -0.0890  0.0479
 1775SOL    HW116961   1.993   2.811   5.532  0.8082  1.9426  0.1986
 1775SOL    HW216962   2.103   2.804   5.614 -0.2048 -0.4657 -0.3626
 1776SOL     OW16963   1.194   1.007   8.846  0.0845 -0.1771 -0.6834
 1776SOL    HW116964   1.218   0.949   8.918  2.8884 -0.6631 -2.0275
 1776SOL    HW216965   1.236   1.087   8.880 -2.5799  0.9949 -0.1225
 1777SOL     OW16966   3.738   0.972   1.832  0.4608  0.0134  0.2528
 1777SOL    HW116967   3.722   0.932   1.917 -0.1050  1.5350  0.8731
 1777SOL    HW216968   3.830   0.951   1.815  0.5492 -0.6387  1.5367
 1778SOL     OW16969   4.173   4.323   3.769 -0.2090  0.0783  0.4751
 1778SOL    HW116970   4.224   4.374   3.833  1.2547 -1.0246  0.1758
 1778SOL    HW216971   4.087   4.314   3.811 -0.5888 -0.4830 -0.4219
 1779SOL     OW16972   1.254   3.533  10.946 -0.2222  0.4220  0.4360
 1779SOL    HW116973   1.336   3.486  10.929  0.2638  2.5433 -3.1120
 1779SOL    HW216974   1.192   3.464  10.968 -0.7685  0.3773 -1.2772
 1780SOL     OW16975   4.108   4.197  11.931 -0.4227 -0.2384 -0.0038
 1780SOL    HW116976   4.155   4.141  11.870  2.2499  0.1316  1.7041
 1780SOL    HW216977   4.062   4.134  11.987 -0.9184 -0.2932 -0.4765
 1781SOL     OW16978   1.608   0.614   6.885  0.1288  0.2448 -0.3793
 1781SOL    HW116979   1.643   0.538   6.932 -1.6419 -0.2230  0.1759
 1781SOL    HW216980   1.631   0.677   6.952  0.4866 -0.5514  0.2527
 1782SOL     OW16981   3.060   3.384   8.415  0.1169 -0.4947 -0.6411
 1782SOL    HW116982   3.066   3.343   8.329  4.3125 -1.6371  0.1788
 1782SOL    HW216983   3.149   3.409   8.441  0.7184 -3.6433  0.3240
 1783SOL     OW16984   4.726   2.484  17.125  0.0749 -0.0209  0.0934
 1783SOL    HW116985   4.688   2.545  17.063  2.6078  0.7560 -0.7188
 1783SOL    HW216986   4.691   2.524  17.204  0.8052 -0.3192  0.5727
 1784SOL     OW16987   1.224   3.502   3.979 -0.6345  0.5590 -0.0572
 1784SOL    HW116988   1.286   3.555   3.930  1.0289  0.9737  2.5392
 1784SOL    HW216989   1.143   3.547   3.953 -0.5335 -0.8189 -2.7935
 1785SOL     OW16990   4.293   1.540   9.412 -0.0645  0.1715 -0.1104
 1785SOL    HW116991   4.232   1.498   9.351 -1.1364  0.3525  0.8405
 1785SOL    HW216992   4.260   1.499   9.492 -0.1245  1.3317  0.4472
 1786SOL     OW16993   1.100   3.663   8.783 -0.4424  0.1039 -0.6253
 1786SOL    HW116994   1.168   3.596   8.775  0.9423  1.3591  0.5854
 1786SOL    HW216995   1.058   3.644   8.867 -0.1046 -0.2456 -0.5386
 1787SOL     OW16996   1.588   1.739   5.971  0.5371  0.3577 -0.4397
 1787SOL    HW116997   1.607   1.760   5.879  1.8153 -1.8789 -0.6810
 1787SOL    HW216998   1.538   1.819   5.987  2.1997  1.1749  0.5312
 1788SOL     OW16999   2.301   2.798   9.276 -0.3863 -0.3564 -0.5384
 1788SOL    HW117000   2.285   2.823   9.185  1.5667 -0.4273 -0.9093
 1788SOL    HW217001   2.319   2.704   9.280 -1.1178 -0.4141  1.2598
 1789SOL     OW17002   1.100   3.625   0.029  0.3289  0.1367 -0.4169
 1789SOL    HW117003   1.189   3.658   0.021  0.4482  0.2354  1.3239
 1789SOL    HW217004   1.060   3.674   0.101  2.0045  0.2549  0.4327
 1790SOL     OW17005   2.369   4.434  15.707  0.3571  0.4865  0.0627
 1790SOL    HW117006   2.460   4.412  15.723  0.7746  1.4911 -0.9116
 1790SOL    HW217007   2.351   4.361  15.647 -1.9331  0.6879  0.5127
 1791SOL     OW17008   0.314   0.792   7.351 -0.1977  0.7385  0.5368
 1791SOL    HW117009   0.403   0.779   7.318 -0.7238  1.4557 -1.1624
 1791SOL    HW217010   0.269   0.718   7.309  3.9026 -1.4732  0.0136
 1792SOL     OW17011   4.471   1.882   0.568 -0.4424 -0.2467  0.2491
 1792SOL    HW117012   4.436   1.924   0.489  0.9206  1.4658  0.5639
 1792SOL    HW217013   4.478   1.957   0.628  1.5586 -0.9004  0.8110
 1793SOL     OW17014   0.907   0.357   3.353 -0.1349 -0.1829  0.2030
 1793SOL    HW117015   0.829   0.386   3.307  1.7237  1.0120 -2.1578
 1793SOL    HW217016   0.895   0.262   3.350 -0.5664 -0.1303  0.3035
 1794SOL     OW17017   3.675   2.414  14.488  0.0728  0.4271 -0.4330
 1794SOL    HW117018   3.751   2.433  14.544 -0.7235 -2.3304  1.6202
 1794SOL    HW217019   3.632   2.498  14.473 -0.9781 -0.1872 -0.8669
 1795SOL     OW17020   0.560   2.848   5.381 -0.3040  0.4003 -0.2205
 1795SOL    HW117021   0.557   2.829   5.287  0.5229 -1.8582  0.1912
 1795SOL    HW217022   0.641   2.798   5.396 -0.4832  0.5908  1.3762
 1796SOL     OW17023   3.677   4.108   8.437  0.1668  0.2647  0.6750
 1796SOL    HW117024   3.716   4.121   8.351  0.1311  0.4660  0.6882
 1796SOL    HW217025   3.726   4.180   8.477  1.5532  0.0836 -0.7096
 1797SOL     OW17026   0.404   4.600   5.603 -0.3202 -0.6455 -0.6149
 1797SOL    HW117027   0.390   4.532   5.536  4.5765 -1.7711 -0.4810
 1797SOL    HW217028   0.498   4.604   5.615 -0.8017  1.8170  2.3193
 1798SOL     OW17029   3.845   3.937  16.047  0.0025 -0.0457 -0.2778
 1798SOL    HW117030   3.778   4.002  16.070 -0.1590 -0.0941 -0.6074
 1798SOL    HW217031   3.788   3.859  16.051 -0.1830  0.0952 -0.1565
 1799SOL     OW17032   4.430   2.884   7.477  0.3693  0.2177 -0.4181
 1799SOL    HW117033   4.385   2.844   7.403  0.4849 -0.6083 -0.0403
 1799SOL    HW217034   4.485   2.814   7.511 -0.8808  0.5476  2.2309
 1800SOL     OW17035   0.937   1.705  17.251  0.0007 -0.2602 -0.2258
 1800SOL    HW117036   0.844   1.704  17.230  0.2645 -1.1062 -1.3645
 1800SOL    HW217037   0.933   1.716  17.346  1.9397 -0.4271 -0.1152
 1801SOL     OW17038   0.378   2.870   1.326  0.7506 -0.4918  0.5527
 1801SOL    HW117039   0.369   2.961   1.352 -0.5300 -0.4387 -0.0913
 1801SOL    HW217040   0.443   2.871   1.256  0.4193 -3.8671  0.1649
 1802SOL     OW17041   2.971   1.075   3.515  0.0951 -0.4646  0.0313
 1802SOL    HW117042   2.951   1.116   3.431  1.2761  0.5980  0.2798
 1802SOL    HW217043   3.043   1.132   3.538 -0.4743  0.7383 -1.1812
 1803SOL     OW17044   0.528   3.213   4.002  0.1062 -0.0973  0.4661
 1803SOL    HW117045   0.523   3.274   4.076 -1.0624  1.1839 -0.6660
 1803SOL    HW217046   0.555   3.266   3.927 -0.7587 -2.0844 -1.2445
 1804SOL     OW17047   1.311   2.368   0.434  0.0069  0.2539  0.2112
 1804SOL    HW117048   1.343   2.283   0.464 -1.9646  0.5422  3.1830
 1804SOL    HW217049   1.221   2.352   0.404 -0.1806  1.2681  0.2332
 1805SOL     OW17050   0.562   0.494   2.808 -0.1188  0.2265 -0.4241
 1805SOL    HW117051   0.655   0.491   2.829 -0.2409  1.2126  0.2818
 1805SOL    HW217052   0.529   0.405   2.803  1.4834 -0.4433  1.0982
 1806SOL     OW17053   0.109   4.233   9.262 -0.9596 -0.4723  0.4011
 1806SOL    HW117054   0.120   4.207   9.354  1.1924 -0.8664  0.0284
 1806SOL    HW217055   0.197   4.217   9.229 -0.5133 -1.2962  1.9585
 1807SOL     OW17056   3.418   4.198   2.044 -0.4551 -0.2519 -0.6063
 1807SOL    HW117057   3.435   4.292   2.030 -0.6168 -0.3803 -1.6432
 1807SOL    HW217058   3.334   4.187   2.000  0.4758 -2.0801 -1.8912
 1808SOL     OW17059   0.452   3.487  16.805 -0.3444  0.3456 -0.5080
 1808SOL    HW117060   0.366   3.528  16.806 -0.1776  0.6824 -0.0940
 1808SOL    HW217061   0.473   3.501  16.712 -2.0746  0.3856 -0.8976
 1809SOL     OW17062   2.304   2.707  13.716 -0.0696 -0.0884 -0.1316
 1809SOL    HW117063   2.234   2.676  13.659  0.4074  3.0707 -2.4959
 1809SOL    HW217064   2.330   2.628  13.763 -0.0335  0.1200  0.2001
 1810SOL     OW17065   1.049   2.269   5.458  0.2359  0.0967  0.4485
 1810SOL    HW117066   1.019   2.179   5.471  0.5025 -0.2266 -1.1313
 1810SOL    HW217067   0.976   2.325   5.483 -0.5239  1.2765 -4.3883
 1811SOL     OW17068   1.857   2.490   6.904 -0.2312  0.2216 -0.2039
 1811SOL    HW117069   1.872   2.575   6.862  0.7590  0.0552 -0.1816
 1811SOL    HW217070   1.798   2.505   6.978 -1.9703 -0.5520 -1.4269
 1812SOL     OW17071   2.273   0.190   7.444  0.0209 -0.5688  0.2298
 1812SOL    HW117072   2.352   0.146   7.474 -1.5828 -2.6531  1.3209
 1812SOL    HW217073   2.240   0.241   7.518  0.6229 -1.2963  0.9946
 1813SOL     OW17074   0.460   4.505  16.237  0.4042  0.8749  0.1939
 1813SOL    HW117075   0.425   4.565  16.170  2.4629  1.0607 -0.7266
 1813SOL    HW217076   0.411   4.540  16.312 -2.5482 -1.3101 -0.7287
 1814SOL     OW17077   0.686   4.593   5.863  0.3121 -0.6147  0.2109
 1814SOL    HW117078   0.622   4.527   5.837  1.6050 -1.1010 -1.8001
 1814SOL    HW217079   0.763   4.540   5.882  0.1607 -0.4719  1.2134
 1815SOL     OW17080   1.641   1.312   8.933  0.3829 -0.0497  0.2381
 1815SOL    HW117081   1.679   1.320   9.021 -0.5663  0.9811  0.5546
 1815SOL    HW217082   1.710   1.294   8.870 -0.4676  1.1022 -1.0058
 1816SOL     OW17083   0.563   0.769   5.833 -0.2442 -0.1524  0.3383
 1816SOL    HW117084   0.607   0.854   5.831 -0.6093  0.0208 -0.1310
 1816SOL    HW217085   0.630   0.708   5.864 -0.0495 -0.4605 -0.6881
 1817SOL     OW17086   3.337   1.866   5.882 -0.1072  0.1705 -0.1668
 1817SOL    HW117087   3.419   1.822   5.905  0.1763  1.1719  0.7593
 1817SOL    HW217088   3.364   1.916   5.805 -0.0171  2.3206  1.2233
 1818SOL     OW17089   4.487   1.625   5.831 -0.1767  0.1164 -0.2840
 1818SOL    HW117090   4.493   1.532   5.850 -1.5914 -0.3896 -2.2533
 1818SOL    HW217091   4.443   1.620   5.746 -3.4818 -0.8717  1.5285
 1819SOL     OW17092   0.784   4.031   4.480  0.2967  0.6095 -0.3952
 1819SOL    HW117093   0.789   4.064   4.390 -3.7450  1.9223 -0.1434
 1819SOL    HW217094   0.690   4.039   4.494  0.2014 -1.9216  0.3602
 1820SOL     OW17095   3.757   4.022  13.466 -0.0853  0.5263  0.3085
 1820SOL    HW117096   3.782   4.021  13.374 -3.1505 -3.6783 -0.4870
 1820SOL    HW217097   3.753   3.926  13.465 -0.3931  0.5143  2.7787
 1821SOL     OW17098   4.188   4.096  11.276  0.2455  0.1092 -0.1374
 1821SOL    HW117099   4.189   4.138  11.362 -1.2242 -1.3277  0.5675
 1821SOL    HW217100   4.100   4.062  11.260  0.5754 -1.0498  0.5149
 1822SOL     OW17101   1.254   4.341   5.178  0.0398 -0.2735  0.6522
 1822SOL    HW117102   1.189   4.368   5.244 -2.4313  0.7976 -2.2162
 1822SOL    HW217103   1.205   4.344   5.096  1.6962  0.4591 -0.2884
 1823SOL     OW17104   0.155   2.814   5.039  0.1195 -0.1660 -0.1165
 1823SOL    HW117105   0.239   2.857   5.022 -0.1658  0.2937 -0.3589
 1823SOL    HW217106   0.092   2.884   5.022 -1.4141 -1.8876 -1.5098
 1824SOL     OW17107   4.064   2.113   3.803  0.5757 -0.2098 -0.3878
 1824SOL    HW117108   4.051   2.075   3.890  0.2768 -1.0131 -0.7845
 1824SOL    HW217109   3.983   2.088   3.758  0.0376 -2.3652  1.7532
 1825SOL     OW17110   1.821   1.494   9.923  0.2056 -0.2756 -0.4617
 1825SOL    HW117111   1.750   1.467   9.980  1.1091 -0.8361  0.3974
 1825SOL    HW217112   1.796   1.584   9.900 -1.9728 -0.6149  0.6544
 1826SOL     OW17113   0.192   2.415   0.013  0.3440  0.4010 -0.3433
 1826SOL    HW117114   0.180   2.348  17.701 -3.0982  2.3380 -1.6820
 1826SOL    HW217115   0.201   2.358   0.089 -0.1708 -0.5913 -1.0377
 1827SOL     OW17116   0.994   1.952  12.115 -0.2959 -0.0466 -0.1705
 1827SOL    HW117117   0.990   2.008  12.037  0.2088  0.0233 -0.1411
 1827SOL    HW217118   0.982   1.865  12.077  0.0337 -0.5411  0.8779
 1828SOL     OW17119   2.517   3.748   3.338 -0.0105 -0.7040  0.2860
 1828SOL    HW117120   2.438   3.776   3.292 -0.9944  0.9860  2.9717
 1828SOL    HW217121   2.500   3.672   3.393 -0.6101 -0.0424  1.0209
 1829SOL     OW17122   0.531   0.218   2.101 -0.2594 -0.3081  0.0222
 1829SOL    HW117123   0.455   0.160   2.107 -2.2119  1.8785 -3.4187
 1829SOL    HW217124   0.503   0.291   2.156  1.5198  0.0941  0.4013
 1830SOL     OW17125   2.844   0.503   3.851 -0.4875  0.6425  0.4338
 1830SOL    HW117126   2.836   0.559   3.773  0.2550 -1.0360 -0.8314
 1830SOL    HW217127   2.761   0.456   3.844 -0.0310 -0.2575  1.2290
 1831SOL     OW17128   4.087   4.325  16.749  0.1683 -0.7789 -0.8261
 1831SOL    HW117129   4.028   4.349  16.677 -1.6941 -0.8117  0.6958
 1831SOL    HW217130   4.047   4.372  16.822 -1.0745  1.3545 -2.8787
 1832SOL     OW17131   1.250   3.609   7.259 -0.8032  0.7013 -0.1243
 1832SOL    HW117132   1.165   3.564   7.262  0.1006 -0.9210  1.2567
 1832SOL    HW217133   1.218   3.698   7.272  0.1890  1.2663 -1.5154
 1833SOL     OW17134   3.303   3.747   5.194 -0.3469  0.3320  0.0839
 1833SOL    HW117135   3.390   3.725   5.226 -0.9663 -2.6352 -0.2466
 1833SOL    HW217136   3.325   3.767   5.103  0.8252  2.2592  0.7988
 1834SOL     OW17137   0.334   4.729   3.258 -0.1823 -0.1141  0.7579
 1834SOL    HW117138   0.255   4.679   3.236 -1.0337  1.1750  0.8535
 1834SOL    HW217139   0.346   4.687   3.343 -2.5202 -1.7140  0.3072
 1835SOL     OW17140   3.182   2.990  11.614  0.2893  0.2006 -0.4325
 1835SOL    HW117141   3.260   2.944  11.586  1.9952  1.8118  1.7019
 1835SOL    HW217142   3.179   3.062  11.551  1.4940 -0.7119 -1.5330
 1836SOL     OW17143   2.200   2.033   0.152  0.1824 -0.5473 -0.0663
 1836SOL    HW117144   2.156   2.116   0.135 -1.1458 -1.1501  0.3936
 1836SOL    HW217145   2.244   2.045   0.237 -0.6763  1.3745  0.1137
 1837SOL     OW17146   1.108   0.450   3.051  0.6025  0.1903 -0.7223
 1837SOL    HW117147   1.068   0.377   3.004 -2.1183  0.3796  1.3473
 1837SOL    HW217148   1.200   0.424   3.044  0.9716  0.9536  1.4453
 1838SOL     OW17149   4.329   3.403   4.807 -0.3897 -0.5780 -0.2880
 1838SOL    HW117150   4.326   3.424   4.713  2.2263  1.5313  0.1328
 1838SOL    HW217151   4.383   3.476   4.835 -1.5794 -0.2803  1.2345
 1839SOL     OW17152   3.936   0.473  16.435 -0.1799 -0.4060 -0.1218
 1839SOL    HW117153   3.993   0.409  16.476  1.6998  1.0606 -0.4417
 1839SOL    HW217154   4.002   0.507  16.375 -0.2908 -0.6955 -0.4055
 1840SOL     OW17155   1.142   1.786   7.930 -0.3193  0.3789 -0.7176
 1840SOL    HW117156   1.236   1.787   7.913 -0.2095 -2.2875 -0.3219
 1840SOL    HW217157   1.124   1.798   8.023  1.4530  0.1809 -0.3622
 1841SOL     OW17158   2.480   1.455   7.161  0.3220 -0.0505  0.7585
 1841SOL    HW117159   2.553   1.437   7.103  1.5013  0.5311  2.0728
 1841SOL    HW217160   2.492   1.547   7.186 -2.4242  0.7853 -0.9590
 1842SOL     OW17161   0.635   2.270  10.485 -0.3052 -0.4249 -0.6715
 1842SOL    HW117162   0.714   2.216  10.483 -0.5359 -0.7506 -0.9617
 1842SOL    HW217163   0.614   2.272  10.392 -0.6470  1.4048 -0.5452
 1843SOL     OW17164   0.838   3.702   4.695  0.1221 -0.1014 -0.0962
 1843SOL    HW117165   0.752   3.670   4.723  0.0932  1.0248  1.1059
 1843SOL    HW217166   0.891   3.685   4.772 -0.4193 -0.5449  0.1806
 1844SOL     OW17167   4.678   3.492   4.107 -0.2638  0.3767  0.1616
 1844SOL    HW117168   4.716   3.410   4.139  0.7897  0.2721 -1.3344
 1844SOL    HW217169   4.690   3.471   4.015  3.6538 -1.8509  1.1630
 1845SOL     OW17170   0.029   3.214   7.002 -0.3299  0.2591  0.6283
 1845SOL    HW117171   0.099   3.207   7.066  0.5306  0.6828 -0.2544
 1845SOL    HW217172   4.701   3.176   7.058 -1.4913  1.0650 -0.2316
 1846SOL     OW17173   0.060   0.804   8.338  0.2931  0.2617 -0.4115
 1846SOL    HW117174   0.066   0.712   8.363 -2.3158  0.2363  0.1394
 1846SOL    HW217175   0.017   0.806   8.253  0.8372  1.0172 -0.6662
 1847SOL     OW17176   3.196   4.543   2.742  0.4379 -0.3671  0.1103
 1847SOL    HW117177   3.156   4.458   2.758  0.0488  0.1838  2.0765
 1847SOL    HW217178   3.284   4.510   2.724  0.1776 -2.5721  2.8688
 1848SOL     OW17179   1.667   3.135   2.826 -0.0228  0.2054 -0.7230
 1848SOL    HW117180   1.715   3.066   2.780  1.0032  0.9995 -0.8388
 1848SOL    HW217181   1.621   3.175   2.753 -0.1125  0.1709 -0.6858
 1849SOL     OW17182   2.634   3.442   7.670  0.4570  0.4489  0.5113
 1849SOL    HW117183   2.593   3.381   7.608  0.6241  1.1948 -0.3405
 1849SOL    HW217184   2.591   3.522   7.639 -1.3438 -1.3835 -1.7331
 1850SOL     OW17185   4.688   1.969   1.879  0.1092 -0.1693  0.3376
 1850SOL    HW117186   4.641   2.051   1.897  2.6803  2.1696 -3.5032
 1850SOL    HW217187   4.717   1.982   1.788  0.6137  1.2631  0.7027
 1851SOL     OW17188   4.628   3.745   6.969 -0.2187  0.0958 -0.0007
 1851SOL    HW117189   4.628   3.657   6.931  1.6165  0.3047 -0.4499
 1851SOL    HW217190   4.704   3.742   7.027 -0.0854  1.1349 -0.1338
 1852SOL     OW17191   4.728   2.944  17.647  0.3512 -0.2736 -0.0732
 1852SOL    HW117192   0.021   2.980  17.730  1.4035  0.6878 -0.9007
 1852SOL    HW217193   4.669   2.872  17.667 -0.3608 -0.1911 -1.9012
 1853SOL     OW17194   4.453   0.677   7.839 -0.4827 -0.2038  0.0104
 1853SOL    HW117195   4.441   0.691   7.746  0.9189  1.6725  0.1119
 1853SOL    HW217196   4.433   0.768   7.861 -2.4633 -1.3002  2.9453
 1854SOL     OW17197   2.726   1.857  14.494  0.1696  0.2036  0.1317
 1854SOL    HW117198   2.800   1.840  14.552 -1.4387  3.1352  3.0005
 1854SOL    HW217199   2.656   1.819  14.548  0.8416 -0.9525  0.1965
 1855SOL     OW17200   1.313   1.466   7.916 -0.2962 -0.2438 -0.5417
 1855SOL    HW117201   1.310   1.465   8.012 -0.6907 -1.5817 -0.5719
 1855SOL    HW217202   1.344   1.556   7.904 -2.4643  0.7761  1.5639
 1856SOL     OW17203   0.951   4.383   2.341 -0.6266 -0.4871 -0.0055
 1856SOL    HW117204   0.876   4.415   2.290 -0.4521 -0.3849 -0.2020
 1856SOL    HW217205   1.018   4.397   2.273 -0.8044  0.9527  0.0978
 1857SOL     OW17206   3.813   1.424   5.742  0.7238 -0.6501  0.7075
 1857SOL    HW117207   3.844   1.446   5.831 -0.1469  0.6594  0.6899
 1857SOL    HW217208   3.885   1.375   5.701  1.7062  0.6184  0.8965
 1858SOL     OW17209   2.024   3.475   6.827  0.2083  0.7379 -0.5952
 1858SOL    HW117210   1.973   3.528   6.888 -0.3882 -0.6820  0.1552
 1858SOL    HW217211   2.020   3.517   6.741  0.6118  2.4348  0.2151
 1859SOL     OW17212   3.853   3.620  14.454 -0.2546 -0.4801 -0.4064
 1859SOL    HW117213   3.766   3.640  14.488  0.0768 -0.6218  0.5240
 1859SOL    HW217214   3.861   3.667  14.370  2.2146 -0.2744 -0.0508
 1860SOL     OW17215   2.651   0.212   2.370 -0.3889  0.1165 -0.1578
 1860SOL    HW117216   2.610   0.226   2.285 -0.4811  2.0648  0.2077
 1860SOL    HW217217   2.577   0.192   2.428 -0.7501 -1.2499 -1.0866
 1861SOL     OW17218   3.236   2.321   6.577  0.1934  0.3062 -0.0793
 1861SOL    HW117219   3.247   2.265   6.654  1.3837 -1.8041 -1.7746
 1861SOL    HW217220   3.142   2.314   6.561  0.2907 -2.1259  0.3233
 1862SOL     OW17221   1.834   3.407  11.618 -0.0358  0.4023  0.9686
 1862SOL    HW117222   1.898   3.345  11.653  0.8021  0.4060 -0.5524
 1862SOL    HW217223   1.773   3.429  11.688 -3.1772  0.9732 -1.9259
 1863SOL     OW17224   4.011   4.409   4.144  0.0017  0.1861 -0.0348
 1863SOL    HW117225   4.097   4.452   4.134  0.9507 -1.9027 -0.8669
 1863SOL    HW217226   3.941   4.472   4.128  0.9873  0.4331 -3.4989
 1864SOL     OW17227   0.578   1.208   4.376 -0.9545  0.2158 -0.2292
 1864SOL    HW117228   0.619   1.126   4.405  0.3223  0.9937  0.1356
 1864SOL    HW217229   0.641   1.272   4.407 -0.1106 -1.2548  1.1221
 1865SOL     OW17230   1.447   4.487   6.880 -0.4837 -0.1572 -0.1702
 1865SOL    HW117231   1.378   4.515   6.940 -1.9819  1.7148 -2.8086
 1865SOL    HW217232   1.514   4.548   6.912  0.0772 -0.4182 -0.8552
 1866SOL     OW17233   2.813   2.985   2.458  0.1506 -0.0071 -0.6719
 1866SOL    HW117234   2.779   3.020   2.541  0.4268  1.7757 -1.3088
 1866SOL    HW217235   2.900   2.958   2.487 -0.3328  0.7673  1.4906
 1867SOL     OW17236   2.265   0.484   3.108 -0.3270  0.6179 -0.5598
 1867SOL    HW117237   2.221   0.399   3.112 -0.1587  0.5324 -0.5056
 1867SOL    HW217238   2.354   0.469   3.140 -0.8113 -1.5469 -0.2197
 1868SOL     OW17239   2.161   4.523   4.551  0.2180  0.4046 -0.4025
 1868SOL    HW117240   2.149   4.512   4.645 -2.8237  1.7257 -0.6386
 1868SOL    HW217241   2.112   4.605   4.545  0.0877  0.2034 -2.3311
 1869SOL     OW17242   0.441   3.111   3.556  0.0293  0.0763 -0.1849
 1869SOL    HW117243   0.448   3.203   3.584  1.0030  0.2134 -0.8963
 1869SOL    HW217244   0.369   3.112   3.493  0.5222  1.9374 -0.7323
 1870SOL     OW17245   0.250   1.244   6.170  0.2931 -0.0260 -0.2944
 1870SOL    HW117246   0.220   1.305   6.103  0.5434  0.4903  0.0623
 1870SOL    HW217247   0.331   1.218   6.126  0.4755  0.6181 -0.3288
 1871SOL     OW17248   3.560   3.515  17.414  0.1512 -0.5452 -0.1810
 1871SOL    HW117249   3.545   3.509  17.320 -0.6686  0.0354 -0.0904
 1871SOL    HW217250   3.528   3.429  17.443 -0.9118  0.4573  1.6163
 1872SOL     OW17251   0.821   1.186   2.550  0.2150 -0.0781 -0.1400
 1872SOL    HW117252   0.760   1.133   2.499  0.7215  0.0832 -0.9111
 1872SOL    HW217253   0.893   1.182   2.487  0.3853 -1.3024  0.1220
 1873SOL     OW17254   3.218   2.707   2.561  0.0979 -0.6382 -0.3856
 1873SOL    HW117255   3.218   2.730   2.654 -1.1974  0.8896 -0.7552
 1873SOL    HW217256   3.276   2.637   2.533  1.5156  0.0397  0.8728
 1874SOL     OW17257   1.027   0.277   3.792  0.1221 -0.5468  0.2626
 1874SOL    HW117258   0.973   0.354   3.775 -0.7739 -1.0972  0.5885
 1874SOL    HW217259   1.023   0.232   3.708  0.6141 -0.9898  0.4784
 1875SOL     OW17260   0.753   1.814   5.950 -0.3013  0.0065 -0.1725
 1875SOL    HW117261   0.782   1.735   5.905 -1.7651 -0.5778 -0.1007
 1875SOL    HW217262   0.665   1.786   5.976  0.4662 -1.7558  0.5477
 1876SOL     OW17263   2.720   3.750  17.210  0.0235  0.3496  0.6926
 1876SOL    HW117264   2.699   3.728  17.119 -0.9037  2.3662  0.4210
 1876SOL    HW217265   2.652   3.705  17.258  0.1162 -0.3082  0.2080
 1877SOL     OW17266   3.480   1.328   9.414  0.2204 -0.4897 -0.5952
 1877SOL    HW117267   3.424   1.263   9.372  1.0219 -1.8757  0.4684
 1877SOL    HW217268   3.566   1.287   9.423 -0.6732 -2.2688 -0.2216
 1878SOL     OW17269   0.012   0.095  15.005  0.2599 -0.0032 -0.4496
 1878SOL    HW117270   0.020   0.189  15.020 -0.8458 -0.3469  2.2526
 1878SOL    HW217271   4.703   0.062  15.080 -0.1153 -0.1001 -0.7343
 1879SOL     OW17272   2.082   3.006   1.068 -0.0810 -0.5774 -0.0151
 1879SOL    HW117273   2.022   3.079   1.052 -0.2879 -0.5394  0.9275
 1879SOL    HW217274   2.051   2.936   1.011  2.8098 -3.0052  1.4420
 1880SOL     OW17275   4.443   4.571   2.885 -0.0514 -0.4450 -0.5924
 1880SOL    HW117276   4.471   4.611   2.802 -1.2160  0.4187 -0.5583
 1880SOL    HW217277   4.474   4.630   2.954 -0.2809 -2.0254  0.8591
 1881SOL     OW17278   2.950   4.151   8.484  0.0901  0.8319 -0.2188
 1881SOL    HW117279   2.976   4.083   8.546 -2.6546 -1.7929 -1.9475
 1881SOL    HW217280   2.913   4.097   8.415 -1.0543  1.4590 -0.1051
 1882SOL     OW17281   0.814   1.668  16.689 -0.6921 -0.0468 -0.2552
 1882SOL    HW117282   0.755   1.739  16.713  0.0394  0.1733  0.8938
 1882SOL    HW217283   0.895   1.719  16.691 -1.0600  0.5642 -0.8731
 1883SOL     OW17284   1.629   0.566   2.323 -0.1173 -0.0358 -0.3657
 1883SOL    HW117285   1.711   0.566   2.274 -0.5493  0.6179 -1.0810
 1883SOL    HW217286   1.614   0.657   2.348 -1.7522 -0.5709  0.6104
 1884SOL     OW17287   4.657   1.788   2.249  0.4529  0.6843  0.0523
 1884SOL    HW117288   4.616   1.840   2.318 -0.9214 -1.6470  1.0064
 1884SOL    HW217289   4.571   1.764   2.214 -0.4757 -0.5826  3.1685
 1885SOL     OW17290   0.388   3.296   7.892  0.4638 -0.3333 -0.0954
 1885SOL    HW117291   0.434   3.263   7.815  0.3029 -0.9577  0.0751
 1885SOL    HW217292   0.358   3.219   7.940  0.4609  0.6705  1.5140
 1886SOL     OW17293   3.601   3.113   6.734 -0.0791 -0.1428 -0.6886
 1886SOL    HW117294   3.618   3.109   6.828  1.1193 -2.0230 -0.9919
 1886SOL    HW217295   3.663   3.177   6.697 -0.8095  1.1475  0.3256
 1887SOL     OW17296   0.493   0.784  14.419 -0.2706 -0.0978 -0.2820
 1887SOL    HW117297   0.425   0.741  14.367 -1.4115  1.8207 -0.3910
 1887SOL    HW217298   0.563   0.721  14.437 -0.4255  0.6377  2.9941
 1888SOL     OW17299   1.269   1.467   8.720  0.1299  0.2477  0.6153
 1888SOL    HW117300   1.259   1.534   8.787  2.2924  2.2060 -1.0467
 1888SOL    HW217301   1.182   1.427   8.727  0.5652 -0.5858  1.3712
 1889SOL     OW17302   0.861   4.409   5.601 -0.1838  0.3972 -0.1210
 1889SOL    HW117303   0.847   4.472   5.529 -1.5688  1.1969  0.8396
 1889SOL    HW217304   0.811   4.340   5.558 -2.3626  1.1345  1.2440
 1890SOL     OW17305   2.650   0.593   5.262  0.6256 -0.0402 -0.4671
 1890SOL    HW117306   2.694   0.548   5.190  1.3247  3.1797 -2.0770
 1890SOL    HW217307   2.614   0.521   5.313 -0.5133 -0.1455 -1.4095
 1891SOL     OW17308   4.658   1.906   4.112 -0.0504 -0.1718 -0.0982
 1891SOL    HW117309   4.724   1.951   4.058  0.2067 -1.1806 -0.6252
 1891SOL    HW217310   4.608   1.860   4.045 -2.5302  1.5407  0.6157
 1892SOL     OW17311   1.824   2.084   0.165 -0.6375 -0.0717  0.2014
 1892SOL    HW117312   1.736   2.115   0.186 -0.5394  0.7726 -0.6378
 1892SOL    HW217313   1.838   2.028   0.242  1.8756  0.9220  0.4638
 1893SOL     OW17314   4.479   3.267   4.976  0.2542 -0.3441 -0.1365
 1893SOL    HW117315   4.428   3.299   4.901  0.8581  0.6295 -0.1294
 1893SOL    HW217316   4.418   3.207   5.019  1.4719 -1.3943  0.1533
 1894SOL     OW17317   3.613   2.408   3.777  0.1560 -0.2350  0.0369
 1894SOL    HW117318   3.611   2.501   3.756  1.2303 -0.4523 -1.0420
 1894SOL    HW217319   3.567   2.362   3.707 -0.3106  0.9553 -0.4380
 1895SOL     OW17320   1.026   2.130   2.188  0.1791  0.4765 -0.1060
 1895SOL    HW117321   1.001   2.039   2.204  1.3918 -0.1561 -1.8301
 1895SOL    HW217322   1.044   2.150   2.279  2.1628 -1.3891 -0.0938
 1896SOL     OW17323   0.614   2.769   2.274  0.6489  0.1674 -0.0902
 1896SOL    HW117324   0.633   2.704   2.207  1.5380 -0.5310  0.8337
 1896SOL    HW217325   0.530   2.740   2.309  1.2079  1.5143  2.3645
 1897SOL     OW17326   3.484   0.860   7.426  0.0287  0.5876  0.4797
 1897SOL    HW117327   3.454   0.883   7.338  2.0362  0.7275 -0.1673
 1897SOL    HW217328   3.428   0.928   7.463  0.0737  0.0683  1.5121
 1898SOL     OW17329   2.054   2.149   3.262 -0.1414 -0.6475  0.1975
 1898SOL    HW117330   2.095   2.137   3.348  3.5369 -3.2178 -1.9363
 1898SOL    HW217331   2.082   2.239   3.242  0.4939 -1.1340 -1.0869
 1899SOL     OW17332   2.010   4.668   8.515 -0.3429 -0.2571 -0.3411
 1899SOL    HW117333   1.974   4.579   8.521 -1.2681  0.1102 -0.3454
 1899SOL    HW217334   2.044   4.678   8.426  2.7992  2.2696  1.1852
 1900SOL     OW17335   1.596   2.450  15.224  0.3116 -0.4515 -0.1714
 1900SOL    HW117336   1.535   2.377  15.214 -2.8966  1.7938  2.7952
 1900SOL    HW217337   1.571   2.518  15.161 -1.4311  0.6962  1.7170
 1901SOL     OW17338   0.146   0.905   6.930  0.2042  0.2039 -0.2656
 1901SOL    HW117339   0.196   0.842   6.878  0.6103 -0.7098  1.1934
 1901SOL    HW217340   0.057   0.870   6.937  0.2745 -0.1441 -1.1965
 1902SOL     OW17341   0.921   2.860   5.106 -0.1041 -0.4023 -0.0001
 1902SOL    HW117342   0.940   2.830   5.017 -1.1420 -2.6348  0.5473
 1902SOL    HW217343   0.828   2.837   5.105 -0.8734  2.8066 -3.3398
 1903SOL     OW17344   0.402   4.345   8.696  0.4582  0.0133  0.5838
 1903SOL    HW117345   0.432   4.353   8.786 -0.8351 -0.6746  1.0819
 1903SOL    HW217346   0.327   4.286   8.707  0.3590  0.1591  0.6975
 1904SOL     OW17347   1.043   0.832   1.988  0.0744 -0.6182  0.8169
 1904SOL    HW117348   1.040   0.797   1.899 -1.2523  3.8046 -0.8770
 1904SOL    HW217349   0.950   0.855   1.990  0.0675 -0.8298  2.7349
 1905SOL     OW17350   1.992   1.978  14.808 -0.3067  0.4044  0.2741
 1905SOL    HW117351   2.000   1.915  14.737  1.6243  1.5690 -0.5602
 1905SOL    HW217352   1.904   1.964  14.842 -0.5733 -0.8917 -0.9846
 1906SOL     OW17353   0.572   4.319  16.669  0.2134 -0.0769 -0.2260
 1906SOL    HW117354   0.483   4.338  16.698  0.4725  2.2815 -0.9362
 1906SOL    HW217355   0.599   4.389  16.610 -3.1113  0.9621 -0.4909
 1907SOL     OW17356   0.881   2.809   7.796 -0.7748 -0.8279  0.3510
 1907SOL    HW117357   0.972   2.838   7.788 -1.5648  1.2984 -0.7668
 1907SOL    HW217358   0.855   2.797   7.705  1.7282 -3.3415 -0.0495
 1908SOL     OW17359   2.738   3.587   9.869 -0.5402 -0.4188 -0.2544
 1908SOL    HW117360   2.685   3.551   9.941 -0.6936 -0.3708 -0.3427
 1908SOL    HW217361   2.669   3.599   9.804  0.4346  0.8180 -1.0652
 1909SOL     OW17362   3.790   2.665  12.129  0.1564 -0.0673  0.1496
 1909SOL    HW117363   3.817   2.717  12.205 -1.8793  0.6914  0.3672
 1909SOL    HW217364   3.780   2.735  12.063 -3.1545 -1.4692 -0.8220
 1910SOL     OW17365   3.598   2.432  13.119 -0.0529 -0.1086 -0.3092
 1910SOL    HW117366   3.588   2.450  13.025 -0.0259 -0.1688 -0.3233
 1910SOL    HW217367   3.520   2.478  13.151  0.5167  0.2950  0.4980
 1911SOL     OW17368   2.678   4.093  16.092 -0.2760  0.7140 -0.2457
 1911SOL    HW117369   2.590   4.111  16.126 -0.7484 -0.0368 -1.0696
 1911SOL    HW217370   2.715   4.180  16.111  1.5037 -0.5437  1.9651
 1912SOL     OW17371   3.512   2.025   2.089 -0.6350 -0.0909 -0.3080
 1912SOL    HW117372   3.449   2.008   2.019 -1.1368 -0.3498  0.2060
 1912SOL    HW217373   3.549   2.106   2.055  0.5964 -1.0830 -1.3337
 1913SOL     OW17374   2.513   1.637   1.628  0.1959  0.7913  0.0486
 1913SOL    HW117375   2.570   1.610   1.555 -1.4448 -1.1391 -0.5208
 1913SOL    HW217376   2.544   1.572   1.692 -1.3479  0.0309  0.0200
 1914SOL     OW17377   1.665   3.257  14.713  0.5300 -0.5516 -0.4913
 1914SOL    HW117378   1.595   3.204  14.751  1.8576 -0.0626  2.6510
 1914SOL    HW217379   1.745   3.205  14.713 -0.1575 -1.6174 -0.2873
 1915SOL     OW17380   2.380   2.713   4.684 -0.3538  0.1250  0.3725
 1915SOL    HW117381   2.415   2.784   4.738  0.3933 -0.2401  0.3712
 1915SOL    HW217382   2.312   2.755   4.631 -0.4750  0.0587  0.4747
 1916SOL     OW17383   2.769   3.702   1.601  0.0748  0.5930 -0.3317
 1916SOL    HW117384   2.796   3.615   1.631 -1.0371  0.9244  1.6016
 1916SOL    HW217385   2.703   3.671   1.539  0.5652 -1.7650  0.3130
 1917SOL     OW17386   3.194   4.730   6.076  0.6069  0.4175  0.1212
 1917SOL    HW117387   3.197   4.708   6.169  0.6259 -0.8079 -0.1657
 1917SOL    HW217388   3.287   4.713   6.060 -0.0200 -0.6608 -2.3525
 1918SOL     OW17389   1.664   2.570   3.872 -0.0959  0.2107  0.2718
 1918SOL    HW117390   1.677   2.482   3.909 -0.0759 -0.1108 -0.5106
 1918SOL    HW217391   1.741   2.575   3.815 -0.9880 -0.5102 -1.0032
 1919SOL     OW17392   2.068   2.794  15.937  0.2451 -0.2151  0.6932
 1919SOL    HW117393   2.062   2.735  15.862 -0.7178  0.8949 -0.1027
 1919SOL    HW217394   2.159   2.824  15.942  0.1334  0.3021 -0.3972
 1920SOL     OW17395   1.612   1.256   6.077 -0.0077  0.1397  0.3321
 1920SOL    HW117396   1.638   1.209   5.998 -0.7080  1.6820 -0.8131
 1920SOL    HW217397   1.539   1.206   6.112  1.2946 -1.4944  0.7218
 1921SOL     OW17398   4.107   1.287   3.065 -0.2902  0.2809 -0.0275
 1921SOL    HW117399   4.146   1.361   3.019  3.6668 -1.1920  0.9470
 1921SOL    HW217400   4.052   1.327   3.132 -1.3135  0.3020 -0.8765
 1922SOL     OW17401   1.945   0.951   5.354 -0.0204  0.0455  0.4660
 1922SOL    HW117402   1.889   0.878   5.381 -0.2879 -0.2424 -0.8916
 1922SOL    HW217403   2.034   0.919   5.373  0.5239  0.5876 -1.2146
 1923SOL     OW17404   0.806   3.500  13.666 -0.4580 -0.3759  0.4360
 1923SOL    HW117405   0.761   3.511  13.582  1.7247 -3.7970 -1.1700
 1923SOL    HW217406   0.763   3.567  13.720 -1.9384 -0.6729 -0.3749
 1924SOL     OW17407   2.730   3.378   2.029 -0.3316 -0.6117  0.5407
 1924SOL    HW117408   2.771   3.344   2.108  0.9653 -1.3188 -0.4400
 1924SOL    HW217409   2.801   3.345   1.975 -0.0609  1.2719 -0.2461
 1925SOL     OW17410   4.688   1.717   3.020  0.1868  0.7046  0.0899
 1925SOL    HW117411   0.024   1.718   2.960  2.4273  2.2405  2.9215
 1925SOL    HW217412   4.692   1.633   3.065 -0.4352  0.5796 -0.1014
 1926SOL     OW17413   4.072   0.232  11.930 -0.3416 -0.2750 -0.6574
 1926SOL    HW117414   4.065   0.273  11.844  2.3670 -2.1342 -1.7743
 1926SOL    HW217415   4.100   0.297  11.995  1.0258 -0.7352 -0.7923
 1927SOL     OW17416   1.386   3.802  16.294  0.5299 -0.3360  0.7168
 1927SOL    HW117417   1.413   3.728  16.239  0.9368 -0.0275  0.5061
 1927SOL    HW217418   1.458   3.858  16.267  0.8255  1.2118  4.7243
 1928SOL     OW17419   3.728   1.537   6.149 -0.7108 -0.1308  0.5817
 1928SOL    HW117420   3.714   1.487   6.068 -1.2412  1.8383 -0.5394
 1928SOL    HW217421   3.740   1.476   6.221  2.4354  1.3250  1.2473
 1929SOL     OW17422   3.826   1.369   4.826 -0.0938  0.4305  0.1732
 1929SOL    HW117423   3.884   1.351   4.752 -1.0605  2.2604 -1.0432
 1929SOL    HW217424   3.877   1.396   4.902 -0.8940  0.1349  0.8256
 1930SOL     OW17425   3.883   2.997   3.951  0.3137 -0.5182 -0.0530
 1930SOL    HW117426   3.856   3.064   3.888 -0.3037  0.0943  0.8655
 1930SOL    HW217427   3.829   3.022   4.026 -0.5528 -0.6210 -0.6364
 1931SOL     OW17428   4.457   0.994  10.390  0.3916 -0.1040  0.1408
 1931SOL    HW117429   4.522   0.924  10.403  0.4779  0.1948  1.2802
 1931SOL    HW217430   4.462   1.033  10.477  0.7165  0.5575 -0.1790
 1932SOL     OW17431   4.624   4.418   7.861 -0.1108 -0.2933 -0.7108
 1932SOL    HW117432   4.607   4.348   7.798 -0.5699 -0.4601 -0.3955
 1932SOL    HW217433   4.564   4.483   7.825 -1.2159 -2.1004 -2.1435
 1933SOL     OW17434   0.500   0.590   4.288  0.7077  0.0802  0.0056
 1933SOL    HW117435   0.560   0.644   4.237  0.0394  2.2243  1.4992
 1933SOL    HW217436   0.421   0.644   4.293  0.6032 -0.0008 -0.8134
 1934SOL     OW17437   0.803   0.533   7.113 -0.2519  0.1978 -0.0001
 1934SOL    HW117438   0.882   0.489   7.082 -0.2989  0.9311 -1.1341
 1934SOL    HW217439   0.790   0.499   7.202  1.9083 -1.4053 -0.3130
 1935SOL     OW17440   2.212   0.046   4.231  0.4050 -0.0005  0.4958
 1935SOL    HW117441   2.210   4.690   4.219  1.8364 -0.0889  0.9241
 1935SOL    HW217442   2.120   0.070   4.240  0.4979  0.0750  1.2505
 1936SOL     OW17443   4.538   0.688   5.266 -0.0882 -0.0003 -0.2812
 1936SOL    HW117444   4.489   0.607   5.277 -0.0943  0.2711  1.6353
 1936SOL    HW217445   4.629   0.668   5.287  0.1179 -0.6335 -1.7610
 1937SOL     OW17446   1.771   1.914   4.435  0.4945  0.4349  0.3446
 1937SOL    HW117447   1.763   1.819   4.445 -2.0888  0.5229 -0.8867
 1937SOL    HW217448   1.856   1.900   4.393 -0.6395  1.6224 -2.3431
 1938SOL     OW17449   0.785   3.193   5.896 -0.1037  0.0687 -0.6058
 1938SOL    HW117450   0.714   3.256   5.898  0.9899  1.2880 -0.3571
 1938SOL    HW217451   0.796   3.176   5.803 -2.1894 -0.4172 -0.7556
 1939SOL     OW17452   2.895   2.957   6.454 -0.0230  0.6144  0.4423
 1939SOL    HW117453   2.962   2.921   6.396 -0.6019 -1.0464  0.8148
 1939SOL    HW217454   2.911   2.908   6.534  0.3530 -0.2006 -0.1343
 1940SOL     OW17455   4.340   2.210   9.467  0.0449 -0.3906  0.1479
 1940SOL    HW117456   4.394   2.195   9.546  2.0225  3.6888 -0.4279
 1940SOL    HW217457   4.302   2.295   9.488  1.2247  0.0977  0.3545
 1941SOL     OW17458   0.795   3.146   5.105  0.1292 -0.4172 -0.5891
 1941SOL    HW117459   0.723   3.166   5.045  0.0215 -0.3821 -0.4481
 1941SOL    HW217460   0.835   3.062   5.081  1.1602 -0.7177  2.1205
 1942SOL     OW17461   3.353   0.607   5.847 -0.8784 -0.0293  0.0403
 1942SOL    HW117462   3.374   0.649   5.931 -1.7033  2.2112 -0.8799
 1942SOL    HW217463   3.323   0.679   5.792  0.3984  0.5136  0.0701
 1943SOL     OW17464   1.345   2.851   5.237 -0.0902  0.1682 -0.4440
 1943SOL    HW117465   1.411   2.782   5.248 -1.6095 -1.3419 -0.7619
 1943SOL    HW217466   1.284   2.799   5.185 -0.6078  1.9172 -1.6040
 1944SOL     OW17467   0.502   0.303   7.368 -0.1573  1.3903 -0.4219
 1944SOL    HW117468   0.515   0.209   7.377  0.9457  1.6037  0.1286
 1944SOL    HW217469   0.437   0.318   7.437 -0.2833 -0.6238 -0.0931
 1945SOL     OW17470   2.194   2.774   2.535  0.3272  0.3663  0.4763
 1945SOL    HW117471   2.170   2.866   2.523  1.9556  0.8891  1.1776
 1945SOL    HW217472   2.273   2.773   2.481  0.2456  0.8903  0.3430
 1946SOL     OW17473   2.215   2.017   6.689  0.3129  0.4543  0.6529
 1946SOL    HW117474   2.278   2.056   6.628 -0.0854 -0.0273 -0.0674
 1946SOL    HW217475   2.278   1.961   6.733  2.0932  1.7587 -0.2399
 1947SOL     OW17476   2.915   3.049  15.467 -0.1350 -0.0401  0.2224
 1947SOL    HW117477   2.965   3.131  15.463 -0.1944 -0.0657 -0.9928
 1947SOL    HW217478   2.964   2.999  15.401 -1.2077 -0.4699 -0.2333
 1948SOL     OW17479   3.451   2.532   1.379 -0.0571  0.6482 -0.8797
 1948SOL    HW117480   3.433   2.500   1.467 -0.6917  0.4274 -1.0895
 1948SOL    HW217481   3.490   2.616   1.403  0.3731 -0.5983  2.8660
 1949SOL     OW17482   2.364   2.019   3.327 -0.3208  0.1667  0.5758
 1949SOL    HW117483   2.397   2.093   3.277 -0.8059 -0.0835 -0.1271
 1949SOL    HW217484   2.439   1.973   3.364 -0.5960 -0.1477  0.7456
 1950SOL     OW17485   0.396   2.828   1.984 -0.1880 -0.6724  0.7194
 1950SOL    HW117486   0.319   2.873   2.019  1.6344  1.7540  1.6405
 1950SOL    HW217487   0.399   2.748   2.036 -1.2605 -2.3480 -1.7816
 1951SOL     OW17488   0.264   2.595  12.086  0.5009 -0.3497  0.7127
 1951SOL    HW117489   0.352   2.590  12.124  0.8810 -2.4684 -0.4195
 1951SOL    HW217490   0.223   2.663  12.139  0.9594 -0.7969  1.6553
 1952SOL     OW17491   3.246   3.896   8.359  0.8042  0.1175  0.2784
 1952SOL    HW117492   3.210   3.985   8.351 -2.4363 -1.1446  0.8732
 1952SOL    HW217493   3.176   3.835   8.382 -0.0061  0.5949 -0.8985
 1953SOL     OW17494   0.534   1.084   2.119 -0.0310  0.5305  0.0076
 1953SOL    HW117495   0.610   1.141   2.120  1.5977 -1.6410  0.8063
 1953SOL    HW217496   0.490   1.104   2.202 -0.7587  2.3554 -0.8366
 1954SOL     OW17497   0.759   4.417   4.613 -0.2162 -0.2748 -0.1142
 1954SOL    HW117498   0.822   4.346   4.605 -0.7494 -0.3918 -2.9319
 1954SOL    HW217499   0.745   4.433   4.520 -0.9654 -0.0971  0.0297
 1955SOL     OW17500   2.741   2.307   8.476 -0.3250  0.2747 -0.2572
 1955SOL    HW117501   2.808   2.243   8.451 -2.2296 -1.1801 -1.5993
 1955SOL    HW217502   2.762   2.303   8.569  2.1205 -0.1642 -0.8320
 1956SOL     OW17503   1.491   3.873   5.404 -0.0845  0.2050  0.1573
 1956SOL    HW117504   1.426   3.941   5.424 -0.6271 -0.7011  1.4424
 1956SOL    HW217505   1.437   3.794   5.405  0.7230 -0.3006  2.6400
 1957SOL     OW17506   0.185   3.596   1.428  0.2770  0.5195  0.0469
 1957SOL    HW117507   0.234   3.550   1.496  0.1493 -0.1784 -0.3249
 1957SOL    HW217508   0.175   3.521   1.369 -3.3421  0.9129  0.1531
 1958SOL     OW17509   1.726   1.500   6.067 -0.0443 -0.1973 -0.1261
 1958SOL    HW117510   1.697   1.559   5.998 -1.7988 -2.0398 -0.9773
 1958SOL    HW217511   1.683   1.415   6.056 -1.4066  0.1990  2.0699
 1959SOL     OW17512   2.846   3.879   6.497 -0.1439 -0.1935 -0.2171
 1959SOL    HW117513   2.883   3.966   6.482 -1.3237  0.1383 -1.2220
 1959SOL    HW217514   2.868   3.868   6.589 -5.4808 -3.2649  0.6526
 1960SOL     OW17515   1.815   3.662   8.221  0.8582  0.0030  0.6859
 1960SOL    HW117516   1.808   3.567   8.208  2.9110  0.1208 -1.2858
 1960SOL    HW217517   1.772   3.667   8.306  0.8865 -0.2549  0.7136
 1961SOL     OW17518   0.741   1.482  16.111 -0.6098 -1.0467 -0.0515
 1961SOL    HW117519   0.736   1.503  16.018 -0.0015  2.4214  0.7254
 1961SOL    HW217520   0.836   1.489  16.122 -0.9507 -1.5839  3.2765
 1962SOL     OW17521   4.630   3.642  10.148  0.3774 -0.3263 -0.4191
 1962SOL    HW117522   4.696   3.580  10.116  0.8612  0.8035 -1.6530
 1962SOL    HW217523   4.650   3.631  10.241  0.8045  1.0008 -0.3506
 1963SOL     OW17524   0.239   2.858   7.748  0.1705 -0.4060 -0.4182
 1963SOL    HW117525   0.305   2.814   7.695  3.4753  0.4318  2.9691
 1963SOL    HW217526   0.185   2.790   7.788 -0.7936 -0.5889 -2.0556
 1964SOL     OW17527   4.005   0.974   1.629 -0.3296 -0.4332 -0.3481
 1964SOL    HW117528   4.056   0.899   1.659  1.2554  0.2516 -1.3742
 1964SOL    HW217529   4.048   1.050   1.668 -1.8550 -1.0035  2.4405
 1965SOL     OW17530   3.594   2.206   6.819  0.4812  0.0400  0.1785
 1965SOL    HW117531   3.660   2.267   6.785 -0.3332  0.4425 -0.6732
 1965SOL    HW217532   3.616   2.216   6.911 -0.1126  0.2905  0.2947
 1966SOL     OW17533   4.005   2.926  13.550  1.1317  0.2608  0.0039
 1966SOL    HW117534   3.979   3.008  13.509  0.9902  0.8253  1.2240
 1966SOL    HW217535   3.943   2.931  13.623 -0.3890 -1.2499 -1.1997
 1967SOL     OW17536   2.794   0.581   3.402 -0.0054 -0.3037 -0.0331
 1967SOL    HW117537   2.719   0.623   3.360  1.0089  1.0358 -0.5481
 1967SOL    HW217538   2.871   0.616   3.356  0.4376  0.3950  1.2347
 1968SOL     OW17539   0.377   0.644   7.883  0.1417 -0.0444 -0.2871
 1968SOL    HW117540   0.305   0.700   7.914  0.6480  1.4068 -1.7265
 1968SOL    HW217541   0.449   0.691   7.924  1.3741 -1.2568 -1.0618
 1969SOL     OW17542   1.622   4.685   7.925 -0.1292  0.3704  0.2763
 1969SOL    HW117543   1.613   4.737   7.846 -0.4969  0.2548  0.2404
 1969SOL    HW217544   1.538   4.642   7.909 -0.0480 -0.3039  1.5919
 1970SOL     OW17545   1.016   0.493   0.878  0.2247 -0.3146  0.4238
 1970SOL    HW117546   1.021   0.583   0.846 -0.9079 -1.2173 -2.2701
 1970SOL    HW217547   1.106   0.480   0.907  0.3757  0.1999  0.1847
 1971SOL     OW17548   0.565   1.010   3.857 -0.0024 -0.3439 -0.2106
 1971SOL    HW117549   0.579   1.047   3.944 -1.5170  1.9315 -0.9361
 1971SOL    HW217550   0.510   1.083   3.829 -0.6367 -1.0402 -0.8011
 1972SOL     OW17551   1.725   0.033  15.685  0.3902 -0.0728 -0.0728
 1972SOL    HW117552   1.814   0.001  15.675 -0.4799 -2.5348  0.0855
 1972SOL    HW217553   1.677   4.693  15.660 -1.5167  0.9590  0.3099
 1973SOL     OW17554   1.927   2.451  15.359 -0.0885  0.1024  0.3756
 1973SOL    HW117555   1.963   2.532  15.393 -0.2553  0.7576 -1.0199
 1973SOL    HW217556   1.851   2.452  15.416 -1.4109 -2.0060 -1.3380
 1974SOL     OW17557   3.314   1.213   5.534 -0.0467  0.9213  0.2954
 1974SOL    HW117558   3.333   1.150   5.465  1.6037 -1.7514  3.2076
 1974SOL    HW217559   3.265   1.277   5.482 -0.6769  0.4830  0.3567
 1975SOL     OW17560   0.668   1.556   6.552 -0.1309  0.5790 -0.0182
 1975SOL    HW117561   0.577   1.581   6.537 -0.8480 -1.0742  1.5475
 1975SOL    HW217562   0.711   1.637   6.524 -2.5613  1.7909 -0.3272
 1976SOL     OW17563   3.353   0.547   1.679 -0.0903 -0.1788 -0.1312
 1976SOL    HW117564   3.287   0.574   1.743  1.0910  1.2927  0.4603
 1976SOL    HW217565   3.419   0.613   1.699  1.3288 -1.0342 -1.9758
 1977SOL     OW17566   1.763   2.655   5.621  0.1766 -0.7395  0.2921
 1977SOL    HW117567   1.751   2.709   5.543 -0.5145 -1.5118 -0.1405
 1977SOL    HW217568   1.856   2.672   5.636  0.1953 -1.2766  0.8057
 1978SOL     OW17569   2.297   0.614   0.670  0.5326 -0.2495  0.7755
 1978SOL    HW117570   2.262   0.573   0.591 -1.6614 -0.0433  1.6284
 1978SOL    HW217571   2.295   0.537   0.728  0.2899  0.6848  2.0037
 1979SOL     OW17572   3.725   3.783  13.312 -0.2435 -0.2945  0.6736
 1979SOL    HW117573   3.725   3.688  13.300 -0.7213 -0.0359 -1.4454
 1979SOL    HW217574   3.741   3.822  13.225  0.0690  0.4666  1.0693
 1980SOL     OW17575   2.599   4.648   8.877 -0.2442 -0.1071  0.5188
 1980SOL    HW117576   2.675   4.600   8.845 -0.1138  1.6303 -1.7330
 1980SOL    HW217577   2.541   4.631   8.803  0.9853 -0.1874 -0.4095
 1981SOL     OW17578   2.307   2.545   8.967 -0.3219 -0.4186  0.1120
 1981SOL    HW117579   2.239   2.497   8.919  1.3912  0.1573 -2.8854
 1981SOL    HW217580   2.273   2.634   8.958 -1.8879 -0.9241  1.0547
 1982SOL     OW17581   1.870   3.369   1.803 -0.2457 -0.1760 -0.6821
 1982SOL    HW117582   1.776   3.360   1.787  0.0774 -2.0023 -1.5248
 1982SOL    HW217583   1.905   3.291   1.759  1.1897  0.6493 -1.0443
 1983SOL     OW17584   2.659   2.998   4.081  0.2431  0.3736  0.6327
 1983SOL    HW117585   2.749   3.020   4.106 -0.8428  2.6912  2.4803
 1983SOL    HW217586   2.621   3.079   4.049  3.5882  0.6304 -2.6781
 1984SOL     OW17587   0.294   0.696   5.481  0.2857  0.5775 -0.4268
 1984SOL    HW117588   0.375   0.665   5.522  0.5328  0.8930 -0.6698
 1984SOL    HW217589   0.277   0.623   5.421 -0.0594  0.0790  0.2789
 1985SOL     OW17590   1.580   0.575  10.692 -0.0005 -0.0914  0.0815
 1985SOL    HW117591   1.533   0.493  10.710 -1.1913 -0.1220 -3.0610
 1985SOL    HW217592   1.630   0.595  10.771 -1.2387  0.5837  0.6927
 1986SOL     OW17593   4.580   1.680   0.328  0.2039  0.1266  0.4110
 1986SOL    HW117594   4.514   1.716   0.268 -0.5379  0.1702  1.2562
 1986SOL    HW217595   4.633   1.760   0.327 -1.5437  1.3073  2.4151
 1987SOL     OW17596   2.535   1.221  17.267  0.0269 -0.0255  0.1367
 1987SOL    HW117597   2.552   1.309  17.299 -1.9330 -0.0236  1.1389
 1987SOL    HW217598   2.449   1.228  17.226 -0.0944 -4.1471 -0.2968
 1988SOL     OW17599   1.955   2.029  17.121 -0.2608  0.2267  0.0983
 1988SOL    HW117600   2.036   2.075  17.146 -0.3004 -0.3759  1.3216
 1988SOL    HW217601   1.946   2.057  17.030 -1.2708  1.2207  0.5032
 1989SOL     OW17602   1.973   0.774  13.812 -0.0522  0.0613  0.1214
 1989SOL    HW117603   1.993   0.756  13.721  1.5352  1.2890  0.2318
 1989SOL    HW217604   1.889   0.821  13.808 -0.8625 -1.4837 -0.7252
 1990SOL     OW17605   2.486   4.239   9.826 -0.0070  0.0048 -0.2899
 1990SOL    HW117606   2.436   4.271   9.901  2.1867  4.7989 -0.8418
 1990SOL    HW217607   2.543   4.176   9.868  0.3188 -0.1567 -0.9716
 1991SOL     OW17608   0.584   2.672   6.189 -0.2755  0.4803  0.2401
 1991SOL    HW117609   0.501   2.717   6.205  1.9126  4.1401  1.4427
 1991SOL    HW217610   0.603   2.690   6.097  2.5412 -0.0855  0.7238
 1992SOL     OW17611   1.235   1.805   0.485 -0.0751 -0.6948 -0.5593
 1992SOL    HW117612   1.251   1.719   0.447  2.2407 -0.3086 -0.5131
 1992SOL    HW217613   1.215   1.846   0.401  1.1189  0.9676 -0.0433
 1993SOL     OW17614   3.012   3.747  13.392 -1.2535  0.4568  0.0961
 1993SOL    HW117615   2.954   3.822  13.380  0.7090  1.5409 -2.4688
 1993SOL    HW217616   2.949   3.693  13.441 -0.1275 -1.6747 -0.7727
 1994SOL     OW17617   3.183   3.646   6.489 -0.1489  0.2282  0.8174
 1994SOL    HW117618   3.157   3.611   6.404  0.6766 -0.0541  0.6813
 1994SOL    HW217619   3.212   3.566   6.532  1.6502  0.7993  0.6603
 1995SOL     OW17620   4.487   0.895   4.662 -0.1218  0.5226  0.3137
 1995SOL    HW117621   4.572   0.862   4.692  0.3506  1.4247 -0.0476
 1995SOL    HW217622   4.439   0.821   4.624 -1.8750  0.6724  2.2617
 1996SOL     OW17623   2.213   2.183   7.419 -0.1979 -0.1861  0.3761
 1996SOL    HW117624   2.138   2.126   7.439 -1.2316  0.7176 -0.9225
 1996SOL    HW217625   2.214   2.189   7.324 -2.4407  0.7042  0.3968
 1997SOL     OW17626   4.515   2.159   4.152 -0.1334 -0.1134  0.2105
 1997SOL    HW117627   4.535   2.073   4.115  1.5190  0.0965  0.5882
 1997SOL    HW217628   4.596   2.170   4.203  0.3491 -0.4189 -0.4839
 1998SOL     OW17629   4.243   3.012   1.639 -0.5021  0.0952 -0.1459
 1998SOL    HW117630   4.157   2.981   1.612 -0.7286 -0.1907  0.9077
 1998SOL    HW217631   4.277   2.930   1.674 -0.2327  0.5646  0.6946
 1999SOL     OW17632   4.461   0.979   6.321 -0.1711 -0.4653  0.1422
 1999SOL    HW117633   4.536   0.987   6.380 -0.1105  0.1052 -0.0203
 1999SOL    HW217634   4.397   1.014   6.382 -1.5007 -0.3153 -1.3538
 2000SOL     OW17635   4.332   3.525   5.348  0.2701 -0.1664 -0.1227
 2000SOL    HW117636   4.413   3.496   5.391  1.0241 -0.2283 -1.5955
 2000SOL    HW217637   4.381   3.581   5.288  0.4981 -1.3274 -1.0217
 2001SOL     OW17638   3.748   0.765   7.973 -0.2193  0.4614  0.3518
 2001SOL    HW117639   3.750   0.807   8.059  0.2868  0.5003  0.3216
 2001SOL    HW217640   3.720   0.831   7.910 -0.1112  0.0358 -0.1398
 2002SOL     OW17641   3.301   4.300  17.305 -0.0071 -0.4864 -0.6156
 2002SOL    HW117642   3.314   4.206  17.320  2.0747  0.1220  1.3498
 2002SOL    HW217643   3.255   4.334  17.382  0.0595  1.3870 -1.4235
 2003SOL     OW17644   2.299   2.635   0.279 -0.1274  0.0082  0.0536
 2003SOL    HW117645   2.268   2.546   0.298 -2.0852  1.0771  1.8291
 2003SOL    HW217646   2.371   2.633   0.342  1.0657  0.2243 -1.3215
 2004SOL     OW17647   0.055   4.689   6.986 -0.4822  0.1149  0.0585
 2004SOL    HW117648   4.704   4.660   6.992  0.1647 -1.1181  3.9986
 2004SOL    HW217649   0.066   4.694   6.891 -4.0712  2.1606 -0.2281
 2005SOL     OW17650   4.008   0.229   2.399  0.3581 -0.6238 -0.1904
 2005SOL    HW117651   4.019   0.168   2.326  2.8682 -0.2928 -0.1066
 2005SOL    HW217652   3.977   0.179   2.474 -1.4798  1.4556  0.4305
 2006SOL     OW17653   3.928   0.506   7.957 -0.3759 -0.0020  0.0160
 2006SOL    HW117654   3.840   0.472   7.966 -0.2820 -0.2802 -0.1267
 2006SOL    HW217655   3.907   0.599   7.948  0.4526  0.5329  3.3527
 2007SOL     OW17656   0.805   3.534  11.525 -0.5828  0.0790  0.2643
 2007SOL    HW117657   0.727   3.561  11.476 -0.3105 -0.4611 -0.4630
 2007SOL    HW217658   0.827   3.450  11.485  2.5870  0.4319  1.3000
 2008SOL     OW17659   1.070   4.713   2.231  0.0202  0.1719 -0.2309
 2008SOL    HW117660   1.163   4.698   2.246  0.2335 -0.6933 -2.4064
 2008SOL    HW217661   1.059   4.665   2.148  2.7273 -2.6089  1.0404
 2009SOL     OW17662   2.969   3.724   3.789 -0.0063 -0.2383  0.8138
 2009SOL    HW117663   2.882   3.686   3.776 -0.0441 -0.6907  2.4499
 2009SOL    HW217664   3.021   3.648   3.815 -0.2001 -0.3622  0.8390
 2010SOL     OW17665   0.066   3.255   5.946 -0.0325  0.4434  0.0759
 2010SOL    HW117666   0.135   3.293   5.892  0.5382 -1.7947 -0.7880
 2010SOL    HW217667   0.022   3.199   5.883  2.2666 -2.7027  1.2624
 2011SOL     OW17668   1.186   1.387  10.214 -0.1589  0.4186 -0.1769
 2011SOL    HW117669   1.276   1.360  10.231  0.2600  0.8024 -1.8131
 2011SOL    HW217670   1.145   1.362  10.297  0.1107  0.4642 -0.0305
 2012SOL     OW17671   0.888   0.564   6.740  0.1992 -0.3390  0.3507
 2012SOL    HW117672   0.977   0.563   6.774  1.1387 -0.5223 -2.0564
 2012SOL    HW217673   0.855   0.642   6.784 -1.3534  0.5949 -2.4404
 2013SOL     OW17674   0.289   0.085  17.729 -0.5106 -0.5901 -0.5091
 2013SOL    HW117675   0.270   0.066  17.637  0.0410 -1.3236 -0.4724
 2013SOL    HW217676   0.338   0.167  17.734 -2.6728  0.5628  1.4791
 2014SOL     OW17677   3.190   3.695   7.236 -0.2896 -0.5514  0.2445
 2014SOL    HW117678   3.215   3.701   7.144 -1.2227  0.0285  0.0297
 2014SOL    HW217679   3.256   3.757   7.269 -2.2470  0.9314  1.3461
 2015SOL     OW17680   0.282   4.241   3.051 -0.0287  0.0413 -0.2390
 2015SOL    HW117681   0.224   4.301   3.098 -0.4830 -1.6107  1.2994
 2015SOL    HW217682   0.346   4.306   3.021 -0.3961  0.2443 -0.5995
 2016SOL     OW17683   0.262   1.554  16.429  0.0705 -0.4622  0.3241
 2016SOL    HW117684   0.276   1.648  16.444  1.2362 -0.6198  0.2469
 2016SOL    HW217685   0.331   1.522  16.370  0.0157  1.7280 -0.9368
 2017SOL     OW17686   0.230   0.943   0.195  0.1219  0.1655  0.5604
 2017SOL    HW117687   0.175   0.997   0.138  0.3703  2.7922  2.7719
 2017SOL    HW217688   0.179   0.864   0.209  1.4667 -0.8276 -0.2154
 2018SOL     OW17689   2.535   3.618  17.367 -0.5761 -0.1422  0.8288
 2018SOL    HW117690   2.525   3.566  17.287  0.3209 -0.0026  0.6333
 2018SOL    HW217691   2.481   3.570  17.430 -0.3252  1.6887  2.4274
 2019SOL     OW17692   0.511   0.970   7.790  0.1542  0.1300 -0.7450
 2019SOL    HW117693   0.483   0.980   7.699 -0.8469 -2.1610 -0.7127
 2019SOL    HW217694   0.437   1.015   7.831 -0.2302  0.2021 -1.5113
 2020SOL     OW17695   3.527   4.350   3.993 -0.0617  0.3668  0.0055
 2020SOL    HW117696   3.508   4.433   4.037  0.5445  0.6924 -0.3490
 2020SOL    HW217697   3.557   4.296   4.066 -1.6332  0.2497  0.5667
 2021SOL     OW17698   2.715   4.425   6.665  0.5371 -0.0043  0.2613
 2021SOL    HW117699   2.726   4.474   6.584  2.1260  0.6711  0.8741
 2021SOL    HW217700   2.647   4.475   6.710  1.5211  2.1372 -0.6259
 2022SOL     OW17701   0.024   2.024   0.621  0.6194  0.0770 -0.2099
 2022SOL    HW117702   0.075   1.949   0.591 -0.9232 -0.8490 -0.5048
 2022SOL    HW217703   0.097   2.070   0.662 -0.0984 -0.3099  1.4950
 2023SOL     OW17704   1.753   3.408   5.977  0.0886 -0.1104  0.0329
 2023SOL    HW117705   1.839   3.446   5.959  0.3055 -0.4476  0.3404
 2023SOL    HW217706   1.722   3.464   6.048  1.4775  0.7900 -0.0699
 2024SOL     OW17707   0.258   4.285   6.869 -0.6042  0.0360 -0.1734
 2024SOL    HW117708   0.324   4.342   6.908 -1.8528  1.6950 -0.4674
 2024SOL    HW217709   0.303   4.210   6.908 -0.7297  0.1597  0.2075
 2025SOL     OW17710   3.645   4.539   4.405 -0.1994  0.7195  0.9292
 2025SOL    HW117711   3.553   4.540   4.433 -0.7806  1.7341 -1.0214
 2025SOL    HW217712   3.667   4.447   4.415 -2.3351  0.2033  0.9958
 2026SOL     OW17713   2.797   3.508   6.777 -0.3347  0.0444  0.4635
 2026SOL    HW117714   2.824   3.417   6.786 -1.4817 -0.4947 -1.5464
 2026SOL    HW217715   2.703   3.490   6.771 -0.0574 -0.7746 -1.1465
 2027SOL     OW17716   4.499   1.754  15.920 -0.3530  0.1262  0.8132
 2027SOL    HW117717   4.528   1.678  15.870  2.4090  0.1538  2.3646
 2027SOL    HW217718   4.444   1.807  15.862 -0.3800 -1.1703 -0.3331
 2028SOL     OW17719   2.936   4.194  17.135 -0.4748  0.7654 -0.0908
 2028SOL    HW117720   2.866   4.259  17.141 -0.8504  0.2465  1.1228
 2028SOL    HW217721   3.002   4.247  17.091 -0.4351  1.9888  1.4581
 2029SOL     OW17722   1.904   3.167  14.791  0.4483  0.6914 -0.3611
 2029SOL    HW117723   1.992   3.204  14.800  0.5737  0.3637 -0.2367
 2029SOL    HW217724   1.878   3.142  14.880  0.0917  1.3196 -0.2864
 2030SOL     OW17725   0.448   4.388   7.033  0.1672  0.0339 -0.0706
 2030SOL    HW117726   0.435   4.337   7.112 -1.5806 -1.2859 -1.2157
 2030SOL    HW217727   0.415   4.474   7.060  0.2608  0.2104 -0.5173
 2031SOL     OW17728   2.007   3.872   6.124 -0.0219  0.1447  0.3231
 2031SOL    HW117729   2.036   3.964   6.121  1.8180 -0.4695 -0.5802
 2031SOL    HW217730   2.086   3.826   6.151  0.9712  1.1316 -0.8929
 2032SOL     OW17731   0.499   1.350   3.580 -0.0193  0.4686  0.2692
 2032SOL    HW117732   0.456   1.273   3.544 -0.7979  0.5074  1.1391
 2032SOL    HW217733   0.573   1.365   3.521  0.2976 -0.3346  0.4673
 2033SOL     OW17734   3.667   1.369   4.489 -0.4432 -0.2175 -0.5795
 2033SOL    HW117735   3.675   1.407   4.401  0.5281  0.0599 -0.3699
 2033SOL    HW217736   3.759   1.360   4.512 -1.4744 -0.0371  3.6096
 2034SOL     OW17737   3.430   0.140   2.622 -0.2047  0.0821 -0.3492
 2034SOL    HW117738   3.493   0.208   2.600 -0.4235  0.0337 -1.1298
 2034SOL    HW217739   3.378   0.140   2.542 -1.0515  1.5876  0.2159
 2035SOL     OW17740   2.221   0.319  13.078  1.0883 -0.1174  0.0567
 2035SOL    HW117741   2.306   0.360  13.096  1.8597 -1.8483  0.3587
 2035SOL    HW217742   2.243   0.226  13.079 -1.1447 -0.6628 -1.6956
 2036SOL     OW17743   0.242   3.383  13.298 -0.5698  0.0466  0.3086
 2036SOL    HW117744   0.242   3.304  13.352 -1.2113  0.6139  1.1345
 2036SOL    HW217745   0.319   3.432  13.328 -0.9288 -0.5800  2.3042
 2037SOL     OW17746   4.362   1.527   0.143  0.4285 -0.2809 -0.1801
 2037SOL    HW117747   4.363   1.622   0.156  3.4766 -0.3262 -0.0592
 2037SOL    HW217748   4.280   1.507   0.188  0.0742  0.1419 -0.6327
 2038SOL     OW17749   2.906   0.988   7.946 -0.1427  0.2437 -0.2475
 2038SOL    HW117750   2.978   0.942   7.990 -2.8004 -2.1474  1.6259
 2038SOL    HW217751   2.881   0.920   7.883  0.5318 -0.7682  0.5807
 2039SOL     OW17752   3.057   3.727   9.633  0.6495  0.1858  0.2075
 2039SOL    HW117753   3.090   3.809   9.597  1.4939  0.9519  2.7415
 2039SOL    HW217754   3.118   3.668   9.588 -0.3305 -0.7249  0.0655
 2040SOL     OW17755   1.924   0.267   6.217 -0.7462 -0.5126  0.2649
 2040SOL    HW117756   1.915   0.293   6.125 -0.1374 -0.9600  0.0834
 2040SOL    HW217757   1.989   0.331   6.244  0.1718 -1.3478  0.0277
 2041SOL     OW17758   1.203   2.396   5.938 -0.1216 -0.5432  0.0917
 2041SOL    HW117759   1.109   2.383   5.949 -0.5649  1.5745 -1.2129
 2041SOL    HW217760   1.197   2.461   5.868 -0.7434  2.6064  3.0908
 2042SOL     OW17761   1.710   1.964   3.866 -0.1547 -0.0134 -0.3080
 2042SOL    HW117762   1.640   2.002   3.813 -0.7348 -0.0157  0.4626
 2042SOL    HW217763   1.751   1.906   3.802 -2.4194 -1.2741 -0.6556
 2043SOL     OW17764   2.550   4.287   8.629 -0.2418 -0.3893  0.0741
 2043SOL    HW117765   2.487   4.341   8.581 -0.9259 -0.6537  0.6792
 2043SOL    HW217766   2.624   4.345   8.649  0.3290 -0.2287 -2.4164
 2044SOL     OW17767   3.566   0.200   7.122  0.3733 -0.1100 -0.0232
 2044SOL    HW117768   3.604   0.144   7.054 -0.4276 -1.2482  0.4722
 2044SOL    HW217769   3.491   0.156   7.161  0.2422  0.4956  0.4187
 2045SOL     OW17770   1.647   2.859  14.900 -0.2074  0.2358  0.6747
 2045SOL    HW117771   1.638   2.835  14.992 -0.8496 -0.1781  0.5046
 2045SOL    HW217772   1.714   2.797  14.869 -0.0472  0.6671  0.1496
 2046SOL     OW17773   0.793   4.208  11.978 -0.7127  0.0033 -0.2245
 2046SOL    HW117774   0.850   4.214  11.902  0.2156  1.1755  0.5564
 2046SOL    HW217775   0.791   4.113  11.984 -0.0539 -0.0600 -1.1346
 2047SOL     OW17776   0.372   0.437   2.179  0.1048 -0.2075  0.3718
 2047SOL    HW117777   0.293   0.417   2.129  0.7215  0.2612 -0.7991
 2047SOL    HW217778   0.346   0.526   2.199 -0.3812 -0.2218 -0.1932
 2048SOL     OW17779   0.854   1.041   1.850 -0.1083 -0.2065 -0.9414
 2048SOL    HW117780   0.905   1.120   1.868 -1.2982  0.3596 -0.0452
 2048SOL    HW217781   0.851   1.030   1.755  1.2175 -0.4215 -0.9540
 2049SOL     OW17782   0.511   3.197   2.133  0.2373 -0.5229 -0.0143
 2049SOL    HW117783   0.574   3.145   2.083 -0.0167  0.6104 -1.4816
 2049SOL    HW217784   0.493   3.252   2.057 -0.2981  0.0625  0.5346
 2050SOL     OW17785   0.773   4.181   3.442  0.0324  0.3221 -0.2480
 2050SOL    HW117786   0.818   4.264   3.458 -0.4735  0.5705 -0.1148
 2050SOL    HW217787   0.845   4.128   3.407  1.4071  0.3109  2.6619
 2051SOL     OW17788   0.558   2.712   2.751 -0.3295 -0.2858 -0.1147
 2051SOL    HW117789   0.531   2.656   2.824 -1.6010  0.6318  0.1053
 2051SOL    HW217790   0.547   2.645   2.684  1.2664  0.1119 -0.7705
 2052SOL     OW17791   2.300   1.815   9.829 -0.0246 -0.2849 -0.1151
 2052SOL    HW117792   2.209   1.793   9.809 -0.3436 -0.3854  1.4046
 2052SOL    HW217793   2.281   1.909   9.824 -2.6433 -0.8054 -0.0257
 2053SOL     OW17794   4.452   4.017  16.024  0.1317  0.1430 -0.0118
 2053SOL    HW117795   4.441   3.965  15.944  3.3167 -1.1516  0.3576
 2053SOL    HW217796   4.454   3.945  16.087 -1.3907 -1.1885 -1.4863
 2054SOL     OW17797   1.324   3.571   0.846 -0.1538 -0.8366  0.2749
 2054SOL    HW117798   1.359   3.550   0.932  2.7635 -0.9845 -0.9343
 2054SOL    HW217799   1.302   3.487   0.805  1.7917 -1.0254 -0.4098
 2055SOL     OW17800   3.935   2.466   0.644 -0.9508 -0.0533 -0.3261
 2055SOL    HW117801   3.843   2.453   0.621 -1.0273 -0.9561  0.4617
 2055SOL    HW217802   3.929   2.559   0.622 -3.9096 -0.4519 -1.1614
 2056SOL     OW17803   1.617   1.232   2.598  1.2151 -0.3267  0.3315
 2056SOL    HW117804   1.622   1.328   2.601 -2.6513 -0.0602 -0.8922
 2056SOL    HW217805   1.644   1.211   2.508  1.4848  0.6143  0.1845
 2057SOL     OW17806   2.436   3.784   6.643  0.3510 -0.5675 -0.0050
 2057SOL    HW117807   2.514   3.806   6.592  0.1675  1.1122  0.4406
 2057SOL    HW217808   2.443   3.695   6.679  0.9040  0.5209  2.5547
 2058SOL     OW17809   0.256   3.882   5.151  0.0639  0.1365  0.1150
 2058SOL    HW117810   0.310   3.848   5.223 -2.9154 -0.6107  2.0014
 2058SOL    HW217811   0.245   3.975   5.172  0.0823 -0.1014  1.1732
 2059SOL     OW17812   3.034   2.605   7.936 -0.2538 -0.0845  0.1160
 2059SOL    HW117813   2.990   2.662   7.999 -0.1421  2.1278 -1.8290
 2059SOL    HW217814   2.968   2.573   7.875 -0.7586  1.1684  0.0136
 2060SOL     OW17815   4.625   0.611   8.873  0.4704 -0.5410 -0.3561
 2060SOL    HW117816   4.696   0.557   8.908  0.4859  0.0036  0.4423
 2060SOL    HW217817   4.651   0.698   8.902 -0.0728  0.4257 -2.7548
 2061SOL     OW17818   4.669   4.361   6.393  0.1993  0.2941  0.0740
 2061SOL    HW117819   4.661   4.350   6.488 -3.3559  1.3193 -0.0945
 2061SOL    HW217820   4.588   4.324   6.358 -0.5258  0.3639  1.6888
 2062SOL     OW17821   4.621   2.448   9.968 -0.6389  0.0965 -0.3923
 2062SOL    HW117822   4.623   2.444   9.873 -0.4531 -1.6737 -0.3154
 2062SOL    HW217823   4.574   2.374  10.007  0.8445  0.1640  1.5334
 2063SOL     OW17824   0.199   1.685   6.240 -0.3988 -0.3905  0.2311
 2063SOL    HW117825   0.248   1.720   6.314  0.1183 -1.2781  0.3083
 2063SOL    HW217826   0.114   1.661   6.276 -0.9392  0.8144 -0.2339
 2064SOL     OW17827   1.507   3.815   6.392 -0.4995  0.5737  0.2643
 2064SOL    HW117828   1.591   3.842   6.355  0.1156  0.1942  1.3820
 2064SOL    HW217829   1.446   3.846   6.325 -2.4462 -2.9901  0.4065
 2065SOL     OW17830   2.848   3.988   7.594 -0.4194 -0.1689  0.0900
 2065SOL    HW117831   2.829   3.916   7.534 -1.3655  1.1004 -1.1617
 2065SOL    HW217832   2.846   3.954   7.683  0.2531 -1.3055 -0.3335
 2066SOL     OW17833   4.655   4.258   8.072 -0.1762 -0.8350  0.1160
 2066SOL    HW117834   4.710   4.309   8.131 -2.6568  2.2301 -0.2564
 2066SOL    HW217835   4.656   4.311   7.993 -1.0027 -0.0889  0.6134
 2067SOL     OW17836   4.346   3.443   8.463  0.6424  0.1340  0.1485
 2067SOL    HW117837   4.330   3.354   8.432  0.1182  0.5348 -0.7355
 2067SOL    HW217838   4.306   3.445   8.550 -0.3048 -0.1990 -0.2830
 2068SOL     OW17839   1.319   3.953   7.095 -0.8616 -0.4292 -0.5197
 2068SOL    HW117840   1.331   4.048   7.094 -0.9976 -0.4073 -0.0721
 2068SOL    HW217841   1.266   3.931   7.171 -0.3822 -1.5782 -0.5089
 2069SOL     OW17842   4.451   0.751   8.244 -0.3984  0.5117  0.3430
 2069SOL    HW117843   4.369   0.748   8.196  0.6847  0.7527 -1.5171
 2069SOL    HW217844   4.443   0.831   8.295  3.1963  0.7918  0.4846
 2070SOL     OW17845   4.179   0.992  16.379  0.5997 -0.1085 -0.0054
 2070SOL    HW117846   4.273   0.988  16.392  0.8243  0.2781 -1.4816
 2070SOL    HW217847   4.155   0.914  16.428 -1.2657 -0.3808 -1.3039
 2071SOL     OW17848   4.461   1.441   2.129  0.1808  0.1063 -0.2960
 2071SOL    HW117849   4.514   1.482   2.060  1.3640  0.3446  0.7550
 2071SOL    HW217850   4.533   1.405   2.181  0.5652  1.0461 -0.1670
 2072SOL     OW17851   3.595   2.882   8.414 -0.1861  0.2224  1.0286
 2072SOL    HW117852   3.575   2.972   8.390 -1.6562  0.0693  1.6713
 2072SOL    HW217853   3.661   2.907   8.478  0.7453 -0.0410  0.1722
 2073SOL     OW17854   3.855   1.601   6.727 -0.5593 -0.3193 -0.0582
 2073SOL    HW117855   3.866   1.511   6.694 -1.2061 -0.1159 -0.8384
 2073SOL    HW217856   3.862   1.584   6.821  1.7655  0.9010 -0.0214
 2074SOL     OW17857   3.667   0.791   7.080 -0.7009  0.6822 -0.6396
 2074SOL    HW117858   3.598   0.845   7.118 -1.3972 -1.0171  0.5304
 2074SOL    HW217859   3.714   0.768   7.160  2.1897 -1.0083 -2.7909
 2075SOL     OW17860   1.550   0.950   6.458 -0.2854 -0.6827  0.6180
 2075SOL    HW117861   1.609   1.007   6.506 -0.1875 -0.9449  0.8104
 2075SOL    HW217862   1.533   0.875   6.515  0.5603 -0.9419  0.5249
 2076SOL     OW17863   4.379   0.616   5.538  1.0146 -0.4431 -0.3143
 2076SOL    HW117864   4.434   0.680   5.584 -1.8119  0.3574  1.9662
 2076SOL    HW217865   4.299   0.626   5.590  1.1834  2.6407 -0.6692
 2077SOL     OW17866   4.606   0.900   6.920  0.0759 -0.4708  0.3155
 2077SOL    HW117867   4.560   0.869   6.842  1.4811 -0.3045 -0.5675
 2077SOL    HW217868   4.571   0.989   6.926  1.2203 -0.1043  1.6127
 2078SOL     OW17869   1.421   3.595  17.589  0.2528  0.1395  0.3342
 2078SOL    HW117870   1.374   3.536  17.648  0.2584  0.3162  0.5141
 2078SOL    HW217871   1.368   3.674  17.586  0.7569  0.4965  0.7191
 2079SOL     OW17872   2.276   1.411  10.356 -0.3618 -0.0314  0.2715
 2079SOL    HW117873   2.322   1.481  10.402  1.6816 -1.2439  0.1075
 2079SOL    HW217874   2.321   1.337  10.399 -1.3511 -0.7291  0.0971
 2080SOL     OW17875   1.368   0.712   6.703 -0.8041 -0.0500 -0.1983
 2080SOL    HW117876   1.407   0.628   6.729 -0.1488 -0.4895 -2.6508
 2080SOL    HW217877   1.431   0.778   6.732 -0.4612 -0.8798  0.9523
 2081SOL     OW17878   3.082   3.270   2.370 -0.3118  0.1094  0.1165
 2081SOL    HW117879   3.116   3.181   2.370 -1.1659 -0.2195  1.9159
 2081SOL    HW217880   3.082   3.282   2.465 -0.0638  3.5623 -0.3351
 2082SOL     OW17881   4.728   3.711   1.026  0.5485 -0.0483  0.2590
 2082SOL    HW117882   0.073   3.667   1.016 -0.1194 -0.5685 -3.2591
 2082SOL    HW217883   0.004   3.785   0.967 -0.5015  1.7881  2.3099
 2083SOL     OW17884   2.889   2.181   3.056  0.1057  0.0583  0.4455
 2083SOL    HW117885   2.826   2.122   3.016  0.2424  1.3234 -1.6534
 2083SOL    HW217886   2.879   2.141   3.143 -4.3259 -0.0815 -0.1301
 2084SOL     OW17887   3.997   0.372   1.960  0.5263  0.2200 -0.4753
 2084SOL    HW117888   4.041   0.297   2.000 -0.7707 -0.0287  0.4713
 2084SOL    HW217889   4.040   0.453   1.986  2.0742 -0.1794 -1.7538
 2085SOL     OW17890   2.797   0.817   5.737  0.3682  0.1670 -0.9482
 2085SOL    HW117891   2.831   0.895   5.782  1.0747  0.1440 -1.4454
 2085SOL    HW217892   2.851   0.815   5.658  0.2567  0.8132 -1.0420
 2086SOL     OW17893   1.456   3.936  12.610 -0.0572 -0.4157 -0.2446
 2086SOL    HW117894   1.508   3.953  12.532 -0.6637  0.2195 -0.5108
 2086SOL    HW217895   1.404   3.865  12.573 -0.2618 -1.9904  3.0550
 2087SOL     OW17896   1.245   1.180   1.304  0.0498  0.1437  0.0186
 2087SOL    HW117897   1.176   1.153   1.245 -0.7350 -0.7455  1.3443
 2087SOL    HW217898   1.213   1.173   1.394  0.6041 -2.9031  0.0033
 2088SOL     OW17899   1.294   0.920  17.217  0.1862 -0.0327  0.0513
 2088SOL    HW117900   1.222   0.975  17.184  0.6605  0.7485  0.3133
 2088SOL    HW217901   1.369   0.979  17.209 -0.3212  0.9369  2.3318
 2089SOL     OW17902   0.726   4.385   4.326  0.2752  0.6258  0.5290
 2089SOL    HW117903   0.752   4.303   4.284  0.6811  0.0466  1.8928
 2089SOL    HW217904   0.698   4.440   4.253 -2.8796 -1.1978  0.3450
 2090SOL     OW17905   0.342   2.855  10.531 -0.1097 -0.5533 -0.4822
 2090SOL    HW117906   0.346   2.939  10.486 -0.6179 -0.7982 -0.9795
 2090SOL    HW217907   0.371   2.792  10.465 -0.6796 -1.6317  0.2822
 2091SOL     OW17908   1.066   4.546  12.726 -0.1617 -0.9501 -0.2743
 2091SOL    HW117909   1.048   4.519  12.636 -0.0046  2.2167 -1.2558
 2091SOL    HW217910   1.039   4.466  12.772  2.0679 -0.6831  1.5331
 2092SOL     OW17911   0.110   1.071   8.942 -0.1758 -0.0850  0.1218
 2092SOL    HW117912   0.191   1.064   8.892  0.2254  0.0376  0.7642
 2092SOL    HW217913   0.128   1.098   9.032  0.6888  1.0658 -0.3992
 2093SOL     OW17914   0.226   1.501   1.126 -0.7480 -0.1680 -0.2003
 2093SOL    HW117915   0.300   1.446   1.152  0.9635  3.0527  1.6548
 2093SOL    HW217916   0.241   1.523   1.034  0.2494  1.5820  0.3886
 2094SOL     OW17917   1.841   3.130  16.093 -0.2897 -0.0297  0.0219
 2094SOL    HW117918   1.849   3.056  16.153 -0.6816 -1.9132 -2.2026
 2094SOL    HW217919   1.834   3.074  16.015  0.4815  0.6565 -0.5462
 2095SOL     OW17920   4.640   3.952   1.994  0.4967  0.0823 -0.2596
 2095SOL    HW117921   4.723   3.961   2.040 -0.2751 -1.4301  1.4169
 2095SOL    HW217922   4.615   3.860   2.005 -1.4858  0.4799 -1.5129
 2096SOL     OW17923   2.165   1.677   3.874 -0.0978  0.4617  0.1517
 2096SOL    HW117924   2.171   1.764   3.913 -0.5065  0.3486  0.4749
 2096SOL    HW217925   2.215   1.623   3.935 -0.6024  0.1714  0.3089
 2097SOL     OW17926   0.261   2.325   2.820  0.0374  0.3530 -0.5859
 2097SOL    HW117927   0.240   2.319   2.727  0.4962 -0.0756 -0.6596
 2097SOL    HW217928   0.349   2.291   2.808  0.0936  0.2539  0.1180
 2098SOL     OW17929   3.783   1.100   2.258  0.3007 -0.1775 -0.3355
 2098SOL    HW117930   3.765   1.041   2.185  1.0130 -0.2844 -0.4282
 2098SOL    HW217931   3.870   1.077   2.290  0.5515  0.6143 -0.4328
 2099SOL     OW17932   3.038   2.332   6.253  0.1961 -0.0330 -0.5752
 2099SOL    HW117933   2.956   2.380   6.248 -0.3356 -0.9710 -0.7401
 2099SOL    HW217934   3.044   2.310   6.346  1.9018  2.3721 -0.0835
 2100SOL     OW17935   4.632   2.691   3.734 -0.1096 -0.0407  0.4396
 2100SOL    HW117936   4.629   2.642   3.816 -2.4899  0.6147  0.7434
 2100SOL    HW217937   4.728   2.695   3.731 -0.0344 -2.1372  0.4587
 2101SOL     OW17938   2.036   1.370   5.762 -0.2587 -0.1608  0.3056
 2101SOL    HW117939   2.089   1.341   5.687 -0.6010 -2.9315  1.1180
 2101SOL    HW217940   2.048   1.300   5.826  3.1049 -0.9982 -1.2230
 2102SOL     OW17941   2.091   0.853   0.310  0.0983  0.2405 -0.1357
 2102SOL    HW117942   2.042   0.924   0.269 -0.0668  1.6973  2.6444
 2102SOL    HW217943   2.121   0.806   0.232  0.1816 -0.2527  0.1944
 2103SOL     OW17944   4.187   1.398   9.629 -0.4340 -0.2905  0.1224
 2103SOL    HW117945   4.174   1.316   9.677 -0.2723  0.3521  1.2761
 2103SOL    HW217946   4.188   1.457   9.705  1.2325  0.6211 -0.6077
 2104SOL     OW17947   1.958   1.574  10.174  0.3130 -0.3096  0.1985
 2104SOL    HW117948   1.875   1.622  10.181 -1.3254 -2.8721 -1.9049
 2104SOL    HW217949   1.936   1.526  10.094 -3.6505 -0.2465  1.2319
 2105SOL     OW17950   1.732   0.724  11.066 -0.4210  0.0767 -0.0739
 2105SOL    HW117951   1.800   0.659  11.044  0.5510  1.0635  0.0234
 2105SOL    HW217952   1.782   0.802  11.043 -2.1764  1.9389  2.4779
 2106SOL     OW17953   1.457   1.969   5.990 -0.0085  0.3817  0.8438
 2106SOL    HW117954   1.503   1.997   6.069 -0.9602  1.0363  1.1543
 2106SOL    HW217955   1.406   2.049   5.983 -1.7201 -0.6153  2.1937
 2107SOL     OW17956   0.112   1.589   6.903  0.5190 -0.0022  0.2551
 2107SOL    HW117957   0.165   1.522   6.947  1.6195  0.1310 -0.8616
 2107SOL    HW217958   0.141   1.666   6.952  0.5817 -0.8826  1.5866
 2108SOL     OW17959   3.421   2.513   9.202  0.1276 -0.2340 -0.4428
 2108SOL    HW117960   3.481   2.491   9.273 -1.1809 -0.4692  0.5859
 2108SOL    HW217961   3.407   2.424   9.168  2.5174 -1.0173  0.6145
 2109SOL     OW17962   3.243   4.163   7.331 -0.5776 -0.2396 -0.3501
 2109SOL    HW117963   3.338   4.161   7.320 -0.3426 -0.7905  1.6518
 2109SOL    HW217964   3.226   4.116   7.249  1.0348 -1.0834 -0.1992
 2110SOL     OW17965   3.009   2.799   4.172 -0.5849  0.0087  0.4076
 2110SOL    HW117966   2.935   2.770   4.119  1.5358 -2.7216 -1.0185
 2110SOL    HW217967   3.077   2.736   4.152  1.3010  1.8931  0.8889
 2111SOL     OW17968   4.240   3.356   6.776  0.1523 -0.7316  0.2484
 2111SOL    HW117969   4.172   3.413   6.739 -2.0716 -2.8116  1.0747
 2111SOL    HW217970   4.205   3.329   6.861 -2.3613 -0.3608 -0.6447
 2112SOL     OW17971   3.265   0.229  10.156 -0.1446  0.5062 -0.1355
 2112SOL    HW117972   3.327   0.301  10.157 -1.4864  1.6790 -1.0015
 2112SOL    HW217973   3.231   0.240  10.244  2.2599 -0.2773  0.8884
 2113SOL     OW17974   1.529   2.958   8.516  0.0484  0.5417  0.7676
 2113SOL    HW117975   1.518   2.903   8.594  0.2398  0.7336  0.9300
 2113SOL    HW217976   1.623   2.977   8.521  0.1325  1.1466 -3.3534
 2114SOL     OW17977   3.826   2.425   3.088  0.3491 -0.0474 -0.0577
 2114SOL    HW117978   3.902   2.417   3.030  1.6838  1.2812  1.4852
 2114SOL    HW217979   3.820   2.521   3.083  1.0690  0.0826  1.4156
 2115SOL     OW17980   2.662   1.357   3.284  0.0871  0.0618  0.1353
 2115SOL    HW117981   2.701   1.281   3.240 -1.6604  0.0402 -1.3976
 2115SOL    HW217982   2.583   1.385   3.238 -0.6130 -0.8112  0.7959
 2116SOL     OW17983   4.181   4.177  12.754  0.3704 -0.5954 -0.0066
 2116SOL    HW117984   4.162   4.228  12.833  3.1481  1.9553 -0.9770
 2116SOL    HW217985   4.133   4.231  12.692 -0.2735 -0.6775  0.4197
 2117SOL     OW17986   2.503   4.196   7.941 -0.4153 -0.1266  0.4804
 2117SOL    HW117987   2.473   4.154   7.861  1.3822  2.3869 -1.5145
 2117SOL    HW217988   2.484   4.143   8.018 -0.3196 -0.0620  0.5489
 2118SOL     OW17989   3.394   3.558   6.174  0.0239 -0.0469 -0.1716
 2118SOL    HW117990   3.303   3.558   6.143  0.5800 -1.1781 -1.7635
 2118SOL    HW217991   3.426   3.642   6.142  0.6184 -0.0256  0.4688
 2119SOL     OW17992   4.211   4.168   3.233 -0.4411 -0.2278  0.3900
 2119SOL    HW117993   4.174   4.211   3.310  2.3901 -0.4663  1.8783
 2119SOL    HW217994   4.183   4.227   3.163  1.6333 -0.4227 -0.5984
 2120SOL     OW17995   2.164   3.243   4.882 -0.0287  0.5802  0.3254
 2120SOL    HW117996   2.083   3.199   4.858  0.4894  0.1274 -0.6191
 2120SOL    HW217997   2.174   3.211   4.972 -1.3581 -2.4747 -0.6037
 2121SOL     OW17998   2.067   2.350   8.259  0.3845  0.0882  0.0585
 2121SOL    HW117999   2.026   2.417   8.205 -0.0184  0.0820  0.3553
 2121SOL    HW218000   2.143   2.404   8.280  0.6719 -0.2424 -0.1334
 2122SOL     OW18001   2.080   4.459   7.877 -0.3998 -0.1575  0.0688
 2122SOL    HW118002   2.157   4.478   7.930  0.3380  1.1343 -1.4705
 2122SOL    HW218003   2.015   4.441   7.945  0.4809 -0.0006  0.9537
 2123SOL     OW18004   2.984   0.573   4.342 -0.5582 -0.1399 -0.7928
 2123SOL    HW118005   3.063   0.584   4.288  0.8346 -2.5343  0.7461
 2123SOL    HW218006   2.926   0.642   4.311 -2.5250 -1.1651  0.6737
 2124SOL     OW18007   1.652   1.706   3.587 -0.0017 -0.1020 -0.2358
 2124SOL    HW118008   1.650   1.621   3.542 -0.9900  0.1496 -0.6904
 2124SOL    HW218009   1.651   1.684   3.680 -1.9511 -1.2041 -0.5161
 2125SOL     OW18010   3.967   2.236  16.557  0.2613  0.5508  0.3848
 2125SOL    HW118011   3.988   2.204  16.645  1.6253  0.5491  0.0691
 2125SOL    HW218012   3.916   2.167  16.514 -0.3067  0.8238  0.6225
 2126SOL     OW18013   1.788   1.426   7.368  0.3393 -0.3266 -0.0194
 2126SOL    HW118014   1.736   1.373   7.428 -0.6923  2.7565  1.8006
 2126SOL    HW218015   1.726   1.427   7.295  0.4756  1.9114 -0.0856
 2127SOL     OW18016   4.333   4.686   2.099  0.3231 -0.4285  0.2521
 2127SOL    HW118017   4.370   4.610   2.053 -0.3208 -0.9995  0.6683
 2127SOL    HW218018   4.404   4.709   2.160  0.4336  0.6464 -0.2846
 2128SOL     OW18019   1.227   3.297   2.288  0.5611 -0.1666  0.0235
 2128SOL    HW118020   1.256   3.222   2.237  0.8959 -0.6644  0.9399
 2128SOL    HW218021   1.284   3.365   2.251  1.1067 -0.6046  0.0501
 2129SOL     OW18022   2.335   2.084   6.446  0.5462  0.4598 -0.4214
 2129SOL    HW118023   2.412   2.034   6.475  0.5399 -0.2720 -1.6802
 2129SOL    HW218024   2.330   2.042   6.360  0.5923 -0.5047  0.0505
 2130SOL     OW18025   3.325   1.185  16.978 -0.3447  0.1794 -0.6634
 2130SOL    HW118026   3.313   1.116  17.043 -4.2740  1.3400 -0.1216
 2130SOL    HW218027   3.379   1.247  17.027 -0.7802  1.3543 -1.6597
 2131SOL     OW18028   4.177   1.841   5.240  0.3357  0.0993 -0.4770
 2131SOL    HW118029   4.098   1.787   5.234  1.2224 -1.0890 -1.4262
 2131SOL    HW218030   4.203   1.842   5.148  1.7899  0.0478 -0.0675
 2132SOL     OW18031   2.446   1.183   6.373 -0.2684 -0.6062  0.1000
 2132SOL    HW118032   2.372   1.122   6.375 -0.7263 -0.1074 -1.8626
 2132SOL    HW218033   2.455   1.199   6.279  0.3675  1.0895  0.4506
 2133SOL     OW18034   0.424   4.535   5.138 -0.3365  0.1057  0.1318
 2133SOL    HW118035   0.333   4.530   5.111 -0.5419  0.3163  0.7912
 2133SOL    HW218036   0.421   4.509   5.230 -1.2739  1.2077  0.4039
 2134SOL     OW18037   1.498   1.330   3.272 -0.0259 -0.0833 -0.0325
 2134SOL    HW118038   1.498   1.426   3.265 -0.6698 -0.1612 -1.1332
 2134SOL    HW218039   1.470   1.322   3.181 -1.4251 -1.1115  0.4802
 2135SOL     OW18040   0.709   2.698  17.531  0.1671 -0.5084 -0.0420
 2135SOL    HW118041   0.746   2.785  17.518  2.3732 -1.2994  0.9315
 2135SOL    HW218042   0.644   2.705  17.461 -0.5699 -3.0629  0.3846
 2136SOL     OW18043   4.629   4.188  12.324 -0.6830 -0.5375 -0.1144
 2136SOL    HW118044   4.594   4.135  12.396 -0.6417 -0.3167  0.0680
 2136SOL    HW218045   4.684   4.120  12.284  1.2824  1.1226 -0.2151
 2137SOL     OW18046   0.964   1.155  10.218 -0.6032  0.7670 -0.3495
 2137SOL    HW118047   0.984   1.207  10.296 -1.7276  1.1732 -0.3223
 2137SOL    HW218048   1.037   1.094  10.211 -0.2094  1.2817 -0.7495
 2138SOL     OW18049   0.270   4.333   4.111 -0.0705  0.5463 -0.1289
 2138SOL    HW118050   0.282   4.411   4.057  1.0781  1.7840  1.9215
 2138SOL    HW218051   0.282   4.371   4.198  0.4575 -1.5861  0.7040
 2139SOL     OW18052   1.479   2.784  16.935 -0.0233  0.2424 -0.0205
 2139SOL    HW118053   1.523   2.814  16.855  3.8027  3.4044  3.2591
 2139SOL    HW218054   1.486   2.690  16.919  0.3060  0.3316 -0.3943
 2140SOL     OW18055   2.583   2.365  13.402  1.0616  0.2281  0.0123
 2140SOL    HW118056   2.518   2.297  13.417  0.1080  0.8639 -1.2153
 2140SOL    HW218057   2.541   2.449  13.384  1.8048  0.5801 -0.0817
 2141SOL     OW18058   2.140   2.314   7.150 -0.2632 -0.8941  0.0376
 2141SOL    HW118059   2.117   2.278   7.064 -1.3580  1.9840 -0.8778
 2141SOL    HW218060   2.214   2.368   7.122 -2.0176  1.2307 -0.5339
 2142SOL     OW18061   1.441   2.215   5.650  0.2749  0.2250  0.2895
 2142SOL    HW118062   1.411   2.265   5.574  0.8923 -0.7004 -0.5622
 2142SOL    HW218063   1.393   2.132   5.644 -0.3824  0.6469 -0.3494
 2143SOL     OW18064   3.370   3.497   4.214  0.5423  0.2015 -0.2583
 2143SOL    HW118065   3.457   3.525   4.188 -0.8381  4.5824 -0.0482
 2143SOL    HW218066   3.385   3.463   4.302 -1.2213 -0.2412 -0.1098
 2144SOL     OW18067   0.798   0.403   4.296 -0.0839 -0.5302  0.0765
 2144SOL    HW118068   0.836   0.376   4.380 -0.9690  2.5847  1.5104
 2144SOL    HW218069   0.708   0.375   4.307 -0.2403  0.3267  1.0073
 2145SOL     OW18070   2.526   3.131   3.693 -0.0973 -0.2421 -0.3779
 2145SOL    HW118071   2.475   3.067   3.743  1.6694 -2.1421 -1.0112
 2145SOL    HW218072   2.458   3.187   3.657  1.2570  1.1417 -0.7978
 2146SOL     OW18073   4.438   0.592  10.972 -0.3549 -0.4455  0.0079
 2146SOL    HW118074   4.448   0.499  10.991  2.2301 -0.4507 -1.3795
 2146SOL    HW218075   4.431   0.617  11.064  3.3256  0.9627 -0.0649
 2147SOL     OW18076   0.812   3.618   6.601  0.3576 -0.1796 -0.1635
 2147SOL    HW118077   0.787   3.602   6.692  0.2454  0.8476 -0.0165
 2147SOL    HW218078   0.907   3.615   6.609  0.3071  0.7083  0.7927
 2148SOL     OW18079   1.183   4.661  14.764 -0.0955 -0.3786  0.4243
 2148SOL    HW118080   1.139   4.644  14.680  0.1820 -0.5751  0.3201
 2148SOL    HW218081   1.118   4.711  14.812  0.3520  0.0408  0.5900
 2149SOL     OW18082   2.009   1.979  16.593  1.0369 -0.4823  0.0498
 2149SOL    HW118083   2.090   1.994  16.545  0.7476  0.0273 -0.2795
 2149SOL    HW218084   2.030   1.902  16.646  1.4713 -0.3912  0.0103
 2150SOL     OW18085   3.201   2.443   4.846  0.0782 -0.6605 -0.1576
 2150SOL    HW118086   3.254   2.495   4.906  0.3157  0.5407 -1.4026
 2150SOL    HW218087   3.246   2.450   4.762  0.5675  0.7954  0.2299
 2151SOL     OW18088   3.009   3.760   2.440 -0.3145  0.2531 -0.9160
 2151SOL    HW118089   2.997   3.854   2.457 -0.6463  0.3920 -1.9586
 2151SOL    HW218090   2.955   3.726   2.511 -1.8992 -0.2178 -2.3645
 2152SOL     OW18091   3.288   2.041   6.457 -0.4002 -0.1743 -0.2062
 2152SOL    HW118092   3.329   2.126   6.442  0.7217 -0.8210 -0.7836
 2152SOL    HW218093   3.289   2.042   6.552 -1.5815 -1.7506 -0.1691
 2153SOL     OW18094   3.348   1.639  16.668 -0.1461  0.2625 -0.4648
 2153SOL    HW118095   3.439   1.615  16.650 -0.3208 -0.8165  0.1061
 2153SOL    HW218096   3.368   1.728  16.698 -1.2472 -0.2435  1.7455
 2154SOL     OW18097   2.702   4.114   8.925 -0.1081  0.4505 -0.0870
 2154SOL    HW118098   2.776   4.075   8.972 -1.0324 -1.0900  0.0939
 2154SOL    HW218099   2.709   4.208   8.941 -1.3203  0.7758 -1.4555
 2155SOL     OW18100   0.368   0.184   2.370  0.6128 -0.4373  0.2951
 2155SOL    HW118101   0.303   0.206   2.436 -0.2932 -0.4037 -0.6179
 2155SOL    HW218102   0.322   0.158   2.290  0.3285 -0.3497  0.4308
 2156SOL     OW18103   2.811   3.338  16.755  0.1141 -0.0452  0.5323
 2156SOL    HW118104   2.738   3.322  16.815 -0.4113 -2.1325 -0.6559
 2156SOL    HW218105   2.815   3.433  16.756 -5.0369  0.1679  0.2686
 2157SOL     OW18106   2.407   2.025   1.735  0.1319 -0.1243 -0.2409
 2157SOL    HW118107   2.493   2.048   1.770 -0.9798  0.2900  2.2063
 2157SOL    HW218108   2.419   2.020   1.640 -1.6982 -0.3431 -0.4528
 2158SOL     OW18109   0.152   2.225  17.599 -0.3529 -0.7380 -0.1118
 2158SOL    HW118110   0.094   2.197  17.670  2.3795  0.0455  2.4279
 2158SOL    HW218111   0.117   2.172  17.527 -0.5898  0.6040 -0.9818
 2159SOL     OW18112   2.838   4.683   0.736 -0.3111 -0.2941  0.3317
 2159SOL    HW118113   2.815   0.011   0.801 -4.0490 -2.3260  1.1234
 2159SOL    HW218114   2.753   4.675   0.692 -0.1678  1.3761 -0.2683
 2160SOL     OW18115   2.158   2.765   3.164 -0.1192  0.5457  0.0740
 2160SOL    HW118116   2.103   2.722   3.099  1.5306 -1.3372 -0.1019
 2160SOL    HW218117   2.092   2.796   3.226 -0.3547 -1.4562  0.8321
 2161SOL     OW18118   3.971   2.805   2.093 -0.9367 -0.2675 -0.5279
 2161SOL    HW118119   4.042   2.838   2.149 -2.3967  0.8520  0.6582
 2161SOL    HW218120   3.956   2.885   2.043  2.1462 -0.4857 -1.8218
 2162SOL     OW18121   4.652   1.924   8.433 -0.5820 -0.5061  0.1756
 2162SOL    HW118122   4.611   1.867   8.498  0.3718 -1.3056  0.0763
 2162SOL    HW218123   4.603   2.005   8.445 -1.7368 -1.1942  0.1401
 2163SOL     OW18124   3.997   1.638   3.302 -0.0753 -0.5902  0.4846
 2163SOL    HW118125   4.032   1.719   3.337 -1.3688 -0.0249  0.4600
 2163SOL    HW218126   3.920   1.628   3.357  1.6963 -0.7742  2.9268
 2164SOL     OW18127   0.823   1.126  10.736  0.0571 -0.4857 -0.7355
 2164SOL    HW118128   0.734   1.117  10.703  0.1549 -0.5035 -0.9939
 2164SOL    HW218129   0.870   1.050  10.702  0.0173 -1.6928  1.8826
 2165SOL     OW18130   4.534   3.884   6.332 -0.0380  0.5047  0.0562
 2165SOL    HW118131   4.511   3.793   6.352  0.7968  0.6274  1.5431
 2165SOL    HW218132   4.599   3.904   6.398  0.1041  1.0373 -0.2443
 2166SOL     OW18133   3.208   3.176   4.535 -0.1278 -0.1921  0.4525
 2166SOL    HW118134   3.168   3.097   4.501  0.0556 -0.4623  0.8659
 2166SOL    HW218135   3.290   3.149   4.576  1.0846  0.3126 -1.6142
 2167SOL     OW18136   0.438   0.668   2.622 -0.2792  0.2891  0.4394
 2167SOL    HW118137   0.474   0.627   2.700  0.6098 -0.8871 -0.5770
 2167SOL    HW218138   0.477   0.613   2.553  0.1312  2.7770 -1.2791
 2168SOL     OW18139   0.801   3.721   0.754  0.2147 -1.0307 -0.1550
 2168SOL    HW118140   0.826   3.805   0.792 -1.5437 -0.7942  0.4751
 2168SOL    HW218141   0.888   3.683   0.740  1.6036  1.5337  1.5442
 2169SOL     OW18142   3.966   0.119   7.608  0.1118 -0.0779 -0.4817
 2169SOL    HW118143   4.007   0.195   7.651 -0.7195  0.8404 -1.3157
 2169SOL    HW218144   3.931   0.159   7.528 -2.2405  1.5330  1.3372
 2170SOL     OW18145   3.880   3.988   9.216 -0.7063  0.5775  0.3506
 2170SOL    HW118146   3.929   4.063   9.182  0.3504  0.5795  1.9250
 2170SOL    HW218147   3.891   3.923   9.146  0.9030  0.8517  0.3649
 2171SOL     OW18148   1.031   1.728   5.649 -0.1195 -0.1776 -0.3376
 2171SOL    HW118149   0.964   1.664   5.625 -1.5931  1.6650 -1.2263
 2171SOL    HW218150   0.977   1.808   5.646  1.1821  0.7658  1.4325
 2172SOL     OW18151   2.400   3.517  11.773  0.7800  0.0996  0.4836
 2172SOL    HW118152   2.365   3.600  11.808 -0.7729 -0.6733  0.7903
 2172SOL    HW218153   2.455   3.558  11.707  0.4974 -0.3714 -0.0429
 2173SOL     OW18154   0.949   1.099   5.255  0.1393 -0.2222  0.4048
 2173SOL    HW118155   1.012   1.029   5.274  1.5547  1.1030  0.6319
 2173SOL    HW218156   0.965   1.102   5.160  1.4903 -2.5182  0.5527
 2174SOL     OW18157   3.150   2.118   1.590 -0.0559  0.4183  0.4474
 2174SOL    HW118158   3.105   2.176   1.528  0.3708  0.5017  0.2143
 2174SOL    HW218159   3.168   2.044   1.532 -0.4866  1.9602 -1.6593
 2175SOL     OW18160   0.293   3.159   0.254  0.3049  0.0392  0.6383
 2175SOL    HW118161   0.370   3.102   0.261 -0.4580 -1.1239 -0.4155
 2175SOL    HW218162   0.331   3.245   0.236 -1.1741  0.3840 -0.8071
 2176SOL     OW18163   2.572   0.093   6.201  0.4049 -0.0750  0.2455
 2176SOL    HW118164   2.624   0.158   6.248  2.5351  0.3568 -2.7684
 2176SOL    HW218165   2.486   0.108   6.241 -1.3580 -1.1970 -3.1749
 2177SOL     OW18166   4.106   0.933   4.085  0.3603 -0.2268 -0.3656
 2177SOL    HW118167   4.063   0.851   4.060  0.6238  0.2922 -2.5485
 2177SOL    HW218168   4.194   0.903   4.110  0.2324 -0.0389  0.2979
 2178SOL     OW18169   3.603   2.422   6.106 -0.0408 -0.5141 -0.1434
 2178SOL    HW118170   3.547   2.441   6.181  1.2516  1.2496  0.3936
 2178SOL    HW218171   3.669   2.492   6.112 -0.0037 -0.6152  0.6175
 2179SOL     OW18172   1.791   2.964   6.747  0.2162 -0.1608 -0.0282
 2179SOL    HW118173   1.866   2.940   6.693  0.9433 -1.9335  1.7447
 2179SOL    HW218174   1.818   3.051   6.775  3.2374 -0.4673 -2.0766
 2180SOL     OW18175   1.569   1.725   2.145  0.0258  0.1453 -0.3407
 2180SOL    HW118176   1.528   1.658   2.090 -0.6544 -0.2071  0.5802
 2180SOL    HW218177   1.616   1.776   2.080  2.4911  0.3840  1.6290
 2181SOL     OW18178   3.441   2.283   7.114  0.0497 -0.0251 -0.3411
 2181SOL    HW118179   3.397   2.216   7.063 -0.3757  0.3342 -0.4436
 2181SOL    HW218180   3.357   2.313   7.149  0.4397 -0.5903  1.0788
 2182SOL     OW18181   2.001   1.355  13.013  0.1105 -0.5947 -0.0465
 2182SOL    HW118182   2.012   1.429  13.073  1.3417 -0.6883 -0.1595
 2182SOL    HW218183   1.911   1.368  12.982 -0.4071 -0.0289  1.6867
 2183SOL     OW18184   1.875   2.965   4.011 -0.7888 -0.3484  0.1398
 2183SOL    HW118185   1.900   2.971   4.103 -0.2086  1.3988 -0.1151
 2183SOL    HW218186   1.919   2.886   3.980 -1.7133 -0.7696 -0.1081
 2184SOL     OW18187   2.749   2.826   3.616 -0.2149 -0.1085 -0.4717
 2184SOL    HW118188   2.696   2.829   3.696  2.4406  0.4759  1.2665
 2184SOL    HW218189   2.832   2.860   3.649  0.3313 -1.5896 -0.2980
 2185SOL     OW18190   3.512   1.756   4.933  0.0881 -0.2488 -0.2401
 2185SOL    HW118191   3.601   1.791   4.935 -0.3650  0.9354 -0.9923
 2185SOL    HW218192   3.509   1.673   4.981  0.3008 -0.1310 -0.0273
 2186SOL     OW18193   4.701   3.887   6.537 -0.0429 -0.3035 -0.2018
 2186SOL    HW118194   4.663   3.898   6.624 -0.2604 -2.0241 -0.0610
 2186SOL    HW218195   0.052   3.917   6.545  0.0545 -0.5157 -0.4669
 2187SOL     OW18196   3.468   3.445   4.676  0.0689 -0.4728 -0.2174
 2187SOL    HW118197   3.402   3.494   4.628 -1.1041 -3.2218 -1.4031
 2187SOL    HW218198   3.452   3.478   4.765 -0.3307  1.3774 -0.9915
 2188SOL     OW18199   0.049   3.038   4.396  0.4848 -0.0071 -0.2608
 2188SOL    HW118200   4.716   3.025   4.334  0.2812 -1.7413  0.3432
 2188SOL    HW218201   0.038   2.964   4.456 -0.2951 -1.5991 -2.3691
 2189SOL     OW18202   4.224   1.623   8.321 -0.5530 -0.6525 -0.4960
 2189SOL    HW118203   4.253   1.552   8.379  1.7783 -1.5148 -2.7301
 2189SOL    HW218204   4.261   1.598   8.237 -2.6855  0.9284 -1.8849
 2190SOL     OW18205   2.099   3.827   8.183  0.1246  0.4843 -0.1505
 2190SOL    HW118206   2.129   3.737   8.169 -0.2733  0.2954  0.1953
 2190SOL    HW218207   2.141   3.877   8.113 -0.2824  1.0059 -0.0259
 2191SOL     OW18208   1.973   3.560   2.869  0.3367 -0.6400 -0.6602
 2191SOL    HW118209   2.025   3.582   2.792 -0.3281  0.6601 -0.7261
 2191SOL    HW218210   1.958   3.466   2.857  0.1980 -0.7129  0.0716
 2192SOL     OW18211   3.157   1.597   9.500 -0.5028 -0.1810  0.3051
 2192SOL    HW118212   3.197   1.625   9.418 -0.4216  0.5842  0.5988
 2192SOL    HW218213   3.119   1.515   9.470  0.7980 -0.2401 -1.2086
 2193SOL     OW18214   3.216   3.304  17.321 -0.2731  0.1978 -0.2967
 2193SOL    HW118215   3.289   3.265  17.273 -0.3938  2.5248 -2.3875
 2193SOL    HW218216   3.209   3.385  17.271  1.8678  2.2870  2.7948
 2194SOL     OW18217   0.262   4.024  11.362  0.4057 -0.3148  0.3851
 2194SOL    HW118218   0.224   3.966  11.296 -0.7666 -1.4534  2.0658
 2194SOL    HW218219   0.314   4.074  11.299 -0.1465 -1.3795 -0.9101
 2195SOL     OW18220   3.436   1.524   0.771 -0.3058 -0.1291 -0.9205
 2195SOL    HW118221   3.489   1.599   0.744  0.0681  0.3877  1.2216
 2195SOL    HW218222   3.350   1.566   0.778 -1.0494 -1.5683 -1.2498
 2196SOL     OW18223   3.053   2.317  11.864 -0.3706 -0.0857  0.8190
 2196SOL    HW118224   3.135   2.320  11.815 -0.2398  0.9263  1.1053
 2196SOL    HW218225   3.083   2.351  11.949  0.4588  3.6522 -1.0045
 2197SOL     OW18226   0.823   1.768  16.266 -0.6263  0.3675  0.1490
 2197SOL    HW118227   0.835   1.860  16.241  2.9418 -0.0314  0.3170
 2197SOL    HW218228   0.841   1.765  16.360  1.0337  0.5274 -0.1557
 2198SOL     OW18229   0.125   2.258   5.838 -0.1525  0.0893  0.0876
 2198SOL    HW118230   0.070   2.336   5.839 -1.0666 -0.5576 -0.0157
 2198SOL    HW218231   0.136   2.245   5.744  3.3983 -0.0483  0.5068
 2199SOL     OW18232   1.820   0.389  10.849  0.3670  0.1861  0.3387
 2199SOL    HW118233   1.904   0.409  10.807  2.2943 -2.9121  2.6717
 2199SOL    HW218234   1.819   0.294  10.837 -0.9641  0.1967  0.4448
 2200SOL     OW18235   0.474   2.120   0.055  0.5395 -0.2005  0.2130
 2200SOL    HW118236   0.476   2.206   0.014 -1.6097  0.4961  1.5777
 2200SOL    HW218237   0.526   2.073  17.744  1.1904  1.0382 -0.1546
 2201SOL     OW18238   4.099   2.341  14.166 -0.0220 -0.5732 -0.5084
 2201SOL    HW118239   4.081   2.248  14.180  0.2062 -0.6060 -0.4342
 2201SOL    HW218240   4.095   2.377  14.255  0.3645  1.5544 -1.3555
 2202SOL     OW18241   0.815   2.579   0.385 -0.3722 -0.2348 -0.4371
 2202SOL    HW118242   0.784   2.626   0.308 -1.4500  1.4371  1.0338
 2202SOL    HW218243   0.748   2.607   0.448 -0.8133  0.4117 -1.2051
 2203SOL     OW18244   0.174   3.138  11.896  0.0368 -0.3245 -0.1686
 2203SOL    HW118245   0.251   3.185  11.927 -0.8001  0.3866  0.8060
 2203SOL    HW218246   0.122   3.204  11.850 -1.4848  0.2833  2.4288
 2204SOL     OW18247   2.072   0.663   2.815  0.0525  0.0523  0.3764
 2204SOL    HW118248   2.092   0.571   2.797 -0.5482  0.4110 -2.1611
 2204SOL    HW218249   2.001   0.672   2.751 -1.0434 -2.2387  1.2933
 2205SOL     OW18250   4.481   3.731   5.246 -0.2789 -0.7072  0.1955
 2205SOL    HW118251   4.568   3.751   5.279  0.0950  0.6701 -1.6241
 2205SOL    HW218252   4.480   3.782   5.165 -0.3310 -2.0888 -0.6758
 2206SOL     OW18253   0.632   2.290  17.106 -0.1127 -0.3078  0.3407
 2206SOL    HW118254   0.700   2.305  17.040 -1.8065  0.7583 -1.1836
 2206SOL    HW218255   0.643   2.362  17.168  2.6466 -1.7122  1.5023
 2207SOL     OW18256   3.816   4.290  15.871  0.3500 -0.2854  0.1372
 2207SOL    HW118257   3.755   4.217  15.863 -1.9621  1.2479  3.3473
 2207SOL    HW218258   3.782   4.335  15.794  1.6959 -2.6346 -1.8058
 2208SOL     OW18259   1.708   0.789  14.381 -0.1824  0.1989  0.0952
 2208SOL    HW118260   1.634   0.728  14.387  0.5847 -0.4796  2.4111
 2208SOL    HW218261   1.781   0.728  14.374 -1.8444 -1.5324 -2.0865
 2209SOL     OW18262   0.934   2.893   2.992 -0.7991 -0.0789 -0.2839
 2209SOL    HW118263   0.997   2.888   2.921  0.8791  0.8516  1.1416
 2209SOL    HW218264   0.894   2.978   2.974  1.0021  0.7499 -0.2976
 2210SOL     OW18265   4.350   0.198   3.123 -0.6435 -0.2269  0.7117
 2210SOL    HW118266   4.389   0.111   3.133 -2.4693 -1.0728  0.3940
 2210SOL    HW218267   4.411   0.251   3.173  1.5163  0.7689 -2.9317
 2211SOL     OW18268   3.088   0.283  13.985 -0.7524  0.0430  0.1892
 2211SOL    HW118269   3.131   0.350  14.039  0.5314 -0.9177  0.3649
 2211SOL    HW218270   3.113   0.321  13.901  1.3644  1.3291  1.3870
 2212SOL     OW18271   4.151   0.849   3.307 -0.4282 -0.2205  0.4119
 2212SOL    HW118272   4.070   0.858   3.256  1.4165  1.0030 -2.3138
 2212SOL    HW218273   4.117   0.826   3.393 -1.6237  0.6715  0.1824
 2213SOL     OW18274   0.871   4.259  13.343  0.0462 -0.3837  0.3329
 2213SOL    HW118275   0.883   4.350  13.314  1.3089 -0.3804  0.8658
 2213SOL    HW218276   0.819   4.269  13.423  0.3084  0.5473  0.3892
 2214SOL     OW18277   1.175   3.447   3.034 -0.2033  0.0827  0.0151
 2214SOL    HW118278   1.141   3.358   3.036  2.2756 -0.8088  2.3342
 2214SOL    HW218279   1.209   3.447   3.124 -1.4536 -0.5377  0.4829
 2215SOL     OW18280   0.453   0.907   3.499  0.1895 -0.3722  0.0689
 2215SOL    HW118281   0.504   0.880   3.576  0.5662  1.7190  0.5401
 2215SOL    HW218282   0.493   0.983   3.458  0.5268 -1.0210 -0.7984
 2216SOL     OW18283   1.291   0.599   7.589  0.4181 -0.3767 -0.1520
 2216SOL    HW118284   1.296   0.525   7.528 -2.2881  0.0588 -0.8983
 2216SOL    HW218285   1.247   0.560   7.665 -0.3102  1.0867  0.1858
 2217SOL     OW18286   4.214   2.313   1.335 -0.0446  0.1585  0.3385
 2217SOL    HW118287   4.190   2.358   1.253  1.4304  0.4955  0.0940
 2217SOL    HW218288   4.188   2.380   1.398 -0.5484 -0.0837  0.3885
 2218SOL     OW18289   3.004   2.635   8.248 -0.1434  0.4966 -0.1250
 2218SOL    HW118290   3.020   2.729   8.255 -2.3089  0.8264  0.1677
 2218SOL    HW218291   2.930   2.631   8.308  0.2041  0.9215  0.3327
 2219SOL     OW18292   2.364   4.511  10.364  0.2332 -0.2052 -0.2961
 2219SOL    HW118293   2.313   4.488  10.441  0.2579  2.2663  0.4427
 2219SOL    HW218294   2.453   4.486  10.388  0.1261 -0.6847 -0.3913
 2220SOL     OW18295   2.339   4.476  13.018  0.0824 -0.3332 -0.2484
 2220SOL    HW118296   2.264   4.417  13.012 -0.4397  0.2441  0.6955
 2220SOL    HW218297   2.349   4.472  13.114 -2.3800  1.7884  0.0868
 2221SOL     OW18298   4.634   2.062  10.089 -0.1793  0.6199 -0.5249
 2221SOL    HW118299   4.637   1.978  10.044  2.3521 -0.3303  1.4093
 2221SOL    HW218300   4.716   2.103  10.060  0.8036 -0.7591  0.3427
 2222SOL     OW18301   4.731   3.450   3.582 -0.1434  0.6638 -0.2202
 2222SOL    HW118302   0.072   3.451   3.529 -0.1394 -2.8426 -0.3026
 2222SOL    HW218303   4.667   3.488   3.523  3.3170  2.0818 -3.0859
 2223SOL     OW18304   0.212   3.722   4.470  0.4718  0.2978  0.0097
 2223SOL    HW118305   0.194   3.641   4.423 -1.5618  1.3810 -1.0778
 2223SOL    HW218306   0.126   3.763   4.475  0.8378  1.0675  0.0480
 2224SOL     OW18307   1.291   0.535  15.499  0.2525  0.2181  0.6873
 2224SOL    HW118308   1.381   0.509  15.516 -0.1738 -0.8766  1.2673
 2224SOL    HW218309   1.249   0.476  15.562 -0.9003  0.3223  0.0338
 2225SOL     OW18310   4.586   4.648   2.647 -0.6877  0.3683  0.0187
 2225SOL    HW118311   4.653   4.665   2.713 -0.6664  3.2472 -0.7742
 2225SOL    HW218312   4.608   4.713   2.580  0.4212  1.1677  1.1677
 2226SOL     OW18313   4.088   3.363   9.351  0.2564  0.1116  0.1613
 2226SOL    HW118314   4.150   3.330   9.287  0.0500  0.4239 -0.2042
 2226SOL    HW218315   4.036   3.291   9.388 -0.7222  2.0273  2.5671
 2227SOL     OW18316   4.003   3.782   8.921  0.1414 -0.0464 -0.8661
 2227SOL    HW118317   3.997   3.716   8.852 -0.4726 -3.3489  2.3147
 2227SOL    HW218318   4.043   3.859   8.881 -2.0232  1.7055  0.3792
 2228SOL     OW18319   1.559   4.000   1.323 -0.5168 -0.0788  0.4060
 2228SOL    HW118320   1.493   3.968   1.261 -0.4215  0.1989  0.1585
 2228SOL    HW218321   1.639   4.011   1.270  0.3748  0.1926  1.8177
 2229SOL     OW18322   0.210   1.258  13.672  0.2340 -0.4200 -0.2512
 2229SOL    HW118323   0.126   1.295  13.646 -0.4716 -2.3496 -0.7221
 2229SOL    HW218324   0.183   1.202  13.744  0.1527 -0.9657 -0.7011
 2230SOL     OW18325   1.171   1.297   7.775  0.0035  0.8932  0.2247
 2230SOL    HW118326   1.135   1.248   7.848 -0.3725  0.5981 -0.1573
 2230SOL    HW218327   1.219   1.369   7.815 -1.6256  2.6524 -0.9627
 2231SOL     OW18328   0.203   1.852   0.485  0.2476 -0.0969  0.5269
 2231SOL    HW118329   0.239   1.783   0.430 -0.5886  0.7950 -1.1425
 2231SOL    HW218330   0.282   1.872   0.535  1.1503 -0.1034 -0.8913
 2232SOL     OW18331   4.297   3.826   9.499 -0.0461  0.5792  0.0474
 2232SOL    HW118332   4.251   3.811   9.581 -0.6882  0.7680 -0.2746
 2232SOL    HW218333   4.232   3.874   9.447 -0.1841  0.6869  0.3183
 2233SOL     OW18334   3.281   2.059  12.092 -0.0410 -0.4729 -0.2435
 2233SOL    HW118335   3.296   1.979  12.142 -1.1520  0.4726  1.6138
 2233SOL    HW218336   3.251   2.022  12.009 -1.4847  2.9124 -1.2461
 2234SOL     OW18337   2.492   0.350   7.007  0.4578  0.0819  0.3941
 2234SOL    HW118338   2.477   0.276   7.066  2.8686 -1.5768 -1.0503
 2234SOL    HW218339   2.537   0.294   6.943 -0.2620  1.0655 -0.9642
 2235SOL     OW18340   4.443   0.806  16.821 -0.5578 -0.4794  0.3240
 2235SOL    HW118341   4.481   0.740  16.879  0.6928  1.2767  1.5268
 2235SOL    HW218342   4.369   0.770  16.772  1.1147  1.9346 -3.9801
 2236SOL     OW18343   3.582   1.286  16.194 -0.0654  0.7243 -0.0066
 2236SOL    HW118344   3.652   1.318  16.137  2.9079 -2.4389  1.8869
 2236SOL    HW218345   3.513   1.280  16.127 -1.4818 -1.1011  1.6217
 2237SOL     OW18346   1.957   2.627  17.531 -1.3708 -0.6121  0.5469
 2237SOL    HW118347   1.954   2.714  17.570  0.3674  0.1502 -1.0660
 2237SOL    HW218348   1.948   2.643  17.437 -1.9003  0.7862  0.8333
 2238SOL     OW18349   1.756   1.204   5.064  0.2491 -0.0086 -0.0450
 2238SOL    HW118350   1.711   1.209   4.979 -1.3230 -0.0349  0.7923
 2238SOL    HW218351   1.764   1.110   5.079  1.4418  0.0118 -0.4813
 2239SOL     OW18352   3.088   1.670   1.721 -0.1514  0.1467 -0.4314
 2239SOL    HW118353   3.003   1.706   1.746 -0.0535  1.1479 -1.5526
 2239SOL    HW218354   3.127   1.748   1.681  3.3693 -1.1266  0.4884
 2240SOL     OW18355   3.034   2.080   7.258  0.0605  0.3244 -0.1682
 2240SOL    HW118356   3.051   2.014   7.325 -0.8102  0.7460  0.4548
 2240SOL    HW218357   2.989   2.145   7.312 -0.6050 -0.8789  0.7207
 2241SOL     OW18358   0.669   3.378   2.265 -0.2125 -0.4651  0.1961
 2241SOL    HW118359   0.628   3.337   2.189 -2.1085 -1.0002  1.5050
 2241SOL    HW218360   0.761   3.355   2.256 -0.4624 -1.6596  0.6941
 2242SOL     OW18361   3.955   2.929   0.287  0.5548 -0.7376  0.6332
 2242SOL    HW118362   4.046   2.939   0.259  0.5228  0.1958  0.8650
 2242SOL    HW218363   3.932   3.016   0.318  1.1599 -0.0567 -0.8199
 2243SOL     OW18364   2.202   3.019  10.035 -1.0599 -0.3166 -0.5741
 2243SOL    HW118365   2.213   2.942   9.979  0.4780 -1.6610  1.5851
 2243SOL    HW218366   2.175   2.968  10.112  1.4046 -0.2391  0.3355
 2244SOL     OW18367   3.514   4.618  15.161  0.0445  0.0546 -0.3209
 2244SOL    HW118368   3.589   4.656  15.208  0.9773 -1.4849 -0.5727
 2244SOL    HW218369   3.509   4.685  15.092 -1.5638  0.3301  0.0666
 2245SOL     OW18370   1.280   4.234   2.348 -0.6029 -0.0747 -0.0306
 2245SOL    HW118371   1.244   4.149   2.323 -1.4485  0.1404  0.4682
 2245SOL    HW218372   1.373   4.209   2.351 -0.4327  0.6450  0.6279
 2246SOL     OW18373   3.047   0.659  14.582 -0.6121  0.2154  0.3430
 2246SOL    HW118374   2.977   0.723  14.570 -1.5067 -1.0732 -1.2375
 2246SOL    HW218375   3.113   0.721  14.612 -0.5211 -0.3481  1.3189
 2247SOL     OW18376   4.093   3.650   5.558 -0.0305  0.7237  0.3553
 2247SOL    HW118377   4.102   3.559   5.529  0.6601  0.8099  0.2868
 2247SOL    HW218378   4.129   3.698   5.483 -2.6538  0.4895 -1.0537
 2248SOL     OW18379   1.480   4.358  16.604  0.2257 -0.1967  0.5149
 2248SOL    HW118380   1.397   4.401  16.586  0.7808  0.3169 -0.8649
 2248SOL    HW218381   1.476   4.306  16.684 -1.5714 -1.1860 -0.2250
 2249SOL     OW18382   4.679   3.761   3.441  0.8418  0.3521 -0.1234
 2249SOL    HW118383   4.620   3.819   3.392  0.2306 -0.1098  0.0798
 2249SOL    HW218384   4.658   3.681   3.393  1.4413  0.1904 -0.1187
 2250SOL     OW18385   2.148   2.871   8.033  0.1980 -0.3136 -0.1222
 2250SOL    HW118386   2.209   2.848   8.103  0.2737 -1.2858 -0.5067
 2250SOL    HW218387   2.171   2.804   7.969 -0.1859  0.0327 -0.6212
 2251SOL     OW18388   3.123   4.631   7.245  0.0971  0.2987 -0.3374
 2251SOL    HW118389   3.105   4.539   7.226 -1.0710 -0.0558  2.4888
 2251SOL    HW218390   3.073   4.643   7.326 -2.3776 -1.3431 -1.6305
 2252SOL     OW18391   0.321   0.207   8.009 -0.2707  0.8205  0.2287
 2252SOL    HW118392   0.404   0.251   7.993  0.8087 -1.0430  0.6340
 2252SOL    HW218393   0.348   0.146   8.077  0.8126  0.2002 -0.7654
 2253SOL     OW18394   4.042   1.870   3.448 -0.0937 -0.5629  0.4063
 2253SOL    HW118395   4.126   1.896   3.487 -0.5305 -0.2020  1.1152
 2253SOL    HW218396   4.024   1.938   3.383  1.3815 -1.5449 -0.9997
 2254SOL     OW18397   1.768   2.087   5.322 -0.3975  0.2520  0.4550
 2254SOL    HW118398   1.774   2.144   5.245  2.1338 -0.5176  0.0745
 2254SOL    HW218399   1.761   2.146   5.397  0.6478  4.2647 -2.6166
 2255SOL     OW18400   2.491   1.616   9.214 -0.0531  0.1000 -0.2651
 2255SOL    HW118401   2.518   1.617   9.306  2.3456 -1.1107 -0.9535
 2255SOL    HW218402   2.395   1.615   9.209  0.0242  0.1260 -1.9361
 2256SOL     OW18403   1.054   1.711   3.451  0.2364 -0.3783 -0.7944
 2256SOL    HW118404   1.059   1.772   3.524 -0.8149 -0.2453 -0.8254
 2256SOL    HW218405   0.997   1.644   3.487  0.4301 -0.2778 -0.3056
 2257SOL     OW18406   2.717   4.494   8.670 -0.3514 -0.6023  0.7721
 2257SOL    HW118407   2.771   4.449   8.605  0.4348  0.5866  0.6142
 2257SOL    HW218408   2.716   4.577   8.622 -0.4440 -2.1515 -1.9207
 2258SOL     OW18409   3.689   0.352   8.219 -0.0339  0.2758 -0.4569
 2258SOL    HW118410   3.626   0.287   8.186  2.1809 -1.9139 -0.4300
 2258SOL    HW218411   3.672   0.426   8.162  2.9588  0.6562 -0.8863
 2259SOL     OW18412   4.370   4.251   5.444 -0.5321 -0.0653 -0.0809
 2259SOL    HW118413   4.436   4.182   5.455 -1.8674 -1.3558 -0.0961
 2259SOL    HW218414   4.315   4.211   5.376  0.0756  0.0816 -0.6516
 2260SOL     OW18415   4.287   1.602   4.406  0.1729 -0.0873  0.6113
 2260SOL    HW118416   4.254   1.533   4.348  1.8392  0.8020 -1.3775
 2260SOL    HW218417   4.325   1.551   4.477  1.7742  1.3278  0.7519
 2261SOL     OW18418   0.407   1.066   4.733  0.1114  0.2806  0.5041
 2261SOL    HW118419   0.449   1.151   4.724  0.1742  0.1315 -0.6090
 2261SOL    HW218420   0.463   1.030   4.801  0.9205  2.2346  0.8866
 2262SOL     OW18421   3.071   2.327   8.385 -0.4077  0.0867 -0.5531
 2262SOL    HW118422   3.148   2.287   8.343  1.0464  1.7483  0.5278
 2262SOL    HW218423   3.110   2.398   8.437 -0.7462 -1.3740  1.7094
 2263SOL     OW18424   1.321   0.891   5.903  0.4603  0.0151 -0.1972
 2263SOL    HW118425   1.256   0.874   5.971  2.8928 -0.2470  2.0779
 2263SOL    HW218426   1.269   0.885   5.824  1.5715  0.9271 -0.9959
 2264SOL     OW18427   3.955   4.633  10.378  0.2842 -0.3827 -0.1808
 2264SOL    HW118428   3.870   4.663  10.346 -0.5571 -1.6512  0.8469
 2264SOL    HW218429   3.935   4.573  10.450 -2.9467  0.7535 -0.1551
 2265SOL     OW18430   0.295   1.997   7.210 -0.2394 -0.0940  0.3134
 2265SOL    HW118431   0.377   1.986   7.258 -0.8246 -2.1132  0.8801
 2265SOL    HW218432   0.238   2.026   7.282 -0.8431 -1.0380  0.2142
 2266SOL     OW18433   2.203   3.669  10.222  0.1019  0.0324  0.1256
 2266SOL    HW118434   2.255   3.691  10.300  0.4395 -0.8299  0.1403
 2266SOL    HW218435   2.115   3.682  10.258  0.3856 -0.0981  0.8629
 2267SOL     OW18436   2.667   0.526   6.338 -0.4140 -0.1152 -0.0710
 2267SOL    HW118437   2.704   0.446   6.301  2.6446  1.3718 -0.2408
 2267SOL    HW218438   2.732   0.589   6.308 -0.7685  0.5362  0.5257
 2268SOL     OW18439   0.884   1.388  11.310  0.7200  0.1920  0.0567
 2268SOL    HW118440   0.843   1.394  11.397  0.0159  1.2200 -0.3510
 2268SOL    HW218441   0.863   1.475  11.277  0.2412  0.5688  1.3499
 2269SOL     OW18442   4.221   0.088   6.708  0.1686 -0.1492  0.3627
 2269SOL    HW118443   4.280   0.122   6.640  0.5669 -0.0478  0.7518
 2269SOL    HW218444   4.250   4.736   6.709  1.0555  0.1252  0.3856
 2270SOL     OW18445   3.240   4.233   6.015 -0.1933 -0.5944 -0.2907
 2270SOL    HW118446   3.303   4.223   6.087 -0.6043  0.1483  0.1750
 2270SOL    HW218447   3.296   4.250   5.939 -1.5108  1.0974 -0.8780
 2271SOL     OW18448   4.380   4.508   3.441  1.3461  0.3007 -0.1144
 2271SOL    HW118449   4.384   4.566   3.518  0.6403 -0.4044  0.4543
 2271SOL    HW218450   4.300   4.529   3.393  0.7983  0.6636  0.9608
 2272SOL     OW18451   2.919   0.280   7.773 -0.1379 -0.0794 -0.0558
 2272SOL    HW118452   2.969   0.208   7.810  0.4502 -0.4994 -1.6967
 2272SOL    HW218453   2.911   0.346   7.842  1.4491  0.1011 -0.0634
 2273SOL     OW18454   1.844   4.552   7.536  0.0641  0.2372 -0.0725
 2273SOL    HW118455   1.888   4.636   7.535  1.8159 -0.6563  1.2535
 2273SOL    HW218456   1.888   4.509   7.610 -3.4530  0.0217  1.9094
 2274SOL     OW18457   0.590   1.351   5.335  0.0126  0.3910  0.5094
 2274SOL    HW118458   0.583   1.371   5.242  2.5612 -3.4540 -0.5355
 2274SOL    HW218459   0.665   1.411   5.343 -0.8010  1.4211  0.4256
 2275SOL     OW18460   2.009   3.149   8.201  0.1192 -0.0636 -0.6497
 2275SOL    HW118461   1.971   3.108   8.123 -2.2797  1.7135 -0.4380
 2275SOL    HW218462   2.102   3.141   8.180  0.3100 -1.9999  0.9489
 2276SOL     OW18463   0.335   2.035  17.330  0.5574 -0.0427  0.3307
 2276SOL    HW118464   0.248   2.075  17.327  0.4230 -0.4365 -1.1184
 2276SOL    HW218465   0.329   1.958  17.386  0.3210  0.0000  0.3635
 2277SOL     OW18466   2.922   3.388   2.755  0.2309 -0.8598 -0.2139
 2277SOL    HW118467   2.875   3.328   2.813 -1.4384 -0.0013 -0.6903
 2277SOL    HW218468   2.853   3.444   2.722  0.3563 -1.1330 -0.9346
 2278SOL     OW18469   0.525   3.385  15.616 -0.0091 -0.0228 -0.1476
 2278SOL    HW118470   0.470   3.432  15.679 -2.0816 -3.5210  0.7011
 2278SOL    HW218471   0.595   3.353  15.674  1.6751  1.1730 -1.5529
 2279SOL     OW18472   3.952   0.565   9.351 -0.5290  0.0155 -0.2691
 2279SOL    HW118473   4.037   0.610   9.353 -0.4795 -0.0851 -0.1133
 2279SOL    HW218474   3.977   0.481   9.389 -2.5066  0.1271  1.3073
 2280SOL     OW18475   4.319   1.495   6.092  0.4598 -0.3203 -0.1379
 2280SOL    HW118476   4.285   1.483   6.004 -0.8924 -1.2499  0.5082
 2280SOL    HW218477   4.361   1.415   6.123 -2.2040 -1.7281 -0.1989
 2281SOL     OW18478   4.293   0.641   6.838  0.1258  0.1003 -0.1041
 2281SOL    HW118479   4.305   0.651   6.933 -2.3991 -1.2031  0.3492
 2281SOL    HW218480   4.229   0.570   6.838  0.3282 -0.0785  1.1612
 2282SOL     OW18481   2.826   3.963   1.596 -0.5563  0.2497  0.5037
 2282SOL    HW118482   2.824   3.977   1.501  1.1065  0.3130  0.4841
 2282SOL    HW218483   2.799   3.871   1.602 -0.8694  0.3584  0.7278
 2283SOL     OW18484   3.809   2.987  13.738 -0.1382  0.4819  0.3439
 2283SOL    HW118485   3.882   2.990  13.799  0.3330  0.2929 -0.2134
 2283SOL    HW218486   3.745   3.051  13.769  0.2935  0.9710  0.2185
 2284SOL     OW18487   2.124   1.800  17.445  0.8622  0.1100  0.7486
 2284SOL    HW118488   2.177   1.879  17.448  1.9805 -0.5101 -2.8093
 2284SOL    HW218489   2.044   1.842  17.414  1.9170  0.2131 -1.8513
 2285SOL     OW18490   2.754   1.273  11.807 -0.0229 -0.0718  0.4427
 2285SOL    HW118491   2.711   1.284  11.722 -0.0425  0.0078  0.4633
 2285SOL    HW218492   2.833   1.227  11.778 -1.1960 -1.0606 -1.1899
 2286SOL     OW18493   4.500   1.195   3.309 -0.3404 -0.1108 -0.0472
 2286SOL    HW118494   4.468   1.159   3.391 -0.2162 -0.9985 -0.3801
 2286SOL    HW218495   4.587   1.226   3.334  0.4004 -0.9289 -1.5989
 2287SOL     OW18496   0.188   4.021   0.405  0.6643  0.0834  0.1479
 2287SOL    HW118497   0.126   3.990   0.471 -1.6234  0.6652 -1.7302
 2287SOL    HW218498   0.136   4.037   0.327 -0.6632 -2.2528  0.5795
 2288SOL     OW18499   1.400   1.203   8.909 -0.4046  0.5466  0.5970
 2288SOL    HW118500   1.490   1.225   8.887  0.3631 -3.2700 -0.0748
 2288SOL    HW218501   1.377   1.264   8.979  1.5306  0.7567  1.0475
 2289SOL     OW18502   0.303   0.164   6.860  0.0264  0.8448 -0.1887
 2289SOL    HW118503   0.228   0.154   6.918  0.9393  2.9787  1.3413
 2289SOL    HW218504   0.352   0.233   6.903  0.8236 -1.8539  3.2452
 2290SOL     OW18505   0.277   0.906   8.211  0.1702 -0.5770  0.8801
 2290SOL    HW118506   0.265   0.884   8.304 -0.4695 -0.9114  0.7151
 2290SOL    HW218507   0.371   0.924   8.214 -0.0511  0.2652  3.3594
 2291SOL     OW18508   4.374   1.721  16.339 -0.0880 -0.6005 -0.2744
 2291SOL    HW118509   4.430   1.795  16.316  1.2694 -1.5100  0.0978
 2291SOL    HW218510   4.294   1.773  16.340  0.2250 -0.0965 -1.5024
 2292SOL     OW18511   1.299   3.993   3.950  0.0657 -0.7198 -0.0720
 2292SOL    HW118512   1.238   4.047   4.001 -1.2558 -1.0816 -1.2734
 2292SOL    HW218513   1.371   4.056   3.942 -0.2365 -0.3713 -0.0564
 2293SOL     OW18514   2.139   2.128   7.746 -0.1241  0.1829  0.4195
 2293SOL    HW118515   2.153   2.169   7.831  0.0726  0.0140  0.4670
 2293SOL    HW218516   2.084   2.056   7.775 -1.7868  0.7003 -1.3932
 2294SOL     OW18517   0.709   0.414   2.298  0.3282 -0.0726  0.2812
 2294SOL    HW118518   0.705   0.509   2.299  1.1787 -0.0250 -1.7550
 2294SOL    HW218519   0.633   0.398   2.354 -0.7281 -0.2888 -1.2434
 2295SOL     OW18520   3.659   4.371   5.295  0.2889 -0.0251  0.1889
 2295SOL    HW118521   3.588   4.362   5.232  0.0531 -1.0900  0.6107
 2295SOL    HW218522   3.628   4.318   5.368  1.9710  0.1811  1.0689
 2296SOL     OW18523   4.706   0.881   2.139  0.0989  0.4846 -0.8516
 2296SOL    HW118524   4.698   0.918   2.227  3.7223  0.5831 -0.5890
 2296SOL    HW218525   4.637   0.814   2.146 -0.2760  0.9002 -0.5889
 2297SOL     OW18526   1.791   4.635  17.246  0.2714  0.2384 -0.0173
 2297SOL    HW118527   1.745   4.715  17.220  1.8314  1.1137 -0.1052
 2297SOL    HW218528   1.817   4.658  17.335  1.3056  3.6457 -1.2179
 2298SOL     OW18529   3.897   1.694   5.666 -0.2798 -0.3806 -0.0908
 2298SOL    HW118530   3.992   1.708   5.662 -0.4959  1.3487  0.4118
 2298SOL    HW218531   3.901   1.607   5.706  1.2397 -1.0121 -1.6408
 2299SOL     OW18532   3.631   1.268   8.260  0.4019 -0.0704  0.1337
 2299SOL    HW118533   3.722   1.276   8.288  1.1051  0.3757 -2.3161
 2299SOL    HW218534   3.605   1.357   8.235  0.2424 -0.3865 -0.7907
 2300SOL     OW18535   2.408   4.518   4.163 -0.5794  0.2608 -0.2027
 2300SOL    HW118536   2.498   4.551   4.164 -1.0337  1.5408 -1.9832
 2300SOL    HW218537   2.405   4.493   4.256 -0.4259 -0.8535 -0.4971
 2301SOL     OW18538   0.839   1.805   7.873 -0.0546 -0.2239 -0.5083
 2301SOL    HW118539   0.849   1.711   7.856 -0.6708 -0.2099 -0.9194
 2301SOL    HW218540   0.893   1.810   7.952 -1.3468  0.2426  0.3460
 2302SOL     OW18541   3.389   2.418   0.670 -0.3939  0.6678 -0.5209
 2302SOL    HW118542   3.399   2.350   0.736 -0.8535  0.9876 -0.1231
 2302SOL    HW218543   3.480   2.436   0.646  0.8619 -1.0762  3.0061
 2303SOL     OW18544   2.765   4.397  17.133 -0.1136  0.1550  0.0161
 2303SOL    HW118545   2.800   4.482  17.104 -0.0993 -0.1134 -0.7649
 2303SOL    HW218546   2.731   4.408  17.222 -2.5823  0.7947 -1.0108
 2304SOL     OW18547   0.108   2.721  13.430 -0.0054 -0.0779 -0.6846
 2304SOL    HW118548   0.068   2.772  13.359 -0.0678  1.8089  0.6969
 2304SOL    HW218549   0.080   2.774  13.505  3.3944  0.6628  0.0670
 2305SOL     OW18550   1.611   3.868   3.719  0.0140  0.3890 -0.5749
 2305SOL    HW118551   1.528   3.887   3.675 -0.3851 -3.4291 -1.5326
 2305SOL    HW218552   1.652   3.954   3.722 -1.2890  0.9784  0.9020
 2306SOL     OW18553   2.520   3.718   9.267  0.0383 -0.2757 -0.2708
 2306SOL    HW118554   2.451   3.661   9.234 -1.1493  1.0292 -0.0398
 2306SOL    HW218555   2.591   3.658   9.291  0.6528 -0.8004 -3.3618
 2307SOL     OW18556   0.881   3.091   7.178  0.2404 -0.0656  0.2184
 2307SOL    HW118557   0.809   3.151   7.197  0.4604  1.1389 -2.8141
 2307SOL    HW218558   0.894   3.113   7.086  0.6866 -1.9250 -0.1771
 2308SOL     OW18559   4.099   1.261   2.545  0.1649  0.5055 -0.6434
 2308SOL    HW118560   4.127   1.217   2.465 -0.1887  0.4916 -0.7603
 2308SOL    HW218561   4.130   1.190   2.601  0.6868  0.9504 -0.3636
 2309SOL     OW18562   1.553   2.952  16.069 -0.2049 -0.3539 -0.9476
 2309SOL    HW118563   1.645   2.933  16.051  0.4526  0.6065  1.3740
 2309SOL    HW218564   1.554   2.962  16.164 -2.3500 -0.3152 -0.9341
 2310SOL     OW18565   2.232   4.739   3.391  0.3719  0.4102 -0.4615
 2310SOL    HW118566   2.218   0.032   3.302  0.6099 -0.2841 -0.7497
 2310SOL    HW218567   2.286   4.663   3.370 -1.3493 -0.8854 -0.2387
 2311SOL     OW18568   2.960   2.565   4.757 -0.2206 -0.4714  0.3649
 2311SOL    HW118569   3.029   2.508   4.724  1.0402  0.4513  1.3869
 2311SOL    HW218570   3.004   2.592   4.838  1.6168 -2.0809 -0.0826
 2312SOL     OW18571   4.278   0.311   9.381 -0.7966  0.3622  0.1976
 2312SOL    HW118572   4.223   0.293   9.305  0.2550 -1.0644 -0.2123
 2312SOL    HW218573   4.339   0.372   9.339 -1.1945  1.6848  1.5602
 2313SOL     OW18574   0.102   0.847  14.955 -0.4416  0.2027  0.2132
 2313SOL    HW118575   0.094   0.895  14.872  1.6358  1.1940  0.6006
 2313SOL    HW218576   0.171   0.897  14.998  0.6252 -0.1907 -1.0704
 2314SOL     OW18577   3.420   4.215   9.310  0.4207 -0.9378 -0.2381
 2314SOL    HW118578   3.460   4.251   9.230  0.1833  0.6085  0.3423
 2314SOL    HW218579   3.381   4.138   9.269  0.9064 -0.7230 -1.1088
 2315SOL     OW18580   4.536   2.872   9.424  0.0290  0.6581  0.5541
 2315SOL    HW118581   4.511   2.947   9.477  0.7935  1.2510  0.0777
 2315SOL    HW218582   4.504   2.904   9.340  0.1069 -1.2394 -0.1992
 2316SOL     OW18583   4.681   3.536   2.303  0.3149 -0.2843  0.0813
 2316SOL    HW118584   4.733   3.599   2.353 -1.1760 -0.9334  2.3860
 2316SOL    HW218585   0.015   3.475   2.308  0.3782 -0.1741  0.4919
 2317SOL     OW18586   1.669   3.264   8.466  0.2001 -0.4490 -0.3330
 2317SOL    HW118587   1.594   3.239   8.412  0.1668 -1.5795  0.2415
 2317SOL    HW218588   1.627   3.313   8.536  0.6013  0.3262 -0.6237
 2318SOL     OW18589   2.445   4.456  13.261 -0.4768  0.2792  0.9224
 2318SOL    HW118590   2.484   4.480  13.345  0.3399  1.0469  0.3132
 2318SOL    HW218591   2.519   4.425  13.209 -0.5572  0.3844  0.7473
 2319SOL     OW18592   4.281   0.777   3.065  0.7381 -0.5380  0.1239
 2319SOL    HW118593   4.364   0.741   3.097  1.5585  1.2119  0.0134
 2319SOL    HW218594   4.277   0.863   3.107 -0.6371  0.3329 -1.8206
 2320SOL     OW18595   1.603   0.136   0.616 -0.1639 -0.3462 -0.0305
 2320SOL    HW118596   1.637   0.171   0.699  1.4132  0.6697 -1.1227
 2320SOL    HW218597   1.532   0.197   0.596  1.0014  1.0489  0.0844
 2321SOL     OW18598   4.655   1.830   7.279  0.4988  0.5799  0.3079
 2321SOL    HW118599   4.732   1.785   7.312  1.4146  2.1923  0.3522
 2321SOL    HW218600   4.674   1.923   7.294 -1.7314  1.3076 -1.3041
 2322SOL     OW18601   1.198   3.409   4.763  0.4732  0.3013 -0.4911
 2322SOL    HW118602   1.143   3.369   4.830 -1.0959  1.7637 -0.9105
 2322SOL    HW218603   1.174   3.502   4.772  1.1567  0.4775 -0.4747
 2323SOL     OW18604   0.338   3.205  10.647  0.3555 -0.1253  0.1736
 2323SOL    HW118605   0.328   3.181  10.555  1.7845 -1.2304  0.3212
 2323SOL    HW218606   0.429   3.233  10.648  0.4994 -0.6214  0.7082
 2324SOL     OW18607   2.180   3.963   9.668  0.3820  0.4011 -0.5924
 2324SOL    HW118608   2.134   3.961   9.584  0.4570 -0.5934 -0.6023
 2324SOL    HW218609   2.239   4.036   9.647 -0.5227  1.5393  0.8274
 2325SOL     OW18610   4.377   1.239   2.413  0.0214  0.0209 -0.1281
 2325SOL    HW118611   4.450   1.263   2.470  0.1730 -0.3686 -0.1565
 2325SOL    HW218612   4.376   1.144   2.427  0.1376  0.1099  0.4671
 2326SOL     OW18613   4.466   3.077   3.958 -0.1689  0.5500  0.0661
 2326SOL    HW118614   4.412   3.076   4.037  0.1212  0.6353  0.2685
 2326SOL    HW218615   4.462   2.986   3.930 -1.3703  1.2772 -2.0773
 2327SOL     OW18616   1.169   1.088   7.122 -0.1553 -0.2955  0.0214
 2327SOL    HW118617   1.124   1.060   7.202 -2.6212  0.5080 -1.0763
 2327SOL    HW218618   1.247   1.036   7.140  0.0282  0.2156  0.6924
 2328SOL     OW18619   2.913   0.138   3.496  0.0495 -0.2054 -0.9127
 2328SOL    HW118620   2.871   0.054   3.516 -2.6699  1.0029 -1.5736
 2328SOL    HW218621   2.841   0.200   3.492 -1.9230 -2.3171  1.9496
 2329SOL     OW18622   3.124   0.532   1.049 -0.2476  0.0209 -0.8696
 2329SOL    HW118623   3.137   0.532   1.144  0.6090 -1.0868 -0.9867
 2329SOL    HW218624   3.147   0.620   1.020 -0.5052  0.4906  0.3534
 2330SOL     OW18625   3.478   3.783   4.643 -0.2062 -0.7449 -0.3647
 2330SOL    HW118626   3.430   3.780   4.561 -0.0745  0.1526 -0.4713
 2330SOL    HW218627   3.438   3.711   4.693 -1.0794 -0.1846 -0.2572
 2331SOL     OW18628   1.539   0.978   8.861  0.3804 -0.4356 -0.0866
 2331SOL    HW118629   1.538   0.944   8.950  3.0887 -3.4860 -1.2165
 2331SOL    HW218630   1.463   1.036   8.853  0.8441 -0.1477 -2.5513
 2332SOL     OW18631   4.386   3.173   8.394  0.4175  0.0371 -0.1716
 2332SOL    HW118632   4.410   3.115   8.322 -1.3507 -0.1562 -0.6149
 2332SOL    HW218633   4.351   3.110   8.457 -0.1032  0.3383 -0.1544
 2333SOL     OW18634   3.746   0.224   2.651 -0.0131 -0.0290  0.3161
 2333SOL    HW118635   3.791   0.293   2.700  0.0244  1.4330 -1.7404
 2333SOL    HW218636   3.697   0.175   2.716  0.8709 -2.4807 -0.8596
 2334SOL     OW18637   0.218   0.741   8.931 -0.1608  0.0585  0.3318
 2334SOL    HW118638   0.193   0.649   8.935  3.3940 -0.9285 -0.5606
 2334SOL    HW218639   0.203   0.770   8.841  0.9562  1.8836  0.7499
 2335SOL     OW18640   2.048   1.159  11.258  0.2860  0.5740  0.1323
 2335SOL    HW118641   2.060   1.113  11.341  1.8413  0.3915 -0.2000
 2335SOL    HW218642   2.137   1.155  11.223 -0.4919 -1.7989 -1.6074
 2336SOL     OW18643   0.851   3.625   7.475 -0.6608 -0.4651  0.3421
 2336SOL    HW118644   0.860   3.664   7.562 -0.0656  1.6532 -0.6489
 2336SOL    HW218645   0.939   3.637   7.437 -1.2006 -0.6054 -0.9614
 2337SOL     OW18646   0.000   2.052   0.945  0.2055  0.3676  0.0367
 2337SOL    HW118647   0.032   2.010   0.865  0.1677 -1.3341  0.9164
 2337SOL    HW218648   4.651   2.069   0.913  0.3153 -2.2319 -1.6071
 2338SOL     OW18649   3.352   3.894   7.686 -0.4563 -0.0756 -0.2539
 2338SOL    HW118650   3.439   3.892   7.645 -0.0770  0.2815  0.5211
 2338SOL    HW218651   3.306   3.973   7.657  0.2587  0.1181 -0.8644
 2339SOL     OW18652   3.121   0.309  12.841 -0.2457 -0.5748  0.1740
 2339SOL    HW118653   3.085   0.398  12.835 -0.1397 -0.5216  0.3142
 2339SOL    HW218654   3.190   0.317  12.776  0.2446  1.3035  0.9075
 2340SOL     OW18655   3.682   4.314   0.958 -0.2046 -0.1015 -0.2214
 2340SOL    HW118656   3.606   4.323   1.016 -1.7892 -4.7770 -1.5998
 2340SOL    HW218657   3.683   4.406   0.932 -2.0941 -0.5662 -1.9129
 2341SOL     OW18658   1.748   1.755   0.119  0.1292 -0.2312  0.3961
 2341SOL    HW118659   1.733   1.679   0.063 -0.9327  0.1432  0.1723
 2341SOL    HW218660   1.748   1.816   0.045  0.0305 -1.5707 -0.6968
 2342SOL     OW18661   0.199   3.715  15.816  0.0565  0.0584  0.2990
 2342SOL    HW118662   0.231   3.659  15.746  0.9108  0.2295  0.5509
 2342SOL    HW218663   0.205   3.654  15.890 -1.0613 -1.0534 -0.5314
 2343SOL     OW18664   1.562   1.926   1.456 -0.0790 -0.5694 -0.3215
 2343SOL    HW118665   1.605   1.871   1.521  0.5873  1.4100  0.9198
 2343SOL    HW218666   1.547   1.870   1.379  0.5806 -1.5580  0.2829
 2344SOL     OW18667   1.381   1.144   4.956 -0.1279  0.2532 -0.0978
 2344SOL    HW118668   1.304   1.088   4.967  0.4028 -0.7740 -1.6090
 2344SOL    HW218669   1.446   1.077   4.934 -2.0879 -1.6045 -0.1728
 2345SOL     OW18670   0.714   2.059  10.753  0.0875 -0.2655  0.1702
 2345SOL    HW118671   0.740   1.967  10.762 -1.9991 -1.0565 -1.7969
 2345SOL    HW218672   0.769   2.081  10.678 -1.9261 -0.8685 -1.5154
 2346SOL     OW18673   4.250   3.334  11.674 -0.6103  0.4623 -0.3355
 2346SOL    HW118674   4.243   3.289  11.759 -2.3600 -1.6906 -1.6168
 2346SOL    HW218675   4.339   3.361  11.698 -0.0070 -2.4702  0.6345
 2347SOL     OW18676   3.767   1.789   8.820 -0.1656 -0.3093  0.2906
 2347SOL    HW118677   3.860   1.803   8.803 -0.3577 -0.7478 -1.1245
 2347SOL    HW218678   3.718   1.814   8.742  1.1909 -3.6053 -1.6472
 2348SOL     OW18679   3.919   3.874   6.786  0.3907 -0.6001  0.4899
 2348SOL    HW118680   3.975   3.889   6.710  0.6691 -1.0278  0.6167
 2348SOL    HW218681   3.892   3.961   6.817  0.4624 -0.1805 -0.6272
 2349SOL     OW18682   2.438   0.963   1.982  0.9170  0.3456 -0.2719
 2349SOL    HW118683   2.470   0.909   2.055 -2.4250  0.0656  0.9975
 2349SOL    HW218684   2.448   0.911   1.902 -0.7360 -0.7332  0.2226
 2350SOL     OW18685   0.751   3.770   3.804  0.8141 -0.4278 -0.3502
 2350SOL    HW118686   0.681   3.815   3.850  0.3201 -0.2668 -1.2553
 2350SOL    HW218687   0.826   3.816   3.843 -0.0898  0.8359 -0.1163
 2351SOL     OW18688   4.109   0.138  15.102  0.7609  0.1421 -0.7832
 2351SOL    HW118689   4.081   0.046  15.108  1.8878 -0.2205 -1.1833
 2351SOL    HW218690   4.188   0.140  15.049  0.6752 -2.8674 -1.0153
 2352SOL     OW18691   3.890   2.287   4.094 -0.6276 -0.0626  0.4444
 2352SOL    HW118692   3.925   2.199   4.082  1.6999  1.1057 -1.4237
 2352SOL    HW218693   3.938   2.312   4.173  0.2375 -1.2381  0.2843
 2353SOL     OW18694   4.378   0.205   4.757 -0.1185  0.3649  0.7204
 2353SOL    HW118695   4.473   0.216   4.756 -0.1798  0.7868 -0.7311
 2353SOL    HW218696   4.366   0.120   4.800 -1.9423  0.1785 -0.1706
 2354SOL     OW18697   3.479   1.969   5.650  0.1630 -0.5410 -0.4487
 2354SOL    HW118698   3.460   2.059   5.622  0.7924 -0.4405 -0.5330
 2354SOL    HW218699   3.557   1.976   5.704 -0.4586 -0.3072  0.4310
 2355SOL     OW18700   3.855   1.576   9.446 -0.3249 -0.2448 -0.2072
 2355SOL    HW118701   3.807   1.587   9.364 -1.2897  1.4569  0.5801
 2355SOL    HW218702   3.851   1.480   9.450  2.6243 -0.2301  2.8558
 2356SOL     OW18703   0.640   0.573   8.168 -0.3592  0.2604 -0.2409
 2356SOL    HW118704   0.618   0.649   8.115  0.8599 -0.0923 -1.2452
 2356SOL    HW218705   0.730   0.590   8.197  0.4515  0.0823 -2.6670
 2357SOL     OW18706   1.056   4.717   3.039 -0.0689  0.0099  0.4128
 2357SOL    HW118707   1.036   4.729   3.132 -0.6645  1.2592  0.1243
 2357SOL    HW218708   1.075   0.067   3.011 -0.0474  0.2815  1.3097
 2358SOL     OW18709   0.790   0.543   5.601 -0.2924 -0.0785  0.6619
 2358SOL    HW118710   0.696   0.558   5.616  0.2025  1.6983  1.9345
 2358SOL    HW218711   0.812   0.621   5.550 -1.9703  0.3172  0.5485
 2359SOL     OW18712   3.970   2.513  14.540 -0.2119  0.2140 -0.2436
 2359SOL    HW118713   3.997   2.541  14.627  0.7413  0.6509 -0.6794
 2359SOL    HW218714   4.047   2.543  14.493  0.5621  0.6810  1.3467
 2360SOL     OW18715   0.486   2.267   1.255  0.8899  0.0513 -0.1812
 2360SOL    HW118716   0.539   2.259   1.335  1.2926  1.2129 -0.3387
 2360SOL    HW218717   0.416   2.306   1.308  2.1133 -0.4912  1.8298
 2361SOL     OW18718   0.897   0.249   9.322  0.2516 -0.7745  0.0230
 2361SOL    HW118719   0.848   0.263   9.241 -1.0771 -1.1417  0.7734
 2361SOL    HW218720   0.964   0.190   9.286  2.2042  1.1459  0.5050
 2362SOL     OW18721   1.071   1.099   1.094  0.0146  0.6967  0.3569
 2362SOL    HW118722   1.142   1.060   1.043  1.6393  2.0182  1.6388
 2362SOL    HW218723   0.993   1.081   1.041  0.0334 -0.4892  0.7383
 2363SOL     OW18724   2.694   0.397   5.612 -0.2438 -0.0192  0.0066
 2363SOL    HW118725   2.784   0.365   5.618 -1.4737 -2.5129  4.9887
 2363SOL    HW218726   2.689   0.461   5.683 -2.0258 -0.5311  0.3373
 2364SOL     OW18727   2.571   1.692  17.471 -0.6404  0.2691 -0.7968
 2364SOL    HW118728   2.589   1.779  17.434 -0.6070  0.3826 -0.5154
 2364SOL    HW218729   2.594   1.703  17.564  2.4524  0.6845 -1.6198
 2365SOL     OW18730   4.610   0.103  11.728 -0.4251 -0.0707  0.2273
 2365SOL    HW118731   4.607   0.138  11.817 -2.1217  1.0539 -0.2748
 2365SOL    HW218732   4.587   0.011  11.743  1.2253 -0.4997  0.1520
 2366SOL     OW18733   0.010   1.681   5.874  0.2755 -0.6486 -0.0312
 2366SOL    HW118734   4.661   1.666   5.908  1.1207 -1.1446  1.9260
 2366SOL    HW218735   4.724   1.692   5.782  1.6666 -0.8066 -0.4290
 2367SOL     OW18736   3.085   2.754  11.961 -0.1045 -0.2913  0.7187
 2367SOL    HW118737   3.041   2.756  12.046  0.3740  1.3453  0.9324
 2367SOL    HW218738   3.042   2.826  11.915  1.1464  0.4147  0.6390
 2368SOL     OW18739   4.122   2.909   4.621 -0.5506 -0.5630  0.2258
 2368SOL    HW118740   4.108   2.817   4.640 -2.2775 -0.6917 -1.5770
 2368SOL    HW218741   4.109   2.962   4.699  1.4030 -0.8570  0.7542
 2369SOL     OW18742   1.819   0.174   2.218 -0.0354  0.0974  0.2513
 2369SOL    HW118743   1.892   0.119   2.190  0.3720  0.4996  0.5320
 2369SOL    HW218744   1.757   0.150   2.150  1.2303 -1.3384 -0.4035
 2370SOL     OW18745   3.862   0.110   7.991 -0.0572  0.1542 -0.0175
 2370SOL    HW118746   3.776   0.146   7.969  0.2288 -0.6622 -2.4854
 2370SOL    HW218747   3.875   0.044   7.923 -0.5185 -1.2916  1.2942
 2371SOL     OW18748   3.370   3.423   3.467 -0.6711  0.0610  0.3880
 2371SOL    HW118749   3.399   3.514   3.466 -1.4951  0.3298  1.8795
 2371SOL    HW218750   3.393   3.397   3.377  1.4467 -1.2765  1.3136
 2372SOL     OW18751   3.101   3.687   4.066  0.1660  0.3794  0.0790
 2372SOL    HW118752   3.100   3.757   4.001  0.3169  0.4146  0.1170
 2372SOL    HW218753   3.148   3.623   4.013 -0.2805  0.1822 -0.0785
 2373SOL     OW18754   2.845   4.499   5.112 -0.5060 -0.0667  0.0051
 2373SOL    HW118755   2.869   4.533   5.026  2.8037 -0.7223  0.6540
 2373SOL    HW218756   2.754   4.475   5.095 -0.4583  1.0722 -1.7948
 2374SOL     OW18757   4.055   2.382   7.330 -0.0288  0.2539  0.2234
 2374SOL    HW118758   4.149   2.395   7.344  0.1210 -1.8750  1.2350
 2374SOL    HW218759   4.023   2.469   7.309  0.9190  0.4919 -0.2264
 2375SOL     OW18760   1.538   2.682   5.323  0.0063  0.3403  0.0153
 2375SOL    HW118761   1.536   2.588   5.309 -2.3006  0.4642 -0.6253
 2375SOL    HW218762   1.514   2.694   5.415  2.8659  2.8968  0.4044
 2376SOL     OW18763   3.470   2.110  11.677 -0.2359 -0.2221 -0.6368
 2376SOL    HW118764   3.563   2.133  11.671 -0.4467  0.6827 -0.3794
 2376SOL    HW218765   3.426   2.193  11.694  1.0633 -0.2644  3.1727
 2377SOL     OW18766   2.447   3.237   3.031  0.0985  0.1151 -0.1498
 2377SOL    HW118767   2.529   3.285   3.044  1.4188 -1.8451 -1.1632
 2377SOL    HW218768   2.477   3.146   3.036 -0.5658 -0.0942  0.0878
 2378SOL     OW18769   2.643   1.514   6.957  0.0083  0.3052  0.1647
 2378SOL    HW118770   2.699   1.482   6.886 -1.1245 -1.9647  0.3180
 2378SOL    HW218771   2.558   1.532   6.918 -0.1029 -0.2561  0.1464
 2379SOL     OW18772   4.656   1.626  12.765  0.1339 -0.4541 -0.3634
 2379SOL    HW118773   4.645   1.543  12.718  1.9100  0.5415 -2.5660
 2379SOL    HW218774   0.000   1.665  12.737  1.8849 -1.3355  3.6457
 2380SOL     OW18775   1.884   0.183   5.129 -0.1828 -0.2704  0.8328
 2380SOL    HW118776   1.918   0.157   5.043 -0.3662  0.5369  0.5238
 2380SOL    HW218777   1.971   0.218   5.148  0.0633  0.3387 -1.3693
 2381SOL     OW18778   2.851   3.133   0.161 -0.4242  0.1933 -0.0936
 2381SOL    HW118779   2.913   3.202   0.137  1.0291 -1.3140 -0.6975
 2381SOL    HW218780   2.769   3.178   0.181 -1.2420 -0.6381 -1.5204
 2382SOL     OW18781   2.212   4.648  11.950  0.0759  0.3840  0.1129
 2382SOL    HW118782   2.299   4.686  11.942  0.0015  0.9580  1.8736
 2382SOL    HW218783   2.229   4.599  12.031  2.2190 -2.1034 -1.8342
 2383SOL     OW18784   3.228   0.375   5.315 -0.2500  0.4534  0.2977
 2383SOL    HW118785   3.252   0.282   5.323  1.6176  0.9030 -0.1562
 2383SOL    HW218786   3.138   0.381   5.282 -0.6375 -0.2658  1.2073
 2384SOL     OW18787   1.076   1.224  14.316  0.3583  0.0909  0.0533
 2384SOL    HW118788   1.006   1.287  14.302  1.7793  1.7360  0.3994
 2384SOL    HW218789   1.086   1.218  14.412  0.9287 -0.3130 -0.0293
 2385SOL     OW18790   0.406   4.167   3.842  1.2456 -0.1164 -0.1647
 2385SOL    HW118791   0.320   4.183   3.803  2.0845 -0.3385 -2.0998
 2385SOL    HW218792   0.381   4.108   3.914  1.7123  2.0318  1.7324
 2386SOL     OW18793   3.884   4.056   1.767  0.5341  0.4698 -0.0563
 2386SOL    HW118794   3.952   4.054   1.700 -0.7672  0.5875 -1.3743
 2386SOL    HW218795   3.829   4.126   1.733 -0.0534 -0.5101 -1.1295
 2387SOL     OW18796   3.594   1.982   3.915 -0.5608 -0.1184 -0.5770
 2387SOL    HW118797   3.649   2.054   3.946 -2.9398  1.7932 -0.8124
 2387SOL    HW218798   3.601   2.002   3.822 -0.6608  1.7075 -0.1920
 2388SOL     OW18799   4.222   4.135   5.935 -0.1552 -0.0794  0.3232
 2388SOL    HW118800   4.145   4.090   5.901 -1.8385  1.8434  1.5316
 2388SOL    HW218801   4.294   4.083   5.901  0.9312  0.8355  1.1944
 2389SOL     OW18802   1.168   4.181   3.684 -0.2261  0.2819 -0.4345
 2389SOL    HW118803   1.179   4.220   3.771 -3.0643  0.9751 -0.3834
 2389SOL    HW218804   1.228   4.231   3.629  1.1772 -0.2191  0.6212
 2390SOL     OW18805   2.812   2.674   4.032 -0.2322 -0.1090 -0.1648
 2390SOL    HW118806   2.726   2.702   4.001 -0.6471  0.6335  1.6411
 2390SOL    HW218807   2.796   2.582   4.049  0.8721 -0.2766 -0.0340
 2391SOL     OW18808   0.021   1.560   2.370 -0.6076 -0.0211  0.3569
 2391SOL    HW118809   0.000   1.616   2.295 -0.9700 -0.5694  0.0462
 2391SOL    HW218810   4.698   1.590   2.436  1.4192  1.3321  1.6202
 2392SOL     OW18811   3.832   3.926   0.236  0.3685  0.4746 -0.0945
 2392SOL    HW118812   3.858   3.971   0.155  1.1767 -0.2586 -0.2450
 2392SOL    HW218813   3.855   3.836   0.213 -0.5632  0.7960 -2.2985
 2393SOL     OW18814   1.701   2.778   8.314 -0.4443  0.7006 -0.4511
 2393SOL    HW118815   1.727   2.818   8.397 -0.3110 -0.6538  0.1689
 2393SOL    HW218816   1.793   2.769   8.287  0.2264 -0.6100  2.2227
 2394SOL     OW18817   3.913   4.381   8.926  0.0111 -1.0404 -0.3525
 2394SOL    HW118818   3.983   4.424   8.876 -1.2493  2.6679  1.0429
 2394SOL    HW218819   3.838   4.425   8.887  1.3854  1.6116 -0.0342
 2395SOL     OW18820   2.970   2.071   0.470 -0.2453 -0.0144  0.2540
 2395SOL    HW118821   2.935   2.140   0.527  3.4488  3.0743 -1.2668
 2395SOL    HW218822   3.019   2.127   0.410 -0.8986 -1.1165 -1.3137
 2396SOL     OW18823   0.819   3.121   5.621  1.2890  0.2720  0.4701
 2396SOL    HW118824   0.871   3.117   5.540  0.6036  3.6193 -0.1667
 2396SOL    HW218825   0.799   3.029   5.635  0.2046  0.0937 -2.1271
 2397SOL     OW18826   2.568   2.255   0.024 -0.2667 -0.3964 -0.0645
 2397SOL    HW118827   2.484   2.251  17.734  0.2569  0.8536 -1.2132
 2397SOL    HW218828   2.628   2.286  17.710  0.9954 -1.3112  0.6198
 2398SOL     OW18829   2.581   1.346   9.392  0.0143 -0.7351 -0.4110
 2398SOL    HW118830   2.580   1.433   9.433  0.1737  0.0505 -2.0349
 2398SOL    HW218831   2.486   1.342   9.394 -0.0327  1.3061  1.4585
 2399SOL     OW18832   4.004   4.618  15.046 -0.5771  0.0431  0.0566
 2399SOL    HW118833   4.058   4.605  14.968 -0.1949 -0.8448  0.4639
 2399SOL    HW218834   3.914   4.617  15.014 -0.4202 -1.6101 -0.3489
 2400SOL     OW18835   0.137   3.690  12.292  0.1716  0.1336 -0.6478
 2400SOL    HW118836   0.110   3.777  12.322 -0.9708 -0.8333  1.1436
 2400SOL    HW218837   0.211   3.708  12.234  1.8407 -0.4137  1.2982
 2401SOL     OW18838   1.438   4.143   5.019  0.2615 -0.5735  0.5608
 2401SOL    HW118839   1.365   4.193   5.055  0.2961  1.8529 -2.7346
 2401SOL    HW218840   1.501   4.138   5.092  1.0761  1.2013 -0.0191
 2402SOL     OW18841   2.707   0.946   8.257  0.5716 -0.4466 -0.3719
 2402SOL    HW118842   2.674   0.974   8.343  0.5986 -0.5915 -0.3142
 2402SOL    HW218843   2.690   1.022   8.200  2.3555  0.2088 -0.0249
 2403SOL     OW18844   0.148   0.023   4.836 -0.0892 -0.6274  0.1262
 2403SOL    HW118845   0.079   4.696   4.837 -0.6297 -0.0715 -0.8112
 2403SOL    HW218846   0.157   0.041   4.742  2.0309 -3.6995 -0.2997
 2404SOL     OW18847   4.379   0.071   6.983 -0.5351 -0.0178 -0.5167
 2404SOL    HW118848   4.403   0.010   7.052  0.4561 -0.0245 -0.8713
 2404SOL    HW218849   4.321   0.131   7.031  0.4420  0.1108  0.5090
 2405SOL     OW18850   1.151   3.887  16.893 -0.1591 -0.0662  0.0056
 2405SOL    HW118851   1.123   3.804  16.855  0.1023 -0.4368  0.6241
 2405SOL    HW218852   1.131   3.948  16.822  0.7564 -0.0515 -0.2383
 2406SOL     OW18853   4.598   3.391  13.072  0.3147 -0.6433 -0.5103
 2406SOL    HW118854   4.538   3.464  13.060 -0.4288 -1.1040  0.3197
 2406SOL    HW218855   4.678   3.435  13.098  1.2952 -1.5702 -1.9966
 2407SOL     OW18856   2.241   0.193   2.644 -0.9358  0.0238  0.4429
 2407SOL    HW118857   2.169   0.146   2.605  1.6591 -3.9994  0.5218
 2407SOL    HW218858   2.284   0.127   2.698  1.8994  1.0057 -0.6029
 2408SOL     OW18859   1.881   1.947   0.851  0.2648  0.5983 -0.4190
 2408SOL    HW118860   1.931   2.021   0.814 -0.2766  0.8157 -0.7188
 2408SOL    HW218861   1.948   1.886   0.881 -1.3627 -0.8476  0.2826
 2409SOL     OW18862   0.607   1.647   0.560 -0.1836  0.2591  0.1429
 2409SOL    HW118863   0.592   1.676   0.469 -1.8896 -1.4621 -0.1155
 2409SOL    HW218864   0.544   1.575   0.569 -0.1273  0.2873  0.7201
 2410SOL     OW18865   2.737   2.457   1.613  0.4103 -0.0478 -0.1453
 2410SOL    HW118866   2.724   2.394   1.683  1.5549 -0.0520  0.0603
 2410SOL    HW218867   2.758   2.536   1.664  1.0995 -0.7924  0.7164
 2411SOL     OW18868   0.175   2.229  13.268  0.1817 -0.2664 -0.1159
 2411SOL    HW118869   0.171   2.291  13.340 -1.9748 -0.9799  0.3833
 2411SOL    HW218870   0.107   2.271  13.214  0.4103 -0.5047 -0.5918
 2412SOL     OW18871   0.011   2.954   7.594  0.0447 -0.3820  0.6309
 2412SOL    HW118872   0.097   2.979   7.628 -0.1075 -0.2194  0.8902
 2412SOL    HW218873   4.697   2.994   7.662 -0.0560  0.4217  0.0862
 2413SOL     OW18874   3.685   2.671   8.848 -0.1042 -0.4179  0.7709
 2413SOL    HW118875   3.614   2.700   8.905 -1.6053 -1.1524 -0.7200
 2413SOL    HW218876   3.761   2.703   8.896 -0.4844 -0.4629  1.4032
 2414SOL     OW18877   1.557   0.023   2.424 -0.0095  0.1522 -0.2457
 2414SOL    HW118878   1.535   0.116   2.429  0.6872  0.5170 -3.6212
 2414SOL    HW218879   1.573   0.005   2.516 -0.8878  1.7325  0.2123
 2415SOL     OW18880   4.481   3.299   5.737  0.1077  0.0385 -0.5906
 2415SOL    HW118881   4.435   3.246   5.672  0.8039 -0.1855 -0.8982
 2415SOL    HW218882   4.563   3.249   5.739 -1.7553 -3.0132  0.4229
 2416SOL     OW18883   3.391   4.682   7.715  0.1977 -0.1333 -0.0397
 2416SOL    HW118884   3.363   4.608   7.662 -0.7189  0.5828 -0.5438
 2416SOL    HW218885   3.442   0.001   7.658  0.0704 -0.1035 -0.1234
 2417SOL     OW18886   3.965   4.115   8.952  0.1025  0.1530 -0.1904
 2417SOL    HW118887   4.036   4.074   8.902  1.3648  2.1477 -0.0242
 2417SOL    HW218888   3.964   4.207   8.928 -1.1436  0.2755  0.3106
 2418SOL     OW18889   0.923   3.183  15.428 -0.5091 -0.4316 -0.4634
 2418SOL    HW118890   0.900   3.176  15.520 -2.1218  2.0604 -0.6856
 2418SOL    HW218891   0.973   3.264  15.423 -1.3073  0.0611 -0.4099
 2419SOL     OW18892   2.668   1.911   6.140  0.3991  0.6915 -0.2574
 2419SOL    HW118893   2.717   1.829   6.142 -0.7265  0.0376  0.4003
 2419SOL    HW218894   2.672   1.932   6.047 -0.8495 -1.3838 -0.7911
 2420SOL     OW18895   1.222   0.894   3.892  0.3983 -0.2203  0.2867
 2420SOL    HW118896   1.207   0.897   3.798 -0.3626 -0.2895  0.4086
 2420SOL    HW218897   1.155   0.838   3.932  0.3660 -1.6610 -1.8119
 2421SOL     OW18898   2.159   0.412   8.157  0.1899 -0.4281 -0.1148
 2421SOL    HW118899   2.197   0.499   8.169  2.2799 -1.3273 -0.1748
 2421SOL    HW218900   2.227   0.367   8.207  0.8315 -0.8533 -1.3931
 2422SOL     OW18901   3.329   1.519   8.033  0.1355 -0.3936 -0.0381
 2422SOL    HW118902   3.270   1.525   8.109 -1.3858 -0.6035 -1.1969
 2422SOL    HW218903   3.416   1.529   8.070  0.0659 -0.1750  0.0715
 2423SOL     OW18904   2.400   4.426   8.451  0.7257  0.0986 -0.5600
 2423SOL    HW118905   2.352   4.346   8.430  0.9547 -0.4134  0.8520
 2423SOL    HW218906   2.367   4.492   8.391  0.6487 -0.3437 -1.0068
 2424SOL     OW18907   1.514   0.932   5.624  0.0911 -0.3395  0.0524
 2424SOL    HW118908   1.491   0.848   5.584 -0.8553 -0.2892  0.4732
 2424SOL    HW218909   1.608   0.921   5.637  0.2103  1.1155  0.4320
 2425SOL     OW18910   0.538   1.933   2.906  0.1314  0.2445  0.9102
 2425SOL    HW118911   0.449   1.931   2.941 -0.3976 -1.2640 -0.5364
 2425SOL    HW218912   0.575   1.989   2.974  1.1576  0.1302  0.4479
 2426SOL     OW18913   4.506   3.013   8.164  0.0393  0.3785  0.4299
 2426SOL    HW118914   4.502   2.921   8.189  0.2492  0.4235  0.6251
 2426SOL    HW218915   4.581   3.044   8.215  1.1755 -1.5251 -0.1113
 2427SOL     OW18916   1.843   4.421   0.414  0.1658 -0.0746  0.1036
 2427SOL    HW118917   1.928   4.408   0.456 -0.2728 -0.0662  0.9882
 2427SOL    HW218918   1.808   4.500   0.455 -1.6995 -0.0930 -1.4074
 2428SOL     OW18919   1.257   1.164  15.459 -0.5337 -0.0922  0.3026
 2428SOL    HW118920   1.257   1.239  15.399  0.7642 -0.2697  0.0925
 2428SOL    HW218921   1.164   1.139  15.462 -1.0118  1.7894  1.1000
 2429SOL     OW18922   3.077   3.918   6.208 -0.0538  0.2475 -0.1608
 2429SOL    HW118923   3.078   3.896   6.301 -0.8949  1.2578  0.0933
 2429SOL    HW218924   2.991   3.889   6.178  0.1249 -1.3072  0.8139
 2430SOL     OW18925   1.044   1.066   7.364  0.0537  0.6811 -0.3003
 2430SOL    HW118926   1.023   1.014   7.441  1.0961 -0.5709 -0.8596
 2430SOL    HW218927   1.106   1.137   7.380 -1.3134  1.7101  0.4695
 2431SOL     OW18928   1.154   0.261   4.560 -0.1686 -0.6963  0.3397
 2431SOL    HW118929   1.141   0.167   4.549 -0.9675 -0.5386 -0.0003
 2431SOL    HW218930   1.239   0.258   4.605  0.8660 -0.9581 -1.6220
 2432SOL     OW18931   3.761   0.756   7.322  0.4246  0.0526 -0.0059
 2432SOL    HW118932   3.836   0.701   7.342 -1.7675 -2.7315  0.4626
 2432SOL    HW218933   3.701   0.721   7.388  1.8084  0.0203  1.2216
 2433SOL     OW18934   0.927   1.762   7.145  0.1709  0.3045  0.3368
 2433SOL    HW118935   0.911   1.717   7.228 -1.4250  2.5611  1.2404
 2433SOL    HW218936   0.980   1.701   7.094  0.4138 -1.3510  2.5714
 2434SOL     OW18937   4.180   2.882   8.160 -0.2916 -0.1580 -0.0402
 2434SOL    HW118938   4.145   2.815   8.101 -1.3432 -0.0719  0.4957
 2434SOL    HW218939   4.246   2.838   8.214 -0.2064  1.5600  1.2445
 2435SOL     OW18940   4.402   4.495   7.046  0.0928  0.0226 -0.0342
 2435SOL    HW118941   4.449   4.567   7.088 -0.8433  0.5847  0.0450
 2435SOL    HW218942   4.449   4.421   7.084 -1.1690 -0.0964  1.3057
 2436SOL     OW18943   2.329   3.984   6.043 -0.2559 -0.0849 -0.4558
 2436SOL    HW118944   2.332   4.080   6.042 -0.5029 -0.0941 -1.6947
 2436SOL    HW218945   2.338   3.961   5.951  0.5179 -2.3738  0.2091
 2437SOL     OW18946   2.972   2.901   7.029  0.5391 -0.5457  0.4319
 2437SOL    HW118947   3.028   2.853   6.968  0.2312 -1.5055  0.9056
 2437SOL    HW218948   3.035   2.951   7.081  0.0516 -1.0742  1.5225
 2438SOL     OW18949   0.445   1.318   5.578 -0.9555  0.1943  0.3104
 2438SOL    HW118950   0.493   1.335   5.497  1.1290 -2.8061  0.8921
 2438SOL    HW218951   0.446   1.409   5.608  1.6990 -1.0299  3.9976
 2439SOL     OW18952   1.507   2.143   7.010 -0.3481  0.1517 -0.1437
 2439SOL    HW118953   1.522   2.170   6.919 -0.8182  0.8045 -0.0300
 2439SOL    HW218954   1.412   2.152   7.002 -0.7993 -2.6881  2.0036
 2440SOL     OW18955   3.622   1.750   6.701  0.5922 -0.0166 -0.0580
 2440SOL    HW118956   3.648   1.782   6.787  2.1680  1.8488 -1.2411
 2440SOL    HW218957   3.683   1.676   6.702 -0.0906 -0.5857 -0.5190
 2441SOL     OW18958   1.443   4.182   0.869 -0.1059 -0.4700 -0.1618
 2441SOL    HW118959   1.511   4.115   0.858 -0.3770 -0.3903 -2.2534
 2441SOL    HW218960   1.385   4.140   0.933 -0.9524  0.7292 -0.1275
 2442SOL     OW18961   2.173   0.621   1.696 -0.4375 -0.1522  0.1272
 2442SOL    HW118962   2.117   0.566   1.751  0.1603 -0.9451 -0.0583
 2442SOL    HW218963   2.256   0.573   1.699 -0.1047  0.4469  0.4943
 2443SOL     OW18964   1.004   2.868   1.942  0.1606 -0.2310 -0.1626
 2443SOL    HW118965   0.947   2.816   1.884 -2.1392  1.7048  0.3595
 2443SOL    HW218966   0.947   2.872   2.018  0.1688 -0.4992 -0.1398
 2444SOL     OW18967   3.532   3.671   9.474 -0.3219  0.2314  0.5799
 2444SOL    HW118968   3.547   3.619   9.395 -0.9003 -0.2382  0.7796
 2444SOL    HW218969   3.604   3.639   9.528  0.4826 -2.7029 -2.1937
 2445SOL     OW18970   2.414   2.246   5.642  0.1942  0.1871  0.4430
 2445SOL    HW118971   2.368   2.270   5.561 -2.3402 -1.2550  1.4797
 2445SOL    HW218972   2.415   2.325   5.696 -1.0855 -0.0002  0.7238
 2446SOL     OW18973   4.682   3.619   5.772 -0.3873 -0.3294 -0.7960
 2446SOL    HW118974   4.624   3.571   5.831 -0.0732  1.2800  0.8280
 2446SOL    HW218975   0.005   3.648   5.839 -0.5933  0.4392 -0.9289
 2447SOL     OW18976   0.925   4.058   5.596  0.4013 -0.2507 -0.2366
 2447SOL    HW118977   1.000   4.117   5.609 -0.0696 -0.1615  2.1287
 2447SOL    HW218978   0.963   3.970   5.589  2.1706  0.4440  0.5804
 2448SOL     OW18979   4.153   1.748   5.742 -0.2325  0.0623  0.4276
 2448SOL    HW118980   4.202   1.723   5.664 -0.7227  1.1694 -0.2265
 2448SOL    HW218981   4.214   1.806   5.787  1.9572 -1.4235 -0.6306
 2449SOL     OW18982   0.149   3.572   8.496 -0.3343  0.1277  0.3608
 2449SOL    HW118983   0.114   3.649   8.453  1.2550 -0.6278 -2.2737
 2449SOL    HW218984   0.062   3.540   8.524 -0.1471 -0.5908  0.1309
 2450SOL     OW18985   2.568   4.578   6.463 -0.1490 -0.1292  0.2500
 2450SOL    HW118986   2.578   4.579   6.368  0.5063  1.5390  0.3210
 2450SOL    HW218987   2.509   4.653   6.471  0.2202  0.0002  1.6971
 2451SOL     OW18988   3.022   4.510   7.547 -0.7724 -0.3401  0.0381
 2451SOL    HW118989   2.972   4.428   7.554 -0.7222 -0.5044 -1.6897
 2451SOL    HW218990   3.107   4.477   7.575 -0.7462 -1.6320 -1.5884
 2452SOL     OW18991   0.400   1.525   0.002  0.2912 -0.4798  0.5793
 2452SOL    HW118992   0.465   1.470   0.045  1.0868  0.1008  0.1081
 2452SOL    HW218993   0.325   1.466  17.745 -0.2036 -0.5088  3.8393
 2453SOL     OW18994   0.065   3.458   7.138 -1.0877  0.1020  0.0469
 2453SOL    HW118995   0.057   3.403   7.061 -1.0355 -1.0312  0.8515
 2453SOL    HW218996   0.091   3.394   7.204 -0.2872  0.8527  0.4555
 2454SOL     OW18997   1.957   2.901   6.543 -0.0084  0.0898 -0.2114
 2454SOL    HW118998   2.040   2.911   6.496 -0.3099  1.7587 -0.3680
 2454SOL    HW218999   1.943   2.807   6.530  0.0977 -0.0615  0.7710
 2455SOL     OW19000   2.472   0.826   2.631  0.3040 -0.0845  0.4453
 2455SOL    HW119001   2.500   0.745   2.673 -4.3970 -2.9309 -1.8621
 2455SOL    HW219002   2.376   0.825   2.628  0.2425  1.0476  1.9025
 2456SOL     OW19003   0.174   2.942   2.066 -0.7387 -0.4757 -0.3122
 2456SOL    HW119004   0.107   2.910   2.126 -1.0514  0.4609 -0.1620
 2456SOL    HW219005   0.127   3.015   2.025  1.6649 -0.4117 -2.9928
 2457SOL     OW19006   1.408   2.245  15.326 -0.0678  0.3374  0.6856
 2457SOL    HW119007   1.352   2.170  15.310  0.6282 -0.5473  2.4274
 2457SOL    HW219008   1.336   2.308  15.326  1.5362  2.1932 -0.4788
 2458SOL     OW19009   3.041   4.562   3.744 -0.2202 -0.4251 -0.7380
 2458SOL    HW119010   3.013   4.543   3.834  1.3643 -1.5937 -0.4754
 2458SOL    HW219011   2.957   4.576   3.700 -1.0656 -3.4027 -0.0612
 2459SOL     OW19012   3.045   3.001   4.411  0.5863 -0.4799  0.3764
 2459SOL    HW119013   3.084   2.931   4.358 -0.8929 -2.1481  1.4871
 2459SOL    HW219014   2.995   3.035   4.337 -0.8101 -0.0916  1.5159
 2460SOL     OW19015   4.006   0.497   6.090 -0.0001  0.5243 -0.4535
 2460SOL    HW119016   4.004   0.404   6.111  1.4897  0.4652 -0.5309
 2460SOL    HW219017   3.986   0.483   5.998 -0.1946 -0.3554 -0.2775
 2461SOL     OW19018   2.718   4.356   3.801  0.4502 -0.0294  0.2792
 2461SOL    HW119019   2.623   4.362   3.809  0.4272  0.4386 -0.3602
 2461SOL    HW219020   2.730   4.277   3.748 -0.5233 -0.8565  1.2746
 2462SOL     OW19021   2.946   0.583  10.211 -0.0223  0.1170  0.1706
 2462SOL    HW119022   3.008   0.559  10.142  0.2177  1.1332  0.0378
 2462SOL    HW219023   2.913   0.494  10.225  1.4580 -1.0396 -3.4885
 2463SOL     OW19024   0.560   3.831   7.480 -0.2017  0.3757 -0.4154
 2463SOL    HW119025   0.554   3.799   7.570  0.9495  1.6865  0.1407
 2463SOL    HW219026   0.587   3.921   7.500 -0.9005  0.1602  1.4948
 2464SOL     OW19027   4.154   2.193   1.726 -0.0179  0.0119 -0.6599
 2464SOL    HW119028   4.091   2.262   1.706  0.2529 -0.2825 -2.5174
 2464SOL    HW219029   4.102   2.115   1.707  0.1577  0.2484 -2.0472
 2465SOL     OW19030   0.123   2.365   2.122  0.0900  0.3445 -0.2309
 2465SOL    HW119031   0.125   2.272   2.142  0.1521  0.8269  2.0136
 2465SOL    HW219032   0.033   2.395   2.131 -0.2898 -0.7149 -0.5614
 2466SOL     OW19033   2.206   0.255   4.775 -0.0099  0.5118  0.8285
 2466SOL    HW119034   2.129   0.311   4.783  1.0948  2.2047 -0.5418
 2466SOL    HW219035   2.208   0.217   4.863 -2.2532 -0.7498  0.3347
 2467SOL     OW19036   4.404   4.406   2.215 -0.4953  0.0746  0.1421
 2467SOL    HW119037   4.441   4.452   2.290  1.9937 -2.1641  0.2980
 2467SOL    HW219038   4.448   4.444   2.138 -0.3368 -0.5456 -0.0778
 2468SOL     OW19039   2.338   4.377  10.011 -0.1906  0.2646 -0.0972
 2468SOL    HW119040   2.309   4.455   9.965 -2.5481 -0.7336 -0.2740
 2468SOL    HW219041   2.395   4.420  10.075 -1.3575 -2.0231  2.4556
 2469SOL     OW19042   1.220   1.742  13.181  0.2127  0.3454  0.3947
 2469SOL    HW119043   1.193   1.822  13.136  3.6584  2.3245  1.8204
 2469SOL    HW219044   1.142   1.713  13.227  0.9999 -2.1737  0.1147
 2470SOL     OW19045   0.005   2.583   9.382  0.2272  0.0469 -0.3808
 2470SOL    HW119046   4.714   2.564   9.471  0.1529  3.0794  0.2361
 2470SOL    HW219047   0.040   2.672   9.393  2.6574 -1.0351  0.4619
 2471SOL     OW19048   4.402   4.069   3.801  0.0495 -0.4883  0.1654
 2471SOL    HW119049   4.418   4.129   3.728 -0.7787 -1.8356 -1.1278
 2471SOL    HW219050   4.484   4.069   3.850  0.1761 -0.0976 -0.0493
 2472SOL     OW19051   0.880   1.911   6.317 -0.0698  0.0399  0.1519
 2472SOL    HW119052   0.931   1.884   6.240 -0.4683 -1.5610  0.4438
 2472SOL    HW219053   0.887   2.006   6.309 -0.6765  0.0936  0.2852
 2473SOL     OW19054   2.181   2.309   2.606 -0.3614  0.6989 -0.4339
 2473SOL    HW119055   2.166   2.382   2.545 -2.4329 -0.9063 -1.8609
 2473SOL    HW219056   2.272   2.283   2.593  0.4483  1.4766  3.9755
 2474SOL     OW19057   0.848   2.635  15.020 -0.0482 -0.1654  0.1813
 2474SOL    HW119058   0.833   2.674  14.934  1.8994 -0.1706 -0.1465
 2474SOL    HW219059   0.944   2.637  15.021 -0.0353 -0.2526 -0.7794
 2475SOL     OW19060   1.713   4.524   5.170 -0.2532  0.5959 -0.4436
 2475SOL    HW119061   1.736   4.586   5.100  2.4723 -0.2515 -0.2967
 2475SOL    HW219062   1.787   4.536   5.229 -1.4914  1.5655  0.9313
 2476SOL     OW19063   0.266   4.518   9.485 -0.7963  0.1232 -0.6916
 2476SOL    HW119064   0.229   4.589   9.537 -1.4706 -0.1130 -0.8575
 2476SOL    HW219065   0.327   4.563   9.427  0.5420 -1.1623 -0.2805
 2477SOL     OW19066   3.044   1.312   4.359  0.6406  0.3097 -0.1847
 2477SOL    HW119067   3.121   1.303   4.303  1.0336  1.4642  0.1701
 2477SOL    HW219068   3.091   1.316   4.443  0.3216  1.2415 -0.0544
 2478SOL     OW19069   3.607   2.828  14.575  0.1798  0.5387  0.0038
 2478SOL    HW119070   3.673   2.842  14.507  0.3064 -2.5982 -0.5136
 2478SOL    HW219071   3.547   2.766  14.533  1.8736 -0.8860 -0.2844
 2479SOL     OW19072   1.684   3.292   4.713 -0.4331 -0.0143  0.0049
 2479SOL    HW119073   1.683   3.387   4.706 -1.2152 -0.2308 -2.7528
 2479SOL    HW219074   1.687   3.281   4.618 -0.6714  1.0301 -0.1191
 2480SOL     OW19075   1.223   0.441   2.054 -0.5187  0.0507  0.1787
 2480SOL    HW119076   1.135   0.444   2.016  0.2019 -2.3774 -1.6588
 2480SOL    HW219077   1.203   0.457   2.146  0.0817 -0.5908  0.4187
 2481SOL     OW19078   3.580   3.169   0.914 -0.4096 -0.3109  0.2532
 2481SOL    HW119079   3.519   3.216   0.971  0.4007  2.2890 -1.0241
 2481SOL    HW219080   3.587   3.230   0.841  2.6560  0.9648  1.5942
 2482SOL     OW19081   4.501   2.214   1.927 -0.0342 -0.6699 -0.3920
 2482SOL    HW119082   4.553   2.249   2.000 -0.8249  1.2381 -0.7345
 2482SOL    HW219083   4.470   2.298   1.894  0.7132 -0.3121 -0.1760
 2483SOL     OW19084   4.606   2.757   0.116  0.2362  0.1968  0.3511
 2483SOL    HW119085   4.651   2.747   0.200 -0.8115 -0.8245  0.8061
 2483SOL    HW219086   4.528   2.808   0.140  0.6500  1.7531 -1.6836
 2484SOL     OW19087   2.257   2.937   8.563  0.1894 -0.0389  0.2641
 2484SOL    HW119088   2.180   2.977   8.523  0.5150  0.9767  0.6383
 2484SOL    HW219089   2.218   2.855   8.591  0.3166 -0.6710 -1.4110
 2485SOL     OW19090   0.739   1.453   2.564 -0.6678 -0.7090 -0.2024
 2485SOL    HW119091   0.699   1.469   2.479 -0.1880  0.7798 -0.1548
 2485SOL    HW219092   0.762   1.361   2.555 -1.4817 -0.5771 -3.6198
 2486SOL     OW19093   0.954   4.603   4.676 -0.2619  0.0644  0.9265
 2486SOL    HW119094   0.980   4.631   4.589  0.0694 -1.0032  0.6818
 2486SOL    HW219095   0.864   4.573   4.666 -0.2204 -0.6602  2.6779
 2487SOL     OW19096   4.141   1.484   3.514 -0.1371 -0.0644  0.0439
 2487SOL    HW119097   4.236   1.486   3.500 -0.1933  1.6818 -0.1710
 2487SOL    HW219098   4.113   1.508   3.426  2.6462 -0.4663 -0.9547
 2488SOL     OW19099   1.728   3.326   4.422 -0.8661  0.1442 -0.3085
 2488SOL    HW119100   1.784   3.375   4.362  1.8853  0.4303  2.4690
 2488SOL    HW219101   1.656   3.306   4.362  0.0063  1.8409 -1.9294
 2489SOL     OW19102   4.008   3.137   6.856 -0.2196  0.6992 -0.0755
 2489SOL    HW119103   4.016   3.205   6.924 -2.3802  0.5681  0.2961
 2489SOL    HW219104   4.095   3.099   6.843 -0.6197 -0.1487 -0.2788
 2490SOL     OW19105   3.078   0.379  16.931  0.3031 -0.1442  0.6243
 2490SOL    HW119106   3.145   0.408  16.869 -0.1421  0.3404  0.3724
 2490SOL    HW219107   3.044   0.462  16.964  1.1245  0.8730 -1.0931
 2491SOL     OW19108   1.831   2.254   6.472  1.1889  0.1020  0.4033
 2491SOL    HW119109   1.810   2.295   6.388  2.7496 -0.1685 -0.1173
 2491SOL    HW219110   1.807   2.329   6.526  0.7883  0.9984 -1.0030
 2492SOL     OW19111   0.986   0.668  16.388 -0.2251  0.0637 -0.3012
 2492SOL    HW119112   0.901   0.626  16.375 -0.3603 -0.2807  1.6592
 2492SOL    HW219113   1.041   0.593  16.363 -1.5894 -1.2944  0.7579
 2493SOL     OW19114   0.006   3.179   3.916  0.2628  0.0772 -0.2841
 2493SOL    HW119115   0.083   3.123   3.914 -0.9740 -1.6497  0.8297
 2493SOL    HW219116   4.678   3.119   3.947 -0.3378  1.1722  0.5426
 2494SOL     OW19117   3.506   0.350   6.753  0.3012 -0.3992 -0.3550
 2494SOL    HW119118   3.493   0.417   6.820 -0.8335 -0.7176 -0.2475
 2494SOL    HW219119   3.586   0.307   6.782  0.6899  0.8810  0.4873
 2495SOL     OW19120   1.109   3.777   6.236  0.5017  0.3205  0.0990
 2495SOL    HW119121   1.056   3.856   6.249  1.0594  0.7654 -0.3422
 2495SOL    HW219122   1.198   3.813   6.236  1.0434 -0.9820  2.9138
 2496SOL     OW19123   2.151   0.020   6.242 -0.0301 -0.6960  0.1481
 2496SOL    HW119124   2.183   0.032   6.152  1.7903  0.8969  0.9992
 2496SOL    HW219125   2.056   0.016   6.236  0.0558 -0.8137 -1.2752
 2497SOL     OW19126   4.502   4.212   4.971 -0.4649  0.3892 -0.7450
 2497SOL    HW119127   4.544   4.151   5.031 -0.6953 -0.4931 -1.4920
 2497SOL    HW219128   4.502   4.284   5.035 -0.4002  1.6818 -2.1847
 2498SOL     OW19129   4.694   2.258  13.069  0.3601  0.3049 -0.4791
 2498SOL    HW119130   4.695   2.349  13.038 -0.4245 -0.0140 -1.4351
 2498SOL    HW219131   4.616   2.224  13.026  0.1120 -1.2677  1.2597
 2499SOL     OW19132   2.922   0.498   9.382  0.4203  0.1819  0.7123
 2499SOL    HW119133   2.934   0.564   9.314  1.5751 -0.4860  0.2536
 2499SOL    HW219134   2.876   0.544   9.452 -0.0096 -0.3930  0.8100
 2500SOL     OW19135   0.936   0.637  11.976 -0.4036 -0.7535  0.5920
 2500SOL    HW119136   0.847   0.672  11.973  0.1195  0.3540 -1.9260
 2500SOL    HW219137   0.934   0.542  11.993 -1.8536 -0.9714 -0.8141
 2501SOL     OW19138   1.093   3.426   0.526 -0.1563 -0.1277 -0.2694
 2501SOL    HW119139   1.162   3.380   0.573 -0.7859 -0.1297  0.6640
 2501SOL    HW219140   1.152   3.451   0.455  0.4112 -2.4533 -0.6124
 2502SOL     OW19141   4.227   3.098  16.482 -0.2836  0.0638  0.0273
 2502SOL    HW119142   4.198   3.007  16.483  0.3565 -0.1515 -0.5426
 2502SOL    HW219143   4.244   3.113  16.388  2.4235  0.1858  0.5403
 2503SOL     OW19144   4.249   3.074  10.959  0.3542 -0.0319  0.0433
 2503SOL    HW119145   4.173   3.032  11.000 -1.8399  1.1555 -2.7559
 2503SOL    HW219146   4.320   3.040  11.014  0.3606  1.0950  0.7260
 2504SOL     OW19147   1.198   3.444   7.022 -0.2450  0.7259 -0.7100
 2504SOL    HW119148   1.252   3.511   7.064  1.5435 -0.7309 -0.6836
 2504SOL    HW219149   1.130   3.444   7.088  0.0438  0.8738 -0.4107
 2505SOL     OW19150   2.347   3.531   8.341 -0.5802 -1.0939  0.2467
 2505SOL    HW119151   2.431   3.486   8.356 -0.1085 -0.6133 -0.8920
 2505SOL    HW219152   2.301   3.509   8.421  1.4494 -0.3108  1.6432
 2506SOL     OW19153   2.061   3.310  12.975  0.2812  0.3918  0.4572
 2506SOL    HW119154   2.033   3.278  12.889  0.1587 -1.2133  1.0899
 2506SOL    HW219155   2.126   3.247  13.005 -0.1282 -0.4398 -0.4115
 2507SOL     OW19156   4.243   3.495   8.715 -0.2595  0.0607  0.6698
 2507SOL    HW119157   4.310   3.549   8.757  1.2986 -0.2896 -1.3642
 2507SOL    HW219158   4.175   3.554   8.685 -0.8285 -0.6502  0.5703
 2508SOL     OW19159   1.657   2.524  17.138  0.0310 -0.3462 -0.2004
 2508SOL    HW119160   1.603   2.582  17.190  1.5233  0.3540  0.5676
 2508SOL    HW219161   1.622   2.551  17.053  3.2273  3.0321 -0.4200
 2509SOL     OW19162   1.463   0.833   6.166  0.0303 -0.0427 -0.2647
 2509SOL    HW119163   1.526   0.867   6.102 -0.8346  1.8229 -0.1257
 2509SOL    HW219164   1.419   0.916   6.187 -1.1599 -1.0951  1.3704
 2510SOL     OW19165   0.451   0.367   1.526  0.2021  0.4745  0.2283
 2510SOL    HW119166   0.454   0.387   1.620 -0.6543 -4.4175  1.3015
 2510SOL    HW219167   0.534   0.402   1.494  1.0503 -1.6632  0.0909
 2511SOL     OW19168   0.134   0.014   9.207 -0.4411  0.1821 -0.6545
 2511SOL    HW119169   0.101   4.664   9.221  1.5448 -0.3911  0.4120
 2511SOL    HW219170   0.059   0.064   9.177 -0.5983  0.7591  0.6885
 2512SOL     OW19171   1.120   4.371   6.344 -0.0982 -0.0015 -0.2230
 2512SOL    HW119172   1.094   4.457   6.376 -2.4636 -0.9390  0.3439
 2512SOL    HW219173   1.040   4.321   6.328  0.8490 -1.9682  1.1668
 2513SOL     OW19174   4.635   0.268   4.816  0.2711  0.1267  0.2718
 2513SOL    HW119175   4.610   0.196   4.873  0.3347  0.6670  0.9861
 2513SOL    HW219176   4.683   0.324   4.878  0.0004  0.7081 -0.0482
 2514SOL     OW19177   1.273   2.782   8.051  0.0836 -0.5804 -0.0548
 2514SOL    HW119178   1.282   2.802   8.144 -1.1360 -1.4999  0.2614
 2514SOL    HW219179   1.200   2.721   8.048  0.8295 -1.3415 -2.6875
 2515SOL     OW19180   2.670   2.330   2.718 -0.2262  0.1423 -0.1808
 2515SOL    HW119181   2.748   2.284   2.687 -0.3241 -0.5621  0.6452
 2515SOL    HW219182   2.599   2.275   2.688 -1.3671  1.0804  0.8011
 2516SOL     OW19183   1.228   0.924   8.567 -0.4335  0.0411  0.1670
 2516SOL    HW119184   1.143   0.947   8.529 -1.5510  0.0096  2.6824
 2516SOL    HW219185   1.211   0.950   8.658 -0.1046 -0.3102  0.3289
 2517SOL     OW19186   1.821   4.665  12.339  0.5009  0.5224 -0.6744
 2517SOL    HW119187   1.765   4.627  12.272  0.9417 -0.7432 -0.3187
 2517SOL    HW219188   1.881   4.717  12.285  1.2771 -0.9565 -1.2126
 2518SOL     OW19189   0.767   0.863   4.986  0.1803  0.6040  0.5987
 2518SOL    HW119190   0.837   0.817   5.033 -0.0803 -0.3543  0.0267
 2518SOL    HW219191   0.723   0.799   4.931  0.2335 -0.4765  1.8155
 2519SOL     OW19192   1.097   2.457  17.342 -0.1679  0.2835  0.4908
 2519SOL    HW119193   1.023   2.398  17.359  0.5869 -0.7809  0.1252
 2519SOL    HW219194   1.052   2.522  17.289 -1.8813 -1.0550  0.2831
 2520SOL     OW19195   0.658   1.938   2.285  0.8193 -0.1294  0.2756
 2520SOL    HW119196   0.684   1.954   2.195 -1.4533  0.6118 -0.2555
 2520SOL    HW219197   0.575   1.895   2.264  2.4626 -2.6923 -0.8579
 2521SOL     OW19198   4.229   3.638   1.768 -0.4959 -0.2517  0.3195
 2521SOL    HW119199   4.231   3.686   1.685 -0.3843 -2.3022 -0.8647
 2521SOL    HW219200   4.149   3.586   1.759 -0.5753  0.1485 -1.2622
 2522SOL     OW19201   2.278   0.378   0.803 -0.1412 -0.4434 -0.0654
 2522SOL    HW119202   2.334   0.383   0.880 -4.0567 -0.5733  2.7992
 2522SOL    HW219203   2.201   0.343   0.848 -1.2658  3.1876  0.8217
 2523SOL     OW19204   3.610   4.262   6.961 -0.1276  0.2665  0.5601
 2523SOL    HW119205   3.658   4.312   6.895  0.3474  0.1089  0.7880
 2523SOL    HW219206   3.640   4.173   6.941 -1.7827 -0.3927  0.9904
 2524SOL     OW19207   1.533   0.279   6.874  0.0110 -0.0294 -0.6023
 2524SOL    HW119208   1.538   0.318   6.786 -0.7677 -0.3623 -0.7924
 2524SOL    HW219209   1.613   0.316   6.911 -0.4624 -0.2415  0.6387
 2525SOL     OW19210   1.773   0.630   2.986  0.1783  0.0519  0.1408
 2525SOL    HW119211   1.775   0.655   2.894 -0.5894  0.5166  0.2523
 2525SOL    HW219212   1.802   0.703   3.041 -0.9012  0.2869  0.4035
 2526SOL     OW19213   1.690   1.253   4.810  0.0623  0.1646 -0.4166
 2526SOL    HW119214   1.619   1.307   4.776  1.4495  1.1840 -1.6606
 2526SOL    HW219215   1.649   1.171   4.781  1.5374  0.0463 -2.1379
 2527SOL     OW19216   3.936   1.424   9.833  1.0157 -0.1822  0.2088
 2527SOL    HW119217   3.891   1.345   9.863 -0.5635  0.2248 -1.0993
 2527SOL    HW219218   3.863   1.471   9.793  1.3133  0.1510  0.0613
 2528SOL     OW19219   3.808   1.410   3.862 -0.1968 -0.6551  0.4729
 2528SOL    HW119220   3.794   1.503   3.842 -1.5721 -0.9120  0.2013
 2528SOL    HW219221   3.851   1.382   3.781  2.2214 -0.2542  1.6203
 2529SOL     OW19222   0.586   2.203   7.354 -0.2175 -0.1346  0.1137
 2529SOL    HW119223   0.585   2.203   7.449 -0.6730 -2.2161  0.1024
 2529SOL    HW219224   0.671   2.246   7.339 -0.3869  1.4346  3.6426
 2530SOL     OW19225   2.820   3.100   4.846 -0.9925 -0.1948 -0.1551
 2530SOL    HW119226   2.903   3.056   4.865 -1.1185 -0.3081  0.1282
 2530SOL    HW219227   2.837   3.121   4.754  2.3411 -0.6924  0.3654
 2531SOL     OW19228   0.662   2.157   1.979  0.1726 -0.0903  0.1481
 2531SOL    HW119229   0.570   2.173   1.959  0.2901  0.8306  0.3296
 2531SOL    HW219230   0.670   2.219   2.052 -1.1813  0.1389  0.0995
 2532SOL     OW19231   1.331   1.435   1.222  0.0650  0.7967 -0.4584
 2532SOL    HW119232   1.295   1.488   1.152  0.6971 -0.1065 -1.4652
 2532SOL    HW219233   1.343   1.354   1.173  0.4140 -0.2002  1.2743
 2533SOL     OW19234   4.363   0.667   5.858 -0.1892  0.1519 -0.1224
 2533SOL    HW119235   4.444   0.702   5.822 -1.0625  1.7935 -0.4955
 2533SOL    HW219236   4.295   0.734   5.856  0.3149  0.5844 -2.1984
 2534SOL     OW19237   1.700   0.127  11.535  0.3911 -0.1678  0.5003
 2534SOL    HW119238   1.632   0.074  11.578 -1.2082  1.2589 -0.2695
 2534SOL    HW219239   1.657   0.209  11.514 -1.6061 -1.2958  0.2193
 2535SOL     OW19240   0.435   0.586   7.617  0.1373  0.1385 -0.2204
 2535SOL    HW119241   0.416   0.627   7.701 -1.2713 -1.3929  0.2114
 2535SOL    HW219242   0.363   0.524   7.606  1.3432 -1.2426 -0.4284
 2536SOL     OW19243   3.816   0.795   9.472 -0.5038 -0.0436  0.1296
 2536SOL    HW119244   3.727   0.826   9.486 -0.6912 -0.1405 -0.8460
 2536SOL    HW219245   3.818   0.737   9.396  1.4660  1.0369 -0.6691
 2537SOL     OW19246   2.392   0.356   6.306  0.4276  0.3511 -0.2040
 2537SOL    HW119247   2.380   0.272   6.348 -2.1034  0.5091 -0.6325
 2537SOL    HW219248   2.468   0.389   6.353  0.0815  1.1516 -0.2062
 2538SOL     OW19249   2.043   1.768   8.669 -0.7167  0.0671 -0.0970
 2538SOL    HW119250   1.977   1.813   8.721 -1.0115 -0.5159  0.0322
 2538SOL    HW219251   2.121   1.823   8.670 -0.1796 -0.6930  0.1623
 2539SOL     OW19252   3.039   0.774   4.897 -0.0738  0.3595 -0.2360
 2539SOL    HW119253   3.040   0.799   4.805  2.6345 -0.0430 -0.3032
 2539SOL    HW219254   2.963   0.820   4.933 -0.1626  0.2021 -0.2256
 2540SOL     OW19255   2.174   1.213   3.943  0.0429 -0.2062 -0.0976
 2540SOL    HW119256   2.195   1.179   3.856  1.6017  1.6932 -0.4710
 2540SOL    HW219257   2.248   1.273   3.954 -0.2563  0.2674 -0.6449
 2541SOL     OW19258   1.227   1.898   1.677 -0.1426  0.4738 -0.2497
 2541SOL    HW119259   1.304   1.854   1.714 -0.2097  0.3908 -0.2107
 2541SOL    HW219260   1.233   1.875   1.584 -1.5858 -0.1263 -0.1888
 2542SOL     OW19261   4.348   4.324  12.309  0.0232  0.2448  0.7146
 2542SOL    HW119262   4.427   4.271  12.302  2.2849  3.4083  2.8344
 2542SOL    HW219263   4.328   4.332  12.215  0.4060  0.6118  0.6665
 2543SOL     OW19264   0.459   2.243   4.507 -0.2697 -0.2770  0.5708
 2543SOL    HW119265   0.510   2.243   4.588  0.0939 -1.3262  0.3410
 2543SOL    HW219266   0.528   2.225   4.443 -1.0714 -1.6037  0.0834
 2544SOL     OW19267   2.242   3.945   3.416 -0.1390 -0.2218  0.2301
 2544SOL    HW119268   2.223   4.026   3.370  2.0796  0.0861 -0.1399
 2544SOL    HW219269   2.261   3.959   3.509 -0.8824  0.7493  0.2275
 2545SOL     OW19270   2.547   2.477  13.886  0.0320  0.4747 -0.1460
 2545SOL    HW119271   2.625   2.529  13.906  0.7546  0.5099 -2.9609
 2545SOL    HW219272   2.539   2.500  13.793 -0.1701 -1.3223 -0.5696
 2546SOL     OW19273   4.653   0.772   4.120  0.3749 -0.6599  0.3523
 2546SOL    HW119274   0.006   0.764   4.094  0.0489 -2.5466 -0.2323
 2546SOL    HW219275   4.654   0.868   4.128 -0.2427 -0.6510  0.2707
 2547SOL     OW19276   1.885   4.323   2.806 -0.3241 -0.2385  0.2161
 2547SOL    HW119277   1.805   4.355   2.848 -1.1341  0.2868 -1.6997
 2547SOL    HW219278   1.857   4.349   2.718  2.9547  1.5580 -0.2879
 2548SOL     OW19279   2.564   4.025   4.117  0.4905 -0.6334  0.0241
 2548SOL    HW119280   2.612   4.104   4.095 -0.6479  0.1267  0.2678
 2548SOL    HW219281   2.613   4.009   4.198  2.9720  3.4098 -0.6983
 2549SOL     OW19282   0.063   2.668   6.799  0.1400 -0.3355 -0.2964
 2549SOL    HW119283   0.115   2.748   6.804  1.0485 -1.0151  1.0857
 2549SOL    HW219284   0.136   2.608   6.817  0.6728  0.6984  0.9420
 2550SOL     OW19285   0.828   2.622   3.007  0.7625  0.3996  0.0716
 2550SOL    HW119286   0.754   2.628   3.068 -0.6250  1.2635 -1.6810
 2550SOL    HW219287   0.840   2.716   2.995 -1.0326  0.4249 -1.5768
 2551SOL     OW19288   1.663   3.402  15.868 -0.1123  0.4669  0.6002
 2551SOL    HW119289   1.641   3.482  15.820  1.5187 -0.9614 -2.5589
 2551SOL    HW219290   1.752   3.427  15.891  0.4099 -1.7063  0.9753
 2552SOL     OW19291   2.476   2.011  15.613  0.3023  0.0495 -0.0137
 2552SOL    HW119292   2.421   1.933  15.603 -0.5864  0.8771 -1.7511
 2552SOL    HW219293   2.561   1.973  15.592  0.3370 -0.0194  0.2571
 2553SOL     OW19294   2.084   3.675   8.797 -0.3815 -0.3132  0.1621
 2553SOL    HW119295   2.129   3.697   8.879 -1.0770  0.6555  0.2889
 2553SOL    HW219296   2.083   3.758   8.750  2.6523 -0.7518 -0.6188
 2554SOL     OW19297   2.579   2.746  15.178 -0.7703 -0.5057  0.0604
 2554SOL    HW119298   2.662   2.718  15.140 -0.5049  0.1648  0.1497
 2554SOL    HW219299   2.589   2.838  15.203 -1.9769 -0.7521  1.4944
 2555SOL     OW19300   0.946   1.596   2.452 -0.7611 -0.2663  0.0451
 2555SOL    HW119301   0.872   1.557   2.498 -1.0509  2.3690  1.8012
 2555SOL    HW219302   0.901   1.601   2.368 -0.8194 -0.5760  0.0580
 2556SOL     OW19303   3.885   2.258  11.959 -0.3642 -0.0127 -0.0379
 2556SOL    HW119304   3.948   2.223  12.022 -0.2859 -1.3526 -0.8680
 2556SOL    HW219305   3.827   2.319  12.004  1.6025  2.7140 -1.2409
 2557SOL     OW19306   1.828   1.328   6.953  0.4509 -0.3779 -0.1213
 2557SOL    HW119307   1.759   1.364   6.897 -0.4225 -1.7993  0.0702
 2557SOL    HW219308   1.912   1.339   6.908  0.0392 -0.3092 -0.8688
 2558SOL     OW19309   4.512   2.066   7.871 -0.2405 -0.0989 -0.3210
 2558SOL    HW119310   4.505   2.124   7.795  1.1814  1.4875  0.7660
 2558SOL    HW219311   4.443   2.003   7.849 -0.3545 -0.9852  2.6215
 2559SOL     OW19312   4.401   1.638  13.774  0.2047 -0.3520  0.6474
 2559SOL    HW119313   4.490   1.665  13.797  0.3479 -0.8043  0.6227
 2559SOL    HW219314   4.366   1.711  13.724  1.6318 -0.7242 -0.9028
 2560SOL     OW19315   2.446   0.566   6.748 -0.2884 -0.0174  0.4755
 2560SOL    HW119316   2.539   0.573   6.770  0.2653  0.5264 -2.0348
 2560SOL    HW219317   2.440   0.516   6.667 -0.2475 -1.9201  1.6454
 2561SOL     OW19318   1.741   4.358   9.232  0.1623 -0.1815 -0.0661
 2561SOL    HW119319   1.805   4.328   9.167 -2.3104 -0.6182 -2.2781
 2561SOL    HW219320   1.665   4.310   9.201 -0.9262 -0.7636  3.5372
 2562SOL     OW19321   1.017   2.231   3.168 -0.4346 -0.5290  0.0885
 2562SOL    HW119322   0.927   2.253   3.142  0.0857  1.8582  0.3354
 2562SOL    HW219323   1.055   2.191   3.089  0.2415  1.4160 -0.5698
 2563SOL     OW19324   4.312   3.256  15.479  0.1502  0.4103 -0.5400
 2563SOL    HW119325   4.242   3.269  15.543  0.2892 -3.0120  0.2682
 2563SOL    HW219326   4.265   3.287  15.401  0.5506  2.0017 -0.1561
 2564SOL     OW19327   1.908   0.187  13.059 -0.6572 -0.0643  0.8311
 2564SOL    HW119328   1.823   0.151  13.032 -0.4537 -0.9399  1.3583
 2564SOL    HW219329   1.957   0.145  12.989  2.4210  1.8321  1.8642
 2565SOL     OW19330   0.943   1.495   8.054 -0.1870 -0.4044 -0.1202
 2565SOL    HW119331   0.911   1.581   8.079 -0.7884 -0.7975  0.4650
 2565SOL    HW219332   0.978   1.511   7.966  0.3589 -0.0320  0.1698
 2566SOL     OW19333   3.103   0.161  14.573 -0.3799 -0.5462  0.4259
 2566SOL    HW119334   3.105   0.237  14.516  0.5053  0.2620  1.5385
 2566SOL    HW219335   3.043   0.105  14.524 -0.1483 -0.6500  0.2617
 2567SOL     OW19336   1.984   3.468   0.052  0.6488 -0.1059  0.0576
 2567SOL    HW119337   2.067   3.439   0.014  1.4253 -1.6150  2.8966
 2567SOL    HW219338   1.958   3.391   0.103 -0.9722  1.0390  0.9508
 2568SOL     OW19339   2.762   3.222   2.888  0.4163  0.3731 -0.2648
 2568SOL    HW119340   2.752   3.288   2.956 -1.5442  0.3479 -0.5109
 2568SOL    HW219341   2.718   3.152   2.937 -0.7362  2.3201  1.5017
 2569SOL     OW19342   1.555   2.077   0.238 -0.4550  0.1309  0.1581
 2569SOL    HW119343   1.517   1.997   0.203 -0.1780  0.0012  0.1582
 2569SOL    HW219344   1.574   2.055   0.329  0.7907  1.2196  0.1621
 2570SOL     OW19345   1.782   3.665   2.236 -0.0793  0.0101 -0.1322
 2570SOL    HW119346   1.763   3.582   2.192  1.1941 -0.6732  0.6347
 2570SOL    HW219347   1.869   3.645   2.269 -0.3928 -0.1034  0.6270
 2571SOL     OW19348   1.927   1.995  11.791  0.3193 -0.6108 -0.3708
 2571SOL    HW119349   1.901   2.037  11.708  1.5703 -0.5329 -0.7227
 2571SOL    HW219350   1.847   2.010  11.841 -1.0481 -0.0963 -2.7119
 2572SOL     OW19351   0.935   3.590   3.394 -0.5103  0.0972  0.7968
 2572SOL    HW119352   0.913   3.574   3.486 -1.9584  1.7080  0.7214
 2572SOL    HW219353   0.865   3.650   3.370  0.6674  0.1403 -2.5239
 2573SOL     OW19354   2.951   4.737  14.441 -0.0664 -0.2821  0.4613
 2573SOL    HW119355   2.961   4.647  14.412  0.0406 -0.5454  1.3185
 2573SOL    HW219356   2.862   0.015  14.411  0.8594 -0.8547 -2.6450
 2574SOL     OW19357   0.917   1.850  10.142 -0.1397  0.6085  0.3083
 2574SOL    HW119358   0.963   1.766  10.152 -2.1432 -0.3982  1.0337
 2574SOL    HW219359   0.824   1.830  10.131 -0.1692  0.1017  1.4794
 2575SOL     OW19360   4.599   4.706  10.161  0.3324  0.0341 -0.0007
 2575SOL    HW119361   4.599   4.635  10.224  0.4713  0.3969  0.4053
 2575SOL    HW219362   4.506   4.711  10.136  0.1432  0.4187  0.7995
 2576SOL     OW19363   3.767   1.831   3.503 -0.3170 -0.1915  0.2582
 2576SOL    HW119364   3.862   1.829   3.514 -0.4391 -0.4447  1.2329
 2576SOL    HW219365   3.747   1.741   3.474 -0.2008  0.4793 -1.9340
 2577SOL     OW19366   2.903   3.974  16.132  0.0891  0.4359 -0.0119
 2577SOL    HW119367   2.915   4.026  16.211  0.8259  2.1261 -1.2346
 2577SOL    HW219368   2.819   4.014  16.107  0.0276 -0.9275 -1.9542
 2578SOL     OW19369   0.736   4.464   9.921 -0.4371 -0.2994  0.5752
 2578SOL    HW119370   0.720   4.418  10.004 -0.3553  0.2794  0.9197
 2578SOL    HW219371   0.801   4.410   9.877  1.1535 -0.7817  3.5119
 2579SOL     OW19372   0.135   4.684   8.716 -0.2823 -0.4109 -0.1680
 2579SOL    HW119373   0.120   0.005   8.643 -1.2000  0.9877  1.1968
 2579SOL    HW219374   0.216   4.719   8.754  0.0315 -0.6939 -0.5667
 2580SOL     OW19375   0.297   3.787   8.634  0.5391  0.3077  0.0220
 2580SOL    HW119376   0.260   3.725   8.571 -1.2593  0.8985  0.5054
 2580SOL    HW219377   0.217   3.804   8.683 -0.2331 -2.2838 -0.3506
 2581SOL     OW19378   2.036   0.386   1.838  0.0732 -0.6110 -0.5928
 2581SOL    HW119379   2.074   0.298   1.848  1.4002  0.0330 -0.0277
 2581SOL    HW219380   2.049   0.411   1.929 -1.1744  0.4552 -0.7045
 2582SOL     OW19381   0.345   4.154   9.086 -0.0856 -0.4197 -0.1542
 2582SOL    HW119382   0.281   4.099   9.040  1.7039 -1.6167 -1.2385
 2582SOL    HW219383   0.423   4.130   9.035  1.2764 -0.8716  2.1254
 2583SOL     OW19384   0.456   3.945  15.407  0.8455 -0.6272  0.2327
 2583SOL    HW119385   0.442   4.025  15.357 -1.2112 -1.5952 -0.7358
 2583SOL    HW219386   0.485   3.993  15.485  1.5934 -1.4234  0.4485
 2584SOL     OW19387   1.033   3.281   4.069 -0.2934  0.1868  0.2440
 2584SOL    HW119388   1.086   3.353   4.102  0.0762  1.1631 -2.4790
 2584SOL    HW219389   0.942   3.307   4.087  0.2829  1.6578  1.0955
 2585SOL     OW19390   1.624   3.563  11.457 -0.4290  0.0221  0.1509
 2585SOL    HW119391   1.622   3.493  11.392  1.4941 -0.8420  1.0333
 2585SOL    HW219392   1.623   3.516  11.540  1.6888  1.2764  0.8709
 2586SOL     OW19393   2.777   0.473   4.768  0.3544  0.4137  0.3045
 2586SOL    HW119394   2.784   0.404   4.703  3.4035 -0.3339  1.4599
 2586SOL    HW219395   2.704   0.445   4.824  1.4084  1.8501  2.4153
 2587SOL     OW19396   4.478   4.136   7.176 -0.2055  0.1445 -0.0160
 2587SOL    HW119397   4.501   4.121   7.085 -0.2113  0.2436 -0.0337
 2587SOL    HW219398   4.535   4.069   7.213  0.7865  1.0016  0.0111
 2588SOL     OW19399   4.434   1.292   9.200 -0.6153 -0.0307  0.5384
 2588SOL    HW119400   4.389   1.354   9.143 -0.4640 -0.9127 -0.5525
 2588SOL    HW219401   4.404   1.208   9.164 -2.4760  0.1799  1.6551
 2589SOL     OW19402   3.679   3.664  13.051 -0.4952 -0.5837 -0.5852
 2589SOL    HW119403   3.707   3.744  13.007 -0.0534 -0.4415 -0.0371
 2589SOL    HW219404   3.767   3.628  13.052 -0.1815  0.1487 -1.8135
 2590SOL     OW19405   0.348   2.327  11.182  0.0654 -0.1580 -0.7876
 2590SOL    HW119406   0.339   2.246  11.131  1.7404 -0.4441 -0.6348
 2590SOL    HW219407   0.265   2.335  11.230  1.0743  1.6436  0.6405
 2591SOL     OW19408   0.459   2.943   8.723 -0.5812 -0.7096  0.0291
 2591SOL    HW119409   0.460   3.005   8.650 -0.5148  1.0889  1.5554
 2591SOL    HW219410   0.531   2.885   8.698 -1.3543 -0.7351 -2.0899
 2592SOL     OW19411   0.824   1.238   3.827 -0.1955 -0.3316 -0.0507
 2592SOL    HW119412   0.756   1.176   3.802  0.3373  0.2391 -2.8847
 2592SOL    HW219413   0.780   1.315   3.863 -0.3453 -0.5532  0.2436
 2593SOL     OW19414   2.889   2.224  12.090  0.6269  0.2422 -0.6044
 2593SOL    HW119415   2.916   2.238  11.999 -0.9754  0.7950 -0.9797
 2593SOL    HW219416   2.911   2.311  12.124 -1.7439  0.7671 -0.4283
 2594SOL     OW19417   1.939   4.737   9.698  0.3980 -0.4434 -0.3541
 2594SOL    HW119418   2.005   0.049   9.651  0.5354 -1.4986 -1.3396
 2594SOL    HW219419   1.887   4.702   9.625  0.5579  0.3553 -0.8418
 2595SOL     OW19420   4.623   0.681  12.838  0.6702 -0.8707  0.1128
 2595SOL    HW119421   4.596   0.590  12.854  2.4688 -1.2916  0.7203
 2595SOL    HW219422   4.708   0.669  12.796  0.7294  0.7085 -0.2273
 2596SOL     OW19423   0.419   3.132   6.559  0.4344 -1.1442 -1.3548
 2596SOL    HW119424   0.491   3.193   6.575  0.4213 -1.1964 -1.1032
 2596SOL    HW219425   0.355   3.182   6.510  0.8640  1.5410  0.8333
 2597SOL     OW19426   1.766   3.668  13.379  0.3869  0.1672 -0.3199
 2597SOL    HW119427   1.698   3.696  13.317  0.4359 -1.3040 -1.0310
 2597SOL    HW219428   1.720   3.600  13.427 -2.4238  1.1151 -1.6119
 2598SOL     OW19429   0.187   4.678   7.206  0.1219 -0.5204 -0.7692
 2598SOL    HW119430   0.143   4.664   7.122 -4.5582  1.0849  1.3758
 2598SOL    HW219431   0.270   4.690   7.159  0.6630  1.4935  0.7052
 2599SOL     OW19432   1.329   1.652   7.093  0.3578 -0.3378  0.0113
 2599SOL    HW119433   1.264   1.665   7.024 -0.0833 -0.9565  0.3130
 2599SOL    HW219434   1.279   1.614   7.165  1.0236 -0.3155  0.4841
 2600SOL     OW19435   1.739   2.954  17.309 -0.5586  0.2994  0.2317
 2600SOL    HW119436   1.731   3.033  17.254 -1.1723  0.3841  0.4386
 2600SOL    HW219437   1.817   2.915  17.270 -0.8188 -1.5567  1.5975
 2601SOL     OW19438   1.798   3.630  11.196  0.0254 -0.2143  0.0320
 2601SOL    HW119439   1.838   3.574  11.262 -1.7785 -2.2214 -0.5984
 2601SOL    HW219440   1.717   3.659  11.239  1.2415 -0.2391  2.3739
 2602SOL     OW19441   1.957   3.557   6.557 -0.2815 -0.3413 -0.1372
 2602SOL    HW119442   1.924   3.512   6.479  1.7873  1.1477 -1.8521
 2602SOL    HW219443   2.041   3.583   6.520  0.8362 -0.0773  2.6234
 2603SOL     OW19444   0.178   2.787   1.682 -0.0784  0.0436  0.2883
 2603SOL    HW119445   0.134   2.794   1.598 -0.1816 -2.9835  0.0656
 2603SOL    HW219446   0.120   2.746   1.746  0.8370 -0.4269  0.8198
 2604SOL     OW19447   2.533   1.509   4.505 -0.7434 -0.1381  0.2294
 2604SOL    HW119448   2.529   1.570   4.579  0.7031  2.0185 -1.4907
 2604SOL    HW219449   2.476   1.551   4.441 -1.1177 -2.0506 -0.6937
 2605SOL     OW19450   0.626   0.950   4.411  0.1537  0.0806 -0.2862
 2605SOL    HW119451   0.531   0.955   4.421  0.3352 -0.7729  1.7561
 2605SOL    HW219452   0.659   0.935   4.499  1.1034  1.8537 -0.3411
 2606SOL     OW19453   4.181   1.534   9.859  0.5604 -0.2621 -0.0678
 2606SOL    HW119454   4.166   1.628   9.850 -2.1791 -0.7606 -0.6866
 2606SOL    HW219455   4.092   1.499   9.860  0.6069 -0.4080 -0.7686
 2607SOL     OW19456   2.844   1.699   6.127  0.1012  0.3985 -0.3669
 2607SOL    HW119457   2.932   1.737   6.120 -0.0578  0.5950 -1.3754
 2607SOL    HW219458   2.813   1.704   6.036  1.8267  2.7934 -0.8278
 2608SOL     OW19459   1.803   2.857   0.741 -0.0759 -0.2353 -0.5936
 2608SOL    HW119460   1.865   2.873   0.813 -2.7144  1.4548  1.2931
 2608SOL    HW219461   1.826   2.766   0.721  2.0608  0.1124  0.2198
 2609SOL     OW19462   2.994   2.705   5.377  0.1934 -0.2621  0.3962
 2609SOL    HW119463   2.990   2.718   5.471 -0.2268 -1.0575  0.4880
 2609SOL    HW219464   2.932   2.635   5.356 -0.7172  0.6325  0.1365
 2610SOL     OW19465   0.091   2.672   6.240 -0.3263 -0.0765 -0.5048
 2610SOL    HW119466   0.116   2.758   6.208  0.3976 -0.3777 -0.7394
 2610SOL    HW219467   0.167   2.617   6.256  0.5791  0.8763 -1.5639
 2611SOL     OW19468   2.954   4.032  12.349  0.0619 -1.0755 -0.0537
 2611SOL    HW119469   2.973   4.082  12.429 -0.7418 -2.2453  0.8644
 2611SOL    HW219470   2.885   4.084  12.307  0.0547 -1.2751 -0.2907
 2612SOL     OW19471   2.966   3.427   5.203 -0.2315 -0.1051 -0.2502
 2612SOL    HW119472   3.023   3.474   5.265 -1.1070  0.9658 -0.2485
 2612SOL    HW219473   3.006   3.341   5.192 -0.6655 -0.2278 -0.8245
 2613SOL     OW19474   2.193   4.717  10.246  0.1741 -0.6211  0.1548
 2613SOL    HW119475   2.242   4.644  10.283  0.8425  0.3483  1.1484
 2613SOL    HW219476   2.259   0.046  10.235  0.7953 -1.6475 -2.6269
 2614SOL     OW19477   4.396   1.444   4.625 -0.3338 -0.5519 -0.8164
 2614SOL    HW119478   4.417   1.351   4.623 -1.0292 -0.7157 -0.5987
 2614SOL    HW219479   4.348   1.446   4.708  1.0538  1.6626 -0.0814
 2615SOL     OW19480   1.545   1.786   7.189 -0.1518 -0.2664 -0.1691
 2615SOL    HW119481   1.581   1.829   7.112  0.4846 -1.6087 -0.6190
 2615SOL    HW219482   1.475   1.738   7.146  0.7856 -0.9489 -0.9276
 2616SOL     OW19483   3.864   3.906   8.607 -0.1896  0.2547  0.1749
 2616SOL    HW119484   3.869   3.972   8.538 -2.1581  2.2294  1.8908
 2616SOL    HW219485   3.824   3.956   8.679 -0.8880 -0.1885  0.0955
 2617SOL     OW19486   0.685   0.238   9.122 -0.2796  0.3096 -0.0939
 2617SOL    HW119487   0.594   0.217   9.145 -0.0643 -1.7234 -1.1784
 2617SOL    HW219488   0.682   0.334   9.131 -1.7277  0.3184 -0.5845
 2618SOL     OW19489   0.593   3.706  15.464 -0.0926  0.5298 -0.0566
 2618SOL    HW119490   0.543   3.788  15.463 -1.5580 -0.3072  3.0893
 2618SOL    HW219491   0.555   3.663  15.540 -0.7283 -3.1773 -2.4607
 2619SOL     OW19492   3.315   4.339   9.058 -0.1758 -0.0334  0.0364
 2619SOL    HW119493   3.279   4.294   9.135 -0.7057  2.9880  1.5484
 2619SOL    HW219494   3.240   4.326   8.999 -0.7753 -2.8548  1.4655
 2620SOL     OW19495   0.305   4.521   4.324 -0.2828  0.7022 -0.5104
 2620SOL    HW119496   0.365   4.567   4.383 -0.6360 -0.6436  0.8810
 2620SOL    HW219497   0.259   4.593   4.279 -0.8008  1.1446  0.7360
 2621SOL     OW19498   0.684   3.259   7.477  0.0313 -1.0309 -0.3352
 2621SOL    HW119499   0.641   3.286   7.396 -0.7570  0.9574  0.7625
 2621SOL    HW219500   0.773   3.290   7.461  0.0802 -0.9371  0.1128
 2622SOL     OW19501   3.991   0.304   9.400 -0.6080  0.6059  0.3138
 2622SOL    HW119502   3.943   0.245   9.342  2.1861  1.6351 -2.9906
 2622SOL    HW219503   4.034   0.240   9.457 -0.3035  0.0094 -0.6018
 2623SOL     OW19504   3.626   4.104  15.858  0.2718 -0.1516  0.2044
 2623SOL    HW119505   3.547   4.117  15.806  1.1549 -1.2560 -1.4051
 2623SOL    HW219506   3.624   4.009  15.846 -3.3989  0.1459 -1.6797
 2624SOL     OW19507   4.307   0.193   4.474 -0.3221  0.0406  0.4572
 2624SOL    HW119508   4.219   0.230   4.474 -0.1251  0.4997 -0.4875
 2624SOL    HW219509   4.331   0.203   4.567 -0.0893  3.3036  0.0309
 2625SOL     OW19510   2.681   4.169   6.418  0.3000  0.3191  0.0719
 2625SOL    HW119511   2.776   4.175   6.429  0.2572 -0.0179  0.6684
 2625SOL    HW219512   2.662   4.079   6.392  1.1377  0.2418 -0.2795
 2626SOL     OW19513   1.937   4.547   4.014  0.4723 -0.1978 -0.2249
 2626SOL    HW119514   1.849   4.539   4.051  0.9133 -1.2053  0.5941
 2626SOL    HW219515   1.945   4.643   4.018 -2.7072  0.0334  1.0120
 2627SOL     OW19516   2.181   1.265   0.243 -0.2752 -0.0737  0.4930
 2627SOL    HW119517   2.149   1.235   0.328 -0.9103  0.5589  0.4757
 2627SOL    HW219518   2.104   1.311   0.209  1.5243 -0.8764 -4.7385
 2628SOL     OW19519   2.225   3.971   7.982  0.3056  0.1887 -0.4321
 2628SOL    HW119520   2.298   4.027   8.007  1.5168 -2.1143  1.1465
 2628SOL    HW219521   2.262   3.890   7.945  0.6960 -0.2401  0.9135
 2629SOL     OW19522   3.674   2.830   9.307 -0.3219 -0.3230  0.2420
 2629SOL    HW119523   3.694   2.885   9.231  1.7437 -2.8344 -1.0426
 2629SOL    HW219524   3.698   2.890   9.378  0.3773 -0.7598  0.3795
 2630SOL     OW19525   1.225   1.109  16.482  0.1645 -0.0145 -0.1949
 2630SOL    HW119526   1.138   1.069  16.471  1.1481 -2.2083 -0.0940
 2630SOL    HW219527   1.291   1.039  16.480  0.6543  0.4626 -0.6374
 2631SOL     OW19528   3.049   0.684   8.214  0.4858  0.2937  0.1086
 2631SOL    HW119529   3.032   0.608   8.271 -0.8232  1.7074  1.6007
 2631SOL    HW219530   3.093   0.744   8.273 -0.6491 -0.5382  1.8169
 2632SOL     OW19531   4.289   2.596   4.921  0.1447 -0.1753 -0.1980
 2632SOL    HW119532   4.207   2.551   4.939 -1.8455  3.5023  0.0316
 2632SOL    HW219533   4.355   2.548   4.971  1.6553  1.4718 -0.5961
 2633SOL     OW19534   3.311   1.592   5.927  0.2444  0.7507  0.4487
 2633SOL    HW119535   3.358   1.676   5.935 -0.1438  1.3400 -3.3785
 2633SOL    HW219536   3.243   1.621   5.867  0.8433 -1.1018 -1.1279
 2634SOL     OW19537   2.947   1.944   6.297 -0.4535  0.1924 -0.3468
 2634SOL    HW119538   3.015   1.884   6.266 -1.1031  0.9345 -3.2122
 2634SOL    HW219539   2.944   1.933   6.392  1.4308 -1.6253 -0.4995
 2635SOL     OW19540   1.643   1.357   5.269 -0.4621  0.1672 -0.6095
 2635SOL    HW119541   1.658   1.286   5.206 -0.5499 -0.1844 -0.2343
 2635SOL    HW219542   1.666   1.434   5.217  0.7837  0.7789  0.8103
 2636SOL     OW19543   0.269   3.613   3.853 -0.3612 -0.1239 -0.4220
 2636SOL    HW119544   0.186   3.568   3.840 -2.6979  4.0209  0.3393
 2636SOL    HW219545   0.255   3.700   3.816  3.1854  0.2046 -1.0647
 2637SOL     OW19546   0.190   2.374  14.338  0.3394 -0.2983 -0.1627
 2637SOL    HW119547   0.162   2.355  14.249  1.0099 -0.8736 -0.2505
 2637SOL    HW219548   0.154   2.458  14.366  1.1837 -0.2872  0.9167
 2638SOL     OW19549   0.365   3.349   1.525 -0.2443 -0.4206  0.0873
 2638SOL    HW119550   0.354   3.388   1.611 -0.5200  0.3931 -0.3170
 2638SOL    HW219551   0.460   3.343   1.522 -0.2416 -1.1631  1.8024
 2639SOL     OW19552   3.103   4.205   2.640 -0.0386  0.0109  0.4191
 2639SOL    HW119553   3.193   4.204   2.606  0.4441 -1.3851  1.7619
 2639SOL    HW219554   3.112   4.201   2.735  1.3846 -2.7898  0.1653
 2640SOL     OW19555   3.875   2.312   6.295 -0.9007  0.6343 -0.2490
 2640SOL    HW119556   3.907   2.336   6.208 -0.5542  1.6239  0.1516
 2640SOL    HW219557   3.786   2.348   6.302 -0.0280  2.8003 -0.3826
 2641SOL     OW19558   0.211   1.187   2.686  0.2067  0.1038 -0.1838
 2641SOL    HW119559   0.151   1.115   2.665  1.0100 -0.2448 -1.3104
 2641SOL    HW219560   0.218   1.244   2.610 -0.6550 -0.9832 -1.0749
 2642SOL     OW19561   2.213   0.833   2.666 -0.4289 -0.4546 -0.0412
 2642SOL    HW119562   2.148   0.904   2.661  0.9027  0.8167  0.6264
 2642SOL    HW219563   2.165   0.778   2.728  0.2240 -0.0382  0.8276
 2643SOL     OW19564   0.829   0.837   3.947 -0.5572  0.2275  0.5346
 2643SOL    HW119565   0.789   0.782   3.880 -1.3057  0.7973  0.5238
 2643SOL    HW219566   0.789   0.920   3.922  1.5948  0.5560 -1.8333
 2644SOL     OW19567   3.240   1.285   4.560  0.2623 -0.5403  0.2953
 2644SOL    HW119568   3.160   1.305   4.608 -0.3365 -0.9773 -0.5159
 2644SOL    HW219569   3.303   1.353   4.583 -0.1098 -0.3418  0.7174
 2645SOL     OW19570   1.421   2.291   4.095 -0.0596 -0.3327  0.2430
 2645SOL    HW119571   1.460   2.264   4.178  1.5060 -0.4321 -0.5185
 2645SOL    HW219572   1.496   2.311   4.040 -2.9498  0.8261 -3.3006
 2646SOL     OW19573   1.093   2.624   1.415 -0.0159 -0.3362 -0.3484
 2646SOL    HW119574   1.128   2.704   1.453 -1.9058  0.1837  0.2848
 2646SOL    HW219575   1.004   2.660   1.415  0.8671  1.8300 -0.4778
 2647SOL     OW19576   2.479   1.611   9.776 -0.0120 -0.1221 -0.8302
 2647SOL    HW119577   2.431   1.556   9.837 -0.1118 -0.4054 -1.1628
 2647SOL    HW219578   2.428   1.692   9.777 -0.1999 -0.2639  1.3018
 2648SOL     OW19579   1.203   4.419  17.104 -0.6937  0.5053  0.0475
 2648SOL    HW119580   1.146   4.450  17.174 -1.0045 -0.4496  0.2209
 2648SOL    HW219581   1.160   4.335  17.088  0.5507 -0.1275 -0.0211
 2649SOL     OW19582   1.394   3.562  15.377 -0.3142  0.4292  0.1376
 2649SOL    HW119583   1.419   3.646  15.338  1.5074 -0.1145  0.1367
 2649SOL    HW219584   1.327   3.533  15.315  0.0267  1.9951 -0.9618
 2650SOL     OW19585   1.101   3.924   8.556 -0.3427 -0.3836 -0.0414
 2650SOL    HW119586   1.010   3.937   8.584 -0.6415 -0.5160 -0.9542
 2650SOL    HW219587   1.107   3.829   8.548 -2.8969 -0.5497 -0.0345
 2651SOL     OW19588   0.619   1.332   5.003  0.1201  0.0052 -0.5649
 2651SOL    HW119589   0.710   1.360   5.016 -0.1314  0.9672 -0.8620
 2651SOL    HW219590   0.624   1.250   4.954  0.7729 -0.2561 -0.0684
 2652SOL     OW19591   1.300   1.106  17.439 -0.2156  0.3903  0.3324
 2652SOL    HW119592   1.313   1.054  17.359 -3.0554 -1.3570  0.9952
 2652SOL    HW219593   1.273   1.193  17.410  0.6206  0.5355 -0.0380
 2653SOL     OW19594   1.555   2.345   2.021 -0.3652  0.6171 -0.3072
 2653SOL    HW119595   1.576   2.257   2.053  0.9894  0.4220 -1.7423
 2653SOL    HW219596   1.615   2.400   2.070  2.1114 -1.0564 -1.4320
 2654SOL     OW19597   4.140   2.390   2.378 -0.0042  0.5487 -0.3492
 2654SOL    HW119598   4.201   2.332   2.424  1.8197  1.4616 -1.6304
 2654SOL    HW219599   4.113   2.450   2.448 -0.6796 -0.0638 -0.0899
 2655SOL     OW19600   2.541   3.114  12.170  0.5237 -0.2281  0.4226
 2655SOL    HW119601   2.525   3.119  12.075  1.5082 -1.2728  0.1952
 2655SOL    HW219602   2.528   3.021  12.188 -0.0068 -0.3981 -0.7861
 2656SOL     OW19603   1.390   2.706   6.200  0.0657 -0.9196  0.5824
 2656SOL    HW119604   1.414   2.733   6.112  0.5341 -1.1193  0.6524
 2656SOL    HW219605   1.296   2.685   6.192 -0.0372 -0.1597 -0.2296
 2657SOL     OW19606   1.208   3.853   8.195  0.0747  0.6627  0.1246
 2657SOL    HW119607   1.169   3.817   8.274 -0.6974  1.0373 -0.0811
 2657SOL    HW219608   1.303   3.849   8.204 -0.2420 -1.0635  2.6054
 2658SOL     OW19609   3.006   2.586   9.131  0.0421  0.0555 -0.1496
 2658SOL    HW119610   3.044   2.667   9.097  1.0080 -0.6945 -0.8750
 2658SOL    HW219611   3.055   2.569   9.211 -0.9464 -1.1240  0.2035
 2659SOL     OW19612   0.973   3.323   3.385 -0.1343  0.3191  0.2284
 2659SOL    HW119613   0.965   3.299   3.478  2.5012 -1.0215  0.0942
 2659SOL    HW219614   0.960   3.417   3.379  1.4126  0.4644 -0.7831
 2660SOL     OW19615   2.463   1.230   6.858 -0.0282 -0.1513 -0.0169
 2660SOL    HW119616   2.457   1.156   6.797  0.4068  1.9392 -2.6333
 2660SOL    HW219617   2.441   1.183   6.937 -1.3949 -0.9290 -0.8677
 2661SOL     OW19618   0.005   3.915  15.069 -0.0031 -0.9137  0.0354
 2661SOL    HW119619   0.001   3.891  14.976 -0.6180 -0.4414 -0.0571
 2661SOL    HW219620   4.651   3.911  15.089 -0.1812 -1.6411 -0.9506
 2662SOL     OW19621   1.122   2.771   6.173  0.0135 -0.0947 -0.0498
 2662SOL    HW119622   1.120   2.729   6.087  0.4293 -0.9120  0.3398
 2662SOL    HW219623   1.028   2.784   6.183  0.2843  0.3384  2.0362
 2663SOL     OW19624   0.984   1.060   4.974 -0.4707  0.0925  0.3003
 2663SOL    HW119625   1.063   1.006   4.984 -2.1005 -1.9596  2.1689
 2663SOL    HW219626   0.915   0.996   4.955  0.5332 -0.6003 -0.9859
 2664SOL     OW19627   2.389   1.378   5.673  0.4241 -0.2028 -0.1164
 2664SOL    HW119628   2.399   1.306   5.611  0.4844  1.7593 -2.3903
 2664SOL    HW219629   2.380   1.457   5.620 -0.9362  0.1075  0.5801
 2665SOL     OW19630   3.519   4.245   3.744  0.4360  0.0694 -0.0909
 2665SOL    HW119631   3.507   4.265   3.837  0.7807  0.7204 -0.1887
 2665SOL    HW219632   3.432   4.210   3.726  0.7928 -1.8917  1.9964
 2666SOL     OW19633   1.035   3.116   4.811  0.7167 -0.2167 -0.3670
 2666SOL    HW119634   1.041   3.030   4.853 -1.1034 -0.1154  0.1013
 2666SOL    HW219635   1.065   3.175   4.881  2.6734 -0.6277 -0.8502
 2667SOL     OW19636   2.726   0.957   1.788 -0.9988  0.6545 -0.2190
 2667SOL    HW119637   2.784   0.888   1.820 -1.9498 -0.7951 -1.6469
 2667SOL    HW219638   2.644   0.908   1.791 -1.5692  1.7404  1.6773
 2668SOL     OW19639   1.704   0.357   7.288  0.0296 -0.0142  0.2802
 2668SOL    HW119640   1.771   0.312   7.237 -0.8319  0.5432 -1.3697
 2668SOL    HW219641   1.754   0.377   7.366 -0.5940 -2.0802  1.2228
 2669SOL     OW19642   1.928   1.440   2.301  0.2006 -0.0719 -0.3100
 2669SOL    HW119643   2.013   1.423   2.261  0.5512  1.9860 -0.4451
 2669SOL    HW219644   1.927   1.535   2.306  0.6690 -0.0472 -0.7004
 2670SOL     OW19645   4.282   2.846   0.549  0.6625  0.2287  0.1350
 2670SOL    HW119646   4.368   2.875   0.520 -0.2837  0.4599 -2.4188
 2670SOL    HW219647   4.236   2.927   0.571  0.8824  0.3036  0.3297
 2671SOL     OW19648   3.003   0.965  11.155 -0.5169 -0.2653  0.1548
 2671SOL    HW119649   3.001   1.008  11.240 -1.7782  0.7753 -0.4136
 2671SOL    HW219650   3.092   0.941  11.127 -1.3204 -0.8818 -1.8945
 2672SOL     OW19651   3.548   3.280   9.579 -0.3882  0.2369 -0.5035
 2672SOL    HW119652   3.522   3.358   9.628  0.2299  0.3929 -0.4241
 2672SOL    HW219653   3.508   3.298   9.494 -1.0189  3.1120  0.3989
 2673SOL     OW19654   1.437   3.585  13.710  0.1324  0.5084 -0.1665
 2673SOL    HW119655   1.442   3.666  13.761  1.2573  0.7285 -0.6376
 2673SOL    HW219656   1.379   3.525  13.757 -1.0545  1.3030 -0.6252
 2674SOL     OW19657   2.402   4.732   6.692  0.0571 -0.3391  0.1419
 2674SOL    HW119658   2.388   4.650   6.644  0.9811 -1.3615  1.6179
 2674SOL    HW219659   2.328   4.735   6.753 -1.7124 -1.5674 -1.9023
 2675SOL     OW19660   3.069   0.007   9.668 -0.5550 -0.5295  0.0635
 2675SOL    HW119661   3.123   0.073   9.624  1.5233 -1.1496  1.6800
 2675SOL    HW219662   3.129   4.672   9.660 -0.0774 -0.4458  2.8123
 2676SOL     OW19663   2.984   4.655  13.150  0.1056  0.1927  0.4382
 2676SOL    HW119664   3.036   4.725  13.110 -0.7520  0.7809  0.3459
 2676SOL    HW219665   2.916   4.643  13.083  0.4712 -1.3507  0.3400
 2677SOL     OW19666   4.345   0.954  10.129 -0.5664  0.1084  0.3307
 2677SOL    HW119667   4.394   0.956  10.212 -1.3879 -0.5339  0.8408
 2677SOL    HW219668   4.309   0.865  10.133 -1.5048  0.5038  0.6040
 2678SOL     OW19669   2.127   3.431   3.818 -0.2860  0.5201 -0.3133
 2678SOL    HW119670   2.130   3.449   3.912 -0.2880 -0.1471 -0.1842
 2678SOL    HW219671   2.040   3.460   3.790 -0.6573 -0.5352 -0.2275
 2679SOL     OW19672   0.547   0.055   4.189  0.6700  0.4394  0.0497
 2679SOL    HW119673   0.454   0.077   4.193  0.0498 -2.2332 -0.3737
 2679SOL    HW219674   0.576   0.047   4.280 -0.0561 -0.4199  0.1972
 2680SOL     OW19675   3.596   4.323   0.587  0.0169 -0.4482 -0.2780
 2680SOL    HW119676   3.651   4.290   0.516 -0.1628  1.2818 -1.2136
 2680SOL    HW219677   3.647   4.295   0.663 -0.8286  1.9136  1.1569
 2681SOL     OW19678   2.259   0.639   9.164 -0.0148  0.4386  0.4574
 2681SOL    HW119679   2.235   0.663   9.075  1.0922 -0.1675 -0.0104
 2681SOL    HW219680   2.351   0.666   9.166  0.2301 -0.4522  1.5730
 2682SOL     OW19681   0.433   4.436   4.707 -0.5666  0.5881 -0.4492
 2682SOL    HW119682   0.508   4.444   4.648 -0.0073 -2.6030 -0.2017
 2682SOL    HW219683   0.401   4.526   4.700 -1.9529 -0.0167 -1.9510
 2683SOL     OW19684   2.695   3.347   3.106 -0.3940 -0.0431 -0.2798
 2683SOL    HW119685   2.701   3.438   3.136  2.4747 -0.5562  0.7116
 2683SOL    HW219686   2.758   3.311   3.168 -3.3625 -3.0188  1.0514
 2684SOL     OW19687   2.809   3.545  14.052  0.7209  0.5061 -0.0149
 2684SOL    HW119688   2.814   3.622  14.109 -0.4881  0.8462 -0.3669
 2684SOL    HW219689   2.747   3.485  14.093  0.5133  1.1705  0.6562
 2685SOL     OW19690   1.365   1.441   6.767  0.0657  0.0574 -0.0957
 2685SOL    HW119691   1.315   1.517   6.737 -0.3954 -0.4537 -0.6001
 2685SOL    HW219692   1.299   1.381   6.802 -0.1685  1.3052  1.6480
 2686SOL     OW19693   1.387   4.378   4.723  0.1744  0.1054  0.0827
 2686SOL    HW119694   1.454   4.375   4.792  1.4494 -0.4364 -1.1780
 2686SOL    HW219695   1.326   4.441   4.763 -2.2499 -0.8905 -2.0735
 2687SOL     OW19696   0.861   0.296   6.826 -0.8276 -0.0214 -0.1700
 2687SOL    HW119697   0.875   0.378   6.778  0.3863  0.4448  0.9564
 2687SOL    HW219698   0.766   0.291   6.835 -0.7221  1.1922  1.7265
 2688SOL     OW19699   3.641   2.656   6.740 -0.4753 -0.0550  0.0266
 2688SOL    HW119700   3.644   2.561   6.755 -1.3098  0.0424  0.8725
 2688SOL    HW219701   3.733   2.680   6.748 -0.6288  0.6907 -0.4774
 2689SOL     OW19702   1.191   2.426   2.181 -0.1555  0.1999 -0.0740
 2689SOL    HW119703   1.255   2.394   2.244  1.6233 -1.0329 -2.4861
 2689SOL    HW219704   1.215   2.369   2.107 -1.7358 -1.1201  0.4196
 2690SOL     OW19705   3.022   0.854   7.393  0.1979 -0.4534  0.4015
 2690SOL    HW119706   3.030   0.925   7.329  0.7943 -1.2501 -0.4144
 2690SOL    HW219707   3.113   0.828   7.406  0.2854  0.2074  1.0840
 2691SOL     OW19708   2.779   2.338   5.463  0.3162 -0.5967 -0.2162
 2691SOL    HW119709   2.833   2.311   5.537  0.6819  0.5721 -0.0666
 2691SOL    HW219710   2.719   2.263   5.460 -1.1365  0.5812 -0.3291
 2692SOL     OW19711   3.670   3.774   3.914 -0.3730 -0.4118  0.2795
 2692SOL    HW119712   3.763   3.796   3.907  0.0787 -1.5133  2.4236
 2692SOL    HW219713   3.661   3.691   3.866 -0.8411 -0.6762  0.8241
 2693SOL     OW19714   4.684   2.517  12.985 -0.0752 -0.0261 -0.2001
 2693SOL    HW119715   4.673   2.550  12.895  2.6603  0.6692 -0.2870
 2693SOL    HW219716   0.040   2.515  12.992 -0.1574 -1.7232  0.3686
 2694SOL     OW19717   1.933   1.412   7.597  0.1495 -0.6853 -0.1928
 2694SOL    HW119718   1.903   1.428   7.508 -1.1057 -0.8408  0.1948
 2694SOL    HW219719   2.009   1.470   7.602 -1.1533  1.0625 -0.8105
 2695SOL     OW19720   0.502   2.594   5.743  0.2262  0.0293 -0.1618
 2695SOL    HW119721   0.450   2.536   5.799 -3.1614  2.2766 -0.9712
 2695SOL    HW219722   0.479   2.680   5.780  0.6950 -0.3520  1.0260
 2696SOL     OW19723   2.016   2.706  16.735  0.0474  0.3825 -0.0931
 2696SOL    HW119724   2.098   2.753  16.752 -0.1514 -0.1098  2.2144
 2696SOL    HW219725   2.018   2.621  16.778  1.5397  0.6481  0.3725
 2697SOL     OW19726   2.436   3.825   1.642 -0.2100  0.1848  0.5651
 2697SOL    HW119727   2.514   3.880   1.650 -1.0525  1.3534  0.7312
 2697SOL    HW219728   2.387   3.865   1.714 -1.0057  1.0206 -0.4455
 2698SOL     OW19729   4.645   2.539   3.958  0.2371  1.2075  0.2412
 2698SOL    HW119730   4.726   2.499   3.926 -0.5890  0.2726 -0.6480
 2698SOL    HW219731   4.658   2.544   4.053  0.1233  2.6525  0.1801
 2699SOL     OW19732   3.187   1.170   2.603  0.3053  0.2223 -0.5786
 2699SOL    HW119733   3.278   1.192   2.585  0.6438  1.0876  2.1835
 2699SOL    HW219734   3.136   1.237   2.557 -1.4492  0.0150  1.0837
 2700SOL     OW19735   0.299   0.363   7.536  0.5722 -0.1405 -0.2298
 2700SOL    HW119736   0.227   0.352   7.598  1.7617 -2.5691  0.7241
 2700SOL    HW219737   0.247   0.374   7.456  0.0012  0.2292  0.1938
 2701SOL     OW19738   2.108   1.352   5.273  0.2767  0.4430  0.0665
 2701SOL    HW119739   2.151   1.272   5.242  2.8104  1.8576 -0.0855
 2701SOL    HW219740   2.061   1.364   5.191  0.9121 -0.0470 -0.3709
 2702SOL     OW19741   4.265   3.830   4.163 -0.0933 -0.2531 -0.6125
 2702SOL    HW119742   4.315   3.761   4.206 -2.2131 -3.0446 -2.6598
 2702SOL    HW219743   4.322   3.907   4.157  0.6230 -0.7172  0.3885
 2703SOL     OW19744   3.992   1.120   9.255 -0.0724  0.0311 -0.4605
 2703SOL    HW119745   3.964   1.108   9.164 -0.9242  0.2911 -0.2371
 2703SOL    HW219746   4.037   1.038   9.275 -1.6876 -1.1548 -1.7286
 2704SOL     OW19747   2.793   2.181   0.950  0.0820  0.2377 -0.2995
 2704SOL    HW119748   2.706   2.219   0.939  0.0091 -0.0905 -0.8385
 2704SOL    HW219749   2.780   2.092   0.982  0.1275  0.7679  1.1888
 2705SOL     OW19750   4.645   0.534   2.929  0.0938 -0.2547  0.9121
 2705SOL    HW119751   4.649   0.440   2.950 -0.4642 -0.2353  1.0780
 2705SOL    HW219752   4.716   0.531   2.865 -1.7531  1.0164 -1.1843
 2706SOL     OW19753   4.725   3.269   9.243  0.4958  0.2754  0.4744
 2706SOL    HW119754   0.040   3.269   9.322 -0.0325 -2.0591  0.8404
 2706SOL    HW219755   0.024   3.351   9.211  1.7769  0.4775  2.5036
 2707SOL     OW19756   1.426   2.975  15.838  0.2064 -0.1878  0.2130
 2707SOL    HW119757   1.404   3.068  15.846 -2.2214 -0.7182 -0.3031
 2707SOL    HW219758   1.461   2.962  15.926 -1.2096 -1.5302  0.5850
 2708SOL     OW19759   0.012   2.446   6.065 -0.5783  0.2812  0.2942
 2708SOL    HW119760   4.655   2.444   6.067 -0.5115 -1.6715  2.1816
 2708SOL    HW219761   0.033   2.538   6.078 -0.3078  0.1146  1.0728
 2709SOL     OW19762   0.683   3.467   5.762  0.5590  0.2198 -0.4997
 2709SOL    HW119763   0.732   3.530   5.815 -1.2178  1.0266  0.1574
 2709SOL    HW219764   0.623   3.531   5.724 -0.1211 -0.1275 -0.0070
 2710SOL     OW19765   3.359   0.599  11.152  0.9035 -0.4208  0.0194
 2710SOL    HW119766   3.366   0.506  11.171 -2.7548 -0.9370 -1.2207
 2710SOL    HW219767   3.270   0.606  11.119  0.8325  0.7935  0.4350
 2711SOL     OW19768   3.722   2.768   2.208 -0.6976 -0.3323  0.1811
 2711SOL    HW119769   3.796   2.820   2.176 -0.6481  0.3528  1.4179
 2711SOL    HW219770   3.747   2.748   2.299  1.5848  1.3509 -0.0846
 2712SOL     OW19771   3.591   3.614   7.801 -0.3278 -0.2969  0.6707
 2712SOL    HW119772   3.617   3.547   7.864  1.5461 -0.7624 -0.5827
 2712SOL    HW219773   3.645   3.689   7.826 -1.0115 -0.3506  2.2662
 2713SOL     OW19774   3.108   2.134  14.173 -0.8333 -0.1793  0.0603
 2713SOL    HW119775   3.031   2.090  14.137  0.1864 -0.1895 -2.0680
 2713SOL    HW219776   3.070   2.172  14.252 -0.7521 -1.9740  0.9614
 2714SOL     OW19777   2.710   0.182   6.516  0.1690 -0.9939 -0.3112
 2714SOL    HW119778   2.797   0.210   6.543  0.5039 -0.6356 -1.7608
 2714SOL    HW219779   2.723   0.088   6.505  1.6086 -0.4417 -3.2528
 2715SOL     OW19780   1.232   3.022   6.260 -0.2445 -0.3409 -0.4390
 2715SOL    HW119781   1.193   2.942   6.225 -3.0239  1.0097 -0.3851
 2715SOL    HW219782   1.154   3.072   6.281  0.0746  0.5046 -1.2709
 2716SOL     OW19783   4.694   4.705  13.438 -0.2562 -0.1555 -0.0827
 2716SOL    HW119784   0.019   4.663  13.496 -1.5128  0.8239  2.0307
 2716SOL    HW219785   4.638   0.017  13.497  2.0996  1.9497  0.2898
 2717SOL     OW19786   0.685   4.257   9.005  0.1708 -0.3654 -0.2492
 2717SOL    HW119787   0.745   4.285   8.935  0.1983  0.1298 -0.0276
 2717SOL    HW219788   0.661   4.173   8.966  1.7836 -1.1778  0.5398
 2718SOL     OW19789   0.075   0.075   6.707 -0.2975  0.5284 -0.2168
 2718SOL    HW119790   0.164   0.103   6.730  0.1117 -0.6544 -0.3188
 2718SOL    HW219791   0.025   0.147   6.746  0.2993  0.2943  0.9889
 2719SOL     OW19792   4.370   4.326  16.089 -0.4532 -0.0413 -0.0413
 2719SOL    HW119793   4.385   4.420  16.098  0.4707 -0.0295 -1.8234
 2719SOL    HW219794   4.461   4.299  16.081 -0.3550  0.2394  0.1468
 2720SOL     OW19795   2.623   3.357  16.930 -0.3121 -0.2888  0.4702
 2720SOL    HW119796   2.606   3.353  17.024 -1.3915 -0.9398  0.2532
 2720SOL    HW219797   2.535   3.325  16.909 -0.3904 -0.8673  1.6421
 2721SOL     OW19798   2.980   2.480   0.997  0.0775  0.3826 -0.1441
 2721SOL    HW119799   3.037   2.471   1.073 -3.0700 -0.8875  2.0629
 2721SOL    HW219800   3.023   2.413   0.944  0.2712  0.4716 -0.1003
 2722SOL     OW19801   1.180   4.070   6.282  0.8624  0.5440 -0.0414
 2722SOL    HW119802   1.189   4.086   6.376  0.0711  2.7010 -0.3213
 2722SOL    HW219803   1.090   4.095   6.260  0.2506  1.0954  3.1807
 2723SOL     OW19804   0.474   4.044   4.493 -0.0020  0.5618  0.1427
 2723SOL    HW119805   0.423   3.999   4.561 -0.2750  0.8736  0.1461
 2723SOL    HW219806   0.411   4.111   4.466  0.8755  1.0939 -0.5658
 2724SOL     OW19807   4.712   2.107  13.543 -0.0621 -0.3556 -0.2146
 2724SOL    HW119808   4.619   2.088  13.532 -0.2917  0.4304  0.3169
 2724SOL    HW219809   0.001   2.027  13.499 -0.8763  0.0605 -1.4751
 2725SOL     OW19810   1.744   1.644   8.535 -0.2386  0.2258 -0.2544
 2725SOL    HW119811   1.784   1.720   8.577  1.8354 -0.4580 -0.9796
 2725SOL    HW219812   1.713   1.588   8.606  0.5615  1.8984  1.3907
 2726SOL     OW19813   0.825   0.202   7.861 -0.1127 -0.2282  0.0969
 2726SOL    HW119814   0.793   0.259   7.791 -0.3576 -1.6736 -0.9950
 2726SOL    HW219815   0.919   0.198   7.847 -0.0689  1.3402 -0.0603
 2727SOL     OW19816   2.190   2.421  10.584  0.1412  0.2310 -0.0348
 2727SOL    HW119817   2.159   2.366  10.656  2.7893 -0.6914  0.3764
 2727SOL    HW219818   2.265   2.367  10.559 -0.8257 -0.7224 -0.8393
 2728SOL     OW19819   2.999   0.338   6.347 -0.2390  0.4773 -0.2195
 2728SOL    HW119820   3.083   0.380   6.331 -0.1986  0.2284 -0.6474
 2728SOL    HW219821   2.991   0.291   6.264 -0.0962  0.3218 -0.1452
 2729SOL     OW19822   1.603   3.871   3.338  0.4463  0.0222 -0.2336
 2729SOL    HW119823   1.600   3.938   3.406 -0.9171  0.4225 -0.6829
 2729SOL    HW219824   1.528   3.897   3.285  1.3831  1.6141 -0.7817
 2730SOL     OW19825   1.077   3.775   7.914 -0.0149  0.2015 -0.2127
 2730SOL    HW119826   1.093   3.769   8.008  1.1050 -3.7795 -0.6645
 2730SOL    HW219827   1.161   3.775   7.868  0.5513 -0.8644  0.8270
 2731SOL     OW19828   4.647   3.807   8.136 -0.1052 -0.1219  0.0384
 2731SOL    HW119829   4.650   3.759   8.053  1.0017  1.6040 -0.9029
 2731SOL    HW219830   4.600   3.880   8.097  0.2648 -1.3695 -2.7476
 2732SOL     OW19831   1.152   1.431  13.435 -0.7456  0.3150 -0.1155
 2732SOL    HW119832   1.157   1.365  13.504 -0.5282  0.1830 -0.2580
 2732SOL    HW219833   1.230   1.410  13.384 -0.8966 -0.8881  0.1483
 2733SOL     OW19834   4.245   4.495   5.321 -0.5401 -0.1943  0.3001
 2733SOL    HW119835   4.245   4.400   5.327 -0.7395 -0.1394  1.1666
 2733SOL    HW219836   4.279   4.499   5.232 -0.1275  0.3008  0.4780
 2734SOL     OW19837   1.078   4.498   1.725  0.0059  0.4597  0.4351
 2734SOL    HW119838   1.099   4.503   1.631  1.0656  0.3241  0.6650
 2734SOL    HW219839   1.029   4.580   1.729  2.5777  2.0473 -0.7114
 2735SOL     OW19840   0.056   1.308   8.479 -0.2172  0.1752  0.1085
 2735SOL    HW119841   4.720   1.348   8.523  0.3385  1.1732  0.1396
 2735SOL    HW219842   0.124   1.332   8.542  1.0078 -1.1255 -0.7333
 2736SOL     OW19843   4.428   1.295   5.379  0.5822  0.6161 -0.4142
 2736SOL    HW119844   4.369   1.227   5.344  1.8318 -1.0510  0.7210
 2736SOL    HW219845   4.514   1.259   5.356 -0.2180 -0.4597 -1.7533
 2737SOL     OW19846   3.917   1.334   3.610 -0.1449  0.0592  0.3742
 2737SOL    HW119847   3.998   1.384   3.613 -0.2552  0.2611 -0.0842
 2737SOL    HW219848   3.889   1.341   3.519 -0.4719 -2.1361  0.2949
 2738SOL     OW19849   3.433   2.489   6.870  0.4164  0.3279  0.0242
 2738SOL    HW119850   3.456   2.534   6.951  1.4595 -1.6553  0.8285
 2738SOL    HW219851   3.431   2.399   6.902 -0.1042  0.2573 -0.2218
 2739SOL     OW19852   0.166   4.517   3.237 -0.0226 -0.4305  0.1632
 2739SOL    HW119853   0.115   4.447   3.276  0.2372 -0.2857  0.7730
 2739SOL    HW219854   0.113   4.534   3.159  0.0516  0.8389  0.3856
 2740SOL     OW19855   0.052   0.836   5.361  0.0855  0.2569  0.2311
 2740SOL    HW119856   0.008   0.881   5.432  0.8914 -1.2532  1.6768
 2740SOL    HW219857   0.116   0.776   5.400  0.6078  2.1910  2.3132
 2741SOL     OW19858   2.102   1.687  16.303  0.1704  0.1921  0.4381
 2741SOL    HW119859   2.094   1.778  16.333 -1.3872  0.0606  0.4058
 2741SOL    HW219860   2.036   1.642  16.355  1.4553 -0.1591  1.7821
 2742SOL     OW19861   2.360   1.921  10.278  0.3773  0.7533  0.4776
 2742SOL    HW119862   2.350   1.843  10.224  0.9666  1.7282 -1.0221
 2742SOL    HW219863   2.301   1.981  10.232 -0.2013 -0.4425 -0.3065
 2743SOL     OW19864   2.176   1.562   4.937  0.8067  0.1221 -0.2211
 2743SOL    HW119865   2.130   1.503   4.996 -2.0756  2.3237 -0.2093
 2743SOL    HW219866   2.127   1.540   4.857  1.8659 -0.8056 -0.6201
 2744SOL     OW19867   0.228   3.970   9.579  0.0504  0.1923  0.1035
 2744SOL    HW119868   0.179   3.950   9.659 -0.4672 -0.1513 -0.2982
 2744SOL    HW219869   0.192   4.053   9.547 -1.4807 -1.0155 -1.3430
 2745SOL     OW19870   2.716   3.895   0.903  0.1483 -0.5558 -0.0071
 2745SOL    HW119871   2.696   3.839   0.827 -1.2730 -1.3789  0.9765
 2745SOL    HW219872   2.688   3.985   0.884  0.2261 -0.4736  0.2715
 2746SOL     OW19873   0.754   0.060   1.875  0.2932  0.1586 -0.3394
 2746SOL    HW119874   0.670   0.033   1.837 -0.7066 -0.1074  2.0453
 2746SOL    HW219875   0.714   0.094   1.956  1.1469  0.7318 -0.1655
 2747SOL     OW19876   1.189   2.610   5.431 -0.1311  0.3365 -0.5744
 2747SOL    HW119877   1.186   2.702   5.456 -2.2667  0.0206  0.3322
 2747SOL    HW219878   1.102   2.601   5.392  0.5540 -2.2472 -1.5196
 2748SOL     OW19879   3.327   1.920   1.427 -0.2757 -0.1689 -0.5099
 2748SOL    HW119880   3.350   1.842   1.477  3.1969  0.8964 -0.4011
 2748SOL    HW219881   3.327   1.889   1.336  0.1512  1.3158 -1.0251
 2749SOL     OW19882   3.912   1.156   7.815 -0.0518  0.1441  0.0275
 2749SOL    HW119883   3.983   1.110   7.770 -0.7565 -0.0426 -0.8790
 2749SOL    HW219884   3.838   1.148   7.756 -0.1599 -0.9455  0.3063
 2750SOL     OW19885   1.372   2.529   3.843  0.8324  0.4104 -0.2068
 2750SOL    HW119886   1.305   2.525   3.912  0.1264 -0.5496 -0.9453
 2750SOL    HW219887   1.455   2.500   3.879  0.4577  0.9966  1.1266
 2751SOL     OW19888   0.483   0.260   3.085  0.1573  0.4239 -0.6391
 2751SOL    HW119889   0.544   0.333   3.094  1.4905 -1.1376  3.2520
 2751SOL    HW219890   0.480   0.233   3.177  0.8962  0.8536 -0.4840
 2752SOL     OW19891   2.616   3.633  16.963 -0.0519  0.2490 -0.2422
 2752SOL    HW119892   2.521   3.645  16.959  0.1734  2.2353  0.4061
 2752SOL    HW219893   2.625   3.540  16.939 -1.7409 -0.0820  0.4475
 2753SOL     OW19894   1.239   4.450  16.530 -0.0782  0.1914  0.1291
 2753SOL    HW119895   1.249   4.383  16.462 -0.9950  2.0589 -1.8680
 2753SOL    HW219896   1.147   4.426  16.542  0.5389 -1.6261  1.1019
 2754SOL     OW19897   3.788   3.582   6.772 -0.6427 -0.3682 -0.2303
 2754SOL    HW119898   3.720   3.531   6.816  0.7827 -0.6058  1.6901
 2754SOL    HW219899   3.734   3.627   6.707  0.1234  0.0164 -0.6027
 2755SOL     OW19900   2.574   0.943   6.422 -0.1941 -0.1721 -0.1200
 2755SOL    HW119901   2.515   1.017   6.409 -0.2011  0.1145  1.5102
 2755SOL    HW219902   2.604   0.935   6.331  0.1532  2.6331 -0.2600
 2756SOL     OW19903   4.563   0.807   5.724 -0.2673 -0.2947  0.3297
 2756SOL    HW119904   4.588   0.880   5.667  0.2861 -2.2207 -1.8874
 2756SOL    HW219905   4.657   0.792   5.736 -0.5151 -2.8179 -0.7599
 2757SOL     OW19906   0.323   2.887  10.811  0.7312  0.2028 -0.0411
 2757SOL    HW119907   0.412   2.881  10.846  0.8097 -0.3395 -0.3398
 2757SOL    HW219908   0.333   2.892  10.716  2.7794  3.3566  0.3569
 2758SOL     OW19909   4.522   1.216   7.712 -0.2803  0.8996  0.3452
 2758SOL    HW119910   4.536   1.299   7.666 -1.2332  1.4607  1.0710
 2758SOL    HW219911   4.504   1.265   7.792  2.1626  0.9716  0.8427
 2759SOL     OW19912   3.330   2.271   9.146 -0.0917 -0.2885  0.1235
 2759SOL    HW119913   3.275   2.222   9.085 -1.0644 -0.5173  1.1948
 2759SOL    HW219914   3.290   2.260   9.232  3.2510  1.5986  1.8842
 2760SOL     OW19915   0.913   2.544  11.166  0.1989  0.3748 -0.3116
 2760SOL    HW119916   0.894   2.595  11.088  0.6903  0.6910 -0.2241
 2760SOL    HW219917   1.004   2.516  11.151  0.4143  2.2413 -2.4576
 2761SOL     OW19918   3.931   1.254   4.606  0.1316 -0.0117  0.1771
 2761SOL    HW119919   3.981   1.220   4.680  2.1452  0.7936 -0.7871
 2761SOL    HW219920   3.912   1.171   4.562  0.4428  0.1765 -0.3155
 2762SOL     OW19921   2.248   1.700   6.189  0.9217  0.4724  0.3015
 2762SOL    HW119922   2.280   1.610   6.183 -2.0717 -0.4423 -1.9336
 2762SOL    HW219923   2.166   1.695   6.139  1.2886 -0.1023 -0.2452
 2763SOL     OW19924   2.909   4.220   9.726 -0.5856 -0.2110 -0.3495
 2763SOL    HW119925   2.950   4.197   9.642  0.5712  3.0344 -0.6702
 2763SOL    HW219926   2.975   4.280   9.760 -0.6073  0.4009 -1.4015
 2764SOL     OW19927   1.188   2.578   5.726  0.3299 -0.1565 -0.3351
 2764SOL    HW119928   1.187   2.559   5.632  0.5182  0.5069 -0.4710
 2764SOL    HW219929   1.250   2.651   5.723 -1.6633  1.5416 -0.3504
 2765SOL     OW19930   4.100   3.587   8.417  0.3495 -0.0236 -0.2393
 2765SOL    HW119931   4.118   3.675   8.384 -1.4934  0.5119  0.1967
 2765SOL    HW219932   4.181   3.540   8.396  0.6449  0.0057  0.8423
 2766SOL     OW19933   2.794   0.893   2.946 -0.6626  0.3397 -0.1760
 2766SOL    HW119934   2.775   0.931   2.861 -1.5280 -0.1958 -0.2184
 2766SOL    HW219935   2.886   0.866   2.945 -0.7340  0.0917  0.0811
 2767SOL     OW19936   1.113   3.086  15.772 -0.2309 -0.7069 -0.3941
 2767SOL    HW119937   1.164   3.094  15.692  0.8156  3.4646  0.6729
 2767SOL    HW219938   1.150   3.012  15.821 -0.5127 -0.5410  0.0729
 2768SOL     OW19939   1.597   3.049  17.518  0.0147  0.0402 -0.0014
 2768SOL    HW119940   1.636   3.065  17.432 -0.5601 -0.8865 -0.4247
 2768SOL    HW219941   1.646   3.113  17.571 -1.4808  0.8626  0.3765
 2769SOL     OW19942   0.902   3.768   6.034 -0.2909 -0.0039  0.2584
 2769SOL    HW119943   0.976   3.749   6.093  0.1143  2.7386  0.6539
 2769SOL    HW219944   0.878   3.850   6.078  0.3649 -0.0125  0.6411
 2770SOL     OW19945   4.677   3.109   1.495  0.1100 -0.2794  0.2259
 2770SOL    HW119946   0.008   3.138   1.552 -0.0207  0.3048  0.0894
 2770SOL    HW219947   4.705   3.026   1.457  0.3151  0.6062 -1.5281
 2771SOL     OW19948   3.697   0.164   5.953 -0.3485 -0.2249  0.4464
 2771SOL    HW119949   3.708   0.152   5.859 -2.1444 -2.1681  0.4754
 2771SOL    HW219950   3.750   0.092   5.988 -0.1696  0.0677  0.7827
 2772SOL     OW19951   0.067   3.974   9.795  0.1048 -0.0792  0.2262
 2772SOL    HW119952   4.714   3.964   9.772  0.5150 -0.9824 -1.0497
 2772SOL    HW219953   0.075   3.904   9.859 -2.7013  0.0582  0.7137
 2773SOL     OW19954   2.843   1.895   2.481 -0.0034 -0.5735 -0.2305
 2773SOL    HW119955   2.812   1.855   2.562  2.0575 -0.0958  0.7987
 2773SOL    HW219956   2.911   1.956   2.509  0.6000 -2.6485  2.7567
 2774SOL     OW19957   2.476   3.945   1.997 -0.2556  0.4272 -0.1605
 2774SOL    HW119958   2.556   3.897   1.975  0.1000  0.6615  0.6304
 2774SOL    HW219959   2.504   3.994   2.074 -0.0578 -0.2914  0.2342
 2775SOL     OW19960   1.880   4.349   3.832 -0.4045  1.1818  0.2529
 2775SOL    HW119961   1.928   4.406   3.891  0.7368  1.9183 -1.4041
 2775SOL    HW219962   1.848   4.291   3.901  1.5686  0.0428  0.2350
 2776SOL     OW19963   0.862   4.262   6.033 -0.2616  0.8243  0.0363
 2776SOL    HW119964   0.859   4.355   6.011 -1.1008  1.2060  1.7461
 2776SOL    HW219965   0.940   4.224   5.993  0.9370  0.4189  2.7426
 2777SOL     OW19966   2.304   2.345   6.424 -0.4520 -0.0459  0.0876
 2777SOL    HW119967   2.311   2.249   6.427 -1.8463 -0.2059 -1.6143
 2777SOL    HW219968   2.222   2.366   6.381  0.2528 -1.3076 -1.8843
 2778SOL     OW19969   4.608   0.056   5.041  0.0981  0.1613  0.7004
 2778SOL    HW119970   4.674   0.030   5.105 -1.0535  0.6578  2.0928
 2778SOL    HW219971   4.560   0.122   5.091  0.9135  0.7356  0.7279
 2779SOL     OW19972   2.443   4.468   4.456 -0.2262  0.4126 -0.1073
 2779SOL    HW119973   2.348   4.462   4.445 -0.5154  2.6205  1.0399
 2779SOL    HW219974   2.445   4.561   4.478 -0.3870  0.3324  0.2621
 2780SOL     OW19975   3.247   0.969  12.100 -0.1998 -0.0669  0.0941
 2780SOL    HW119976   3.217   1.052  12.062 -1.4795 -0.6000 -0.0388
 2780SOL    HW219977   3.165   0.920  12.107  0.5274 -1.1226  1.0666
 2781SOL     OW19978   1.076   3.742  16.051 -0.3913 -0.8608  0.5280
 2781SOL    HW119979   1.058   3.790  16.131 -1.2106 -1.9672  1.0048
 2781SOL    HW219980   1.005   3.766  15.992  2.1695  0.7282 -1.9463
 2782SOL     OW19981   3.845   2.437  17.024  0.6444  0.7308  0.6757
 2782SOL    HW119982   3.767   2.481  16.990 -0.6262 -1.3919  0.7948
 2782SOL    HW219983   3.823   2.348  16.996 -2.7794  1.1622  2.0162
 2783SOL     OW19984   0.311   4.086   9.929 -0.0883 -0.4808  0.2451
 2783SOL    HW119985   0.228   4.059   9.888 -0.2281  2.2452 -1.2250
 2783SOL    HW219986   0.311   4.026  10.004 -2.0915 -0.2713  0.4098
 2784SOL     OW19987   2.811   4.489   0.072 -0.0817 -0.1481  0.7486
 2784SOL    HW119988   2.902   4.479   0.042  0.1617 -0.0781  1.4670
 2784SOL    HW219989   2.769   4.406   0.047  0.9450  0.2385 -2.2794
 2785SOL     OW19990   2.764   2.943   8.214  0.1546 -0.0310 -0.0303
 2785SOL    HW119991   2.854   2.915   8.227  0.6814  1.1042 -1.2711
 2785SOL    HW219992   2.780   3.031   8.180  1.8802 -0.8663 -1.3837
 2786SOL     OW19993   3.433   3.872   7.953 -0.2741 -0.6362  0.0508
 2786SOL    HW119994   3.393   3.878   7.866  0.6289 -2.4294 -0.4820
 2786SOL    HW219995   3.524   3.876   7.922 -0.6239  1.1167 -0.7373
 2787SOL     OW19996   2.939   1.960   9.547 -0.3235 -0.2578  0.0640
 2787SOL    HW119997   2.899   2.045   9.526 -0.2083 -0.1416  0.3069
 2787SOL    HW219998   3.020   1.995   9.584 -0.4619  1.1231 -0.9284
 2788SOL     OW19999   0.578   0.975   6.242 -0.4500  0.0798 -0.0108
 2788SOL    HW120000   0.533   0.894   6.267  1.4138 -0.7754  0.5579
 2788SOL    HW220001   0.519   1.006   6.173  0.1496  0.7574 -0.2115
 2789SOL     OW20002   2.495   2.123  13.711  0.0948  0.0203  0.2101
 2789SOL    HW120003   2.452   2.044  13.680 -0.3164  0.0511  0.7012
 2789SOL    HW220004   2.466   2.182  13.641  0.7482  0.4599  0.3135
 2790SOL     OW20005   0.923   3.130  15.134  0.5248 -0.2965  0.1042
 2790SOL    HW120006   0.991   3.063  15.125  1.9398  1.0800  0.5626
 2790SOL    HW220007   0.908   3.130  15.229 -1.5847  0.0772 -0.2145
 2791SOL     OW20008   0.058   4.677  16.077 -0.2504 -0.0057  0.3779
 2791SOL    HW120009   0.023   0.015  16.033  0.1502 -1.2200 -2.0692
 2791SOL    HW220010   0.134   4.715  16.119 -0.4366 -1.4544  2.0348
 2792SOL     OW20011   0.865   1.808   6.577  0.0746  0.4455  0.5985
 2792SOL    HW120012   0.801   1.877   6.595  1.2482  1.5615  0.4867
 2792SOL    HW220013   0.894   1.841   6.492 -0.1091 -1.6932 -0.2989
 2793SOL     OW20014   0.593   1.789   9.528  1.0825  0.6851  0.2791
 2793SOL    HW120015   0.643   1.756   9.602  0.6333  0.1558  0.3490
 2793SOL    HW220016   0.519   1.825   9.577  0.3954 -0.0939 -0.1779
 2794SOL     OW20017   4.486   0.338  11.018 -0.0488  0.0973 -0.4848
 2794SOL    HW120018   4.545   0.354  11.092 -0.4117  0.6999 -0.3268
 2794SOL    HW220019   4.512   0.250  10.992 -1.5428 -0.7374  0.8540
 2795SOL     OW20020   2.339   4.258  15.479 -0.5474 -0.4251 -0.7486
 2795SOL    HW120021   2.354   4.325  15.412 -0.7365 -0.5911 -0.9550
 2795SOL    HW220022   2.399   4.195  15.440  0.1731  0.0803 -0.4757
 2796SOL     OW20023   3.377   3.599   7.640  0.3930  0.3348 -0.0195
 2796SOL    HW120024   3.449   3.585   7.701  0.1754  0.5389  0.2822
 2796SOL    HW220025   3.336   3.671   7.688  0.9946  1.3505 -1.0085
 2797SOL     OW20026   1.998   4.562  10.122 -0.2173 -0.1852 -0.7967
 2797SOL    HW120027   2.047   4.624  10.177 -2.5909  0.1135  1.0072
 2797SOL    HW220028   1.948   4.627  10.072  0.9115  2.7116  1.8097
 2798SOL     OW20029   2.431   1.915   2.281  0.0053 -0.5583 -0.6120
 2798SOL    HW120030   2.400   2.002   2.254 -0.8723 -1.0351 -1.1083
 2798SOL    HW220031   2.470   1.938   2.365 -0.6910 -0.9636 -0.1816
 2799SOL     OW20032   0.571   2.343   4.802 -0.3955  0.2094  0.0860
 2799SOL    HW120033   0.507   2.397   4.847  0.2956  1.9116 -1.0009
 2799SOL    HW220034   0.639   2.404   4.776  2.1020 -2.5970 -0.0302
 2800SOL     OW20035   2.134   1.995   2.460 -0.2261 -0.5130  0.8728
 2800SOL    HW120036   2.143   2.047   2.381 -0.1927  0.3433  1.4354
 2800SOL    HW220037   2.038   1.992   2.462 -0.2359 -0.4367  0.5049
 2801SOL     OW20038   3.889   1.957   2.274 -0.3235  0.1809  0.1025
 2801SOL    HW120039   3.964   1.999   2.231 -0.3947  1.0530  0.8127
 2801SOL    HW220040   3.870   2.028   2.336 -2.2811 -0.6355  0.4246
 2802SOL     OW20041   1.468   1.138   3.604  0.4663  0.0163 -0.1140
 2802SOL    HW120042   1.414   1.124   3.526  0.8265  0.7380 -0.4957
 2802SOL    HW220043   1.391   1.147   3.661  1.6478 -1.1138  1.6591
 2803SOL     OW20044   1.978   0.734  17.161  0.2825 -0.3733  0.1489
 2803SOL    HW120045   2.012   0.799  17.099  0.4291  1.0120  1.6641
 2803SOL    HW220046   2.033   0.659  17.141  1.7640  1.2130 -1.7694
 2804SOL     OW20047   0.347   0.930  12.107 -0.1434 -0.5553 -0.5205
 2804SOL    HW120048   0.343   0.909  12.200  0.5107  0.7664 -0.1965
 2804SOL    HW220049   0.253   0.939  12.092 -0.4491 -1.0394  1.1114
 2805SOL     OW20050   3.985   1.216  10.638 -0.6651 -0.3970  0.5565
 2805SOL    HW120051   3.985   1.139  10.694 -1.5722  0.0743  1.1984
 2805SOL    HW220052   3.934   1.272  10.696 -0.0910  0.9223 -0.2098
 2806SOL     OW20053   2.101   0.759   1.968  0.3406  0.1687  0.2291
 2806SOL    HW120054   2.177   0.804   2.004  1.1434 -0.5851 -0.5342
 2806SOL    HW220055   2.110   0.665   1.985  2.1325  0.1259 -0.9791
 2807SOL     OW20056   4.353   1.693   2.493  0.0896 -0.6860 -0.4759
 2807SOL    HW120057   4.289   1.640   2.446 -1.0054 -0.4542  0.7562
 2807SOL    HW220058   4.370   1.760   2.426  0.2609  1.8964  2.1404
 2808SOL     OW20059   3.264   2.666   7.826 -0.3352  0.0464 -0.4034
 2808SOL    HW120060   3.325   2.681   7.898 -1.4040 -0.2311  0.5529
 2808SOL    HW220061   3.186   2.640   7.874  0.1266 -2.3964 -1.0155
 2809SOL     OW20062   3.451   4.017   5.267 -0.3902  0.0567 -0.0895
 2809SOL    HW120063   3.485   3.939   5.223  1.6256  1.5628 -1.1955
 2809SOL    HW220064   3.357   4.001   5.269 -0.3185 -0.1828  1.4147
 2810SOL     OW20065   3.539   4.373   7.545  0.4303  0.1121 -0.2401
 2810SOL    HW120066   3.458   4.395   7.591  1.2332 -1.5903  1.9431
 2810SOL    HW220067   3.578   4.460   7.536 -1.4200  0.7707 -2.0144
 2811SOL     OW20068   3.940   3.022   9.424  0.2482 -0.1551  0.0302
 2811SOL    HW120069   3.935   3.064   9.510 -2.3960  1.5777 -0.9734
 2811SOL    HW220070   3.845   3.029   9.411 -0.1826 -1.2605  2.6069
 2812SOL     OW20071   1.647   3.092   7.436 -0.0220 -0.3925  0.1687
 2812SOL    HW120072   1.572   3.074   7.381  0.9320 -0.4204 -1.1169
 2812SOL    HW220073   1.604   3.057   7.514 -0.9737  1.8494  0.6526
 2813SOL     OW20074   0.936   1.336  16.475 -0.1310  0.2102  0.0036
 2813SOL    HW120075   1.022   1.342  16.517 -0.8391  0.7929  1.3552
 2813SOL    HW220076   0.949   1.398  16.403 -0.0415  1.7152  1.3133
 2814SOL     OW20077   3.330   0.073   7.292 -0.1847 -0.1486  0.7713
 2814SOL    HW120078   3.299   0.098   7.205 -1.1699 -2.4789  0.4456
 2814SOL    HW220079   3.252   0.036   7.332 -1.8125  1.3481 -1.0604
 2815SOL     OW20080   1.823   1.786   7.789  0.0015 -0.1374 -0.3220
 2815SOL    HW120081   1.735   1.818   7.768  0.7292  1.6886 -0.5750
 2815SOL    HW220082   1.795   1.709   7.839  0.3706 -0.6835 -0.9689
 2816SOL     OW20083   2.794   2.893   6.713  0.8404  0.1118  0.0418
 2816SOL    HW120084   2.875   2.853   6.745  0.7065  0.4274  0.7935
 2816SOL    HW220085   2.731   2.829   6.746 -0.6433  0.9970 -1.0603
 2817SOL     OW20086   2.772   2.118   9.258  0.1421 -0.1346 -0.3319
 2817SOL    HW120087   2.849   2.162   9.296 -0.6565  0.4503  0.5954
 2817SOL    HW220088   2.749   2.074   9.340  0.1126  1.7024  0.6384
 2818SOL     OW20089   2.172   1.410   2.165 -0.3959 -0.0584  0.0483
 2818SOL    HW120090   2.229   1.364   2.103 -1.2056  0.9737 -1.4734
 2818SOL    HW220091   2.156   1.489   2.113 -0.3190 -2.2520 -3.3425
 2819SOL     OW20092   0.484   3.829   6.299 -0.7092 -0.2897  0.2476
 2819SOL    HW120093   0.571   3.826   6.339  0.8881  3.2419 -2.9917
 2819SOL    HW220094   0.448   3.908   6.340  1.5272 -1.0197  3.6769
 2820SOL     OW20095   2.896   3.149   4.185 -0.3834  0.0593 -0.6550
 2820SOL    HW120096   2.964   3.135   4.119 -0.3254  1.1548 -0.8214
 2820SOL    HW220097   2.921   3.241   4.191 -1.3340  0.3086 -0.5213
 2821SOL     OW20098   2.849   4.125   3.654 -0.4303 -0.4382  0.1313
 2821SOL    HW120099   2.769   4.087   3.616 -1.1510  0.8567  0.3728
 2821SOL    HW220100   2.916   4.095   3.592 -0.4581  0.9612 -0.5552
 2822SOL     OW20101   4.616   0.184   2.666  0.2496  0.1808 -0.0680
 2822SOL    HW120102   4.540   0.241   2.653  0.5808  0.4918 -0.6665
 2822SOL    HW220103   4.638   0.205   2.756 -2.8442  0.2375  0.6735
 2823SOL     OW20104   1.895   0.733   0.501 -0.3479 -0.7731 -0.5680
 2823SOL    HW120105   1.968   0.750   0.442  0.5591 -0.1849  0.7104
 2823SOL    HW220106   1.900   0.816   0.550  3.0555 -1.8850  0.9406
 2824SOL     OW20107   0.053   0.943   2.610 -0.3205  0.4229 -0.5092
 2824SOL    HW120108   0.024   0.906   2.693  0.1901 -1.7346 -1.3102
 2824SOL    HW220109   0.101   0.865   2.584 -1.7081 -1.1704  1.7210
 2825SOL     OW20110   0.458   0.920  14.031  0.5527 -0.1680 -0.4204
 2825SOL    HW120111   0.435   0.933  13.939 -0.2050  0.8072 -0.0917
 2825SOL    HW220112   0.500   1.002  14.055  0.2656 -0.1518  0.0115
 2826SOL     OW20113   4.502   1.273   8.012  0.3020 -0.1825  0.4795
 2826SOL    HW120114   4.437   1.335   7.980 -2.4829 -2.0307  2.5220
 2826SOL    HW220115   4.579   1.326   7.991 -0.1381 -0.1182 -0.9408
 2827SOL     OW20116   0.095   0.386   2.346 -0.2185 -0.9000 -0.2521
 2827SOL    HW120117   0.004   0.391   2.316  0.1016  1.6329 -0.8373
 2827SOL    HW220118   0.147   0.450   2.297 -1.3512  1.2944  1.4072
 2828SOL     OW20119   2.064   3.276  17.383  0.4678 -0.0653  0.2424
 2828SOL    HW120120   2.019   3.301  17.302  0.7528  1.7470  0.6313
 2828SOL    HW220121   2.087   3.360  17.421 -0.6627 -1.1707  3.3285
 2829SOL     OW20122   4.242   1.344  10.283  0.0122  0.6873  0.0997
 2829SOL    HW120123   4.297   1.411  10.324  1.1828  0.3081 -0.8426
 2829SOL    HW220124   4.300   1.310  10.215 -0.6258 -0.3975  0.1090
 2830SOL     OW20125   2.052   2.114  12.213 -1.1232  0.1649 -0.6283
 2830SOL    HW120126   1.956   2.113  12.211 -1.1226 -0.3739 -0.5394
 2830SOL    HW220127   2.070   2.208  12.216  2.9353 -0.6131 -0.8731
 2831SOL     OW20128   1.814   1.166  10.766 -0.0848  0.5136  0.2158
 2831SOL    HW120129   1.745   1.113  10.806 -0.0460  0.1787 -0.1620
 2831SOL    HW220130   1.864   1.176  10.847 -1.6766 -3.0130  1.6434
 2832SOL     OW20131   4.713   3.809  15.925  0.1221 -0.6043 -0.3893
 2832SOL    HW120132   0.052   3.773  15.884  0.3064  2.2951 -2.5796
 2832SOL    HW220133   4.713   3.897  15.886  0.9208 -0.5891 -0.3569
 2833SOL     OW20134   4.432   2.134   0.355  0.1056 -0.2922  0.2841
 2833SOL    HW120135   4.434   2.207   0.416  1.5726 -0.3780  0.3414
 2833SOL    HW220136   4.344   2.131   0.318 -0.5793 -2.3900  2.1393
 2834SOL     OW20137   3.919   2.447  14.870  0.1101  0.1504 -0.1375
 2834SOL    HW120138   3.903   2.522  14.813  3.6219  0.6413 -0.5259
 2834SOL    HW220139   3.966   2.493  14.939 -0.6279  0.2247  0.3120
 2835SOL     OW20140   1.846   2.189   4.961 -0.3953 -0.3942 -0.4624
 2835SOL    HW120141   1.814   2.279   4.964  2.5001  0.6407 -0.1371
 2835SOL    HW220142   1.781   2.144   4.908  0.0485  1.8851 -2.9514
 2836SOL     OW20143   3.825   2.829   6.495 -0.2134 -0.0317 -0.1989
 2836SOL    HW120144   3.767   2.805   6.422 -1.4435  2.4957 -0.0494
 2836SOL    HW220145   3.764   2.820   6.568 -0.9559  2.5534 -0.4937
 2837SOL     OW20146   2.460   3.409  17.592 -0.2156 -0.1808  0.0215
 2837SOL    HW120147   2.494   3.345  17.654  1.1664 -0.2228 -0.7667
 2837SOL    HW220148   2.455   3.359  17.511  0.1131  1.3781 -0.9636
 2838SOL     OW20149   1.343   1.096   3.362  0.1607  0.2797 -0.0283
 2838SOL    HW120150   1.355   1.178   3.314 -0.9329  1.4222  1.6404
 2838SOL    HW220151   1.257   1.066   3.332  0.5753 -1.0864  0.1617
 2839SOL     OW20152   2.220   0.655   8.545  0.4389  0.2393 -0.1613
 2839SOL    HW120153   2.234   0.677   8.453 -0.3374  0.3973 -0.2343
 2839SOL    HW220154   2.166   0.730   8.568  1.0193  0.8037 -0.6438
 2840SOL     OW20155   1.279   4.299   6.114  0.4035 -0.2030  0.2446
 2840SOL    HW120156   1.353   4.318   6.172 -0.0721  0.1694  0.7322
 2840SOL    HW220157   1.217   4.250   6.169  3.3829 -2.3561  1.6431
 2841SOL     OW20158   3.984   0.006  11.363  0.2239  0.1111  0.0436
 2841SOL    HW120159   4.075   4.732  11.390  0.6999  3.0676 -0.1348
 2841SOL    HW220160   3.976   4.690  11.285  0.0447 -0.8753  0.7588
 2842SOL     OW20161   3.486   0.519   5.398  0.2064  0.3901 -0.7374
 2842SOL    HW120162   3.402   0.479   5.375  0.3860  0.6740 -1.8869
 2842SOL    HW220163   3.532   0.438   5.423 -0.0264  0.7813  0.9441
 2843SOL     OW20164   4.008   4.036   2.687  0.1234 -0.3416  0.1432
 2843SOL    HW120165   3.918   4.004   2.695  0.6120 -2.0295 -1.1490
 2843SOL    HW220166   4.026   4.066   2.776  0.9128  0.1156 -0.1685
 2844SOL     OW20167   3.280   0.989   3.319 -0.0628  0.0266  0.1702
 2844SOL    HW120168   3.294   0.995   3.414 -0.1394 -0.2884  0.2014
 2844SOL    HW220169   3.275   1.083   3.301  1.1450  0.3622  1.6106
 2845SOL     OW20170   2.636   4.670   0.174  0.0130 -0.4665 -0.1379
 2845SOL    HW120171   2.657   4.633   0.089 -0.4674 -0.2297 -0.3618
 2845SOL    HW220172   2.706   4.626   0.222  0.4622 -1.7308 -1.9600
 2846SOL     OW20173   1.644   1.197   2.122 -0.0946  0.2778 -0.6865
 2846SOL    HW120174   1.649   1.112   2.078  3.5222  1.0813 -1.7875
 2846SOL    HW220175   1.573   1.245   2.080  0.6767  0.8251 -1.3685
 2847SOL     OW20176   0.094   1.527   4.358 -0.5406  0.1391  0.6790
 2847SOL    HW120177   0.145   1.584   4.416  1.1629 -0.8501  0.1619
 2847SOL    HW220178   0.077   1.458   4.423 -0.2634 -0.1031  0.4911
 2848SOL     OW20179   0.053   3.380   6.572  0.1580  0.2285  0.4907
 2848SOL    HW120180   4.727   3.437   6.530  0.2633 -1.6446 -2.2281
 2848SOL    HW220181   0.101   3.439   6.629 -0.4537  1.3254 -0.1153
 2849SOL     OW20182   3.727   1.541  17.371  0.2451 -0.2793 -0.0280
 2849SOL    HW120183   3.756   1.563  17.460 -0.1238  0.3844 -0.0749
 2849SOL    HW220184   3.762   1.620  17.330 -1.3105 -0.1156 -0.9921
 2850SOL     OW20185   0.920   2.350   5.957 -0.5429  0.0729  0.1191
 2850SOL    HW120186   0.873   2.272   5.928 -2.2495  0.5735  1.5388
 2850SOL    HW220187   0.857   2.414   5.990  0.1800  0.7210  0.2592
 2851SOL     OW20188   0.818   0.354   6.132 -0.8165  0.3218 -0.6876
 2851SOL    HW120189   0.777   0.316   6.210  2.7634 -1.4241  0.3547
 2851SOL    HW220190   0.756   0.326   6.064 -1.2156  0.0720 -0.2212
 2852SOL     OW20191   3.688   2.777   7.245 -0.1779  0.0774  0.1633
 2852SOL    HW120192   3.762   2.717   7.252  0.3778  0.5807 -1.4981
 2852SOL    HW220193   3.674   2.796   7.337 -1.0958 -0.0163  0.0449
 2853SOL     OW20194   3.496   0.777   1.732  0.0669 -0.3427  0.3118
 2853SOL    HW120195   3.588   0.784   1.759  0.9972 -0.6597 -2.7118
 2853SOL    HW220196   3.475   0.867   1.756  0.2219 -0.2212 -0.0116
 2854SOL     OW20197   0.138   4.531   3.644  0.2753 -0.5180 -0.0300
 2854SOL    HW120198   0.072   4.594   3.674  0.2484 -0.7973  0.4959
 2854SOL    HW220199   0.194   4.587   3.590  0.0026  0.9096  1.1450
 2855SOL     OW20200   0.965   1.512   6.983 -0.6956 -0.1837 -0.7806
 2855SOL    HW120201   0.992   1.441   7.041 -1.0400 -0.2294 -0.6797
 2855SOL    HW220202   0.898   1.464   6.934  0.2581 -1.8465 -0.4890
 2856SOL     OW20203   0.824   3.896   2.411  0.0999 -0.6145  0.0084
 2856SOL    HW120204   0.901   3.871   2.358  0.8489 -0.8116  1.1967
 2856SOL    HW220205   0.843   3.989   2.420 -0.0327 -0.6427  0.5562
 2857SOL     OW20206   0.200   3.031   5.626  0.1832 -0.0830 -0.0096
 2857SOL    HW120207   0.259   2.963   5.660  0.1089 -1.4697 -2.6420
 2857SOL    HW220208   0.199   3.005   5.534  0.3523 -0.5384  0.1152
 2858SOL     OW20209   2.363   3.362   4.276  0.6800 -0.1905  0.3021
 2858SOL    HW120210   2.446   3.398   4.306  0.3318  0.4554  0.4900
 2858SOL    HW220211   2.381   3.271   4.300  1.7283 -0.9448 -3.3074
 2859SOL     OW20212   3.190   1.716  13.124  0.7810 -0.1080 -0.1243
 2859SOL    HW120213   3.261   1.658  13.152  1.5489 -0.9963 -3.8734
 2859SOL    HW220214   3.139   1.736  13.202  1.5027 -2.7182  1.0327
 2860SOL     OW20215   4.368   3.572   2.245 -0.2699  0.4483 -0.8755
 2860SOL    HW120216   4.385   3.487   2.286  0.1803  0.0828 -1.8160
 2860SOL    HW220217   4.391   3.632   2.315 -1.0019 -0.5758  0.2403
 2861SOL     OW20218   0.391   3.538   7.621 -0.7051  0.3730 -0.3649
 2861SOL    HW120219   0.479   3.559   7.590 -0.9422  1.3076 -0.4093
 2861SOL    HW220220   0.382   3.456   7.572  0.4300  0.0973 -0.0927
 2862SOL     OW20221   4.213   4.301  11.452 -0.6931 -0.3938 -0.6041
 2862SOL    HW120222   4.304   4.325  11.470 -0.2607 -1.3192 -1.6141
 2862SOL    HW220223   4.179   4.361  11.519  3.6563  0.3863  0.9196
 2863SOL     OW20224   3.998   0.773   8.296  0.4946  0.6032  0.5447
 2863SOL    HW120225   3.916   0.745   8.256  0.3012  1.5617  0.2678
 2863SOL    HW220226   3.979   0.858   8.336  0.0813  0.1814  1.2519
 2864SOL     OW20227   3.173   2.529   8.830  0.3983 -0.1365 -0.3772
 2864SOL    HW120228   3.165   2.595   8.761 -0.8556 -1.6829 -1.7314
 2864SOL    HW220229   3.171   2.583   8.909 -1.1312 -0.0811 -0.4532
 2865SOL     OW20230   1.061   4.357   7.687  0.1907  0.1144 -0.3178
 2865SOL    HW120231   1.096   4.379   7.600  0.3543 -2.2047 -0.8344
 2865SOL    HW220232   1.029   4.445   7.705  0.5493 -0.1608  1.6024
 2866SOL     OW20233   0.093   4.614   6.258 -0.2972 -0.4813  0.2501
 2866SOL    HW120234   0.072   4.706   6.273 -0.5208 -0.6144  0.7596
 2866SOL    HW220235   0.066   4.570   6.339  0.6075 -1.0164  0.2640
 2867SOL     OW20236   3.699   0.865   2.068  1.1805  0.2560 -0.5068
 2867SOL    HW120237   3.605   0.848   2.076  1.4127  0.1635  2.0595
 2867SOL    HW220238   3.748   0.787   2.096  1.6821  0.7010 -0.1566
 2868SOL     OW20239   4.647   1.500   1.944  0.0186  0.4475  0.5058
 2868SOL    HW120240   4.687   1.568   1.889 -1.4575 -0.4809 -1.6933
 2868SOL    HW220241   4.695   1.425   1.909  0.1265  0.5744  0.3834
 2869SOL     OW20242   1.588   4.625   8.560  0.1070  0.4052  0.5338
 2869SOL    HW120243   1.501   4.597   8.587 -0.5586  3.9680  2.1314
 2869SOL    HW220244   1.576   4.711   8.519  0.4741  2.2865  4.3276
 2870SOL     OW20245   3.820   4.655   3.525 -0.5093  0.0229  0.3837
 2870SOL    HW120246   3.743   4.606   3.495 -1.0101  0.5221  0.8437
 2870SOL    HW220247   3.784   0.003   3.544  0.5842  0.8776 -1.5145
 2871SOL     OW20248   1.250   0.354   3.999  0.6243 -0.0729  0.1272
 2871SOL    HW120249   1.221   0.311   4.079  1.4412 -1.0421 -0.0987
 2871SOL    HW220250   1.183   0.329   3.936  0.5616  0.8079 -0.1613
 2872SOL     OW20251   0.059   4.344  10.719 -0.0275 -0.1987 -0.1371
 2872SOL    HW120252   0.125   4.342  10.650 -0.0787  1.4332 -0.2520
 2872SOL    HW220253   0.092   4.417  10.772 -3.3639  1.2110  0.0026
 2873SOL     OW20254   1.116   4.229   5.646 -0.3345 -0.0154  0.1842
 2873SOL    HW120255   1.202   4.269   5.635 -1.1727  2.1777  1.6003
 2873SOL    HW220256   1.066   4.299   5.689  2.0605  1.0754  1.1638
 2874SOL     OW20257   4.071   0.328   4.446  0.5866  0.5321 -0.0154
 2874SOL    HW120258   3.993   0.319   4.501  0.2649  0.0646 -0.5582
 2874SOL    HW220259   4.053   0.411   4.400  2.7369  0.2366 -1.3880
 2875SOL     OW20260   1.638   1.458   7.153  0.0608 -0.2670 -0.1524
 2875SOL    HW120261   1.683   1.460   7.068  0.2332  0.5678 -0.0388
 2875SOL    HW220262   1.577   1.531   7.153  0.7734  0.3339  0.8449
 2876SOL     OW20263   3.352   0.328   7.792 -0.4634 -0.6800  0.1107
 2876SOL    HW120264   3.312   0.326   7.704 -0.0443 -0.5511 -0.0804
 2876SOL    HW220265   3.380   0.420   7.793 -1.3053 -0.4666  2.3963
 2877SOL     OW20266   4.023   2.478   2.913  0.3249 -0.1224  0.2380
 2877SOL    HW120267   4.030   2.560   2.864 -0.7343 -0.6733 -0.8419
 2877SOL    HW220268   4.115   2.454   2.914  0.5605  0.7934  0.6301
 2878SOL     OW20269   2.482   3.500   2.127  0.1582 -0.1971 -0.3254
 2878SOL    HW120270   2.450   3.537   2.045  4.1880  2.1665 -0.8159
 2878SOL    HW220271   2.565   3.463   2.100  0.9012  1.8983 -0.9386
 2879SOL     OW20272   0.408   2.652   7.023  0.0943 -0.4470  0.5730
 2879SOL    HW120273   0.491   2.609   7.002  0.2950 -0.8402  2.1784
 2879SOL    HW220274   0.350   2.627   6.951  2.1575  1.4232 -1.7389
 2880SOL     OW20275   1.343   1.361  10.597 -0.3153 -0.1253  0.4996
 2880SOL    HW120276   1.298   1.437  10.633 -0.2414 -0.5097  1.4170
 2880SOL    HW220277   1.277   1.293  10.613 -0.3896 -0.2461 -0.3199
 2881SOL     OW20278   4.222   2.984   0.854  0.2995  0.3335 -0.5221
 2881SOL    HW120279   4.222   3.038   0.933  1.4874  0.0791 -0.3478
 2881SOL    HW220280   4.224   3.045   0.781 -0.5560 -0.0012 -0.8240
 2882SOL     OW20281   4.432   4.215   5.732  0.5036 -0.6034 -0.1086
 2882SOL    HW120282   4.477   4.286   5.779  0.8061 -0.2239 -0.9593
 2882SOL    HW220283   4.424   4.252   5.644  0.2853  0.7754  0.4910
 2883SOL     OW20284   3.604   1.545  16.693 -0.1208  0.6172  0.9084
 2883SOL    HW120285   3.609   1.449  16.703 -0.1936  0.4493 -0.6797
 2883SOL    HW220286   3.684   1.555  16.745 -0.1857 -0.4566  1.2322
 2884SOL     OW20287   4.552   3.133  14.957 -0.1422  0.1965 -0.1060
 2884SOL    HW120288   4.595   3.063  15.005 -0.4575 -0.8097 -1.3051
 2884SOL    HW220289   4.472   3.090  14.926 -0.2254  0.5321 -0.3579
 2885SOL     OW20290   1.808   0.940   5.109 -0.2868  0.1328  1.0750
 2885SOL    HW120291   1.788   0.848   5.094  0.3210 -0.3341  3.0248
 2885SOL    HW220292   1.867   0.943   5.185 -0.7078 -1.0772  1.4519
 2886SOL     OW20293   0.906   1.756   0.273 -0.1837  0.2172  0.1440
 2886SOL    HW120294   0.883   1.768   0.365 -1.4688 -0.3258 -0.1060
 2886SOL    HW220295   0.993   1.717   0.277  0.6791  1.9575 -1.6110
 2887SOL     OW20296   1.159   4.528  16.076 -0.0171  0.4759 -0.0701
 2887SOL    HW120297   1.120   4.554  16.159  3.6198  1.1745  1.4513
 2887SOL    HW220298   1.236   4.585  16.074  0.4268 -0.1551 -2.3010
 2888SOL     OW20299   0.116   0.223   3.863  0.3833  0.2331  0.0012
 2888SOL    HW120300   0.042   0.276   3.892 -0.1387 -0.0054 -0.9042
 2888SOL    HW220301   0.176   0.268   3.922  0.9192 -0.1766 -0.2292
 2889SOL     OW20302   0.336   3.554   3.058 -0.7859  0.4674  0.0768
 2889SOL    HW120303   0.379   3.608   2.991 -0.5492  0.6922  0.4063
 2889SOL    HW220304   0.258   3.606   3.077 -0.2858  0.9921  0.7343
 2890SOL     OW20305   3.456   0.306   8.498 -0.2301 -0.2395 -0.1855
 2890SOL    HW120306   3.526   0.350   8.450  0.3767 -1.1552 -0.1260
 2890SOL    HW220307   3.392   0.297   8.426 -0.3410  0.6959 -0.2126
 2891SOL     OW20308   4.272   1.931   7.751  0.1602 -0.1895 -0.2946
 2891SOL    HW120309   4.231   1.858   7.795  0.7969 -1.2923 -1.5181
 2891SOL    HW220310   4.217   2.008   7.768 -1.6649 -1.2288 -1.5109
 2892SOL     OW20311   4.521   3.302  12.395  0.5852 -0.2405 -0.3112
 2892SOL    HW120312   4.480   3.216  12.408 -0.4831  0.1893 -0.8267
 2892SOL    HW220313   4.568   3.286  12.314  0.3838 -0.3294 -0.4108
 2893SOL     OW20314   4.735   3.659   7.941  0.4113 -0.2670 -0.0868
 2893SOL    HW120315   0.050   3.587   7.973  0.8542 -0.2579 -0.8236
 2893SOL    HW220316   0.054   3.688   7.870 -0.7951 -1.2987 -1.4972
 2894SOL     OW20317   1.045   3.231   1.370 -0.3077  0.6384  0.2493
 2894SOL    HW120318   1.112   3.169   1.400  0.5323  0.7192 -1.4618
 2894SOL    HW220319   1.091   3.268   1.295  1.5614 -1.8097  0.1644
 2895SOL     OW20320   4.059   2.004  11.179  0.0098  0.7458 -0.1846
 2895SOL    HW120321   4.063   2.078  11.118 -1.1178  0.6389 -0.3798
 2895SOL    HW220322   3.976   2.038  11.210 -0.1890  0.2064 -0.1244
 2896SOL     OW20323   3.979   0.959   6.248 -0.0982  0.6195 -0.0970
 2896SOL    HW120324   3.913   0.889   6.242  1.4195 -0.8136 -0.0635
 2896SOL    HW220325   4.052   0.909   6.284 -0.6366 -0.2275 -0.1618
 2897SOL     OW20326   1.412   0.288   1.944 -0.4727 -0.7823 -0.4114
 2897SOL    HW120327   1.348   0.344   1.988  0.3728 -1.7457  2.0166
 2897SOL    HW220328   1.369   0.204   1.930  0.6459 -1.4555  0.2327
 2898SOL     OW20329   0.916   1.282   8.249 -0.3230  0.1483  0.5586
 2898SOL    HW120330   0.936   1.346   8.182  0.1091  0.7572  1.2674
 2898SOL    HW220331   0.820   1.291   8.249 -0.2197  1.1785  0.0880
 2899SOL     OW20332   0.476   2.555   3.498 -0.5949  0.2780 -0.2556
 2899SOL    HW120333   0.495   2.643   3.465  2.1782 -0.6495 -1.1085
 2899SOL    HW220334   0.525   2.539   3.578 -2.3139  0.1380  0.7787
 2900SOL     OW20335   1.748   2.098   3.231  0.8011 -0.1795 -0.0627
 2900SOL    HW120336   1.723   2.141   3.312  0.1696  0.1680 -0.4439
 2900SOL    HW220337   1.839   2.127   3.221  1.2519 -1.3741  0.6198
 2901SOL     OW20338   3.528   4.645   2.452  0.0874  0.2224 -0.1512
 2901SOL    HW120339   3.578   4.626   2.532  0.1787  0.3603 -0.1757
 2901SOL    HW220340   3.503   4.736   2.465 -0.3888  0.1896 -0.8746
 2902SOL     OW20341   0.968   1.837  11.844 -0.0471 -0.2435 -0.5611
 2902SOL    HW120342   0.918   1.877  11.773 -1.7671 -1.4778 -0.0303
 2902SOL    HW220343   0.998   1.752  11.811  0.7429  0.6307 -2.0827
 2903SOL     OW20344   3.449   3.321  14.117  0.1682 -0.1576 -0.0442
 2903SOL    HW120345   3.467   3.238  14.161 -0.8379 -1.1759 -1.5454
 2903SOL    HW220346   3.508   3.316  14.042 -3.1133 -0.0591 -2.6170
 2904SOL     OW20347   1.688   3.902   5.739  0.8685 -0.0139 -0.5106
 2904SOL    HW120348   1.778   3.904   5.770  0.5797 -3.4557  0.5123
 2904SOL    HW220349   1.711   3.875   5.650  0.5743 -1.5862 -0.1084
 2905SOL     OW20350   4.307   3.047   6.302 -1.1910  0.4052  0.0501
 2905SOL    HW120351   4.282   3.099   6.378 -0.1202  0.4248  0.3935
 2905SOL    HW220352   4.401   3.063   6.299 -0.6523 -2.9020 -0.6659
 2906SOL     OW20353   2.823   2.357   5.927 -0.1960  0.7513 -0.3247
 2906SOL    HW120354   2.790   2.375   6.015  0.9653 -0.7397  0.4083
 2906SOL    HW220355   2.880   2.283   5.945 -1.1157 -0.3358 -1.9178
 2907SOL     OW20356   1.313   3.977  16.501  0.7286 -0.9320  0.0494
 2907SOL    HW120357   1.357   3.929  16.572 -1.6908 -3.7783 -0.3940
 2907SOL    HW220358   1.314   3.915  16.428  1.8844 -0.0994 -0.6391
 2908SOL     OW20359   1.004   1.109  11.394 -0.0040  0.1761  0.0112
 2908SOL    HW120360   0.930   1.115  11.454  0.1236 -3.0540  0.5001
 2908SOL    HW220361   0.971   1.168  11.327  0.9833  0.3516 -0.3197
 2909SOL     OW20362   4.593   3.899   7.249  0.1110  0.1543 -0.7015
 2909SOL    HW120363   4.579   3.859   7.335  1.1915 -1.5719 -1.3455
 2909SOL    HW220364   4.674   3.856   7.224 -0.5898 -0.9741 -1.0344
 2910SOL     OW20365   1.308   1.621   3.397  0.3791  0.1269  0.2012
 2910SOL    HW120366   1.227   1.672   3.406  0.0608  0.0654 -2.3388
 2910SOL    HW220367   1.332   1.599   3.487  0.5809  1.8562  0.5864
 2911SOL     OW20368   1.639   4.324   3.693  0.7662 -0.7104 -0.2786
 2911SOL    HW120369   1.733   4.336   3.707  0.7217 -0.4927 -0.1688
 2911SOL    HW220370   1.620   4.307   3.785 -0.3670 -1.9933 -0.7550
 2912SOL     OW20371   2.074   4.214   1.844 -0.7891  0.2520 -0.1099
 2912SOL    HW120372   2.003   4.256   1.795 -1.7930  0.0390  1.1706
 2912SOL    HW220373   2.154   4.256   1.812 -0.7201  0.0806 -0.1632
 2913SOL     OW20374   0.959   3.393  16.866  0.2430  0.6098  0.6559
 2913SOL    HW120375   0.871   3.416  16.835  1.0824  2.1655 -0.5838
 2913SOL    HW220376   0.989   3.358  16.782  0.3607 -1.0062  1.3548
 2914SOL     OW20377   3.232   1.344  12.175  0.4173  0.4137  0.2991
 2914SOL    HW120378   3.325   1.332  12.197  0.5454 -1.2265 -1.1474
 2914SOL    HW220379   3.196   1.357  12.263  0.6189  0.6828  0.3427
 2915SOL     OW20380   0.197   3.877   1.523 -0.4595 -0.3316 -0.0442
 2915SOL    HW120381   0.191   3.787   1.492  0.7691  0.9765 -4.0543
 2915SOL    HW220382   0.131   3.924   1.472  1.2127 -0.2984 -2.1789
 2916SOL     OW20383   4.021   3.987   5.229  0.1210  0.2258  0.1860
 2916SOL    HW120384   3.972   3.917   5.187 -0.1398  0.7414 -0.3670
 2916SOL    HW220385   4.071   3.923   5.281  0.8964  1.7415  1.3051
 2917SOL     OW20386   1.517   3.634   6.993 -0.3454  0.3400  0.0939
 2917SOL    HW120387   1.596   3.645   6.940 -2.3669  1.2884 -2.7562
 2917SOL    HW220388   1.454   3.692   6.951  0.7700  0.3081 -1.6492
 2918SOL     OW20389   3.966   4.222  16.099  0.4661 -0.5479 -0.5973
 2918SOL    HW120390   3.887   4.202  16.151 -1.1982 -0.2384 -3.0280
 2918SOL    HW220391   3.917   4.253  16.023 -2.1630  2.0027  2.0692
 2919SOL     OW20392   0.760   0.382   5.091 -0.3982 -0.0763  0.4666
 2919SOL    HW120393   0.719   0.296   5.105 -0.0144 -0.3357 -0.0046
 2919SOL    HW220394   0.694   0.429   5.142  0.9983  0.9248  1.3193
 2920SOL     OW20395   2.880   1.063   4.356 -0.0169  0.0095 -0.7386
 2920SOL    HW120396   2.956   1.119   4.376 -0.0841 -0.5504  1.0827
 2920SOL    HW220397   2.814   1.132   4.349 -1.1057 -0.8934  0.8168
 2921SOL     OW20398   2.767   1.365  17.708  0.6830 -0.7860  0.7941
 2921SOL    HW120399   2.677   1.368  17.675  0.3331 -2.0183  1.6289
 2921SOL    HW220400   2.803   1.416  17.636  0.2905 -1.7259 -0.0644
 2922SOL     OW20401   3.083   3.822  15.973  0.0752  0.1885  0.0684
 2922SOL    HW120402   3.004   3.864  16.009  1.0074  0.7633  1.4449
 2922SOL    HW220403   3.063   3.815  15.880  1.5941 -1.4174 -0.1355
 2923SOL     OW20404   1.199   4.124  17.048 -0.8651  0.1624  0.3052
 2923SOL    HW120405   1.183   4.056  16.982  2.3231  0.8231 -1.1780
 2923SOL    HW220406   1.147   4.100  17.125  0.4723 -2.2767  0.4298
 2924SOL     OW20407   4.340   0.199  16.867 -0.6377  0.2706 -0.3173
 2924SOL    HW120408   4.251   0.174  16.840 -1.3883 -1.4882  3.6386
 2924SOL    HW220409   4.331   0.193  16.963  0.4136 -1.9811 -0.3636
 2925SOL     OW20410   4.215   2.088  15.961 -0.3621 -1.0403  0.1256
 2925SOL    HW120411   4.160   2.013  15.985  1.8792 -3.2782 -1.6401
 2925SOL    HW220412   4.267   2.056  15.887  0.6628  1.2166 -0.1140
 2926SOL     OW20413   3.915   2.481   9.330  0.4347  0.1682 -0.1983
 2926SOL    HW120414   3.895   2.562   9.378 -0.9624 -1.7902  2.5083
 2926SOL    HW220415   3.867   2.415   9.380 -0.8394  1.1826 -0.0589
 2927SOL     OW20416   0.078   2.818   5.512 -0.1083 -0.2694 -0.5466
 2927SOL    HW120417   0.052   2.859   5.429 -0.9049 -1.9455 -1.1326
 2927SOL    HW220418   0.156   2.775   5.479  0.5183  0.0134  0.5841
 2928SOL     OW20419   3.586   1.657   8.516 -0.2439 -0.4923 -0.0989
 2928SOL    HW120420   3.592   1.733   8.574  0.6376 -0.1088 -0.6876
 2928SOL    HW220421   3.534   1.696   8.447 -0.4800  0.2082  0.4779
 2929SOL     OW20422   1.120   4.594   6.563 -0.4198  0.0225 -0.6293
 2929SOL    HW120423   1.211   4.572   6.581 -0.5323  2.2320  2.4720
 2929SOL    HW220424   1.083   4.585   6.650  0.5958 -0.7305 -0.2723
 2930SOL     OW20425   4.120   2.636   9.182 -0.2779  0.1189  0.8046
 2930SOL    HW120426   4.044   2.604   9.231 -1.0356  3.0042  1.5209
 2930SOL    HW220427   4.154   2.701   9.244  0.1232  0.0681  0.6386
 2931SOL     OW20428   1.577   0.969   5.962  0.5012 -0.2319  0.9049
 2931SOL    HW120429   1.495   0.937   5.926  1.3730 -0.5400 -0.8256
 2931SOL    HW220430   1.593   1.041   5.902 -0.6637 -0.0144  0.8551
 2932SOL     OW20431   2.320   4.436   9.182  0.4143  0.1599 -0.6722
 2932SOL    HW120432   2.261   4.467   9.250  0.4652  2.9384 -1.8944
 2932SOL    HW220433   2.293   4.349   9.152  1.5698 -0.1085 -0.9691
 2933SOL     OW20434   2.321   4.354   1.776 -0.3861 -0.0393 -0.4194
 2933SOL    HW120435   2.391   4.321   1.832  0.1521  0.1025 -1.0112
 2933SOL    HW220436   2.380   4.405   1.720  0.7206 -2.0626 -1.0811
 2934SOL     OW20437   0.935   3.449  15.115 -0.0616  0.3833 -0.0205
 2934SOL    HW120438   0.843   3.456  15.140  0.0050 -0.1003  0.3690
 2934SOL    HW220439   0.949   3.354  15.109 -0.9191  0.1437  1.8241
 2935SOL     OW20440   0.164   3.377   5.228  0.1669 -0.6813  0.8739
 2935SOL    HW120441   0.220   3.316   5.179  0.8449  0.9407 -0.3709
 2935SOL    HW220442   0.096   3.316   5.257 -0.5753 -0.5999 -0.6568
 2936SOL     OW20443   1.989   3.209   9.194 -0.5753  0.5750 -0.4277
 2936SOL    HW120444   2.042   3.234   9.270  0.8012 -0.2007 -1.1454
 2936SOL    HW220445   1.901   3.192   9.230 -0.5663 -1.0104 -1.1666
 2937SOL     OW20446   4.448   3.724   2.456  0.1199  0.1036  0.4201
 2937SOL    HW120447   4.449   3.812   2.492 -0.1229  0.9110 -1.5584
 2937SOL    HW220448   4.533   3.688   2.480 -0.1442 -1.3064 -0.7199
 2938SOL     OW20449   3.531   1.012   8.328  0.4866  0.3644  0.6351
 2938SOL    HW120450   3.552   1.104   8.316 -0.4500  0.2875 -1.5878
 2938SOL    HW220451   3.538   1.004   8.423 -0.9272 -0.7647  0.6433
 2939SOL     OW20452   1.991   0.653   4.610  0.2689  0.1438 -0.0438
 2939SOL    HW120453   2.046   0.631   4.535 -1.3011  0.2476 -1.2155
 2939SOL    HW220454   1.910   0.659   4.559  0.2483  1.1276  0.1120
 2940SOL     OW20455   4.627   3.785   2.716 -0.2721  0.5379 -0.1376
 2940SOL    HW120456   4.624   3.748   2.805  0.1637 -0.1654 -0.4111
 2940SOL    HW220457   4.545   3.835   2.716 -0.7963 -0.3169  1.1613
 2941SOL     OW20458   3.614   2.381   0.923  0.1936 -0.4704 -0.0815
 2941SOL    HW120459   3.684   2.322   0.952 -1.9139 -2.5182  0.7801
 2941SOL    HW220460   3.565   2.377   1.005  0.8904  1.6606  0.4494
 2942SOL     OW20461   3.397   1.680   3.191 -0.4670 -0.7407 -0.4207
 2942SOL    HW120462   3.353   1.669   3.275 -1.2195 -0.0721 -0.7330
 2942SOL    HW220463   3.409   1.774   3.181  2.0563 -0.9702  0.5669
 2943SOL     OW20464   1.350   1.260   5.198  0.1006  0.4190  0.1886
 2943SOL    HW120465   1.432   1.308   5.210  0.7860 -0.9884  1.0552
 2943SOL    HW220466   1.360   1.231   5.107  1.5813 -0.6265  0.6916
 2944SOL     OW20467   1.605   1.496   2.930 -0.1600  1.3344 -0.1261
 2944SOL    HW120468   1.671   1.540   2.984 -0.6151 -0.1100  1.5956
 2944SOL    HW220469   1.527   1.515   2.983  0.9687  1.5704  1.4548
 2945SOL     OW20470   0.154   2.776  16.562  0.1776  0.5744  0.1666
 2945SOL    HW120471   0.174   2.801  16.652 -2.6546 -0.3656  1.0498
 2945SOL    HW220472   0.065   2.742  16.570  0.3072  0.2133  0.0788
 2946SOL     OW20473   3.386   4.281   8.403 -0.8069  0.6514 -0.4632
 2946SOL    HW120474   3.457   4.252   8.346 -0.9009 -0.2838 -0.1118
 2946SOL    HW220475   3.367   4.367   8.366  0.5567  1.4908  0.7965
 2947SOL     OW20476   4.627   3.268  10.688 -0.2011  0.8433 -0.4669
 2947SOL    HW120477   4.546   3.312  10.663 -0.3316  0.7856 -0.1510
 2947SOL    HW220478   4.606   3.256  10.781  0.1455 -3.7907 -0.9775
 2948SOL     OW20479   2.543   2.867   7.882 -0.1955 -0.0494  0.0128
 2948SOL    HW120480   2.557   2.944   7.827 -0.3577 -0.6825 -0.8981
 2948SOL    HW220481   2.457   2.841   7.849  1.8141 -3.6515 -2.3306
 2949SOL     OW20482   2.748   4.578   4.449  0.2126 -0.4952 -0.3039
 2949SOL    HW120483   2.682   4.511   4.434 -0.3090  0.3168 -1.6822
 2949SOL    HW220484   2.744   4.614   4.360 -0.3998 -0.6152 -0.3232
 2950SOL     OW20485   1.638   1.538   8.302  0.1627  0.9319 -0.1137
 2950SOL    HW120486   1.647   1.584   8.385 -1.4176  0.7477  0.1740
 2950SOL    HW220487   1.695   1.469   8.334 -0.4809  1.3615  1.9513
 2951SOL     OW20488   0.187   1.099  11.163  0.4756 -0.0078 -0.3635
 2951SOL    HW120489   0.228   1.099  11.076 -1.7425 -0.1079 -1.4170
 2951SOL    HW220490   0.169   1.005  11.169  1.0699  0.0519  2.4085
 2952SOL     OW20491   4.401   1.663   6.948  0.0164  0.3581 -0.4728
 2952SOL    HW120492   4.469   1.610   6.992 -0.4346 -0.8293 -1.2026
 2952SOL    HW220493   4.431   1.642   6.860  0.7349  0.3514 -0.2282
 2953SOL     OW20494   1.651   2.511  11.016  0.4108 -0.2114  0.2943
 2953SOL    HW120495   1.582   2.465  10.969  0.6312  0.1676 -0.3929
 2953SOL    HW220496   1.684   2.576  10.954  0.0375 -0.0817  0.2329
 2954SOL     OW20497   3.114   3.465   7.751  0.1585  0.2299 -0.0877
 2954SOL    HW120498   3.053   3.392   7.755 -0.4951  0.7800  0.0990
 2954SOL    HW220499   3.140   3.451   7.660 -0.5816 -0.5373 -0.1728
 2955SOL     OW20500   3.322   4.086  14.562 -0.4341  0.0643 -0.0414
 2955SOL    HW120501   3.392   4.122  14.616 -2.6093  1.9931  1.4911
 2955SOL    HW220502   3.258   4.157  14.563 -0.3303  0.1329  2.0210
 2956SOL     OW20503   2.581   2.658  13.642 -0.1360  0.1716  0.2626
 2956SOL    HW120504   2.496   2.697  13.624 -1.0666 -1.4241  1.2660
 2956SOL    HW220505   2.616   2.719  13.707  1.7190 -0.1216 -0.4442
 2957SOL     OW20506   2.730   3.290   7.116 -0.1823 -0.4583 -0.1113
 2957SOL    HW120507   2.690   3.340   7.045  1.8629  1.1485 -0.1642
 2957SOL    HW220508   2.819   3.291   7.081 -1.1217  0.7432 -2.4786
 2958SOL     OW20509   3.960   3.004   7.921  0.1430 -0.1736  0.6288
 2958SOL    HW120510   3.879   2.962   7.894  1.7344 -1.1413 -2.6169
 2958SOL    HW220511   3.942   3.006   8.015  0.8413 -0.5433  0.7735
 2959SOL     OW20512   1.719   1.284  15.522 -0.2265  0.4173 -0.0712
 2959SOL    HW120513   1.650   1.220  15.506 -0.6229  0.8992 -0.2670
 2959SOL    HW220514   1.665   1.357  15.551 -4.4117 -2.8843  0.4754
 2960SOL     OW20515   1.891   1.762   7.495 -0.0411 -0.5300  0.3984
 2960SOL    HW120516   1.796   1.752   7.492  0.0230 -1.2567  0.8762
 2960SOL    HW220517   1.907   1.764   7.590 -0.8388 -0.4858  0.5283
 2961SOL     OW20518   1.791   1.505  15.190  0.3050 -0.7084 -0.5626
 2961SOL    HW120519   1.758   1.451  15.118  0.1601 -2.1121  0.5409
 2961SOL    HW220520   1.872   1.529  15.146  0.7593  0.4175  0.9009
 2962SOL     OW20521   3.668   0.878   6.809 -0.4775 -0.5571  0.2110
 2962SOL    HW120522   3.677   0.853   6.901 -2.3148 -3.1818 -0.3179
 2962SOL    HW220523   3.576   0.904   6.800 -0.6315 -1.1067  0.2355
 2963SOL     OW20524   1.882   0.035   8.733 -0.5016 -0.5399 -0.2603
 2963SOL    HW120525   1.913   0.019   8.644 -0.0765 -0.2026 -0.1719
 2963SOL    HW220526   1.943   0.102   8.764 -0.6238  0.4371 -2.0927
 2964SOL     OW20527   3.747   0.918   2.749 -0.4753  0.3239 -0.6108
 2964SOL    HW120528   3.820   0.865   2.717  0.6858  0.6962  1.3905
 2964SOL    HW220529   3.777   1.008   2.740 -0.5660  0.3419 -0.7309
 2965SOL     OW20530   0.951   3.768   7.662 -0.0528  0.0480  0.4665
 2965SOL    HW120531   1.002   3.741   7.739 -1.5745 -0.7525  1.2026
 2965SOL    HW220532   0.993   3.848   7.631 -0.3716 -0.0127 -0.1164
 2966SOL     OW20533   3.050   2.658  10.761  0.3415 -0.5587  0.0149
 2966SOL    HW120534   3.111   2.648  10.687  1.3084 -0.8888  0.8608
 2966SOL    HW220535   3.101   2.606  10.822 -0.6516 -1.2697  0.2515
 2967SOL     OW20536   3.718   0.376   1.647  0.0640  0.1940 -0.1721
 2967SOL    HW120537   3.796   0.326   1.624  1.1294  1.6481  0.2679
 2967SOL    HW220538   3.641   0.334   1.608  1.6238 -0.3164 -2.6669
 2968SOL     OW20539   0.273   0.448  11.299 -0.6358 -0.0017  0.0857
 2968SOL    HW120540   0.198   0.504  11.280  0.5024  1.3482 -0.3800
 2968SOL    HW220541   0.318   0.499  11.366  0.6216  1.1516 -1.6535
 2969SOL     OW20542   2.752   0.281   6.242 -0.4475 -0.1075  0.1181
 2969SOL    HW120543   2.817   0.310   6.307  1.4491 -0.8661 -1.4589
 2969SOL    HW220544   2.810   0.221   6.196  0.1321  1.9406 -1.7794
 2970SOL     OW20545   1.937   2.469   1.784 -0.0795  0.0130  0.1332
 2970SOL    HW120546   1.933   2.475   1.689  1.4524 -1.6236 -0.0209
 2970SOL    HW220547   2.027   2.503   1.785 -0.4980  1.1769 -0.9674
 2971SOL     OW20548   1.501   2.876   5.994 -0.8435 -0.4897  0.4328
 2971SOL    HW120549   1.500   2.963   6.034 -2.2358 -0.3426  0.0767
 2971SOL    HW220550   1.590   2.882   5.958 -1.2953  0.0848 -0.5752
 2972SOL     OW20551   2.233   1.632  13.601  0.0940  0.3451  0.1440
 2972SOL    HW120552   2.275   1.715  13.626 -1.4927  0.4329  2.4757
 2972SOL    HW220553   2.256   1.633  13.508 -0.3146  0.6783  0.0422
 2973SOL     OW20554   0.307   1.227   3.238  0.9564 -0.2087  0.1154
 2973SOL    HW120555   0.226   1.274   3.259  1.2155  0.5965 -0.6761
 2973SOL    HW220556   0.349   1.283   3.173  0.2914 -0.3785 -0.4623
 2974SOL     OW20557   1.987   1.363   5.031 -0.5165  0.2412  0.1101
 2974SOL    HW120558   1.990   1.350   4.936 -1.5603  0.0739  0.1054
 2974SOL    HW220559   1.908   1.316   5.057  0.9669 -1.4837  1.4362
 2975SOL     OW20560   2.240   2.503  14.160  0.3065  0.1378 -0.0955
 2975SOL    HW120561   2.288   2.581  14.188 -3.0509  2.2204 -0.1973
 2975SOL    HW220562   2.172   2.494  14.227  0.7290 -3.5584 -0.1417
 2976SOL     OW20563   0.871   3.705  12.005 -0.4931 -0.4136 -0.3368
 2976SOL    HW120564   0.936   3.753  11.953  0.0166 -0.1765  0.5346
 2976SOL    HW220565   0.831   3.664  11.928  1.7620 -1.4074 -0.9904
 2977SOL     OW20566   4.654   4.377   6.890  0.6745 -0.2937 -0.0928
 2977SOL    HW120567   4.609   4.438   6.832  0.9439  2.5243  2.6265
 2977SOL    HW220568   0.001   4.361   6.853 -0.0044  0.9864 -2.2182
 2978SOL     OW20569   2.020   1.751  17.031  0.0804 -0.0955  0.4684
 2978SOL    HW120570   2.015   1.739  16.937  1.4083  1.4025  0.2066
 2978SOL    HW220571   2.048   1.842  17.041 -0.5731  0.1239  0.2818
 2979SOL     OW20572   1.563   3.624   4.432 -0.3831 -0.0166  0.6538
 2979SOL    HW120573   1.549   3.687   4.361 -1.6727 -0.8635  0.1532
 2979SOL    HW220574   1.474   3.600   4.460 -1.0777  0.2037 -1.3745
 2980SOL     OW20575   3.839   3.275  13.749 -0.5835  0.5317  0.3096
 2980SOL    HW120576   3.928   3.275  13.715 -0.2532 -3.3401  1.2370
 2980SOL    HW220577   3.788   3.233  13.680  1.0614  2.2331 -1.9559
 2981SOL     OW20578   1.973   4.184   0.945  0.1474 -0.4718 -0.4660
 2981SOL    HW120579   2.038   4.241   0.986 -1.6071  1.3841 -0.2785
 2981SOL    HW220580   2.029   4.159   0.872  1.3976  1.8839 -0.3089
 2982SOL     OW20581   4.052   1.044   1.955 -0.2140  0.1522 -0.0015
 2982SOL    HW120582   4.047   1.097   1.876 -1.3837  2.3030  1.5141
 2982SOL    HW220583   4.109   1.093   2.015 -0.7424  0.6059  0.1268
 2983SOL     OW20584   1.223   4.076   1.028  0.0423 -0.5997 -0.3177
 2983SOL    HW120585   1.248   4.158   1.070  0.6860 -1.4170  0.8955
 2983SOL    HW220586   1.156   4.115   0.972 -0.1893 -0.1367  0.2800
 2984SOL     OW20587   2.869   0.901  12.931  0.0751 -0.1998  0.1235
 2984SOL    HW120588   2.874   0.909  12.836  1.5988  2.0449  0.3911
 2984SOL    HW220589   2.883   0.807  12.942  0.5932 -0.1244  0.1102
 2985SOL     OW20590   4.120   1.036   7.656 -0.3692 -0.0648 -0.1075
 2985SOL    HW120591   4.170   1.109   7.620  0.4957 -1.1172 -1.0419
 2985SOL    HW220592   4.148   0.962   7.602 -1.5775 -1.7347  1.5883
 2986SOL     OW20593   0.881   0.640   3.131 -0.1985 -0.5585  0.1782
 2986SOL    HW120594   0.960   0.587   3.121 -0.2045 -0.5539  0.1064
 2986SOL    HW220595   0.919   0.709   3.185  0.1918  0.1129 -0.9802
 2987SOL     OW20596   4.461   3.407   7.062 -0.6006 -0.8677 -0.3628
 2987SOL    HW120597   4.492   3.320   7.085  0.3689 -0.5146 -0.3594
 2987SOL    HW220598   4.372   3.406   7.098 -0.9834 -1.5511 -1.3395
 2988SOL     OW20599   4.560   2.686   0.625  0.1223  0.2271 -0.0303
 2988SOL    HW120600   4.547   2.781   0.619  2.2383  0.3980 -1.7917
 2988SOL    HW220601   4.537   2.679   0.718 -1.6137  1.0128 -0.4017
 2989SOL     OW20602   2.801   1.169  10.591  0.0389 -0.5174  0.0149
 2989SOL    HW120603   2.806   1.102  10.659  3.2583 -1.7532 -1.4195
 2989SOL    HW220604   2.781   1.105  10.522  0.9342  1.3063 -1.9207
 2990SOL     OW20605   3.430   0.642   3.289 -0.1462  0.3047 -0.4836
 2990SOL    HW120606   3.516   0.682   3.278  0.1523 -0.9619 -2.8925
 2990SOL    HW220607   3.451   0.549   3.294 -0.0584  0.3009 -0.9465
 2991SOL     OW20608   2.176   2.391   3.192  0.3970 -0.3891 -0.1804
 2991SOL    HW120609   2.240   2.452   3.229 -0.2202 -0.4115  0.9243
 2991SOL    HW220610   2.111   2.452   3.159  0.8967  0.1370 -0.1988
 2992SOL     OW20611   2.597   1.918   6.439  0.8041 -0.4623 -0.2489
 2992SOL    HW120612   2.615   1.837   6.486 -0.6713  0.0966  1.2831
 2992SOL    HW220613   2.628   1.887   6.354 -1.3139 -1.6909 -0.5764
 2993SOL     OW20614   2.821   4.402   3.298 -0.3275 -0.1970  0.4670
 2993SOL    HW120615   2.761   4.387   3.225  1.8602 -1.6875 -1.0689
 2993SOL    HW220616   2.911   4.396   3.265 -0.5422  0.3184 -0.2167
 2994SOL     OW20617   3.359   0.500   2.876  0.2888  0.0202  0.5627
 2994SOL    HW120618   3.306   0.421   2.878  2.1244 -1.2944 -2.0950
 2994SOL    HW220619   3.301   0.543   2.813  0.6730  0.1594  0.3012
 2995SOL     OW20620   1.679   2.916   5.446 -0.2723  0.0662 -0.0200
 2995SOL    HW120621   1.705   2.878   5.362  0.9744  2.2107 -0.5850
 2995SOL    HW220622   1.742   2.987   5.458 -0.1582  0.0771 -0.7136
 2996SOL     OW20623   3.344   1.767   6.995  0.4545  0.1655  0.0861
 2996SOL    HW120624   3.261   1.720   7.009 -0.2675  1.4122 -0.0082
 2996SOL    HW220625   3.370   1.710   6.923 -1.9080  0.5194 -1.0579
 2997SOL     OW20626   0.228   2.107   4.409 -0.0231 -0.0879  0.0105
 2997SOL    HW120627   0.257   2.025   4.449  1.0873 -0.5995 -1.8440
 2997SOL    HW220628   0.290   2.163   4.455 -0.1887 -0.4463  0.6665
 2998SOL     OW20629   4.263   3.448   4.530  0.0466  0.4295  0.3111
 2998SOL    HW120630   4.241   3.382   4.464 -1.1733  0.0086  1.1370
 2998SOL    HW220631   4.183   3.501   4.531  1.1215  2.1149 -2.3762
 2999SOL     OW20632   4.549   3.026   4.605  0.0896 -0.3082  0.6423
 2999SOL    HW120633   4.587   3.070   4.529 -3.5645  2.0516  0.1734
 2999SOL    HW220634   4.589   3.070   4.680  0.4592 -0.1849  0.3694
 3000SOL     OW20635   2.500   4.176   4.520  0.3259 -0.4947 -0.0973
 3000SOL    HW120636   2.467   4.257   4.479  0.1630 -1.7639 -2.5096
 3000SOL    HW220637   2.568   4.198   4.583  0.1223 -1.2632  0.3929
 3001SOL     OW20638   4.491   3.243   6.751  0.0509 -0.2723  0.1648
 3001SOL    HW120639   4.404   3.280   6.762 -0.2668 -1.2657  0.8749
 3001SOL    HW220640   4.478   3.159   6.794 -0.3809 -1.2720 -1.9192
 3002SOL     OW20641   1.206   1.356  17.393 -0.0284 -0.5539  0.9449
 3002SOL    HW120642   1.156   1.407  17.457 -0.2716 -0.4519  0.6712
 3002SOL    HW220643   1.290   1.390  17.422 -1.5399  3.1793  0.9896
 3003SOL     OW20644   4.106   1.770   8.519  0.4728  0.2087  0.1542
 3003SOL    HW120645   4.131   1.720   8.441 -1.6004  0.9787 -0.9840
 3003SOL    HW220646   4.120   1.704   8.587 -2.8984  1.3947  1.9922
 3004SOL     OW20647   4.324   1.404   5.065 -0.2290 -0.2348  0.0037
 3004SOL    HW120648   4.312   1.345   5.140  1.6283  0.8818  1.1893
 3004SOL    HW220649   4.413   1.433   5.084 -1.0020  0.8522  1.9586
 3005SOL     OW20650   0.851   4.615   3.722  0.1282 -0.0228  0.0217
 3005SOL    HW120651   0.781   4.654   3.774  0.1199 -0.6374  0.4714
 3005SOL    HW220652   0.802   4.552   3.669 -1.8213  0.3483  1.3672
 3006SOL     OW20653   0.804   1.086  14.132  0.3428  0.4702 -0.1322
 3006SOL    HW120654   0.851   1.108  14.212 -2.1757  1.5867  1.0411
 3006SOL    HW220655   0.865   1.110  14.062  0.7330 -1.5766 -0.4866
 3007SOL     OW20656   3.957   2.438   9.051 -0.6507 -0.2600  0.5458
 3007SOL    HW120657   3.884   2.390   9.011  1.4615 -1.3246 -2.0384
 3007SOL    HW220658   3.926   2.462   9.138 -1.3385 -0.4406  0.3489
 3008SOL     OW20659   2.606   3.225   2.415  0.2847  0.3542 -0.4548
 3008SOL    HW120660   2.629   3.192   2.502 -1.1650 -0.6920 -0.4754
 3008SOL    HW220661   2.589   3.317   2.436  0.8137  0.1411  0.9128
 3009SOL     OW20662   0.724   0.491  11.193  0.1034 -0.1228  0.8105
 3009SOL    HW120663   0.817   0.505  11.179 -0.3282  2.6308  0.7184
 3009SOL    HW220664   0.692   0.569  11.148 -0.2459  0.0249  1.3101
 3010SOL     OW20665   1.495   4.633  17.462  0.1357 -0.0571 -0.3887
 3010SOL    HW120666   1.591   4.644  17.460  0.0907  0.5030  1.0570
 3010SOL    HW220667   1.473   4.681  17.383  0.6098  1.3814  0.3598
 3011SOL     OW20668   0.057   2.945  10.828 -0.8395 -0.2495 -0.2156
 3011SOL    HW120669   0.145   2.910  10.841 -0.2799  0.6199 -1.5761
 3011SOL    HW220670   0.072   3.039  10.830 -3.2879  0.1968 -2.3863
 3012SOL     OW20671   2.584   4.689   5.961 -0.1300 -0.2022  0.1779
 3012SOL    HW120672   2.488   4.683   5.965 -0.1749  0.8173  0.6055
 3012SOL    HW220673   2.614   0.017   6.022 -2.3090  1.3924 -0.4835
 3013SOL     OW20674   3.304   3.529   5.529 -0.5092 -0.1067 -0.3939
 3013SOL    HW120675   3.390   3.553   5.494 -0.6477  0.9592 -0.0024
 3013SOL    HW220676   3.317   3.435   5.540  1.7346  0.1957 -0.5338
 3014SOL     OW20677   1.797   0.766   2.739 -0.2610  0.2765  0.0382
 3014SOL    HW120678   1.780   0.768   2.645  1.1989 -1.2830 -0.2505
 3014SOL    HW220679   1.781   0.859   2.751 -0.0155  0.1384  1.4212
 3015SOL     OW20680   3.506   2.210  16.162 -0.1154 -0.3775  0.0835
 3015SOL    HW120681   3.521   2.132  16.216  4.1467  1.5020  1.6110
 3015SOL    HW220682   3.537   2.184  16.076 -0.8739  0.0942 -0.3309
 3016SOL     OW20683   1.327   1.372   6.073 -0.5386  0.4225 -0.2035
 3016SOL    HW120684   1.319   1.375   5.978 -0.9116 -0.6827 -0.2016
 3016SOL    HW220685   1.310   1.278   6.077 -2.9279  0.8222 -0.9743
 3017SOL     OW20686   0.259   2.131   6.053  0.3957 -0.0872 -0.0055
 3017SOL    HW120687   0.236   2.038   6.047  2.9600 -0.4776 -4.3669
 3017SOL    HW220688   0.202   2.162   5.982 -0.6573 -1.1048  0.3993
 3018SOL     OW20689   3.794   2.119  11.190 -0.1827  0.1674 -0.6100
 3018SOL    HW120690   3.787   2.196  11.246  0.2257  1.2512 -2.0573
 3018SOL    HW220691   3.767   2.051  11.251 -0.3716  0.2603 -0.5879
 3019SOL     OW20692   1.992   0.043  12.834 -0.3244  0.3787  0.0959
 3019SOL    HW120693   2.084   0.022  12.848  0.4423  1.5757 -3.1805
 3019SOL    HW220694   1.956   4.694  12.836  0.0363  0.2680  1.6094
 3020SOL     OW20695   4.260   3.674   1.490 -0.6405  0.0194 -0.4538
 3020SOL    HW120696   4.318   3.742   1.523 -1.1299  0.4472 -0.4680
 3020SOL    HW220697   4.249   3.708   1.402  3.0762  0.3571 -0.7484
 3021SOL     OW20698   0.439   1.698   4.935 -0.2402  0.1681  0.0322
 3021SOL    HW120699   0.358   1.648   4.923  0.3529 -0.3155 -1.9218
 3021SOL    HW220700   0.503   1.634   4.906  0.8117  1.8737 -1.4024
 3022SOL     OW20701   3.205   4.543   8.331  0.4152  0.5620  0.2650
 3022SOL    HW120702   3.134   4.595   8.294  1.4273  0.8529 -1.2368
 3022SOL    HW220703   3.282   4.549   8.275  0.7925  1.9076  0.9241
 3023SOL     OW20704   1.083   3.469  17.539  0.3892 -0.0858 -0.5362
 3023SOL    HW120705   1.073   3.536  17.606 -0.1543 -0.6108 -0.0858
 3023SOL    HW220706   1.170   3.484  17.501  0.6945 -2.2443 -0.7026
 3024SOL     OW20707   2.895   3.836   5.139  0.4232 -0.1161  0.6119
 3024SOL    HW120708   2.903   3.875   5.052 -1.2176 -2.2500 -0.5119
 3024SOL    HW220709   2.802   3.853   5.158  0.6736  0.1274  1.6236
 3025SOL     OW20710   1.360   2.013  10.281  0.0469 -0.2133 -0.6452
 3025SOL    HW120711   1.357   2.075  10.208 -2.2314 -1.1692 -1.3779
 3025SOL    HW220712   1.339   1.934  10.231 -0.9820 -1.8377  2.2727
 3026SOL     OW20713   1.909   0.964   8.086  0.8451 -0.4565 -0.0733
 3026SOL    HW120714   1.899   1.038   8.146  1.5184 -1.3435  1.1374
 3026SOL    HW220715   1.930   0.901   8.154  0.0281 -1.4677 -0.7724
 3027SOL     OW20716   2.786   3.074   9.417 -0.1937 -0.4687  0.0419
 3027SOL    HW120717   2.716   3.055   9.480  0.9640  0.0896  1.5189
 3027SOL    HW220718   2.739   3.040   9.342  0.4586 -0.2158 -0.4839
 3028SOL     OW20719   0.574   4.184   6.015  0.3331 -0.1768 -0.4972
 3028SOL    HW120720   0.566   4.184   6.111 -0.2094  1.5791 -0.5532
 3028SOL    HW220721   0.669   4.177   6.019  0.4326  1.3934 -0.1348
 3029SOL     OW20722   4.107   4.088   6.501 -0.1990  0.4043 -0.5447
 3029SOL    HW120723   4.085   4.028   6.430 -0.4893  0.0820 -0.1796
 3029SOL    HW220724   4.131   4.034   6.576  1.1598  1.4070 -0.2618
 3030SOL     OW20725   3.478   1.324   6.059  0.7749  0.3502  0.1327
 3030SOL    HW120726   3.448   1.257   5.998  0.6474  1.1187 -0.6432
 3030SOL    HW220727   3.452   1.396   6.001 -2.4336  0.6029  1.8847
 3031SOL     OW20728   3.300   1.977  10.365  0.0648 -0.0481 -0.8093
 3031SOL    HW120729   3.215   1.996  10.404  0.1118  0.0790 -0.7696
 3031SOL    HW220730   3.340   1.952  10.448 -1.3385  0.4711  0.0210
 3032SOL     OW20731   2.034   1.134   4.152 -0.4398 -0.6337  0.3489
 3032SOL    HW120732   2.099   1.164   4.089 -0.5054 -0.4612  0.3658
 3032SOL    HW220733   2.044   1.195   4.225 -0.3507 -0.0414 -0.1595
 3033SOL     OW20734   2.772   2.332   2.094  0.0626  0.0943 -0.0745
 3033SOL    HW120735   2.791   2.357   2.184 -2.4959 -1.3118  0.8604
 3033SOL    HW220736   2.708   2.266   2.121 -1.6985  1.4010 -1.0908
 3034SOL     OW20737   1.773   3.773  16.462 -0.0921 -0.1818  0.8743
 3034SOL    HW120738   1.826   3.751  16.385 -0.5382  0.0830  0.4903
 3034SOL    HW220739   1.812   3.859  16.478  1.7923 -0.7267 -0.7802
 3035SOL     OW20740   2.152   0.059   7.076 -0.1298  0.1925 -0.2703
 3035SOL    HW120741   2.109   0.056   7.162 -0.6608 -2.0598 -0.6139
 3035SOL    HW220742   2.240   0.065   7.113 -0.2137 -3.0190  0.5239
 3036SOL     OW20743   3.262   0.989   0.149 -0.1000 -0.0763  0.7492
 3036SOL    HW120744   3.306   0.974   0.232 -1.0461 -0.1948  1.2348
 3036SOL    HW220745   3.263   0.901   0.112  1.6123 -0.2872  1.3394
 3037SOL     OW20746   3.989   0.242   2.941  0.2688  0.0471 -0.4442
 3037SOL    HW120747   3.931   0.275   3.010  0.7726  0.9978 -0.4814
 3037SOL    HW220748   4.012   0.150   2.953 -0.1651 -0.2186 -1.6323
 3038SOL     OW20749   2.615   1.440  17.382  0.0392  0.9932  0.9063
 3038SOL    HW120750   2.705   1.438  17.414 -0.0628 -1.1878  1.0738
 3038SOL    HW220751   2.593   1.530  17.406 -0.0785  1.1509  0.2093
 3039SOL     OW20752   3.079   1.844   7.689 -0.2597 -0.3263 -0.3647
 3039SOL    HW120753   3.034   1.860   7.606 -1.1007  2.0612  0.5285
 3039SOL    HW220754   3.168   1.826   7.661  0.9526  3.3339  1.0458
 3040SOL     OW20755   4.645   3.580   9.230 -0.1046 -0.6614 -0.0467
 3040SOL    HW120756   4.581   3.620   9.289 -0.7224 -2.8164  0.7445
 3040SOL    HW220757   4.726   3.601   9.275  1.1999 -1.2084 -2.1507
 3041SOL     OW20758   3.451   1.649   4.198  0.4322  0.3782 -0.1867
 3041SOL    HW120759   3.440   1.722   4.138 -1.9279  1.9685  2.1886
 3041SOL    HW220760   3.375   1.645   4.257  0.1121  1.1232 -0.5561
 3042SOL     OW20761   3.773   2.875   3.627  0.0024 -0.1387 -0.7590
 3042SOL    HW120762   3.684   2.908   3.612  0.4338  0.9337 -0.9207
 3042SOL    HW220763   3.827   2.939   3.582 -0.5665  0.3311 -0.7722
 3043SOL     OW20764   0.586   3.274   5.618 -0.2630  0.2079  0.0340
 3043SOL    HW120765   0.668   3.223   5.616  0.5949  1.6335 -0.9344
 3043SOL    HW220766   0.631   3.342   5.668  0.8144  0.4956 -1.3142
 3044SOL     OW20767   0.521   2.497   4.164  0.4774  0.3727  0.5303
 3044SOL    HW120768   0.494   2.448   4.087 -1.3337 -1.3188  2.2357
 3044SOL    HW220769   0.605   2.520   4.124  0.2192  2.8738  1.4368
 3045SOL     OW20770   1.882   2.411   3.834 -0.3001 -0.1648 -0.4889
 3045SOL    HW120771   1.957   2.440   3.885 -0.1998  0.0362 -0.7518
 3045SOL    HW220772   1.927   2.357   3.769 -1.3468 -1.4009 -0.1977
 3046SOL     OW20773   0.569   1.641  11.213  0.2529  0.5454 -0.4812
 3046SOL    HW120774   0.599   1.712  11.157 -0.2359 -0.1711 -1.6641
 3046SOL    HW220775   0.588   1.669  11.302 -2.3825  1.2990 -0.1600
 3047SOL     OW20776   3.068   0.774  12.087  0.2078  0.0199  0.1007
 3047SOL    HW120777   2.976   0.752  12.106  0.0927 -0.3157 -0.8036
 3047SOL    HW220778   3.092   0.688  12.051  1.1553 -0.8107  2.7614
 3048SOL     OW20779   4.123   4.543   3.280 -0.2305 -0.5559  0.8109
 3048SOL    HW120780   4.079   4.502   3.355  1.5106 -0.2712  1.9986
 3048SOL    HW220781   4.089   4.631   3.264  2.2866  0.0923 -0.9697
 3049SOL     OW20782   0.067   0.626  14.234 -0.2015  0.1329 -0.4408
 3049SOL    HW120783   0.063   0.532  14.215  2.1582 -0.0994  0.2879
 3049SOL    HW220784   0.160   0.647  14.235 -0.1759 -0.1001  1.8781
 3050SOL     OW20785   1.197   3.314   3.680 -0.8850  0.0844  0.2234
 3050SOL    HW120786   1.255   3.380   3.642  0.2727 -0.8227  0.4310
 3050SOL    HW220787   1.122   3.364   3.712  0.0405  0.5353  1.6806
 3051SOL     OW20788   0.293   1.479   4.810 -0.0307  0.1798 -0.4593
 3051SOL    HW120789   0.340   1.409   4.764  2.8126  1.8285 -0.0740
 3051SOL    HW220790   0.240   1.439   4.878 -0.8208  1.8943 -0.0656
 3052SOL     OW20791   2.887   2.625   1.987 -0.4270  0.1172 -0.1457
 3052SOL    HW120792   2.926   2.542   2.015  0.9365  1.1919  1.0867
 3052SOL    HW220793   2.935   2.694   2.032 -0.0295 -0.1324 -0.1896
 3053SOL     OW20794   4.501   0.594   3.157  0.0671  0.1395 -0.2152
 3053SOL    HW120795   4.541   0.520   3.203 -0.3952  0.2965  0.4488
 3053SOL    HW220796   4.539   0.574   3.072 -2.3728  0.2416 -1.3237
 3054SOL     OW20797   3.713   4.645   1.416 -0.0970 -0.0173  0.1868
 3054SOL    HW120798   3.735   4.726   1.370 -1.3710  0.1598 -0.1128
 3054SOL    HW220799   3.790   4.634   1.471  0.0654 -0.3817 -0.1144
 3055SOL     OW20800   0.378   0.041   8.369 -0.1483 -0.3975  0.3497
 3055SOL    HW120801   0.401   4.701   8.418  1.4327  0.5691  1.1880
 3055SOL    HW220802   0.298   0.068   8.415 -1.5116 -0.3377 -2.0445
 3056SOL     OW20803   3.105   2.823   9.055  0.2450  0.3641  0.4028
 3056SOL    HW120804   3.085   2.914   9.075  1.2008  0.4947  0.7954
 3056SOL    HW220805   3.189   2.846   9.015  1.6090 -3.4922  1.0400
 3057SOL     OW20806   2.875   4.232   9.201  0.3953  0.4419  0.0587
 3057SOL    HW120807   2.923   4.304   9.161 -0.9211 -0.1636 -2.6118
 3057SOL    HW220808   2.787   4.268   9.199 -0.8159 -2.5040 -0.6651
 3058SOL     OW20809   2.087   2.403   6.279 -0.1610 -0.2565 -0.4371
 3058SOL    HW120810   2.068   2.492   6.248  1.0467  0.2631  0.2723
 3058SOL    HW220811   2.002   2.361   6.284  1.0129 -2.2613  2.2969
 3059SOL     OW20812   0.166   3.201  10.866  0.2228  0.0378  0.1196
 3059SOL    HW120813   0.196   3.190  10.776 -0.6144 -1.0021 -0.0397
 3059SOL    HW220814   0.195   3.291  10.876 -0.3034  0.2675 -0.4155
 3060SOL     OW20815   4.279   1.407   7.864 -0.4576  0.2165 -0.1140
 3060SOL    HW120816   4.238   1.423   7.779  0.3945  0.0375 -0.5580
 3060SOL    HW220817   4.206   1.417   7.925  0.3429  1.7599  0.5979
 3061SOL     OW20818   1.934   0.848   9.947 -0.0755  0.2149  0.4580
 3061SOL    HW120819   1.915   0.904  10.022  0.7875  0.4796  0.4812
 3061SOL    HW220820   1.904   0.767   9.990 -2.6166  0.6970 -0.4370
 3062SOL     OW20821   4.364   2.164   7.259 -0.4760  0.2949 -0.0438
 3062SOL    HW120822   4.366   2.071   7.281 -2.6981  0.0599 -0.8173
 3062SOL    HW220823   4.453   2.171   7.226 -0.2118  0.6474  0.7527
 3063SOL     OW20824   4.537   2.706   4.905 -0.3567  0.1477  1.3046
 3063SOL    HW120825   4.448   2.721   4.875 -0.5096 -1.4554  0.9347
 3063SOL    HW220826   4.532   2.660   4.989  2.3524 -2.7301 -0.0753
 3064SOL     OW20827   4.280   0.071   5.741 -0.5951  0.3612 -0.1260
 3064SOL    HW120828   4.355   0.052   5.797 -1.1279  0.8812  0.7709
 3064SOL    HW220829   4.227   0.107   5.812 -1.1482  2.6325 -1.6761
 3065SOL     OW20830   0.667   2.081  16.406 -0.5403 -0.1819  0.1560
 3065SOL    HW120831   0.651   2.174  16.421  0.1464 -0.7963  4.5314
 3065SOL    HW220832   0.761   2.085  16.387 -0.0010 -0.1948  2.8270
 3066SOL     OW20833   1.937   1.694   9.172 -0.0412  0.0551  0.4343
 3066SOL    HW120834   1.914   1.784   9.147 -2.1782 -1.0335 -1.6203
 3066SOL    HW220835   2.031   1.702   9.159 -0.6922  3.9619 -2.0692
 3067SOL     OW20836   0.523   0.360   7.930  0.0107 -0.0763 -0.0003
 3067SOL    HW120837   0.614   0.382   7.913  0.1416  0.9088  1.9491
 3067SOL    HW220838   0.491   0.450   7.940 -0.8958 -0.3421 -0.5540
 3068SOL     OW20839   1.810   4.104   4.807 -0.1004  0.4661 -0.5651
 3068SOL    HW120840   1.901   4.124   4.831 -0.0653  0.3656 -0.6150
 3068SOL    HW220841   1.811   4.132   4.716  1.6651 -0.1090 -0.7225
 3069SOL     OW20842   2.876   1.445  12.183  0.0441 -0.9448 -0.3337
 3069SOL    HW120843   2.825   1.442  12.102  0.9947  0.5731 -1.0016
 3069SOL    HW220844   2.965   1.470  12.156  0.4735 -2.7756 -0.6420
 3070SOL     OW20845   1.910   0.377   9.222 -0.1909 -0.1740  0.8072
 3070SOL    HW120846   1.955   0.368   9.307 -0.7458  0.9537  1.2117
 3070SOL    HW220847   1.865   0.294   9.210  1.0705 -1.0102  1.7738
 3071SOL     OW20848   2.714   2.673   6.843  1.0211 -0.1222  0.1314
 3071SOL    HW120849   2.635   2.635   6.883  1.0280  0.1818  0.4270
 3071SOL    HW220850   2.755   2.682   6.929  0.0102  0.7741  0.5209
 3072SOL     OW20851   0.643   3.824  13.558  0.2140  0.3474 -0.5766
 3072SOL    HW120852   0.654   3.819  13.653  0.2859  1.5092 -0.5215
 3072SOL    HW220853   0.724   3.789  13.523 -0.2338 -0.7940 -0.4659
 3073SOL     OW20854   2.439   4.337   3.926 -0.1252  0.9177  0.3544
 3073SOL    HW120855   2.440   4.412   3.986 -1.2151  0.9539  0.3280
 3073SOL    HW220856   2.434   4.381   3.841 -1.2793  1.3794  0.6609
 3074SOL     OW20857   2.625   2.788   2.863 -0.9011 -0.2079 -0.2254
 3074SOL    HW120858   2.647   2.698   2.888  0.1475 -0.2458 -1.2444
 3074SOL    HW220859   2.609   2.780   2.769  1.2465 -1.9004 -0.4662
 3075SOL     OW20860   1.263   0.021   3.779  0.0160 -0.3956 -0.4846
 3075SOL    HW120861   1.240   0.049   3.867  0.3716  1.3825 -0.9395
 3075SOL    HW220862   1.318   0.096   3.755  1.7239 -1.4015  0.2745
 3076SOL     OW20863   2.300   1.625  10.936  0.4764 -0.1037  0.0153
 3076SOL    HW120864   2.249   1.695  10.896 -1.0926 -0.6687  0.9606
 3076SOL    HW220865   2.328   1.575  10.860  0.4035  0.4417 -0.3635
 3077SOL     OW20866   1.858   3.980   2.204  0.0593 -0.2807  0.2136
 3077SOL    HW120867   1.870   4.001   2.111  1.2844 -3.6164 -0.3909
 3077SOL    HW220868   1.797   3.906   2.205  0.4935 -0.6633 -1.1472
 3078SOL     OW20869   3.089   2.034   3.898 -0.0921  0.4876 -1.2520
 3078SOL    HW120870   3.148   2.038   3.973 -1.8477 -0.5299  0.1556
 3078SOL    HW220871   3.135   2.081   3.828  1.9101 -2.8948 -2.1921
 3079SOL     OW20872   3.254   4.150   8.601 -1.3125  0.6709  0.1183
 3079SOL    HW120873   3.297   4.225   8.560 -0.7291  1.5240  2.2541
 3079SOL    HW220874   3.313   4.076   8.586  0.8809  2.2242  1.0541
 3080SOL     OW20875   2.696   2.885  11.536  0.0296  0.3237  0.5157
 3080SOL    HW120876   2.717   2.797  11.564 -0.9031  0.1212  0.5926
 3080SOL    HW220877   2.746   2.889  11.455  2.3565 -1.5357  1.8872
 3081SOL     OW20878   0.764   0.535  16.356  0.3171 -0.5688 -0.1788
 3081SOL    HW120879   0.724   0.452  16.381 -0.9208  0.1318  0.1872
 3081SOL    HW220880   0.689   0.585  16.322  0.3698  1.1506  2.2571
 3082SOL     OW20881   3.212   2.040   4.159 -0.1393  0.1405  0.5756
 3082SOL    HW120882   3.271   2.115   4.172 -1.5318  1.3023  0.1867
 3082SOL    HW220883   3.154   2.046   4.235  0.6006 -0.7952  1.2258
 3083SOL     OW20884   1.539   3.266   9.979 -0.1864  0.2471  0.0215
 3083SOL    HW120885   1.472   3.229  10.037  1.0811 -1.0563  0.6524
 3083SOL    HW220886   1.608   3.290  10.041 -0.1857 -1.1532  0.5532
 3084SOL     OW20887   1.936   4.460   1.983 -0.0950 -0.1045 -0.2186
 3084SOL    HW120888   1.961   4.383   2.035  0.9237 -1.2665 -2.4218
 3084SOL    HW220889   1.893   4.429   1.903  1.3484 -0.2576 -0.9253
 3085SOL     OW20890   3.457   2.728   5.944 -0.1111 -0.4689  0.2238
 3085SOL    HW120891   3.423   2.727   5.855 -1.3353  3.3105  0.6616
 3085SOL    HW220892   3.535   2.782   5.939 -0.1257 -0.3137  1.4605
 3086SOL     OW20893   1.720   4.243   8.460  0.1299 -0.0728 -0.7472
 3086SOL    HW120894   1.646   4.256   8.401  0.7323 -2.4679 -2.0590
 3086SOL    HW220895   1.695   4.155   8.487  3.1402 -0.8480 -0.4465
 3087SOL     OW20896   0.884   2.417   1.517 -0.0097 -0.1951 -0.2165
 3087SOL    HW120897   0.931   2.404   1.599 -0.4185  3.4967  0.6203
 3087SOL    HW220898   0.945   2.468   1.463 -1.3441  0.6618 -0.9295
 3088SOL     OW20899   1.731   1.216   1.530  0.9101 -0.3781  0.4702
 3088SOL    HW120900   1.639   1.217   1.504  1.2649  1.6060 -0.7136
 3088SOL    HW220901   1.745   1.311   1.529  1.3273 -0.4594 -1.2425
 3089SOL     OW20902   1.583   4.239   5.704 -0.3080  0.6791  0.0569
 3089SOL    HW120903   1.610   4.206   5.618 -3.1310  0.8675 -0.9347
 3089SOL    HW220904   1.658   4.296   5.721  1.6218 -0.7982 -3.4081
 3090SOL     OW20905   0.720   3.036   1.461 -0.1614  0.4532  0.7312
 3090SOL    HW120906   0.693   3.125   1.438 -2.3321 -0.2509  0.5120
 3090SOL    HW220907   0.734   2.992   1.377  0.7880  1.4874  0.3516
 3091SOL     OW20908   4.016   1.544  10.490  0.0043 -0.0353  0.3163
 3091SOL    HW120909   4.022   1.535  10.395 -1.6507 -3.0123  0.5122
 3091SOL    HW220910   4.058   1.461  10.511 -0.7871 -0.2098  1.1866
 3092SOL     OW20911   2.867   0.696   6.298  0.4894 -0.4619 -0.0502
 3092SOL    HW120912   2.928   0.687   6.225  0.7992 -2.2709  0.4147
 3092SOL    HW220913   2.926   0.697   6.374  1.6007  0.4974 -0.9330
 3093SOL     OW20914   3.309   2.451  13.451 -0.2554 -0.7121 -0.1696
 3093SOL    HW120915   3.344   2.517  13.511 -0.4635  0.4765 -1.3490
 3093SOL    HW220916   3.217   2.457  13.475  0.0282 -0.7316  0.9408
 3094SOL     OW20917   3.984   2.832   0.729 -0.1838 -0.6038 -0.1811
 3094SOL    HW120918   3.902   2.866   0.765  0.3272 -0.6941  1.0801
 3094SOL    HW220919   4.050   2.836   0.799  0.9904  2.7131 -1.4384
 3095SOL     OW20920   2.359   2.231  15.451 -0.1880  0.2937 -0.3393
 3095SOL    HW120921   2.393   2.233  15.361 -1.5836 -0.4522 -0.8983
 3095SOL    HW220922   2.429   2.183  15.494 -0.1466  1.3445  0.7577
 3096SOL     OW20923   1.883   1.941   4.742  0.1992  0.1110  0.3589
 3096SOL    HW120924   1.947   1.954   4.673  0.9938  0.0937  1.0961
 3096SOL    HW220925   1.872   1.847   4.732  1.8366  0.1088 -1.4237
 3097SOL     OW20926   1.751   4.452   9.479  0.1849  0.1440  0.0586
 3097SOL    HW120927   1.731   4.364   9.511 -1.8524  0.0310 -1.5052
 3097SOL    HW220928   1.763   4.428   9.387 -1.7270 -0.0531 -0.1495
 3098SOL     OW20929   2.578   0.791  13.077  0.1734 -0.0730  0.1417
 3098SOL    HW120930   2.519   0.743  13.135 -0.7506  2.3302  1.2103
 3098SOL    HW220931   2.517   0.827  13.013 -0.3421  2.0604  1.8266
 3099SOL     OW20932   4.458   1.940  15.567 -0.3666  0.1884 -0.5750
 3099SOL    HW120933   4.497   2.001  15.630 -0.9846  0.5347 -0.5326
 3099SOL    HW220934   4.500   1.974  15.488  0.5619 -1.0204 -0.6077
 3100SOL     OW20935   2.572   2.059   8.650 -0.2143  0.4742 -0.0191
 3100SOL    HW120936   2.606   2.010   8.575 -1.3243 -1.1042  0.5064
 3100SOL    HW220937   2.648   2.112   8.673 -0.5624  1.1122 -0.3202
 3101SOL     OW20938   2.930   0.623   7.072 -0.0594  0.8984 -0.1998
 3101SOL    HW120939   2.837   0.602   7.062  0.3582 -1.0818  0.1122
 3101SOL    HW220940   2.962   0.570   6.999  0.2991  0.9449 -0.0766
 3102SOL     OW20941   3.168   0.607  14.016  0.8850 -0.0260 -0.0194
 3102SOL    HW120942   3.208   0.639  14.096  0.4925  2.4861 -0.8352
 3102SOL    HW220943   3.188   0.681  13.959  0.9020 -0.1379 -0.1597
 3103SOL     OW20944   1.544   4.592  15.491  1.0590 -0.3750  0.1834
 3103SOL    HW120945   1.585   4.659  15.436  0.7747  0.5950  1.1508
 3103SOL    HW220946   1.527   4.519  15.432  0.0050 -1.3847  1.7578
 3104SOL     OW20947   4.501   2.091   5.710 -0.2761 -0.5011  0.8257
 3104SOL    HW120948   4.509   2.075   5.804 -0.7056  3.0589  1.4492
 3104SOL    HW220949   4.414   2.131   5.708 -1.0890 -2.3290 -0.9365
 3105SOL     OW20950   2.761   2.621  12.945  0.3020 -0.3703  0.2760
 3105SOL    HW120951   2.834   2.633  12.884  0.8783  1.0975  1.2589
 3105SOL    HW220952   2.770   2.526  12.950 -0.0226 -0.4172 -0.0745
 3106SOL     OW20953   1.945   0.056   5.831 -0.6796 -0.2456  0.1743
 3106SOL    HW120954   2.037   0.078   5.818 -0.6020  0.7832  2.4642
 3106SOL    HW220955   1.914   0.144   5.850  2.0162 -0.0295  3.5043
 3107SOL     OW20956   2.673   3.285   0.284  0.2589  0.2537 -0.0155
 3107SOL    HW120957   2.643   3.376   0.295 -1.6012 -0.1476 -1.8059
 3107SOL    HW220958   2.747   3.297   0.343 -0.0286 -0.7592  0.5482
 3108SOL     OW20959   2.427   3.347  12.265  0.5508  0.3083 -0.1719
 3108SOL    HW120960   2.489   3.280  12.235  1.7648  0.2055  2.6130
 3108SOL    HW220961   2.410   3.382  12.177  0.1970 -0.6692 -0.4885
 3109SOL     OW20962   1.808   2.017   3.550  0.0012  0.4555 -0.0373
 3109SOL    HW120963   1.723   1.980   3.526 -0.4363  3.3405 -3.0911
 3109SOL    HW220964   1.862   1.975   3.483 -1.7370 -1.3655 -0.3038
 3110SOL     OW20965   1.923   0.037   9.989 -0.2464  0.1937  0.0370
 3110SOL    HW120966   1.920   0.007   9.898  0.4491  1.9156 -0.5688
 3110SOL    HW220967   1.963   0.123   9.975  0.1221  0.0256  0.0543
 3111SOL     OW20968   3.220   0.244   7.116 -0.0543 -0.5195 -0.5919
 3111SOL    HW120969   3.262   0.330   7.114 -1.4920  0.1513 -2.1855
 3111SOL    HW220970   3.128   0.257   7.143  0.5094 -0.9899  1.5739
 3112SOL     OW20971   0.733   1.251  16.867  0.1093 -0.8129  0.5432
 3112SOL    HW120972   0.654   1.278  16.819  0.7035 -0.7293 -0.4036
 3112SOL    HW220973   0.780   1.212  16.793  1.4170 -0.2447  1.0815
 3113SOL     OW20974   1.452   3.559  16.184  0.3218 -0.1575  0.2536
 3113SOL    HW120975   1.385   3.544  16.117 -3.1364  1.2383  3.4031
 3113SOL    HW220976   1.504   3.478  16.183  0.9913  0.2770 -2.5791
 3114SOL     OW20977   4.188   2.275  16.368  0.3935 -0.5014  0.4234
 3114SOL    HW120978   4.140   2.308  16.292  1.0911  1.5384  0.8777
 3114SOL    HW220979   4.124   2.276  16.439  2.0148  1.9749  1.8410
 3115SOL     OW20980   1.427   2.600   7.924  0.2976 -0.1802 -0.2164
 3115SOL    HW120981   1.360   2.664   7.947  0.2873 -0.7775  1.4120
 3115SOL    HW220982   1.499   2.652   7.889 -1.0022  1.5053 -0.3435
 3116SOL     OW20983   4.201   3.314   9.866 -0.1456  0.3119 -0.0357
 3116SOL    HW120984   4.209   3.381   9.799 -0.5228 -0.2181 -0.6041
 3116SOL    HW220985   4.223   3.371   9.940 -1.3684  0.2915  0.3284
 3117SOL     OW20986   0.814   0.160  11.378  0.1850  0.1832 -0.2678
 3117SOL    HW120987   0.804   0.139  11.471 -1.6149 -1.5198 -0.8322
 3117SOL    HW220988   0.772   0.246  11.382  2.6729  1.4009 -0.3046
 3118SOL     OW20989   1.660   2.094   4.224 -0.6705  0.5697  0.3426
 3118SOL    HW120990   1.734   2.148   4.196 -1.1174  1.4954  0.9615
 3118SOL    HW220991   1.663   2.110   4.318 -1.3959  2.6946  0.0005
 3119SOL     OW20992   3.143   3.452   2.865 -0.0931  0.5312  0.2021
 3119SOL    HW120993   3.056   3.438   2.826 -0.0313 -0.7861  0.5201
 3119SOL    HW220994   3.160   3.362   2.894  0.3366 -0.2003 -2.3042
 3120SOL     OW20995   2.167   1.455   2.458  0.2213  0.0021 -0.0368
 3120SOL    HW120996   2.195   1.424   2.372 -1.5591  0.4564 -0.7632
 3120SOL    HW220997   2.209   1.541   2.464  1.3766 -0.5672  0.0233
 3121SOL     OW20998   4.622   2.889   5.693  0.8443  0.8833 -0.3441
 3121SOL    HW120999   4.687   2.845   5.639 -0.2746 -1.6426  0.3520
 3121SOL    HW221000   4.561   2.816   5.682 -3.2043  4.5637 -2.1707
 3122SOL     OW21001   4.257   4.489   4.119  0.0469  0.1717 -0.7484
 3122SOL    HW121002   4.314   4.464   4.047  1.3701 -0.5875  0.5777
 3122SOL    HW221003   4.311   4.475   4.196 -1.3626 -3.9854 -0.5599
 3123SOL     OW21004   2.442   0.778   8.359  0.5763  0.5400  0.2268
 3123SOL    HW121005   2.463   0.820   8.275 -1.2933  0.1353 -0.4284
 3123SOL    HW221006   2.509   0.823   8.411 -0.2588  1.6157  0.3770
 3124SOL     OW21007   4.313   3.642   0.367  0.3868  0.5714  0.2842
 3124SOL    HW121008   4.282   3.664   0.279 -2.6286 -0.2117  1.1627
 3124SOL    HW221009   4.236   3.664   0.420  0.7518  2.5928 -0.0197
 3125SOL     OW21010   1.609   1.282   1.207 -0.2594  0.3030  0.2009
 3125SOL    HW121011   1.566   1.337   1.273  0.0333  0.8323 -0.0555
 3125SOL    HW221012   1.557   1.294   1.127  3.1405  0.2670 -2.0048
 3126SOL     OW21013   1.323   4.111   9.295  0.1317  0.0346  0.0540
 3126SOL    HW121014   1.253   4.147   9.350 -0.4932 -1.6475  0.3673
 3126SOL    HW221015   1.288   4.144   9.212 -1.3407  0.3063  0.7671
 3127SOL     OW21016   3.298   2.945   2.397 -0.3634  0.4883 -0.0926
 3127SOL    HW121017   3.259   2.867   2.436  3.0989 -1.0434  0.2976
 3127SOL    HW221018   3.315   2.984   2.483  0.2558 -0.6226  0.2948
 3128SOL     OW21019   0.982   1.313  17.257 -0.3258 -0.1190 -0.3415
 3128SOL    HW121020   1.047   1.305  17.327 -1.8529 -0.5871  1.0317
 3128SOL    HW221021   1.003   1.234  17.206  0.8861 -1.4758  2.2268
 3129SOL     OW21022   2.189   1.158   5.539 -0.0599  0.2572  0.2795
 3129SOL    HW121023   2.171   1.065   5.524  0.5509 -0.0352  1.3533
 3129SOL    HW221024   2.143   1.205   5.469  0.0547  1.2356  0.8647
 3130SOL     OW21025   4.135   3.827  13.039  0.0337  0.0777 -0.0197
 3130SOL    HW121026   4.208   3.886  13.018  1.2034 -1.0784  0.7901
 3130SOL    HW221027   4.182   3.745  13.048  1.2278  0.9352  1.5266
 3131SOL     OW21028   1.519   0.730  10.483 -0.2390  0.5641 -0.0415
 3131SOL    HW121029   1.545   0.667  10.550 -0.8429 -0.7405 -1.0454
 3131SOL    HW221030   1.430   0.706  10.458 -0.0989 -0.8356  0.8162
 3132SOL     OW21031   0.088   2.250   2.554 -0.2255 -0.4362  0.0231
 3132SOL    HW121032   0.105   2.158   2.573  0.9852  0.6992  4.4265
 3132SOL    HW221033   4.732   2.252   2.569 -0.1018  0.2045  0.7397
 3133SOL     OW21034   0.240   3.273   4.875 -0.0388  0.2056  0.9145
 3133SOL    HW121035   0.248   3.178   4.868 -1.3988  0.0595  1.2245
 3133SOL    HW221036   0.268   3.301   4.788  0.8472  1.6382  1.6543
 3134SOL     OW21037   0.495   3.634   5.421  0.4384 -0.4195 -0.0406
 3134SOL    HW121038   0.528   3.628   5.511 -1.9780  1.5459  0.9785
 3134SOL    HW221039   0.426   3.568   5.423 -0.4334  0.4624 -0.8657
 3135SOL     OW21040   2.060   0.490   4.820  0.1909  0.1708 -0.1786
 3135SOL    HW121041   2.027   0.520   4.905 -0.7017 -0.4286 -0.3148
 3135SOL    HW221042   2.010   0.538   4.754  0.2276  0.2316 -0.1619
 3136SOL     OW21043   1.833   0.465   8.646  0.2648  0.3715  1.0442
 3136SOL    HW121044   1.774   0.407   8.695  0.4890 -1.1581 -0.5094
 3136SOL    HW221045   1.909   0.472   8.705 -0.3433  0.4412  1.8190
 3137SOL     OW21046   1.860   2.661   8.685  0.6240  0.4532  0.6526
 3137SOL    HW121047   1.813   2.610   8.750  1.2198 -1.8813 -0.7238
 3137SOL    HW221048   1.848   2.751   8.715 -0.9036 -0.0442  1.5089
 3138SOL     OW21049   2.083   2.412   7.695 -0.1428  0.0758 -0.8322
 3138SOL    HW121050   2.083   2.463   7.776 -0.4259  0.7520 -1.2646
 3138SOL    HW221051   2.125   2.330   7.721 -0.4346 -0.2111 -1.2614
 3139SOL     OW21052   1.367   0.434   2.960 -0.3943  0.5799  0.0442
 3139SOL    HW121053   1.396   0.499   2.896 -1.4899  1.0329  0.0138
 3139SOL    HW221054   1.439   0.441   3.022  2.1486 -0.2238 -2.7910
 3140SOL     OW21055   4.311   0.492  13.119  0.3679 -0.3295  0.0691
 3140SOL    HW121056   4.352   0.440  13.189  0.5172  0.3404  0.4855
 3140SOL    HW221057   4.275   0.416  13.075  1.3060 -1.4024  1.1419
 3141SOL     OW21058   4.434   1.562   0.540 -0.3166  0.3672  0.2929
 3141SOL    HW121059   4.477   1.643   0.512  0.5167  0.2512  1.2223
 3141SOL    HW221060   4.342   1.567   0.512  0.1886  0.7987 -1.2970
 3142SOL     OW21061   4.474   0.782   3.776  0.3563 -0.2060 -0.2054
 3142SOL    HW121062   4.515   0.724   3.713 -0.0831 -0.3467 -0.3617
 3142SOL    HW221063   4.384   0.758   3.798  1.0909 -2.5362  0.2787
 3143SOL     OW21064   4.145   2.034   8.474 -0.9238 -0.3361  0.5478
 3143SOL    HW121065   4.107   1.948   8.492 -0.2529 -0.4455  1.4378
 3143SOL    HW221066   4.239   2.015   8.471 -1.1703 -1.8538  2.5480
 3144SOL     OW21067   3.658   4.261  16.643 -0.2943 -0.4030 -0.3208
 3144SOL    HW121068   3.737   4.228  16.685  0.7558 -0.3942 -2.2884
 3144SOL    HW221069   3.707   4.312  16.579 -0.2976 -0.3332 -0.2678
 3145SOL     OW21070   2.319   0.713  11.727 -0.0486 -0.1376 -0.0895
 3145SOL    HW121071   2.365   0.788  11.765  1.2533 -1.8547  1.7090
 3145SOL    HW221072   2.384   0.688  11.661 -2.7405 -2.0500 -2.0162
 3146SOL     OW21073   2.783   4.708   2.364  0.2896 -0.4341  0.0830
 3146SOL    HW121074   2.757   0.060   2.356 -1.6893 -0.9878  0.1237
 3146SOL    HW221075   2.810   4.680   2.277  3.7313  1.8818  0.4469
 3147SOL     OW21076   4.655   2.962   4.948 -0.0471  0.0641 -0.2355
 3147SOL    HW121077   4.595   2.904   4.902  0.7579 -0.3646 -0.7501
 3147SOL    HW221078   4.727   2.974   4.886 -0.8254  0.3370 -1.0723
 3148SOL     OW21079   0.465   2.135  10.654  0.2115  0.0514  0.2008
 3148SOL    HW121080   0.526   2.132  10.729  1.6639  2.6594 -0.8790
 3148SOL    HW221081   0.525   2.160  10.583  1.5137  1.8821  1.9421
 3149SOL     OW21082   0.519   4.522   2.053  0.0926  0.0266  0.2238
 3149SOL    HW121083   0.432   4.487   2.035  0.6506 -1.3366  0.1320
 3149SOL    HW221084   0.512   4.579   2.129 -2.8750 -0.4366  0.2956
 3150SOL     OW21085   0.978   3.036   1.619  0.5746 -0.1727  0.0551
 3150SOL    HW121086   0.890   3.023   1.582  0.9413 -2.0430 -0.1350
 3150SOL    HW221087   0.973   3.128   1.646  1.5193  0.2151 -1.0504
 3151SOL     OW21088   2.596   0.439   8.859  0.1841 -0.2356  0.3241
 3151SOL    HW121089   2.605   0.352   8.897  0.9933 -0.0978  0.4359
 3151SOL    HW221090   2.530   0.413   8.794 -0.2791  1.2502  0.2151
 3152SOL     OW21091   3.592   0.402   4.191  0.2596  0.2451 -0.2022
 3152SOL    HW121092   3.555   0.379   4.106 -0.3855 -1.1305  0.4540
 3152SOL    HW221093   3.530   0.469   4.218  1.5702  1.2062  0.4022
 3153SOL     OW21094   3.114   1.301   3.601  0.4212 -0.1989  0.4763
 3153SOL    HW121095   3.089   1.392   3.585  2.4399  0.2470 -0.1010
 3153SOL    HW221096   3.079   1.296   3.690  0.4089  1.7970  0.5940
 3154SOL     OW21097   4.609   0.297   4.313  0.3352  0.5067 -0.4323
 3154SOL    HW121098   4.637   0.379   4.273  0.0970  1.7608  1.9433
 3154SOL    HW221099   4.650   0.311   4.399  0.3580  0.7803 -0.4880
 3155SOL     OW21100   4.181   3.194   1.335 -0.0608  0.1699  0.1387
 3155SOL    HW121101   4.273   3.176   1.356 -0.3002  1.2288  2.1124
 3155SOL    HW221102   4.165   3.274   1.385 -1.4361  0.1861 -0.3318
 3156SOL     OW21103   0.824   2.692   1.402 -0.6209 -0.1158 -0.3498
 3156SOL    HW121104   0.776   2.756   1.350  0.9804 -0.4721 -2.2945
 3156SOL    HW221105   0.758   2.663   1.464  2.3372 -1.1518  2.3272
 3157SOL     OW21106   2.802   3.176   3.548 -0.1466  0.5486  0.6632
 3157SOL    HW121107   2.724   3.122   3.555 -0.1892  0.5238 -0.0451
 3157SOL    HW221108   2.854   3.136   3.617  0.8805 -1.2285 -1.1460
 3158SOL     OW21109   3.704   1.473   2.145  0.2028  0.0022  0.1644
 3158SOL    HW121110   3.650   1.547   2.173 -0.6611 -0.4554 -0.2825
 3158SOL    HW221111   3.775   1.492   2.206 -0.7603 -0.4226  1.4271
 3159SOL     OW21112   1.277   1.765   9.757 -0.4354  0.1002 -0.7081
 3159SOL    HW121113   1.284   1.686   9.704  1.5907 -1.2206  1.4894
 3159SOL    HW221114   1.343   1.815   9.709  3.1349 -2.0868  1.9158
 3160SOL     OW21115   3.876   2.123   9.928  0.4182  0.0807  0.1767
 3160SOL    HW121116   3.785   2.129   9.956  0.3947  0.5212  0.0065
 3160SOL    HW221117   3.917   2.208   9.942  0.0408  0.5413 -1.5868
 3161SOL     OW21118   4.526   0.231   8.763  0.3679  0.0778  0.1933
 3161SOL    HW121119   4.448   0.248   8.815  0.6665  1.3249  0.2315
 3161SOL    HW221120   4.582   0.229   8.841  0.8894  0.6117 -0.1731
 3162SOL     OW21121   1.007   4.065   2.043 -0.3016  0.3252  0.4325
 3162SOL    HW121122   0.935   4.004   2.027 -0.4901  0.1079  2.1017
 3162SOL    HW221123   0.980   4.129   1.978 -0.2648 -2.3137 -2.2064
 3163SOL     OW21124   4.307   1.072   3.123 -0.3727 -0.0952  0.2758
 3163SOL    HW121125   4.368   1.127   3.172  0.2535  0.0046 -0.6153
 3163SOL    HW221126   4.235   1.130   3.098 -2.7982 -2.7196  1.2110
 3164SOL     OW21127   0.523   2.717   8.040 -0.1143  0.1716  0.2641
 3164SOL    HW121128   0.537   2.647   7.976 -2.3123  0.4949 -0.5536
 3164SOL    HW221129   0.554   2.669   8.116 -1.7935 -0.1831  0.7186
 3165SOL     OW21130   1.590   1.101   4.409 -0.3441  0.1527  0.4005
 3165SOL    HW121131   1.669   1.149   4.383 -2.4882  2.1454 -2.4331
 3165SOL    HW221132   1.616   1.010   4.421  2.5536  1.0231  0.7274
 3166SOL     OW21133   1.438   2.032   1.937  0.4766  0.0439  0.1317
 3166SOL    HW121134   1.366   2.073   1.985 -0.3212 -1.0173 -0.1481
 3166SOL    HW221135   1.450   2.102   1.872 -1.9341  0.3419  0.0140
 3167SOL     OW21136   1.217   1.661   4.376  0.2156  0.5037  0.6316
 3167SOL    HW121137   1.150   1.727   4.356 -0.4348 -0.1193  0.7491
 3167SOL    HW221138   1.271   1.724   4.423  1.6859 -0.0040 -0.3775
 3168SOL     OW21139   1.763   4.151   5.501 -0.2764 -0.1542 -0.7258
 3168SOL    HW121140   1.733   4.061   5.518  0.7400 -0.7022 -1.8077
 3168SOL    HW221141   1.827   4.147   5.430 -1.5562 -0.0262 -1.8824
 3169SOL     OW21142   3.117   1.894   3.204  0.3634 -0.2141 -0.1859
 3169SOL    HW121143   3.104   1.801   3.220 -1.7148  0.4008  1.6041
 3169SOL    HW221144   3.026   1.919   3.219  0.7415  0.2585  1.2867
 3170SOL     OW21145   2.798   1.003   5.325 -0.0124 -0.1745  0.0975
 3170SOL    HW121146   2.854   1.063   5.375 -1.4692 -0.4732  2.0805
 3170SOL    HW221147   2.759   1.058   5.257  0.2892 -1.2503 -0.9379
 3171SOL     OW21148   3.981   3.457  13.529  0.1235 -0.2117 -0.2139
 3171SOL    HW121149   4.042   3.436  13.600  0.2532 -0.5846 -0.4369
 3171SOL    HW221150   3.908   3.486  13.584  1.7881  0.8585  1.4371
 3172SOL     OW21151   3.801   3.269   4.016 -0.0245 -0.4377  1.0582
 3172SOL    HW121152   3.709   3.264   4.042 -0.9292  2.6574 -1.5262
 3172SOL    HW221153   3.852   3.273   4.097  1.7467  2.5803 -0.2145
 3173SOL     OW21154   3.584   0.685  10.986  0.1423 -0.2088 -0.3839
 3173SOL    HW121155   3.548   0.702  10.899  0.4105  0.9654 -0.2642
 3173SOL    HW221156   3.508   0.647  11.030 -0.6151  3.0985  1.1399
 3174SOL     OW21157   3.625   3.987  16.785 -0.2782  0.1413 -0.1739
 3174SOL    HW121158   3.643   4.014  16.875 -2.2771  0.8039  0.0227
 3174SOL    HW221159   3.704   4.021  16.744  0.9784 -0.5482  1.6971
 3175SOL     OW21160   0.882   0.760  12.257  0.0607  0.2561  0.1144
 3175SOL    HW121161   0.974   0.758  12.284  0.1559 -2.3382 -0.3873
 3175SOL    HW221162   0.900   0.787  12.167 -1.5965 -1.5325 -0.7663
 3176SOL     OW21163   0.044   0.957   9.640  0.1546 -0.4407 -0.9984
 3176SOL    HW121164   4.707   0.921   9.596  0.5665 -3.4778  0.8083
 3176SOL    HW221165   0.011   1.010   9.713  0.7749 -0.3115 -0.8043
 3177SOL     OW21166   2.450   3.362  11.994 -0.3499 -0.0743  0.2784
 3177SOL    HW121167   2.432   3.401  11.908  1.0958  0.4929  0.2339
 3177SOL    HW221168   2.515   3.294  11.975 -0.4182  0.0788 -0.5145
 3178SOL     OW21169   4.314   2.803   1.383  0.6942 -0.1760  0.2885
 3178SOL    HW121170   4.232   2.851   1.394  1.0449  0.4882 -0.0076
 3178SOL    HW221171   4.327   2.830   1.292  1.5346  0.1015  0.4936
 3179SOL     OW21172   2.344   1.611   5.535  0.1161 -0.9384  0.8148
 3179SOL    HW121173   2.304   1.677   5.592 -1.4031  0.4265 -1.8100
 3179SOL    HW221174   2.277   1.586   5.471  0.4469 -2.7250  1.1670
 3180SOL     OW21175   3.947   2.006   4.781  0.1072 -0.4981 -0.2977
 3180SOL    HW121176   3.880   2.072   4.764  0.0390 -0.4777  0.0641
 3180SOL    HW221177   4.020   2.059   4.811 -1.0425  0.6714  0.4118
 3181SOL     OW21178   1.266   0.585   3.874  0.7734  0.8464 -0.2131
 3181SOL    HW121179   1.275   0.509   3.930  1.0083  0.8956 -0.1853
 3181SOL    HW221180   1.180   0.619   3.900 -1.1051 -2.2877 -2.3597
 3182SOL     OW21181   2.630   1.870   2.723 -0.4504  0.1728 -0.1461
 3182SOL    HW121182   2.640   1.776   2.733 -0.3910  0.2408  0.4534
 3182SOL    HW221183   2.540   1.884   2.754 -0.3877  0.7983 -0.2398
 3183SOL     OW21184   3.577   4.310   8.083 -0.0806  0.3662  0.3539
 3183SOL    HW121185   3.591   4.303   7.989 -1.7776  0.9731  0.0576
 3183SOL    HW221186   3.663   4.285   8.119  0.3418  1.9368  0.4440
 3184SOL     OW21187   0.929   3.790  13.501 -0.4688 -0.6599 -0.3394
 3184SOL    HW121188   1.017   3.758  13.525 -0.4574 -1.0812 -0.9345
 3184SOL    HW221189   0.930   3.882  13.527 -0.1653 -1.1233  1.3125
 3185SOL     OW21190   2.465   0.317   4.683 -0.5489 -0.1933  0.0153
 3185SOL    HW121191   2.379   0.286   4.713 -1.4581  3.7947  1.4560
 3185SOL    HW221192   2.452   0.407   4.656  1.2588  0.2697  0.6836
 3186SOL     OW21193   1.928   4.698   4.619  0.1246  0.7329 -0.6267
 3186SOL    HW121194   1.945   4.674   4.528  0.6715 -1.1855 -0.0377
 3186SOL    HW221195   1.834   4.686   4.611  0.3759 -1.0446 -1.1296
 3187SOL     OW21196   0.665   3.116  10.277 -0.6331  0.7791  0.0190
 3187SOL    HW121197   0.716   3.113  10.358 -0.5037  1.6272 -0.0266
 3187SOL    HW221198   0.708   3.042  10.234 -1.0443  0.1033  0.7808
 3188SOL     OW21199   2.476   1.083  10.970 -0.3563 -0.1931 -0.5903
 3188SOL    HW121200   2.551   1.045  11.017 -1.6157  0.7915  2.2110
 3188SOL    HW221201   2.502   1.174  10.964 -4.1259  0.8183 -1.6304
 3189SOL     OW21202   1.565   1.168   6.807  0.6031 -0.7016 -0.0990
 3189SOL    HW121203   1.652   1.143   6.778  0.4242  0.1870 -1.3956
 3189SOL    HW221204   1.573   1.262   6.789  0.2042 -0.5800  0.3369
 3190SOL     OW21205   1.533   4.132  14.309  0.0213  0.2472 -0.0564
 3190SOL    HW121206   1.627   4.124  14.292  0.3951  0.3577  1.9125
 3190SOL    HW221207   1.524   4.071  14.382 -1.2518 -0.4787 -0.8135
 3191SOL     OW21208   0.279   0.707   1.000  0.4076  0.0375  0.6893
 3191SOL    HW121209   0.371   0.697   0.974  0.2547 -0.7126  0.4419
 3191SOL    HW221210   0.287   0.685   1.093  0.3334  2.9141  1.3685
 3192SOL     OW21211   0.369   3.405  10.158  0.0169 -0.7812 -0.1464
 3192SOL    HW121212   0.335   3.494  10.166  1.6014 -0.3483  1.8698
 3192SOL    HW221213   0.288   3.354  10.162 -0.3169 -0.2362  0.0046
 3193SOL     OW21214   3.645   1.416  14.551 -0.0758 -0.8598  0.1794
 3193SOL    HW121215   3.658   1.493  14.605 -1.4330 -0.1935 -0.4367
 3193SOL    HW221216   3.669   1.350  14.616 -1.3693 -0.1346  1.4090
 3194SOL     OW21217   2.985   1.701   2.727 -0.0083  0.2193 -0.5384
 3194SOL    HW121218   2.901   1.671   2.693 -0.8513  2.2307 -0.2266
 3194SOL    HW221219   2.999   1.648   2.806  0.2841  0.3538 -0.5030
 3195SOL     OW21220   3.986   4.039  13.790  0.4338  0.5627 -0.5037
 3195SOL    HW121221   4.027   4.126  13.791  1.3301  0.1551 -1.3651
 3195SOL    HW221222   4.011   3.999  13.706 -0.8012  0.3716 -0.7812
 3196SOL     OW21223   0.361   1.022   5.088 -0.0118  0.5538 -0.0829
 3196SOL    HW121224   0.267   1.031   5.107 -0.4776 -1.9487 -1.1987
 3196SOL    HW221225   0.407   1.022   5.172 -0.2832  0.6963  0.0663
 3197SOL     OW21226   1.212   2.404   4.948  0.3376 -0.0466 -0.1901
 3197SOL    HW121227   1.177   2.382   5.035 -0.2506  0.2617 -0.3469
 3197SOL    HW221228   1.296   2.360   4.948  0.7376  0.7028  0.2294
 3198SOL     OW21229   2.941   0.275   4.390  0.2004  0.4457 -0.1165
 3198SOL    HW121230   2.989   0.203   4.349 -1.2379 -0.2061 -0.6562
 3198SOL    HW221231   2.967   0.357   4.348  0.0393  1.3623  1.5627
 3199SOL     OW21232   1.841   0.494   8.380  0.0340 -0.3867 -0.5765
 3199SOL    HW121233   1.836   0.474   8.473  1.1248  0.4818 -0.3298
 3199SOL    HW221234   1.781   0.568   8.379 -2.0829 -2.0858 -0.4306
 3200SOL     OW21235   0.510   3.549   9.932 -0.1220 -0.0076 -0.4586
 3200SOL    HW121236   0.500   3.533   9.838  2.1198  2.0007 -1.0292
 3200SOL    HW221237   0.446   3.484   9.963 -0.2730  0.2967 -0.1328
 3201SOL     OW21238   1.487   2.871   2.799  0.0192 -0.2288  0.0052
 3201SOL    HW121239   1.578   2.887   2.824 -0.2571  1.0669  0.1854
 3201SOL    HW221240   1.494   2.874   2.703  1.3472 -1.6454  0.0592
 3202SOL     OW21241   1.713   2.498   4.411  0.4447 -0.4618  0.2547
 3202SOL    HW121242   1.777   2.438   4.449  2.3789  0.8002 -0.9950
 3202SOL    HW221243   1.760   2.519   4.330 -0.2346 -0.6423 -0.1790
 3203SOL     OW21244   3.072   2.912   4.835  0.0697  0.4965 -0.3821
 3203SOL    HW121245   3.115   2.888   4.753  0.5126  1.4937 -0.4443
 3203SOL    HW221246   3.088   2.830   4.882 -1.8200  0.8098  0.8344
 3204SOL     OW21247   0.494   1.484   1.642 -0.2798  0.4332  0.1777
 3204SOL    HW121248   0.518   1.556   1.583 -0.6854  0.5947  0.2090
 3204SOL    HW221249   0.573   1.474   1.694 -0.9921 -1.0867  0.9558
 3205SOL     OW21250   1.405   2.006   5.142 -0.0257  0.2866 -0.3980
 3205SOL    HW121251   1.349   1.951   5.196 -0.1239  1.0282  0.2694
 3205SOL    HW221252   1.487   1.956   5.140 -1.3649 -1.8922 -0.6570
 3206SOL     OW21253   0.345   1.821   1.676  0.2060 -0.3127  0.2977
 3206SOL    HW121254   0.335   1.910   1.642  2.2370  0.8300  2.7525
 3206SOL    HW221255   0.260   1.818   1.720 -0.2128 -0.9597 -0.5404
 3207SOL     OW21256   0.610   0.686   7.419 -0.0943 -0.1051 -0.5101
 3207SOL    HW121257   0.551   0.652   7.486  0.2144  0.4286  0.0388
 3207SOL    HW221258   0.672   0.614   7.407 -0.6782 -0.8499  0.8571
 3208SOL     OW21259   1.352   2.031   8.390 -0.0189  0.1203 -0.0141
 3208SOL    HW121260   1.434   2.022   8.342  1.2624  0.4490  2.0995
 3208SOL    HW221261   1.386   2.076   8.467 -1.5765 -0.4638  1.0199
 3209SOL     OW21262   0.542   4.442   8.266  0.2892  0.3420  0.3706
 3209SOL    HW121263   0.524   4.525   8.222  1.4168  0.1007 -0.5335
 3209SOL    HW221264   0.454   4.427   8.301  0.0563 -0.3978 -0.5279
 3210SOL     OW21265   0.786   3.590  12.778  0.1781  0.6754  0.5300
 3210SOL    HW121266   0.735   3.652  12.727 -0.6636 -0.0080  0.5489
 3210SOL    HW221267   0.750   3.502  12.787 -0.7958  1.2523  2.2516
 3211SOL     OW21268   2.454   3.636   4.292  0.1195 -0.2295 -0.4686
 3211SOL    HW121269   2.439   3.649   4.198  0.4006  0.8683 -0.3614
 3211SOL    HW221270   2.534   3.584   4.282  0.4924  0.4472 -1.0192
 3212SOL     OW21271   0.874   0.087   4.325 -0.4938  0.5733  0.5762
 3212SOL    HW121272   0.817   0.134   4.385 -0.8834 -0.3754  0.9490
 3212SOL    HW221273   0.869   4.738   4.361 -0.6743  1.0777  1.7834
 3213SOL     OW21274   2.350   1.665   8.367 -0.1525  0.2792  0.5761
 3213SOL    HW121275   2.262   1.626   8.364  0.1273 -0.3982  1.1338
 3213SOL    HW221276   2.412   1.592   8.362 -0.2406  0.3411 -1.2913
 3214SOL     OW21277   2.666   0.175   4.903  0.0647  0.5294  0.3134
 3214SOL    HW121278   2.595   0.112   4.913 -0.4803  1.1904  0.6130
 3214SOL    HW221279   2.672   0.175   4.807 -1.2214  2.9375  0.2401
 3215SOL     OW21280   1.198   2.104   0.526 -0.5427  0.3418  0.2309
 3215SOL    HW121281   1.237   2.018   0.543  1.5601  1.0191 -1.1374
 3215SOL    HW221282   1.195   2.102   0.430  1.2713 -2.1016  0.2290
 3216SOL     OW21283   4.004   1.719  14.572  0.6471  0.3867 -0.0720
 3216SOL    HW121284   3.971   1.808  14.581  0.0944  0.0757  0.9700
 3216SOL    HW221285   3.926   1.678  14.534  0.8391  0.5622 -0.6519
 3217SOL     OW21286   2.728   3.267   1.608  0.8631 -0.1504  0.1852
 3217SOL    HW121287   2.758   3.349   1.648 -0.0376 -0.3826  1.3351
 3217SOL    HW221288   2.732   3.292   1.516 -1.3857  0.5332  0.2807
 3218SOL     OW21289   1.135   0.003   4.481 -0.8462 -0.3790  0.2993
 3218SOL    HW121290   1.163   4.656   4.513  0.4748  0.5520  1.6788
 3218SOL    HW221291   1.072   4.715   4.414  0.5416  2.1870 -2.0628
 3219SOL     OW21292   2.797   4.289  16.226  0.6234  0.2671 -0.4265
 3219SOL    HW121293   2.788   4.276  16.320 -0.3381  0.8441 -0.4444
 3219SOL    HW221294   2.803   4.384  16.229 -0.9984  0.2966  2.0579
 3220SOL     OW21295   2.654   1.013   7.855  0.3293 -0.0770 -0.1717
 3220SOL    HW121296   2.625   1.088   7.804 -0.4269 -0.0740  0.2719
 3220SOL    HW221297   2.740   1.038   7.889  0.9063  0.4572 -2.0433
 3221SOL     OW21298   4.150   2.771   2.798  0.7158 -0.5554 -0.5557
 3221SOL    HW121299   4.244   2.758   2.811  0.4812 -0.0654  1.6312
 3221SOL    HW221300   4.154   2.867   2.800 -0.3925 -0.5252  0.4615
 3222SOL     OW21301   1.121   4.548   6.116  0.2057  0.2598 -0.5425
 3222SOL    HW121302   1.213   4.551   6.090  0.3923  3.4202  0.4439
 3222SOL    HW221303   1.109   4.460   6.151 -0.7823 -0.2480 -2.1722
 3223SOL     OW21304   1.199   3.332   6.446  0.0152 -0.0925 -0.1540
 3223SOL    HW121305   1.203   3.398   6.377 -0.8613  1.3414  1.1628
 3223SOL    HW221306   1.107   3.310   6.462 -0.5430 -0.3360 -3.7009
 3224SOL     OW21307   3.509   1.776  17.478  0.2183 -0.3680 -0.9629
 3224SOL    HW121308   3.604   1.769  17.481  0.0081 -3.4404 -1.4429
 3224SOL    HW221309   3.501   1.745  17.388 -2.0399 -1.6164 -0.3236
 3225SOL     OW21310   1.882   4.221   8.118 -0.6941 -0.2071  0.2707
 3225SOL    HW121311   1.884   4.313   8.093 -2.0767 -0.3589 -0.4071
 3225SOL    HW221312   1.797   4.214   8.161 -0.8681  0.0746 -0.0332
 3226SOL     OW21313   4.579   3.099   6.367 -0.7713 -0.1628  0.2980
 3226SOL    HW121314   4.569   3.190   6.394  0.1046  0.4223 -1.3285
 3226SOL    HW221315   4.661   3.098   6.317 -0.2044 -1.2960  1.2493
 3227SOL     OW21316   2.037   1.317   9.046  0.0681 -0.2777  0.7090
 3227SOL    HW121317   1.978   1.388   9.022  1.9647  1.1894  0.4014
 3227SOL    HW221318   1.981   1.272   9.110 -0.0960 -1.6095 -0.3702
 3228SOL     OW21319   1.203   1.519   2.538  0.1017  0.3643  0.2530
 3228SOL    HW121320   1.253   1.506   2.457  0.3720  0.4490  0.4084
 3228SOL    HW221321   1.126   1.565   2.505  0.2351  0.6661  0.3603
 3229SOL     OW21322   2.972   0.956   7.654 -0.2198  0.1931  0.2002
 3229SOL    HW121323   2.995   0.923   7.567 -3.0160 -0.0302 -0.4596
 3229SOL    HW221324   2.973   1.050   7.634 -2.4629  0.4469  1.3032
 3230SOL     OW21325   3.842   2.302  17.259 -0.0024  0.6922  0.1805
 3230SOL    HW121326   3.863   2.367  17.193  2.1126  0.4300  0.5842
 3230SOL    HW221327   3.747   2.303  17.265  0.0720  1.7638  1.1790
 3231SOL     OW21328   3.237   1.004   7.804  0.3675  0.1404 -0.4180
 3231SOL    HW121329   3.154   0.994   7.757  1.2187 -0.3870 -1.8098
 3231SOL    HW221330   3.200   1.031   7.888  1.5283  0.0451  0.1171
 3232SOL     OW21331   2.755   1.146   3.103  0.3694  0.1040  0.1090
 3232SOL    HW121332   2.849   1.137   3.110  0.4196  1.6690  1.7543
 3232SOL    HW221333   2.738   1.058   3.071 -0.5483  0.1112  0.5656
 3233SOL     OW21334   1.579   1.444  14.641 -0.4083 -0.1756  0.5643
 3233SOL    HW121335   1.645   1.374  14.650 -1.9772 -1.9808 -2.0449
 3233SOL    HW221336   1.528   1.424  14.562 -0.6419  0.2787  0.6035
 3234SOL     OW21337   4.236   1.665   6.300  0.1019  0.0104  0.2443
 3234SOL    HW121338   4.245   1.636   6.209  1.1422 -0.7540  0.5855
 3234SOL    HW221339   4.322   1.632   6.328  0.4877  1.5894  0.9458
 3235SOL     OW21340   0.417   0.734   3.237  0.3673 -0.2068 -0.2974
 3235SOL    HW121341   0.406   0.814   3.186 -3.4190 -0.6116 -0.0846
 3235SOL    HW221342   0.432   0.770   3.324 -1.0232 -0.7727  0.1832
 3236SOL     OW21343   2.702   3.116   6.510 -0.3114  0.3566  0.0128
 3236SOL    HW121344   2.682   3.051   6.578 -0.4390  0.0177 -0.3471
 3236SOL    HW221345   2.787   3.075   6.495  0.0470  0.8093  0.8118
 3237SOL     OW21346   0.514   3.303   4.450  0.3380  0.1850  0.2713
 3237SOL    HW121347   0.455   3.255   4.392  1.5425 -2.0562  0.9147
 3237SOL    HW221348   0.465   3.375   4.489 -0.8751  0.1289 -1.1330
 3238SOL     OW21349   2.122   0.739   3.672 -0.3055 -0.5849 -0.0214
 3238SOL    HW121350   2.052   0.687   3.712  0.9053 -0.4021  2.3699
 3238SOL    HW221351   2.161   0.781   3.749  0.6520 -0.8742 -0.3431
 3239SOL     OW21352   3.426   0.200   5.962 -0.1982  0.1190  0.0568
 3239SOL    HW121353   3.410   0.111   5.992 -1.2123  0.3074  0.0771
 3239SOL    HW221354   3.519   0.195   5.938  0.4306  4.7953  1.5795
 3240SOL     OW21355   3.904   1.408   1.448  0.2259 -0.1001 -0.1123
 3240SOL    HW121356   3.970   1.343   1.424  2.0951  1.7866 -0.0680
 3240SOL    HW221357   3.906   1.410   1.544  0.2579 -0.8388 -0.0968
 3241SOL     OW21358   3.094   3.650   6.748 -0.7136 -0.5299 -0.6030
 3241SOL    HW121359   3.118   3.651   6.655  0.6356  1.7618 -0.2459
 3241SOL    HW221360   3.020   3.711   6.749 -0.4182 -0.1561 -1.2342
 3242SOL     OW21361   1.972   0.662  12.099  0.2277  0.5056  0.5190
 3242SOL    HW121362   1.899   0.712  12.062  0.3089 -0.4851 -1.0003
 3242SOL    HW221363   2.052   0.689  12.054  0.3404 -0.6864  0.0177
 3243SOL     OW21364   0.706   2.779   9.593  0.0313  0.4557 -0.3779
 3243SOL    HW121365   0.732   2.717   9.524 -0.6303 -0.2250 -0.0107
 3243SOL    HW221366   0.754   2.855   9.559  0.5938  0.0877 -0.4221
 3244SOL     OW21367   1.613   1.457  13.789  0.8366 -0.1255  0.1017
 3244SOL    HW121368   1.689   1.446  13.847  0.8279  0.2526  0.1829
 3244SOL    HW221369   1.665   1.492  13.717 -1.8326  1.3279 -1.1007
 3245SOL     OW21370   3.501   2.587   5.563  0.2626 -0.1953  0.9398
 3245SOL    HW121371   3.494   2.530   5.640 -1.5108 -0.1672  0.8049
 3245SOL    HW221372   3.460   2.668   5.594 -0.0604 -0.2245  0.5959
 3246SOL     OW21373   0.524   1.142   7.429 -0.0526  0.4424  0.0755
 3246SOL    HW121374   0.593   1.083   7.398 -1.0846 -1.2733  1.0638
 3246SOL    HW221375   0.464   1.084   7.476 -0.4872  2.2594  1.7644
 3247SOL     OW21376   3.052   4.031   5.732  0.2699  0.9911 -0.0473
 3247SOL    HW121377   3.124   4.091   5.755 -1.9695  3.2159  1.1422
 3247SOL    HW221378   3.084   4.016   5.643  0.0239 -1.7167  0.3311
 3248SOL     OW21379   3.953   2.307  12.636 -0.3005 -0.0968  0.1366
 3248SOL    HW121380   3.918   2.257  12.709  0.3914  0.4692  0.8451
 3248SOL    HW221381   3.940   2.394  12.673  1.5393  0.5444 -0.7420
 3249SOL     OW21382   1.951   2.531   4.702  0.5700 -0.7346 -0.0286
 3249SOL    HW121383   1.919   2.611   4.660 -1.3251 -1.9005 -0.8099
 3249SOL    HW221384   1.995   2.588   4.766  0.9674 -0.2579 -0.7249
 3250SOL     OW21385   4.408   2.963  11.144 -0.1636 -0.1736  0.0124
 3250SOL    HW121386   4.473   2.920  11.089 -0.9452  0.3769 -1.3190
 3250SOL    HW221387   4.384   2.896  11.209  1.7467 -0.1065  0.7906
 3251SOL     OW21388   0.688   3.690   5.216 -0.5102  0.5097 -0.3117
 3251SOL    HW121389   0.618   3.665   5.276 -0.4857 -0.6891 -0.7728
 3251SOL    HW221390   0.761   3.704   5.277 -0.4574 -0.2562 -0.2038
 3252SOL     OW21391   0.660   2.237  17.461  0.2635  0.4167  0.3178
 3252SOL    HW121392   0.581   2.278  17.495  0.0114  0.2176 -0.0290
 3252SOL    HW221393   0.681   2.278  17.377  0.9565 -0.6863 -0.0523
 3253SOL     OW21394   2.308   3.821   3.167  0.3470 -0.0683 -0.2025
 3253SOL    HW121395   2.312   3.906   3.124 -1.9565 -0.6030 -1.5440
 3253SOL    HW221396   2.259   3.843   3.246 -0.1427  0.0318 -0.5300
 3254SOL     OW21397   0.204   2.497  13.094 -0.4049 -0.5168  0.5149
 3254SOL    HW121398   0.268   2.524  13.161 -0.7833 -0.8639  1.0117
 3254SOL    HW221399   0.255   2.528  13.019 -0.1963 -0.5988  0.6227
 3255SOL     OW21400   0.300   3.382   1.273 -0.2655 -0.1328 -0.3683
 3255SOL    HW121401   0.333   3.357   1.359  0.3110  0.6506 -0.3624
 3255SOL    HW221402   0.352   3.331   1.211  0.9714  2.5441 -1.5499
 3256SOL     OW21403   3.343   0.798   3.524  0.0697  0.3112  0.3384
 3256SOL    HW121404   3.351   0.747   3.444 -0.6442 -1.3275  1.3121
 3256SOL    HW221405   3.417   0.859   3.525  1.5223 -1.4206 -0.1650
 3257SOL     OW21406   2.414   0.375   8.650 -0.4750  0.7881  0.2363
 3257SOL    HW121407   2.432   0.393   8.558 -0.2920 -2.6902 -0.4096
 3257SOL    HW221408   2.448   0.285   8.657 -1.7512  0.5792  3.5206
 3258SOL     OW21409   2.243   0.089   5.481 -0.5990 -0.2597  0.2278
 3258SOL    HW121410   2.154   0.062   5.456 -0.9295 -0.9244  2.1460
 3258SOL    HW221411   2.275   0.009   5.523 -0.7354 -0.8253 -0.7261
 3259SOL     OW21412   3.752   2.313   8.906  0.1855  0.0096  0.4746
 3259SOL    HW121413   3.728   2.403   8.884  1.4108  0.1449 -0.3431
 3259SOL    HW221414   3.669   2.265   8.902  0.0383  0.2400  0.7722
 3260SOL     OW21415   2.625   1.253  11.170  0.5732  0.5933  0.4188
 3260SOL    HW121416   2.663   1.314  11.106  0.0278  1.5955  1.0566
 3260SOL    HW221417   2.553   1.305  11.206  0.3626 -0.1827  1.1184
 3261SOL     OW21418   2.990   4.203   6.123 -0.0039 -0.4644 -0.0562
 3261SOL    HW121419   2.981   4.115   6.088 -1.8965 -0.6663  0.9455
 3261SOL    HW221420   3.069   4.234   6.078 -1.0290 -1.3435 -2.4733
 3262SOL     OW21421   3.724   0.045  15.562 -0.0808 -0.0878  0.2074
 3262SOL    HW121422   3.686   0.125  15.599  3.0970  1.0944  0.8946
 3262SOL    HW221423   3.746   4.738  15.643 -2.7077  1.5536  1.8900
 3263SOL     OW21424   0.142   4.101   4.043 -0.2107 -0.0567  0.0602
 3263SOL    HW121425   0.169   4.184   4.082 -0.2267  0.1896 -0.4520
 3263SOL    HW221426   0.160   4.032   4.107  1.7647  2.4490  2.1897
 3264SOL     OW21427   1.442   2.632   3.564 -0.6282  0.3790 -0.4185
 3264SOL    HW121428   1.348   2.650   3.566 -1.2886 -2.9274 -0.9818
 3264SOL    HW221429   1.450   2.635   3.660 -0.3783 -0.3544 -0.4111
 3265SOL     OW21430   4.318   0.156   1.763 -0.1928 -0.2045 -0.2418
 3265SOL    HW121431   4.280   0.209   1.693 -3.5832 -1.1408  0.9113
 3265SOL    HW221432   4.237   0.139   1.810  0.3182 -2.1771 -0.0982
 3266SOL     OW21433   2.310   4.713  15.460 -0.2070 -0.3542  0.7302
 3266SOL    HW121434   2.378   4.693  15.524 -2.5934 -0.8561  3.0950
 3266SOL    HW221435   2.358   4.731  15.379  0.3745  0.6249  1.2932
 3267SOL     OW21436   3.197   0.785   3.173 -0.1364  0.2594 -0.0633
 3267SOL    HW121437   3.264   0.719   3.189 -2.1785 -1.9203 -0.4975
 3267SOL    HW221438   3.232   0.857   3.226 -0.1696  1.2012 -1.3186
 3268SOL     OW21439   2.905   2.072   1.727 -0.0113 -0.1085  0.0869
 3268SOL    HW121440   2.962   2.107   1.658 -1.2145  2.0778  0.1939
 3268SOL    HW221441   2.971   2.075   1.796 -1.1061  0.1094  1.1211
 3269SOL     OW21442   4.639   1.032   2.366 -0.4317  0.4778 -0.3141
 3269SOL    HW121443   4.684   1.041   2.450 -1.7749  0.0471  0.4440
 3269SOL    HW221444   4.557   1.006   2.408  1.8892 -0.3328  3.7776
 3270SOL     OW21445   4.480   0.280   7.348  0.0088 -0.0739 -0.3406
 3270SOL    HW121446   4.563   0.279   7.301  0.0261 -4.3463 -0.2149
 3270SOL    HW221447   4.456   0.188   7.361  2.2605 -0.3591  1.6735
 3271SOL     OW21448   0.127   0.586   3.486  0.5876  0.3904 -0.2805
 3271SOL    HW121449   0.183   0.510   3.467  0.5643  0.2691  0.1234
 3271SOL    HW221450   0.180   0.641   3.544  1.2366  0.7019 -1.1733
 3272SOL     OW21451   4.605   4.194   2.098  0.0883 -0.2524 -0.1571
 3272SOL    HW121452   4.530   4.213   2.154  0.0074  0.1158 -0.3883
 3272SOL    HW221453   4.606   4.098   2.095  2.4025 -0.1943 -1.1835
 3273SOL     OW21454   2.213   4.097   0.776  0.5150  0.5503 -0.1247
 3273SOL    HW121455   2.144   4.083   0.711  0.4799  0.1823 -0.0101
 3273SOL    HW221456   2.236   4.188   0.760  1.7415  0.5373  1.5466
 3274SOL     OW21457   1.335   1.123  10.784 -0.4570 -0.5510  0.1472
 3274SOL    HW121458   1.369   1.038  10.812 -0.0140 -1.0917 -2.0633
 3274SOL    HW221459   1.337   1.173  10.865 -2.6121  0.6896 -0.5628
 3275SOL     OW21460   2.559   0.577   2.018  0.1831  0.0562 -0.2887
 3275SOL    HW121461   2.651   0.551   2.028 -0.4157 -3.1193 -3.2086
 3275SOL    HW221462   2.535   0.542   1.932 -0.6656 -0.6502  0.2358
 3276SOL     OW21463   2.306   1.571  15.194  0.5534 -0.1832 -0.2591
 3276SOL    HW121464   2.264   1.554  15.279  0.2909 -2.5300 -0.8815
 3276SOL    HW221465   2.390   1.609  15.220  0.1469  0.0703  0.7169
 3277SOL     OW21466   0.288   2.567   5.974  0.2219 -0.6713  0.8511
 3277SOL    HW121467   0.217   2.555   5.911 -1.0811  1.1484  1.9639
 3277SOL    HW221468   0.282   2.659   6.000 -0.1315 -0.5936  0.4865
 3278SOL     OW21469   0.638   3.458  14.868 -0.9273 -0.2355 -0.0183
 3278SOL    HW121470   0.717   3.463  14.814 -0.9896 -0.3343 -0.1195
 3278SOL    HW221471   0.575   3.502  14.811 -0.0661  1.6898  0.5501
 3279SOL     OW21472   2.149   0.157  16.156 -0.3306  0.2534  0.0297
 3279SOL    HW121473   2.141   0.116  16.070 -2.5410  0.5315  0.1090
 3279SOL    HW221474   2.058   0.166  16.183 -0.2060 -1.1753  0.8762
 3280SOL     OW21475   3.142   4.231   1.393 -0.1244 -0.0236 -0.0516
 3280SOL    HW121476   3.047   4.235   1.406 -0.0999  1.0933 -0.2393
 3280SOL    HW221477   3.180   4.297   1.451  0.0870  0.1775 -0.4179
 3281SOL     OW21478   1.198   1.670   6.828  0.1484 -0.0223 -0.0994
 3281SOL    HW121479   1.154   1.751   6.803  1.0762  0.5823  0.2455
 3281SOL    HW221480   1.125   1.608   6.820 -0.6510  0.9777 -0.5229
 3282SOL     OW21481   3.079   2.105   5.838 -0.7259 -0.2437  0.2945
 3282SOL    HW121482   3.083   2.114   5.933  0.7396  0.1593  0.1993
 3282SOL    HW221483   3.048   2.016   5.824  0.7862 -1.0489  2.1040
 3283SOL     OW21484   3.279   3.572   4.495 -0.3727  0.8167  0.3439
 3283SOL    HW121485   3.232   3.489   4.487 -0.1452  0.4875  2.2450
 3283SOL    HW221486   3.222   3.623   4.438  1.8711  3.3549  0.3460
 3284SOL     OW21487   0.252   0.412   8.378 -0.1231 -0.4093  0.1808
 3284SOL    HW121488   0.258   0.431   8.471  2.7685 -0.0720 -0.0620
 3284SOL    HW221489   0.345   0.422   8.354 -0.9266  0.7450 -2.4574
 3285SOL     OW21490   4.043   2.361   4.295  0.1716  0.5853  0.0018
 3285SOL    HW121491   4.102   2.287   4.310 -0.7041  0.2323  1.8329
 3285SOL    HW221492   4.099   2.418   4.243  0.6275  0.9744  0.9255
 3286SOL     OW21493   1.558   3.618   6.147 -0.3115 -0.4168 -0.1844
 3286SOL    HW121494   1.484   3.666   6.109  0.8496  0.2934 -1.5712
 3286SOL    HW221495   1.519   3.574   6.222 -2.4578  4.2429  1.4380
 3287SOL     OW21496   4.420   1.532   3.871 -0.6178 -0.0224 -0.3776
 3287SOL    HW121497   4.495   1.539   3.812  0.4203 -0.0442  0.9410
 3287SOL    HW221498   4.352   1.478   3.831 -0.9449 -0.6500  1.0290
 3288SOL     OW21499   3.034   0.340  17.237 -0.0911 -0.1522  0.1790
 3288SOL    HW121500   3.065   0.358  17.148 -3.4349 -0.3333 -1.0355
 3288SOL    HW221501   3.060   0.417  17.288 -1.4041 -0.5950  1.5169
 3289SOL     OW21502   0.296   3.695   2.670  0.3604 -0.1993 -0.1168
 3289SOL    HW121503   0.307   3.608   2.709  0.0724 -0.2382 -0.1234
 3289SOL    HW221504   0.271   3.742   2.749  0.4286 -0.1038 -0.1520
 3290SOL     OW21505   2.190   1.713   9.088 -0.3812 -0.0832  0.0496
 3290SOL    HW121506   2.228   1.696   9.001  0.0607 -1.6698  0.5606
 3290SOL    HW221507   2.211   1.634   9.137 -2.5986 -1.1377 -0.6772
 3291SOL     OW21508   3.423   0.109  12.004 -0.7227  0.1048  0.3160
 3291SOL    HW121509   3.507   0.062  12.003 -0.2410  1.0035 -0.6600
 3291SOL    HW221510   3.417   0.122  12.099  1.7964  1.5667  0.2831
 3292SOL     OW21511   2.535   3.251   4.050 -0.2547 -0.5430 -0.4138
 3292SOL    HW121512   2.501   3.295   3.972 -0.4191  0.1937  0.0738
 3292SOL    HW221513   2.579   3.323   4.096  1.8332 -2.2737  0.2918
 3293SOL     OW21514   1.499   0.121   8.908 -0.4284  0.1737 -0.4551
 3293SOL    HW121515   1.440   0.105   8.982  1.3838  0.3770  1.0376
 3293SOL    HW221516   1.558   0.046   8.908 -0.2993  0.2771 -1.0746
 3294SOL     OW21517   0.797   2.533   6.359  0.7351  0.3233  0.1563
 3294SOL    HW121518   0.754   2.600   6.306  0.3958  1.7093  2.1789
 3294SOL    HW221519   0.730   2.529   6.428 -0.3192 -0.1348 -0.9048
 3295SOL     OW21520   4.182   1.826   2.676  0.2007 -0.2996  0.0703
 3295SOL    HW121521   4.105   1.822   2.619  0.8343  1.1424 -0.8946
 3295SOL    HW221522   4.247   1.781   2.621 -1.0866 -0.4402 -1.3296
 3296SOL     OW21523   3.908   2.565   1.991 -0.0632  0.0766 -0.1875
 3296SOL    HW121524   3.926   2.653   2.025 -1.4255 -0.4676  1.9084
 3296SOL    HW221525   3.814   2.566   2.010  0.3399 -0.0758  1.7540
 3297SOL     OW21526   2.520   1.803   2.994  0.0826  0.0966  0.3332
 3297SOL    HW121527   2.594   1.745   3.013 -1.1786 -1.4031  0.6261
 3297SOL    HW221528   2.450   1.738   2.991  1.2441 -1.1493  0.3212
 3298SOL     OW21529   1.370   3.512   3.612 -0.1670 -0.1574  0.3823
 3298SOL    HW121530   1.445   3.547   3.565 -1.4506  0.8037 -0.9548
 3298SOL    HW221531   1.419   3.465   3.679 -1.2570 -0.8469  0.6928
 3299SOL     OW21532   3.279   3.039   6.015 -0.0190  0.4639 -0.0422
 3299SOL    HW121533   3.230   3.057   6.095 -1.0286 -2.5612  0.0283
 3299SOL    HW221534   3.347   2.981   6.050 -1.3374 -0.3677  1.1436
 3300SOL     OW21535   4.032   4.254   6.951  0.7966 -0.1612 -0.5921
 3300SOL    HW121536   4.107   4.201   6.979  0.5498  0.3522  1.0113
 3300SOL    HW221537   4.074   4.339   6.943  0.0400  0.1896 -0.8439
 3301SOL     OW21538   1.037   4.299  10.112 -0.8075  0.6607  0.5282
 3301SOL    HW121539   0.983   4.304  10.033 -0.4940 -1.3048  0.1721
 3301SOL    HW221540   1.001   4.219  10.150  0.0516  0.8277  1.6805
 3302SOL     OW21541   1.202   3.136  15.506 -0.2260  0.3038  0.4716
 3302SOL    HW121542   1.174   3.228  15.505  0.7318  0.5923 -0.4150
 3302SOL    HW221543   1.197   3.113  15.413  4.3284  1.9648 -0.2190
 3303SOL     OW21544   0.994   0.054   6.745  0.4653 -0.3550  0.0508
 3303SOL    HW121545   0.946   0.136   6.752 -0.3838 -0.7754 -0.9011
 3303SOL    HW221546   1.063   0.082   6.686  0.2786  0.2743  0.1377
 3304SOL     OW21547   1.344   3.892   6.168 -0.1446 -0.4665  0.5859
 3304SOL    HW121548   1.401   3.930   6.102 -3.0263  1.6749 -0.6411
 3304SOL    HW221549   1.306   3.967   6.214 -1.1985 -0.0673 -0.9693
 3305SOL     OW21550   0.745   4.060   5.805 -0.3923 -0.2926  0.1503
 3305SOL    HW121551   0.807   4.082   5.874  0.4005  1.6981 -1.1686
 3305SOL    HW221552   0.813   4.064   5.738  0.0605  3.4960  0.8049
 3306SOL     OW21553   0.422   2.290  14.672 -0.8237  0.3400 -0.1232
 3306SOL    HW121554   0.372   2.272  14.593  0.7860  0.8067 -1.2460
 3306SOL    HW221555   0.485   2.356  14.645  0.4908 -0.8276  0.0798
 3307SOL     OW21556   1.927   2.896   7.735  0.1007 -0.4847  0.1798
 3307SOL    HW121557   1.860   2.869   7.672  0.5235 -1.7696  0.2917
 3307SOL    HW221558   1.999   2.902   7.673 -0.7623 -0.1035 -0.7817
 3308SOL     OW21559   3.825   2.053   8.969 -0.1575  0.5042 -0.4777
 3308SOL    HW121560   3.782   1.980   8.924  1.1893 -0.8272  0.3880
 3308SOL    HW221561   3.819   2.121   8.902 -0.8078  1.4174  0.5074
 3309SOL     OW21562   1.812   1.710  16.123 -0.1306  0.4735  0.7038
 3309SOL    HW121563   1.867   1.669  16.190  1.4458  1.5997  0.1118
 3309SOL    HW221564   1.724   1.699  16.157 -0.7497 -1.2656 -1.4287
 3310SOL     OW21565   3.310   2.091   3.669 -0.2331 -0.4335  0.9972
 3310SOL    HW121566   3.322   1.996   3.670  1.8461 -0.1759  0.2087
 3310SOL    HW221567   3.399   2.118   3.646 -0.9772 -0.9466 -2.4450
 3311SOL     OW21568   2.299   1.296   5.925 -0.0768  0.2244  0.0003
 3311SOL    HW121569   2.327   1.331   5.841 -3.6804  2.0496 -0.4858
 3311SOL    HW221570   2.231   1.237   5.893  1.1833 -1.1066 -0.2107
 3312SOL     OW21571   2.320   1.511  13.159  0.2417  0.9086  0.2632
 3312SOL    HW121572   2.252   1.558  13.110  0.3281  1.4470  0.6657
 3312SOL    HW221573   2.332   1.565  13.237  0.4846  3.6279 -1.6849
 3313SOL     OW21574   0.618   1.618   3.648 -0.1686 -0.1636 -0.1104
 3313SOL    HW121575   0.666   1.601   3.567  0.8864 -2.8689  1.0989
 3313SOL    HW221576   0.526   1.607   3.625 -0.7545  1.2476  1.5366
 3314SOL     OW21577   3.408   3.791   4.367  0.1293 -0.2505  0.6686
 3314SOL    HW121578   3.316   3.772   4.347  0.0132  1.0906 -0.0401
 3314SOL    HW221579   3.457   3.748   4.297 -0.7646  0.7413 -0.5642
 3315SOL     OW21580   2.920   0.991   5.015 -0.0923 -0.0291 -0.0147
 3315SOL    HW121581   2.986   1.021   5.078  1.8633 -0.1327 -1.9823
 3315SOL    HW221582   2.841   1.029   5.052 -0.6252 -1.5357  0.3627
 3316SOL     OW21583   2.384   2.480   5.421 -0.2034  0.9804 -0.1457
 3316SOL    HW121584   2.391   2.487   5.326  1.6553  0.1353 -0.0506
 3316SOL    HW221585   2.325   2.405   5.434  0.9865  0.1561  0.4683
 3317SOL     OW21586   4.298   4.094  15.312 -0.2246 -0.3009 -0.3596
 3317SOL    HW121587   4.277   4.063  15.400 -2.3436  2.8212  0.2046
 3317SOL    HW221588   4.366   4.157  15.336 -1.1470  0.1586  1.0024
 3318SOL     OW21589   2.215   1.642   1.688 -0.2741 -0.4294 -0.1862
 3318SOL    HW121590   2.309   1.647   1.675 -0.2995  0.1594 -0.1331
 3318SOL    HW221591   2.195   1.616   1.598 -1.8501 -0.0922  0.0677
 3319SOL     OW21592   3.464   2.770   6.430 -0.0392 -0.0821 -0.5353
 3319SOL    HW121593   3.448   2.688   6.477  0.1023 -0.0599 -0.4465
 3319SOL    HW221594   3.380   2.779   6.385  0.5714  0.8047 -1.4951
 3320SOL     OW21595   3.417   2.820   5.688  0.1051  0.4616  0.6559
 3320SOL    HW121596   3.474   2.896   5.683  0.0999  0.4883  1.0161
 3320SOL    HW221597   3.333   2.861   5.707 -0.1631  0.9083 -1.5576
 3321SOL     OW21598   2.911   3.910  15.288 -0.1866 -0.1830 -0.5185
 3321SOL    HW121599   2.966   3.984  15.262  0.8287 -0.0819  1.9032
 3321SOL    HW221600   2.894   3.941  15.377  0.3467 -2.3315  0.3376
 3322SOL     OW21601   3.489   3.965   3.568  0.1113 -0.0116 -0.7334
 3322SOL    HW121602   3.407   4.011   3.551 -0.9624 -1.8026 -0.4992
 3322SOL    HW221603   3.529   4.041   3.609  0.4705 -0.2443 -0.6522
 3323SOL     OW21604   1.679   0.373   5.669  0.4771 -0.5028 -0.5457
 3323SOL    HW121605   1.590   0.384   5.702  1.4756  2.4112  1.1658
 3323SOL    HW221606   1.723   0.444   5.716 -1.1848 -0.9722  1.6810
 3324SOL     OW21607   2.284   3.551   9.235 -0.2098  0.0234  0.3176
 3324SOL    HW121608   2.308   3.523   9.323 -0.5195 -0.2480  0.3158
 3324SOL    HW221609   2.189   3.538   9.231 -0.0842 -0.6174 -0.5811
 3325SOL     OW21610   4.705   2.836   3.478  0.0195  0.0608 -0.5404
 3325SOL    HW121611   4.713   2.806   3.568  2.0460  1.0404 -0.3933
 3325SOL    HW221612   4.712   2.931   3.487 -1.0602  0.0933 -0.0994
 3326SOL     OW21613   4.054   2.368   7.942  0.2274 -0.8602  0.4891
 3326SOL    HW121614   4.140   2.388   7.977 -0.4128  0.1154  1.4792
 3326SOL    HW221615   3.995   2.370   8.017 -0.8285 -0.1845 -0.3409
 3327SOL     OW21616   3.362   4.455  17.547  0.2351 -0.0329  0.0408
 3327SOL    HW121617   3.414   4.529  17.577 -1.3971  0.9542  0.4292
 3327SOL    HW221618   3.273   4.485  17.562 -0.4010 -1.3888 -0.9906
 3328SOL     OW21619   0.129   4.066   5.410  0.2796 -0.1299 -0.4624
 3328SOL    HW121620   0.218   4.043   5.436  1.0198  1.3190 -1.7105
 3328SOL    HW221621   0.084   4.064   5.494 -1.8873  0.6484 -1.5695
 3329SOL     OW21622   1.371   2.783   5.779  0.4563  0.3547  0.2497
 3329SOL    HW121623   1.402   2.841   5.709 -0.3646 -0.5773 -0.8903
 3329SOL    HW221624   1.422   2.809   5.855  0.2161 -0.1423  0.5797
 3330SOL     OW21625   4.260   2.285  12.478  0.1996 -0.4237  0.0306
 3330SOL    HW121626   4.282   2.238  12.559 -0.1921 -0.7412 -0.0475
 3330SOL    HW221627   4.166   2.295  12.490  0.4061  0.7899  0.6727
 3331SOL     OW21628   3.263   1.227   4.203  0.3089 -0.3300  0.1086
 3331SOL    HW121629   3.326   1.155   4.193  0.8531  0.4668 -2.0723
 3331SOL    HW221630   3.217   1.217   4.120  0.7115  1.2837 -0.2911
 3332SOL     OW21631   1.317   4.705   5.893  0.2392 -0.3913 -0.1880
 3332SOL    HW121632   1.357   4.628   5.932  1.4354 -0.3197 -1.2481
 3332SOL    HW221633   1.394   0.021   5.877 -0.8536  0.4477 -2.6210
 3333SOL     OW21634   0.862   0.908   8.167 -0.1479 -0.3293 -0.5171
 3333SOL    HW121635   0.953   0.938   8.172 -0.1236  0.0826 -3.2415
 3333SOL    HW221636   0.824   0.957   8.240 -0.4840 -1.5963  0.1545
 3334SOL     OW21637   4.687   4.092  10.778 -0.4180  0.0707  0.4595
 3334SOL    HW121638   0.014   4.029  10.804 -0.1225 -0.1578 -0.8279
 3334SOL    HW221639   4.735   4.175  10.774 -0.2963  0.0055  0.5802
 3335SOL     OW21640   0.844   1.945   5.692 -0.2956 -0.1856  0.4862
 3335SOL    HW121641   0.763   1.897   5.678 -0.4256  0.2995 -0.4699
 3335SOL    HW221642   0.811   1.999   5.764 -1.5794  2.0448 -1.7660
 3336SOL     OW21643   2.458   2.027   3.997  0.4370 -0.1404 -0.0263
 3336SOL    HW121644   2.455   1.959   4.064  2.3865 -3.3091 -3.1466
 3336SOL    HW221645   2.500   1.977   3.927  2.5937 -0.3882  1.4427
 3337SOL     OW21646   3.282   4.062  10.846  0.1511 -0.4676  0.1962
 3337SOL    HW121647   3.237   4.090  10.766  0.2606  0.6410  0.5368
 3337SOL    HW221648   3.327   4.142  10.870  1.3487 -1.0490 -0.1236
 3338SOL     OW21649   1.716   0.001   5.444 -0.6707  0.1552  0.6289
 3338SOL    HW121650   1.688   4.717   5.532  0.9041 -1.1832  0.7835
 3338SOL    HW221651   1.630   4.729   5.404 -0.3867  1.4732 -0.3486
 3339SOL     OW21652   2.936   2.444   7.344 -0.2856  0.0409  0.2974
 3339SOL    HW121653   2.841   2.447   7.351 -0.1838 -1.0554  2.2171
 3339SOL    HW221654   2.967   2.477   7.428  0.4648 -1.5158  0.6338
 3340SOL     OW21655   0.231   2.695   1.047 -0.3311  0.2354  0.4318
 3340SOL    HW121656   0.162   2.664   0.987 -0.1640  0.3423  0.1834
 3340SOL    HW221657   0.178   2.692   1.126 -0.2751 -1.7528  0.4027
 3341SOL     OW21658   2.140   0.271   5.166  0.2184 -0.2114 -0.0120
 3341SOL    HW121659   2.193   0.289   5.243  0.2103  0.6875 -0.2209
 3341SOL    HW221660   2.178   0.188   5.136 -0.9802 -0.7086 -0.1499
 3342SOL     OW21661   1.719   2.002  11.973  0.6632 -0.2488  0.4250
 3342SOL    HW121662   1.632   1.966  11.990  0.5305 -0.3640 -0.5056
 3342SOL    HW221663   1.737   2.026  12.064  1.4178  0.2066  0.1550
 3343SOL     OW21664   2.722   4.408  17.399  0.5184  0.5490 -0.7889
 3343SOL    HW121665   2.758   4.327  17.436 -0.7097  1.1458  1.7025
 3343SOL    HW221666   2.729   4.471  17.470 -1.9913  3.0389 -2.7531
 3344SOL     OW21667   3.687   4.604   2.657  0.4575  0.0695  0.6299
 3344SOL    HW121668   3.771   4.593   2.613 -0.3034 -0.0182 -0.7815
 3344SOL    HW221669   3.701   4.683   2.710  1.0917  0.6979 -0.4866
 3345SOL     OW21670   1.192   2.523   7.491  0.4136  0.8717 -0.0725
 3345SOL    HW121671   1.107   2.489   7.464  0.1583  0.9332  0.6643
 3345SOL    HW221672   1.244   2.499   7.414 -2.0219 -0.5492 -1.2771
 3346SOL     OW21673   0.614   1.033  15.274  0.6039 -0.3402 -0.2970
 3346SOL    HW121674   0.533   1.082  15.277 -0.1985 -1.6650 -0.0396
 3346SOL    HW221675   0.626   1.024  15.180  0.9715  2.0778 -0.4567
 3347SOL     OW21676   2.355   0.211  14.194  0.1731 -0.0914  0.6223
 3347SOL    HW121677   2.293   0.209  14.267 -2.3396  3.4627 -1.4170
 3347SOL    HW221678   2.422   0.270  14.228 -0.5982  0.3672  1.3618
 3348SOL     OW21679   0.969   0.013   7.446  0.3921  0.7041  0.0369
 3348SOL    HW121680   1.012   0.079   7.391  0.8204 -0.6763 -1.2945
 3348SOL    HW221681   1.014   0.028   7.529 -1.0899 -1.8555  1.3107
 3349SOL     OW21682   2.781   0.479  11.476  0.0962 -0.4781  0.2342
 3349SOL    HW121683   2.706   0.421  11.490 -0.8180  0.5061 -0.6205
 3349SOL    HW221684   2.849   0.444  11.533  0.6178 -1.1155 -0.7807
 3350SOL     OW21685   1.602   0.324  14.370 -0.2283  0.1371  0.6485
 3350SOL    HW121686   1.561   0.284  14.447  0.5904 -2.3859 -0.2141
 3350SOL    HW221687   1.584   0.259  14.302  2.0261 -0.7870  0.9107
 3351SOL     OW21688   3.106   2.456   2.050 -0.0906 -0.3905  0.0829
 3351SOL    HW121689   3.094   2.450   2.145  0.3496 -0.1764  0.1507
 3351SOL    HW221690   3.200   2.440   2.046  0.3282  1.8188  1.1998
 3352SOL     OW21691   1.953   3.946  17.428  0.3847  0.8166 -0.2945
 3352SOL    HW121692   1.898   3.881  17.472  2.2376 -0.5545 -0.0202
 3352SOL    HW221693   1.886   4.010  17.401 -1.0175 -1.3827 -2.0336
 3353SOL     OW21694   0.388   1.551   6.566 -0.0622 -0.5716 -0.1221
 3353SOL    HW121695   0.403   1.475   6.511  0.3058  0.3102 -1.2302
 3353SOL    HW221696   0.380   1.508   6.651  0.3248  0.2774  0.3464
 3354SOL     OW21697   2.949   3.017   5.660 -0.1710 -1.2692  0.2415
 3354SOL    HW121698   2.868   3.024   5.710 -1.3372  0.8634 -1.9439
 3354SOL    HW221699   2.945   2.925   5.633 -2.1687 -1.3170  0.6943
 3355SOL     OW21700   0.561   3.550   3.234  0.6312  0.1154 -0.0288
 3355SOL    HW121701   0.505   3.608   3.287  1.3639 -0.4463  1.3659
 3355SOL    HW221702   0.497   3.526   3.167  2.4365 -1.6864 -1.0916
 3356SOL     OW21703   3.683   3.249   2.372  0.6237 -0.6925 -0.3221
 3356SOL    HW121704   3.758   3.236   2.430  2.0492  1.2408 -1.6943
 3356SOL    HW221705   3.630   3.170   2.374  0.6991 -0.7440 -0.3376
 3357SOL     OW21706   2.256   4.405   2.528 -0.1336  0.4366 -0.3423
 3357SOL    HW121707   2.204   4.337   2.572  0.4971  0.8755  1.0737
 3357SOL    HW221708   2.296   4.352   2.459 -0.2084 -1.8905  1.4041
 3358SOL     OW21709   0.191   3.155   7.235  0.2491 -0.0562  0.5553
 3358SOL    HW121710   0.285   3.136   7.240  0.7380  1.8223 -1.3997
 3358SOL    HW221711   0.156   3.070   7.261  0.2244 -0.0344  0.5934
 3359SOL     OW21712   4.037   0.590   7.388 -0.3310  0.0969  0.2566
 3359SOL    HW121713   4.120   0.542   7.393  0.7078  1.8529 -0.1759
 3359SOL    HW221714   3.994   0.544   7.316  0.5793  0.5620 -0.5740
 3360SOL     OW21715   4.687   1.401   4.158 -0.4354 -0.3196 -0.4586
 3360SOL    HW121716   4.593   1.395   4.172 -0.0113 -1.8959  1.8022
 3360SOL    HW221717   4.703   1.471   4.221  2.1086 -2.3862  1.2271
 3361SOL     OW21718   1.586   4.325   1.590 -0.0808  0.0800 -0.5446
 3361SOL    HW121719   1.581   4.305   1.684  1.4675 -0.0631 -0.4924
 3361SOL    HW221720   1.606   4.418   1.596 -2.7883  0.6476 -0.1056
 3362SOL     OW21721   0.662   4.476   2.747 -0.1992 -0.2433  0.4820
 3362SOL    HW121722   0.719   4.518   2.811  0.5464  0.2800 -0.5186
 3362SOL    HW221723   0.729   4.434   2.693 -0.3751  1.8220 -1.3430
 3363SOL     OW21724   2.845   3.330   7.854 -0.1758 -0.2070 -0.8166
 3363SOL    HW121725   2.770   3.367   7.808 -0.3109 -0.3651 -0.7219
 3363SOL    HW221726   2.838   3.236   7.843 -0.4323 -0.0988 -1.5627
 3364SOL     OW21727   1.830   0.308   6.492 -0.0183  0.1346  0.3751
 3364SOL    HW121728   1.824   0.297   6.397 -0.3413 -2.4716  0.7024
 3364SOL    HW221729   1.894   0.379   6.496  1.2436 -0.9992  0.2380
 3365SOL     OW21730   4.629   4.249   4.291 -0.0678 -0.3726  0.2229
 3365SOL    HW121731   4.717   4.282   4.269  0.2543 -0.3795  1.5063
 3365SOL    HW221732   4.577   4.329   4.284  0.2914 -0.2233 -0.7080
 3366SOL     OW21733   4.609   2.504   2.616 -0.3168 -0.3230  0.3453
 3366SOL    HW121734   4.671   2.541   2.679 -2.1663  1.8133  0.9252
 3366SOL    HW221735   4.638   2.552   2.538 -0.3857  0.3366  0.7299
 3367SOL     OW21736   2.424   3.839   5.825 -0.4707  0.0598 -0.1795
 3367SOL    HW121737   2.490   3.833   5.757  2.9841 -1.0374  3.2304
 3367SOL    HW221738   2.426   3.750   5.862  1.3040  0.0537 -0.2994
 3368SOL     OW21739   3.442   2.712   8.023  0.2296 -0.1370 -0.1537
 3368SOL    HW121740   3.394   2.718   8.106 -0.2404  0.4798 -0.4656
 3368SOL    HW221741   3.468   2.803   8.006 -0.7568  0.3301  0.8267
 3369SOL     OW21742   3.666   2.306  13.864  0.2988 -0.4158 -0.2234
 3369SOL    HW121743   3.642   2.378  13.806  1.5495  1.0468  1.0991
 3369SOL    HW221744   3.756   2.284  13.839  0.2419  2.2455 -2.8211
 3370SOL     OW21745   2.440   3.778   9.924  0.1341 -0.5933 -0.2754
 3370SOL    HW121746   2.484   3.846   9.976  0.2911  0.8253 -2.2301
 3370SOL    HW221747   2.355   3.822   9.928  0.5587  0.1965  0.2831
 3371SOL     OW21748   1.225   3.227   6.861  0.3792 -0.1440  0.5285
 3371SOL    HW121749   1.209   3.295   6.927 -0.5880 -0.6852  0.8541
 3371SOL    HW221750   1.167   3.159   6.894 -1.5433  0.5482 -1.4022
 3372SOL     OW21751   0.107   0.041  11.072 -0.2362 -0.1720  0.6620
 3372SOL    HW121752   0.077   0.100  11.142 -1.1784 -0.3921  0.4431
 3372SOL    HW221753   0.032   0.066  11.018  0.7274  0.0348 -0.5953
 3373SOL     OW21754   2.784   2.212  13.779  0.0746  0.0320 -0.0210
 3373SOL    HW121755   2.780   2.302  13.745  1.1698  0.7940  1.9222
 3373SOL    HW221756   2.706   2.166  13.748  1.4186 -0.9082 -1.9864
 3374SOL     OW21757   2.597   0.669   4.580 -0.3526  0.2331 -0.2296
 3374SOL    HW121758   2.676   0.634   4.622 -1.2460 -0.9028  0.5034
 3374SOL    HW221759   2.581   0.753   4.622 -1.5581  0.5187 -1.2767
 3375SOL     OW21760   2.774   1.393   2.991  0.0358 -0.1935 -0.3110
 3375SOL    HW121761   2.770   1.332   2.917 -0.8470 -1.8962  1.1129
 3375SOL    HW221762   2.731   1.327   3.046 -2.8975 -0.3973 -2.8420
 3376SOL     OW21763   1.482   1.037   7.751  0.2070  0.1836  0.1351
 3376SOL    HW121764   1.551   1.103   7.740 -0.7528  1.1682  0.0155
 3376SOL    HW221765   1.495   1.015   7.843  0.4003 -0.4354 -0.0427
 3377SOL     OW21766   2.603   0.124   9.184  0.0564 -0.0179 -0.5871
 3377SOL    HW121767   2.520   0.076   9.194 -0.7003  1.5064  0.4012
 3377SOL    HW221768   2.649   0.057   9.235  2.6592  1.3451 -1.1936
 3378SOL     OW21769   1.027   0.158   4.861 -0.0480 -0.1876  0.7243
 3378SOL    HW121770   1.012   0.065   4.844  0.3135  0.0074 -0.7056
 3378SOL    HW221771   1.118   0.173   4.887  0.9123 -0.1107 -2.6145
 3379SOL     OW21772   0.176   4.250   6.312  0.1465  0.4292  0.7442
 3379SOL    HW121773   0.183   4.308   6.236 -0.3877 -0.7580 -0.2116
 3379SOL    HW221774   0.096   4.283   6.354 -0.2961 -0.5468  0.6697
 3380SOL     OW21775   1.191   3.043  14.753 -0.0384  0.1502  0.4475
 3380SOL    HW121776   1.151   3.102  14.689  1.2142  0.9652  0.4327
 3380SOL    HW221777   1.110   2.996  14.776  1.8742 -3.7023 -0.7718
 3381SOL     OW21778   1.100   0.173  15.969  0.0616 -0.1085  0.1504
 3381SOL    HW121779   1.094   0.111  15.897 -0.0724  2.3402 -1.9423
 3381SOL    HW221780   1.104   0.250  15.912  5.0025  1.4292  2.5828
 3382SOL     OW21781   4.232   0.156   8.451 -0.2648 -0.0696 -0.0130
 3382SOL    HW121782   4.322   0.186   8.461 -0.3157  0.3184 -0.7277
 3382SOL    HW221783   4.231   0.133   8.358  0.2399 -0.5393  0.1007
 3383SOL     OW21784   1.868   0.861  16.123 -0.1126  0.2459 -0.0597
 3383SOL    HW121785   1.792   0.895  16.169 -0.9717 -1.3128 -0.3093
 3383SOL    HW221786   1.829   0.775  16.105  1.4955 -0.3777 -0.5672
 3384SOL     OW21787   3.739   3.288   1.344 -0.3928  0.5785  0.0867
 3384SOL    HW121788   3.716   3.377   1.318 -1.0298  0.3262 -0.1983
 3384SOL    HW221789   3.730   3.232   1.268  0.3825 -2.5540  2.2946
 3385SOL     OW21790   2.908   0.334   2.391 -0.5878  0.1560  0.0064
 3385SOL    HW121791   2.871   0.420   2.409 -0.5810  0.1254  0.1699
 3385SOL    HW221792   2.832   0.276   2.385 -2.0863  1.7073  3.5369
 3386SOL     OW21793   0.255   3.882   6.647  0.0923  0.0602  0.0745
 3386SOL    HW121794   0.286   3.796   6.617  0.6116  1.2028 -2.7260
 3386SOL    HW221795   0.260   3.859   6.739 -2.7106 -0.5702  0.0612
 3387SOL     OW21796   0.210   3.655  16.575 -0.0597  0.0855  0.0604
 3387SOL    HW121797   0.305   3.656  16.573 -0.0368 -1.2170  0.1445
 3387SOL    HW221798   0.198   3.734  16.522  1.3939 -0.4519 -1.0587
 3388SOL     OW21799   3.141   1.631  12.115 -0.5216 -0.4430 -0.0224
 3388SOL    HW121800   3.174   1.547  12.146 -3.2296 -1.3785  0.3645
 3388SOL    HW221801   3.133   1.628  12.019 -1.1683  1.7065 -0.0496
 3389SOL     OW21802   3.994   1.458  10.207  0.1390  0.7591 -0.4217
 3389SOL    HW121803   3.943   1.381  10.181 -0.3781  0.8371  0.3566
 3389SOL    HW221804   4.083   1.426  10.193 -1.2411 -2.7459 -1.2867
 3390SOL     OW21805   1.728   4.228   2.172  0.0872  0.0447 -0.6125
 3390SOL    HW121806   1.753   4.137   2.189  1.4106  0.8556  1.7371
 3390SOL    HW221807   1.812   4.272   2.187 -0.9581  1.8036  0.0125
 3391SOL     OW21808   3.235   0.087   8.121  0.7846 -0.0230 -0.2284
 3391SOL    HW121809   3.282   0.047   8.048 -0.1170  0.4145 -1.0418
 3391SOL    HW221810   3.260   0.178   8.106 -1.5817  0.7881  0.8805
 3392SOL     OW21811   4.561   2.384  12.738 -0.5063 -0.2322 -0.4284
 3392SOL    HW121812   4.562   2.469  12.694 -2.9676 -0.6582 -1.3298
 3392SOL    HW221813   4.654   2.373  12.755 -0.0937  1.1229 -1.7922
 3393SOL     OW21814   3.327   1.596   8.370  0.0753  0.4264 -0.3593
 3393SOL    HW121815   3.250   1.540   8.379  0.0899  0.6004  0.8084
 3393SOL    HW221816   3.289   1.675   8.331 -2.4584 -1.1576 -1.1253
 3394SOL     OW21817   2.762   0.682   8.209  0.1730 -0.6592 -0.1566
 3394SOL    HW121818   2.744   0.776   8.211 -0.3271 -0.7465 -0.5859
 3394SOL    HW221819   2.857   0.688   8.201 -0.0420 -0.8849 -3.1144
 3395SOL     OW21820   0.766   0.533   7.840  0.9424 -0.2544  0.3449
 3395SOL    HW121821   0.774   0.609   7.783 -0.0012 -1.5797 -1.5378
 3395SOL    HW221822   0.832   0.544   7.909  0.3455 -0.1626  0.9103
 3396SOL     OW21823   2.417   2.366   8.088  0.7197 -0.0711 -0.4841
 3396SOL    HW121824   2.441   2.274   8.100  0.0244 -0.1763  0.1267
 3396SOL    HW221825   2.499   2.400   8.053 -0.3480  0.8583 -2.0710
 3397SOL     OW21826   3.507   1.453   7.629  0.6118  0.4592 -0.1528
 3397SOL    HW121827   3.461   1.512   7.688  1.5908  1.2189 -0.1323
 3397SOL    HW221828   3.465   1.368   7.639  1.9183 -0.6426 -3.6634
 3398SOL     OW21829   1.709   4.387  17.298  0.3160 -0.2121  0.4017
 3398SOL    HW121830   1.627   4.375  17.249  0.9701 -1.0278 -0.4864
 3398SOL    HW221831   1.730   4.479  17.282 -0.8124  0.1450  1.0042
 3399SOL     OW21832   3.918   1.350  12.985 -0.7974 -0.0717 -0.3132
 3399SOL    HW121833   3.880   1.307  13.061 -0.1986 -3.2999 -1.8387
 3399SOL    HW221834   3.942   1.273  12.934 -2.9158 -2.1848  1.8963
 3400SOL     OW21835   2.983   0.161   6.550  0.3368  0.9928  0.1708
 3400SOL    HW121836   2.969   0.224   6.479 -0.5475 -0.4055 -0.8905
 3400SOL    HW221837   3.072   0.131   6.533  0.9686  2.2708  1.1836
 3401SOL     OW21838   2.021   1.847   2.067  0.3111  0.4187 -0.4561
 3401SOL    HW121839   1.970   1.782   2.019 -0.1636  0.9969 -0.7307
 3401SOL    HW221840   2.088   1.874   2.004  0.1839  0.7385 -0.4509
 3402SOL     OW21841   4.622   0.203  13.571  0.1766 -0.0032  0.1470
 3402SOL    HW121842   4.534   0.186  13.538 -0.2616 -0.1209  1.3909
 3402SOL    HW221843   4.656   0.269  13.510 -0.0661 -0.5437 -0.5716
 3403SOL     OW21844   3.666   0.138   8.474  0.7935  0.0223 -0.6143
 3403SOL    HW121845   3.589   0.122   8.420  0.8068 -0.2800 -0.5433
 3403SOL    HW221846   3.640   0.214   8.528  0.8209  0.2311 -0.8951
 3404SOL     OW21847   0.876   0.922   3.253  0.7309  0.0428  0.0574
 3404SOL    HW121848   0.827   0.843   3.275 -0.7410  1.4439  1.7964
 3404SOL    HW221849   0.817   0.966   3.191  0.5044  1.0512  1.0033
 3405SOL     OW21850   4.720   1.019   0.373  0.2465 -0.3330  0.3725
 3405SOL    HW121851   0.038   0.997   0.446 -0.4192 -0.4834  0.8506
 3405SOL    HW221852   4.636   1.010   0.418 -0.0741 -0.8961 -0.3393
 3406SOL     OW21853   3.844   0.529   3.403  0.1813  0.4237  0.1777
 3406SOL    HW121854   3.924   0.511   3.353 -0.4376 -2.9352  0.4191
 3406SOL    HW221855   3.855   0.476   3.482  0.6725  0.7349  0.3225
 3407SOL     OW21856   3.556   3.969  13.923 -0.0321  0.0905 -0.4168
 3407SOL    HW121857   3.594   4.033  13.983  1.7671  1.3743 -2.9566
 3407SOL    HW221858   3.554   4.021  13.843 -1.7267 -0.7350 -0.9032
 3408SOL     OW21859   4.705   0.217  15.671 -0.1328  0.0759 -0.7663
 3408SOL    HW121860   4.680   0.284  15.608  3.0760  2.9783  1.0201
 3408SOL    HW221861   4.730   0.151  15.607 -0.5927 -2.0348  1.2301
 3409SOL     OW21862   2.241   1.077   9.259 -0.2976  0.0271  0.4777
 3409SOL    HW121863   2.179   1.005   9.267 -1.4266  1.0053  0.5578
 3409SOL    HW221864   2.258   1.084   9.165  0.5368 -0.7353  0.5713
 3410SOL     OW21865   2.856   2.384  10.096  0.1728 -0.0828  0.3787
 3410SOL    HW121866   2.828   2.295  10.120 -3.8188  0.9218 -0.5644
 3410SOL    HW221867   2.889   2.415  10.180 -1.8308  1.9922  0.4063
 3411SOL     OW21868   2.001   3.764   7.241  0.7117 -0.2438 -0.5302
 3411SOL    HW121869   2.065   3.815   7.192 -1.8653  2.5121 -0.9803
 3411SOL    HW221870   1.931   3.827   7.259 -0.1647 -1.2631 -0.3521
 3412SOL     OW21871   4.437   3.862   1.558  0.5432 -0.0779  0.2659
 3412SOL    HW121872   4.486   3.915   1.621  0.1317  0.7155 -0.0769
 3412SOL    HW221873   4.459   3.904   1.475  0.6313 -0.6847 -0.0110
 3413SOL     OW21874   4.416   4.080   8.276 -0.2424 -0.4235  0.0949
 3413SOL    HW121875   4.472   4.033   8.214  0.9435  0.5970  0.3949
 3413SOL    HW221876   4.439   4.025   8.350  1.0593  0.4617  0.3508
 3414SOL     OW21877   2.406   3.628   5.502 -0.0356 -0.8153 -0.2887
 3414SOL    HW121878   2.377   3.712   5.466 -0.4614 -0.1905  1.4819
 3414SOL    HW221879   2.478   3.610   5.442  0.8069 -0.9901  0.7585
 3415SOL     OW21880   2.841   3.242   6.821 -0.0437  1.0265  0.3016
 3415SOL    HW121881   2.829   3.155   6.784 -2.1619  1.6299 -0.4021
 3415SOL    HW221882   2.936   3.239   6.837 -0.1699  0.4593  0.9701
 3416SOL     OW21883   2.100   0.743  15.020 -1.1337 -0.1411  0.4727
 3416SOL    HW121884   2.132   0.657  14.991 -1.8627 -0.2767  0.0769
 3416SOL    HW221885   2.008   0.738  14.993 -0.1510 -4.0954 -2.2149
 3417SOL     OW21886   4.322   2.344   4.539  0.0150  0.2146 -0.2285
 3417SOL    HW121887   4.336   2.427   4.493 -1.7410 -1.2769 -3.5344
 3417SOL    HW221888   4.298   2.288   4.464 -2.7670  0.7013  0.2905
 3418SOL     OW21889   3.262   0.898   7.004  0.2739 -0.0846  0.6157
 3418SOL    HW121890   3.270   0.852   7.087  2.4411 -0.7589  0.0337
 3418SOL    HW221891   3.167   0.909   6.995  0.3916 -0.7258 -1.4653
 3419SOL     OW21892   2.882   4.301   1.458 -0.8102 -0.2444  0.1124
 3419SOL    HW121893   2.814   4.355   1.498 -0.6665 -0.3700  0.5268
 3419SOL    HW221894   2.834   4.249   1.394  0.0876  0.4651 -1.1321
 3420SOL     OW21895   2.373   3.883   8.770  0.3527 -0.7060  0.3534
 3420SOL    HW121896   2.412   3.970   8.778  0.4711 -0.6364 -1.0120
 3420SOL    HW221897   2.399   3.848   8.855  0.0812 -1.3903  0.1513
 3421SOL     OW21898   0.309   4.230  15.649 -0.3430 -0.2284 -0.0561
 3421SOL    HW121899   0.269   4.167  15.709  2.2966 -0.5872  1.3247
 3421SOL    HW221900   0.389   4.181  15.631 -0.4454  0.1203 -1.4986
 3422SOL     OW21901   4.275   3.929   0.613 -0.3859 -0.0917 -0.0190
 3422SOL    HW121902   4.197   3.960   0.566  0.6193  2.0996 -0.2480
 3422SOL    HW221903   4.349   3.961   0.562 -0.6319  0.2237 -0.1807
 3423SOL     OW21904   2.373   2.834  17.488  0.4837 -0.4890 -0.5037
 3423SOL    HW121905   2.305   2.902  17.490 -1.6290 -2.6205  1.2036
 3423SOL    HW221906   2.451   2.887  17.477 -0.4884  1.1271  0.3373
 3424SOL     OW21907   2.149   4.587   1.791  0.3428 -0.0223  0.3568
 3424SOL    HW121908   2.206   4.511   1.780 -0.4251 -0.8043  1.8180
 3424SOL    HW221909   2.078   4.540   1.833  1.5790 -1.5795  0.7074
 3425SOL     OW21910   1.086   3.009   4.104 -0.1650  0.1233 -0.3541
 3425SOL    HW121911   1.096   3.099   4.072 -2.2549  1.4762  2.7613
 3425SOL    HW221912   1.139   2.965   4.037  1.7647  0.2177  1.1084
 3426SOL     OW21913   0.900   4.083   4.729 -0.2891  0.1058 -0.8025
 3426SOL    HW121914   0.876   4.036   4.649  1.0837  1.2455 -1.8695
 3426SOL    HW221915   0.809   4.088   4.760  0.1508  0.2953  0.4359
 3427SOL     OW21916   4.691   3.136   5.712 -0.6226 -1.1269  0.8918
 3427SOL    HW121917   4.648   3.051   5.697 -1.3680 -0.5163 -0.4159
 3427SOL    HW221918   0.041   3.111   5.686 -1.2864 -0.8673 -1.6352
 3428SOL     OW21919   1.251   1.203  14.094 -0.9165 -0.5678  0.0704
 3428SOL    HW121920   1.217   1.216  14.183  1.7755 -2.3666  1.3704
 3428SOL    HW221921   1.341   1.171  14.104 -1.1856 -1.6758 -1.1635
 3429SOL     OW21922   2.088   4.221   2.643  0.0732  0.1044 -0.1344
 3429SOL    HW121923   2.071   4.152   2.579  0.7774  0.4699 -0.7205
 3429SOL    HW221924   2.011   4.216   2.699  0.4461 -1.1370  0.2749
 3430SOL     OW21925   3.422   1.775   1.076  0.6016  0.0972 -0.2265
 3430SOL    HW121926   3.451   1.685   1.066  0.4830  0.1432 -0.9217
 3430SOL    HW221927   3.335   1.772   1.038 -0.1116 -2.5266  1.6250
 3431SOL     OW21928   4.186   4.153  15.950 -0.4649  0.1627 -0.1748
 3431SOL    HW121929   4.239   4.220  15.993 -0.4348  0.6736 -1.0124
 3431SOL    HW221930   4.098   4.185  15.973  0.0261  0.4163  1.3794
 3432SOL     OW21931   3.746   3.766   2.157  0.1325 -0.6385 -0.5399
 3432SOL    HW121932   3.663   3.806   2.133  0.6368  0.3293 -0.6612
 3432SOL    HW221933   3.805   3.804   2.092 -0.6726  3.0489  0.8826
 3433SOL     OW21934   2.234   4.449   5.260 -0.0507 -0.1345 -0.4289
 3433SOL    HW121935   2.264   4.359   5.254 -1.6091 -0.7713  1.3022
 3433SOL    HW221936   2.271   4.482   5.342 -0.3972 -3.1600  0.9199
 3434SOL     OW21937   2.346   3.352  16.847 -0.8185  0.4171  0.1508
 3434SOL    HW121938   2.289   3.313  16.781  0.8132 -2.6763  0.5567
 3434SOL    HW221939   2.338   3.447  16.838 -0.4128  0.3402 -1.1579
 3435SOL     OW21940   1.059   0.248  13.606 -1.2617  0.4952 -0.3491
 3435SOL    HW121941   1.067   0.154  13.594 -3.7203  0.1498  0.6574
 3435SOL    HW221942   1.069   0.252  13.701  1.6978 -1.4538 -0.6211
 3436SOL     OW21943   1.321   1.518   5.003 -0.2268  0.4849 -0.1347
 3436SOL    HW121944   1.351   1.509   4.912 -0.3121 -2.7023  0.1620
 3436SOL    HW221945   1.295   1.428   5.020  1.9451 -0.1921 -0.3692
 3437SOL     OW21946   3.476   3.315   8.786 -0.4204  0.2346 -0.4994
 3437SOL    HW121947   3.435   3.399   8.801  1.1875  1.1336 -1.0922
 3437SOL    HW221948   3.526   3.332   8.706 -1.6537  0.3490 -1.2375
 3438SOL     OW21949   1.681   0.263   8.747  0.2083 -0.2340 -0.5439
 3438SOL    HW121950   1.626   0.235   8.821  0.3845 -1.5715 -0.9068
 3438SOL    HW221951   1.736   0.184   8.743  1.7709  0.8069  0.8347
 3439SOL     OW21952   1.544   4.045   4.789  0.1315 -0.8826 -0.2289
 3439SOL    HW121953   1.633   4.078   4.798  0.2735 -1.2107 -0.4186
 3439SOL    HW221954   1.498   4.079   4.866  0.5408 -0.5284 -0.1399
 3440SOL     OW21955   0.996   1.309   2.841  0.3447  0.0088 -0.1198
 3440SOL    HW121956   1.045   1.295   2.759 -0.7764 -2.5308 -0.3591
 3440SOL    HW221957   1.038   1.240   2.892 -0.8301  1.8203  3.2712
 3441SOL     OW21958   3.551   4.163   3.057 -0.3289  0.1396 -0.0701
 3441SOL    HW121959   3.644   4.184   3.056 -0.4449  0.7125  1.3561
 3441SOL    HW221960   3.514   4.245   3.025  1.0318  1.2252  1.1220
 3442SOL     OW21961   1.645   1.990  17.376  0.5508 -0.5976  0.1469
 3442SOL    HW121962   1.633   1.955  17.288 -0.0217  1.0148 -0.4244
 3442SOL    HW221963   1.618   2.081  17.364  1.0148 -0.2800  1.5379
 3443SOL     OW21964   2.769   2.580   8.435 -0.2513  0.0072 -0.4468
 3443SOL    HW121965   2.734   2.594   8.523 -0.7788 -2.3197 -0.2616
 3443SOL    HW221966   2.751   2.486   8.422 -0.0797  0.0462 -0.9896
 3444SOL     OW21967   4.156   4.078  12.325 -0.4058  0.1944  0.0616
 3444SOL    HW121968   4.127   4.058  12.236 -0.8815  1.9685 -0.1977
 3444SOL    HW221969   4.234   4.125  12.295 -0.1010  0.9484  2.0296
 3445SOL     OW21970   2.775   1.784  13.975 -0.3508 -0.0451  0.4513
 3445SOL    HW121971   2.814   1.720  14.034  0.0883  0.5555  0.8250
 3445SOL    HW221972   2.773   1.860  14.034  0.0040  0.7963 -0.6165
 3446SOL     OW21973   2.885   3.882   8.619  0.2877  0.1310  0.3801
 3446SOL    HW121974   2.846   3.797   8.599 -1.6115  1.1944 -0.4461
 3446SOL    HW221975   2.798   3.918   8.636  0.4737 -0.1275  1.9566
 3447SOL     OW21976   0.899   3.774  16.595 -0.0884  0.6884 -1.0811
 3447SOL    HW121977   0.921   3.741  16.682  0.6230  0.9450 -1.1668
 3447SOL    HW221978   0.952   3.709  16.548 -0.7052 -1.4964  1.2619
 3448SOL     OW21979   3.183   3.601  10.993  0.4467  0.6079 -0.2597
 3448SOL    HW121980   3.220   3.601  10.905 -1.0090 -1.5098 -0.8761
 3448SOL    HW221981   3.156   3.509  11.004  0.1765  0.7961  0.6497
 3449SOL     OW21982   1.565   1.432   3.617  0.0461  0.5699  0.3070
 3449SOL    HW121983   1.646   1.381   3.623 -0.9876 -1.0930  0.3204
 3449SOL    HW221984   1.503   1.366   3.584 -0.2802 -0.6554  3.4320
 3450SOL     OW21985   4.602   2.973   6.827 -0.3191 -1.2776 -0.4182
 3450SOL    HW121986   4.685   3.018   6.816 -0.7401 -0.5783 -0.7567
 3450SOL    HW221987   4.583   2.958   6.735 -2.1903 -0.7472 -0.1176
 3451SOL     OW21988   0.007   1.795   8.093  0.8862 -0.5845  0.4335
 3451SOL    HW121989   0.040   1.758   8.012  3.2021 -1.0759  1.6082
 3451SOL    HW221990   0.059   1.749   8.159 -0.4662 -0.7222  1.4112
 3452SOL     OW21991   3.982   1.308   4.041 -0.1844  0.1226 -0.1729
 3452SOL    HW121992   3.907   1.328   3.986 -2.6395 -1.4897  2.5820
 3452SOL    HW221993   3.969   1.217   4.070  1.3215  0.1571  0.6265
 3453SOL     OW21994   2.288   2.870   7.016  0.3677  0.9241 -0.2550
 3453SOL    HW121995   2.307   2.947   6.961 -0.5669 -0.1136 -2.0272
 3453SOL    HW221996   2.300   2.797   6.955  3.1561  1.4226 -0.3103
 3454SOL     OW21997   4.504   2.210   1.075 -0.2339  0.0422  0.7597
 3454SOL    HW121998   4.500   2.160   1.157  1.0942 -0.4692  0.5084
 3454SOL    HW221999   4.439   2.277   1.097  0.2705  0.3543  1.3027
 3455SOL     OW22000   1.919   3.667  13.035  0.3386 -0.2004 -0.2486
 3455SOL    HW122001   1.888   3.757  13.046  1.2087 -0.0982  1.4215
 3455SOL    HW222002   1.959   3.653  13.121 -0.4772 -1.3585 -0.0487
 3456SOL     OW22003   0.932   1.111  17.533  0.8915 -0.5826 -0.5647
 3456SOL    HW122004   0.907   1.086  17.444 -0.8136  0.6002 -0.4145
 3456SOL    HW222005   0.903   1.202  17.539  0.9634 -0.6657  0.9685
 3457SOL     OW22006   3.819   1.110   4.381  0.5937  0.0658 -0.3102
 3457SOL    HW122007   3.795   1.112   4.288  0.4120 -0.9944 -0.2771
 3457SOL    HW222008   3.826   1.016   4.393 -0.4517  0.0693  0.3481
 3458SOL     OW22009   3.198   4.086   7.080  0.5891 -0.3049 -0.6333
 3458SOL    HW122010   3.111   4.051   7.060  0.9087 -1.0626 -0.7001
 3458SOL    HW222011   3.264   4.042   7.026  1.8438  0.4837  0.2510
 3459SOL     OW22012   4.224   0.649   9.319 -0.0932 -0.2603  0.1535
 3459SOL    HW122013   4.281   0.572   9.311  0.4781  0.1642  0.1642
 3459SOL    HW222014   4.235   0.659   9.414 -0.5329  1.2373  0.0410
 3460SOL     OW22015   4.015   0.056  17.684  0.5732 -0.1528 -0.0408
 3460SOL    HW122016   3.942   0.014  17.639  0.9188 -0.3416 -0.4193
 3460SOL    HW222017   3.984   0.104   0.007 -1.8075  1.8037 -2.1821
 3461SOL     OW22018   0.109   0.121   1.312  0.0750  0.0836 -0.0637
 3461SOL    HW122019   0.023   0.081   1.314 -0.0943  0.3852 -1.2874
 3461SOL    HW222020   0.159   0.046   1.280 -0.3877  0.0253 -0.6451
 3462SOL     OW22021   2.001   2.866  17.263  0.0153 -0.1557 -0.1551
 3462SOL    HW122022   1.993   2.774  17.238 -0.2357  0.0322 -0.7742
 3462SOL    HW222023   2.050   2.898  17.187  1.2272 -0.3111  0.5704
 3463SOL     OW22024   3.643   4.544   0.760  0.5823 -0.2384  0.2443
 3463SOL    HW122025   3.682   4.569   0.676 -0.2820  2.3121  0.5885
 3463SOL    HW222026   3.549   4.542   0.744  0.2745  1.5329  1.8598
 3464SOL     OW22027   4.113   0.694   4.505 -0.3119  0.2260 -0.1608
 3464SOL    HW122028   4.023   0.709   4.534  0.1068  0.1574  1.1696
 3464SOL    HW222029   4.097   0.643   4.426  1.4147  0.5347 -0.7114
 3465SOL     OW22030   3.520   2.056   4.477 -0.2523 -0.3498  0.0382
 3465SOL    HW122031   3.532   2.016   4.391  0.2860 -1.4167  0.6112
 3465SOL    HW222032   3.610   2.082   4.498 -1.0931  1.0731  1.8941
 3466SOL     OW22033   3.779   1.474  13.698  0.0617 -0.1241 -0.4840
 3466SOL    HW122034   3.790   1.428  13.781  0.3685  1.6829  0.4697
 3466SOL    HW222035   3.858   1.527  13.695 -0.2434  0.2435 -2.2575
 3467SOL     OW22036   1.397   4.670   1.744 -0.4863  0.2084  0.1895
 3467SOL    HW122037   1.347   0.001   1.785 -0.9831  0.5057 -0.9035
 3467SOL    HW222038   1.336   4.658   1.671  0.1530  1.1619 -0.5070
 3468SOL     OW22039   0.326   3.700  10.236  0.0362 -0.2013  0.6012
 3468SOL    HW122040   0.286   3.770  10.184 -0.0084  0.4506  1.5148
 3468SOL    HW222041   0.412   3.720  10.200  0.1091  1.3266  1.6132
 3469SOL     OW22042   3.598   0.949   3.510  0.2854  0.1382  1.0757
 3469SOL    HW122043   3.645   0.904   3.440 -2.5825 -0.5700 -0.4009
 3469SOL    HW222044   3.604   1.037   3.474 -0.8511 -0.2714 -0.1166
 3470SOL     OW22045   4.284   2.913   7.216 -0.0355 -0.2300 -0.2834
 3470SOL    HW122046   4.242   2.827   7.211 -1.4347  0.4473 -0.1838
 3470SOL    HW222047   4.361   2.897   7.162 -0.0089 -1.0444  0.0042
 3471SOL     OW22048   4.311   2.473   7.379 -0.3243 -0.0967 -0.1534
 3471SOL    HW122049   4.365   2.397   7.399  1.8116  1.3342 -0.4363
 3471SOL    HW222050   4.332   2.521   7.459  0.1027  0.2420 -0.4631
 3472SOL     OW22051   2.077   3.793  12.833 -0.9269  0.0639  0.0271
 3472SOL    HW122052   1.995   3.827  12.798 -1.5704 -0.4504  1.0265
 3472SOL    HW222053   2.123   3.806  12.750 -0.0833  0.1510  0.5050
 3473SOL     OW22054   3.788   2.777  12.404  0.5873  0.0764  0.4894
 3473SOL    HW122055   3.728   2.709  12.433  1.9540 -1.6327 -0.6641
 3473SOL    HW222056   3.827   2.808  12.486 -0.1604 -0.2656  0.9628
 3474SOL     OW22057   2.323   4.234   6.111 -0.1852 -0.3746  0.1218
 3474SOL    HW122058   2.289   4.321   6.086  1.4701  0.3743  0.4866
 3474SOL    HW222059   2.416   4.241   6.089 -0.0511 -0.3657  0.6866
 3475SOL     OW22060   2.074   2.632  15.483 -0.1457  0.1711 -0.2675
 3475SOL    HW122061   2.047   2.625  15.574 -0.8903 -0.5959 -0.5401
 3475SOL    HW222062   2.114   2.718  15.474  0.1603  0.0151 -0.4246
 3476SOL     OW22063   1.939   3.386   0.480 -0.3564  0.1799 -0.2800
 3476SOL    HW122064   1.890   3.314   0.441  2.4460 -1.5660 -0.5861
 3476SOL    HW222065   2.011   3.387   0.417  1.5341  0.9789  1.8839
 3477SOL     OW22066   4.064   3.176   5.364  0.2656  0.1982 -0.4722
 3477SOL    HW122067   4.056   3.084   5.387  1.4324  0.2874  0.3314
 3477SOL    HW222068   3.979   3.198   5.326  0.3513  5.5499  2.3637
 3478SOL     OW22069   4.060   1.091   8.781  0.2259  0.5005 -0.5566
 3478SOL    HW122070   4.052   1.179   8.744  1.0307  0.8479  0.1006
 3478SOL    HW222071   4.146   1.095   8.822 -0.1863 -1.1675  0.4731
 3479SOL     OW22072   3.091   3.031   4.013 -0.6841  0.5124 -0.0707
 3479SOL    HW122073   3.062   2.947   4.047  1.0814  0.1632  0.5692
 3479SOL    HW222074   3.163   3.036   4.076  0.0878 -0.1881 -0.8912
 3480SOL     OW22075   4.724   2.493   7.121  0.1657 -0.0534 -0.3314
 3480SOL    HW122076   0.030   2.481   7.037 -0.2545  0.6882 -0.6695
 3480SOL    HW222077   0.026   2.425   7.173 -0.6253  0.0870  0.4794
 3481SOL     OW22078   0.234   2.466   2.489  0.1402 -0.8164  0.3070
 3481SOL    HW122079   0.170   2.535   2.472  2.1339  0.0829 -3.5424
 3481SOL    HW222080   0.170   2.403   2.520 -1.9138  1.9636  1.7532
 3482SOL     OW22081   0.478   0.487   1.122 -0.0243 -0.0288 -0.2145
 3482SOL    HW122082   0.407   0.462   1.182 -0.1893 -0.5304 -0.6144
 3482SOL    HW222083   0.557   0.479   1.174  0.4950  0.9568 -0.8650
 3483SOL     OW22084   3.145   3.695   9.067  0.1703 -0.1511 -0.4639
 3483SOL    HW122085   3.079   3.728   9.006 -0.2152 -0.0631  0.0013
 3483SOL    HW222086   3.121   3.732   9.152 -1.8114  0.0084 -1.0885
 3484SOL     OW22087   2.869   4.343   2.286  0.0638  0.3787  0.5716
 3484SOL    HW122088   2.865   4.424   2.234 -2.2175 -0.5607 -0.7376
 3484SOL    HW222089   2.960   4.357   2.312  0.5688 -2.7044  0.4351
 3485SOL     OW22090   2.020   1.658   8.262  0.0014 -0.3995 -0.0178
 3485SOL    HW122091   2.020   1.748   8.293 -0.1696 -0.7040  0.8606
 3485SOL    HW222092   2.026   1.608   8.343 -1.0757  0.9522  0.8737
 3486SOL     OW22093   2.399   3.421   9.442  0.2984  0.7558 -0.6856
 3486SOL    HW122094   2.394   3.329   9.415  0.8970  0.1343  1.2775
 3486SOL    HW222095   2.378   3.409   9.535  2.6325 -0.6200 -0.3149
 3487SOL     OW22096   3.491   4.560   7.288  0.7760  0.2202  0.9493
 3487SOL    HW122097   3.538   4.596   7.364  0.2397  0.5075  1.1427
 3487SOL    HW222098   3.423   4.623   7.264  1.1123 -0.1900 -1.1070
 3488SOL     OW22099   0.600   2.247   6.995  0.7009 -0.1749  0.4485
 3488SOL    HW122100   0.658   2.213   6.928  0.8732  1.9457 -0.4834
 3488SOL    HW222101   0.662   2.242   7.068  3.1019  2.0048 -1.4282
 3489SOL     OW22102   0.914   0.721   9.247  0.9216  0.6390  0.3943
 3489SOL    HW122103   0.889   0.662   9.176  2.0047 -1.1533  1.4971
 3489SOL    HW222104   0.936   0.643   9.298 -2.6279 -0.0174  0.9712
 3490SOL     OW22105   2.001   3.993   6.652  0.6241  0.3617  0.3583
 3490SOL    HW122106   1.987   4.038   6.569 -0.0027 -2.4927 -1.0631
 3490SOL    HW222107   2.081   3.945   6.631  0.4997 -0.5963  2.0154
 3491SOL     OW22108   4.032   0.168  15.692  0.0738 -0.6682 -0.5322
 3491SOL    HW122109   4.077   0.097  15.647  0.1411 -0.4165 -0.8650
 3491SOL    HW222110   3.938   0.155  15.687  0.2903 -1.7930 -1.6633
 3492SOL     OW22111   0.713   0.174   1.398  0.0890 -0.6228  0.2833
 3492SOL    HW122112   0.625   0.138   1.394  0.2716 -0.9530 -0.7222
 3492SOL    HW222113   0.690   0.267   1.396 -1.9171 -1.1393  0.0433
 3493SOL     OW22114   4.583   1.124   0.721 -0.3947  0.5004 -0.0115
 3493SOL    HW122115   4.534   1.196   0.681  1.2284  0.8905 -1.2815
 3493SOL    HW222116   4.572   1.056   0.654  2.1885  0.4752 -0.4029
 3494SOL     OW22117   2.569   1.004   5.725 -0.6634 -0.4067  0.0246
 3494SOL    HW122118   2.630   0.932   5.706  0.2120 -0.2003  2.0678
 3494SOL    HW222119   2.631   1.050   5.782 -0.8908  1.8055 -1.5062
 3495SOL     OW22120   1.214   4.523   5.702 -0.2182 -0.1794  0.0219
 3495SOL    HW122121   1.246   4.609   5.729 -1.6981  0.1835  0.6236
 3495SOL    HW222122   1.275   4.461   5.742  1.6333  1.2564 -0.5390
 3496SOL     OW22123   2.934   0.954   2.103  0.4703  0.1904 -0.0216
 3496SOL    HW122124   2.840   0.970   2.095  1.2239  4.2657 -0.6495
 3496SOL    HW222125   2.968   1.028   2.154  1.9526 -0.3832 -0.1682
 3497SOL     OW22126   2.523   1.523   6.246  0.2401  0.0736 -0.3828
 3497SOL    HW122127   2.448   1.466   6.231  0.4359 -0.1138 -0.6566
 3497SOL    HW222128   2.513   1.571   6.329 -1.8144 -0.2249 -0.4584
 3498SOL     OW22129   4.682   0.576   6.886 -0.2389  0.1066 -0.6129
 3498SOL    HW122130   4.737   0.617   6.819  2.4279  0.7901  1.9551
 3498SOL    HW222131   4.608   0.551   6.831 -1.4882 -0.6941  1.4233
 3499SOL     OW22132   2.880   0.135   4.048 -0.0783  0.2528 -0.3398
 3499SOL    HW122133   2.917   0.218   4.018 -0.0990  0.5417  0.4105
 3499SOL    HW222134   2.940   0.122   4.121 -0.4259 -0.8367 -0.2417
 3500SOL     OW22135   3.919   2.540  11.349 -0.3843 -0.3230  0.3636
 3500SOL    HW122136   3.957   2.551  11.436  3.4317 -1.0513 -1.2143
 3500SOL    HW222137   3.988   2.527  11.283  0.4049 -2.2701  1.5789
 3501SOL     OW22138   2.130   0.487   2.084 -0.6911  0.3210  0.2058
 3501SOL    HW122139   2.178   0.407   2.105 -1.2267 -0.8195 -2.9259
 3501SOL    HW222140   2.095   0.520   2.167  1.4987 -0.1383  1.3252
 3502SOL     OW22141   1.607   2.169   2.394  0.6372 -0.1931  0.4515
 3502SOL    HW122142   1.571   2.084   2.420  1.3762 -0.3437  0.9688
 3502SOL    HW222143   1.657   2.160   2.313 -1.5013 -3.6597 -0.4564
 3503SOL     OW22144   2.492   3.130  16.311 -0.1786 -0.0473  0.1397
 3503SOL    HW122145   2.416   3.163  16.263  0.7009  0.7712 -0.6714
 3503SOL    HW222146   2.560   3.181  16.268 -0.3119 -1.8484 -2.2279
 3504SOL     OW22147   1.586   1.002   2.998 -0.3116 -0.1448 -0.7760
 3504SOL    HW122148   1.678   1.016   2.975  0.3799  1.1166  2.7833
 3504SOL    HW222149   1.584   0.975   3.089  0.8740 -1.4036 -1.1253
 3505SOL     OW22150   2.628   0.212  14.517  0.0565 -0.1920 -0.8468
 3505SOL    HW122151   2.633   0.257  14.432 -1.6281  1.0638 -0.2751
 3505SOL    HW222152   2.722   0.198  14.531 -0.0892  0.7151  1.0442
 3506SOL     OW22153   3.678   0.474   5.724 -0.2954 -0.2156 -0.0618
 3506SOL    HW122154   3.638   0.552   5.685  0.6159  0.6347  0.7180
 3506SOL    HW222155   3.597   0.426   5.740  0.6635 -1.4881  1.0053
 3507SOL     OW22156   1.832   4.229   4.083  0.0782  0.6019 -0.1671
 3507SOL    HW122157   1.897   4.177   4.131 -0.3063  0.0457 -0.2409
 3507SOL    HW222158   1.818   4.284   4.160 -0.0434  0.7288 -0.2822
 3508SOL     OW22159   3.187   4.360  13.506 -0.0962 -0.2148 -0.0946
 3508SOL    HW122160   3.148   4.436  13.463  3.1916  1.4179 -0.1718
 3508SOL    HW222161   3.111   4.335  13.558  1.1948 -1.0581  1.3946
 3509SOL     OW22162   2.438   4.126  11.332 -0.1572  0.7267  0.5185
 3509SOL    HW122163   2.367   4.083  11.284  0.8634  0.3162 -0.6225
 3509SOL    HW222164   2.498   4.146  11.260 -1.6877  1.0926 -0.6505
 3510SOL     OW22165   1.857   0.472  15.396 -0.3460  0.5478  0.0304
 3510SOL    HW122166   1.855   0.404  15.464  0.1661 -0.9590 -1.4609
 3510SOL    HW222167   1.797   0.435  15.332 -0.6645  0.5941  0.3058
 3511SOL     OW22168   2.119   3.921   5.448 -0.4218  0.3148  0.0210
 3511SOL    HW122169   2.210   3.937   5.473 -0.6577 -1.2009  1.7721
 3511SOL    HW222170   2.109   3.868   5.369  1.6888  0.2920 -0.2145
 3512SOL     OW22171   3.994   1.827   2.860  0.0640  0.2710 -0.0776
 3512SOL    HW122172   4.079   1.828   2.816  1.1881  1.7761  2.1323
 3512SOL    HW222173   3.930   1.859   2.796 -0.7571 -2.1411 -0.5014
 3513SOL     OW22174   4.619   2.080   8.841 -0.1314 -0.1176 -0.3011
 3513SOL    HW122175   4.527   2.092   8.863  0.9457  2.8702  2.6476
 3513SOL    HW222176   4.643   2.164   8.802  0.2182 -0.0981 -0.0464
 3514SOL     OW22177   2.098   2.215   5.111 -0.4888  0.1376  0.0079
 3514SOL    HW122178   2.106   2.309   5.094 -2.3363  0.3566  0.4264
 3514SOL    HW222179   2.010   2.192   5.080  0.0606 -1.8001 -0.1278
 3515SOL     OW22180   3.094   1.729   8.452  0.2897  0.1098  0.3628
 3515SOL    HW122181   3.140   1.812   8.445 -0.5378  0.4948 -0.4996
 3515SOL    HW222182   3.001   1.749   8.444  0.0730  0.0785  2.8281
 3516SOL     OW22183   0.556   1.028   1.807 -0.2424 -0.0440 -0.3911
 3516SOL    HW122184   0.518   1.086   1.874  0.9551  1.8470 -1.3524
 3516SOL    HW222185   0.648   1.034   1.830 -0.9086 -0.4591  2.3902
 3517SOL     OW22186   1.595   2.666   3.342  0.3058 -0.0286 -0.2703
 3517SOL    HW122187   1.546   2.643   3.421 -1.0946  1.9507 -0.5563
 3517SOL    HW222188   1.522   2.704   3.295  0.7059 -0.2009 -1.0296
 3518SOL     OW22189   1.404   1.711  17.058  0.7417  0.2477  0.1805
 3518SOL    HW122190   1.451   1.722  17.140  1.1693  1.1820 -0.1884
 3518SOL    HW222191   1.387   1.804  17.045  1.6402  0.7779  2.7817
 3519SOL     OW22192   3.408   3.128   2.097 -0.8450 -0.0772 -0.1357
 3519SOL    HW122193   3.398   3.218   2.128  1.5252 -0.1271  0.8375
 3519SOL    HW222194   3.504   3.130   2.104 -0.9717  1.4195  1.2537
 3520SOL     OW22195   0.675   1.395   3.997  0.2593 -0.5081  1.0454
 3520SOL    HW122196   0.756   1.405   4.047  1.1824 -1.6651 -0.2044
 3520SOL    HW222197   0.620   1.464   4.033  0.3310  0.6049 -0.9532
 3521SOL     OW22198   1.972   2.391  15.105  0.2781 -0.3268 -0.1631
 3521SOL    HW122199   2.067   2.377  15.104  0.2855 -0.3940  1.0152
 3521SOL    HW222200   1.970   2.455  15.176  0.0670 -0.0980 -0.3778
 3522SOL     OW22201   1.520   3.951   6.645  0.2382  0.1739  0.0629
 3522SOL    HW122202   1.577   4.024   6.623  0.7177  0.3302  1.7832
 3522SOL    HW222203   1.522   3.897   6.567 -1.3104 -0.2723  0.3366
 3523SOL     OW22204   4.520   2.638   5.751  0.3239  0.4794  0.0130
 3523SOL    HW122205   4.460   2.678   5.815 -1.2722  0.6909 -1.6018
 3523SOL    HW222206   4.454   2.631   5.681 -0.2545  3.8601  0.1784
 3524SOL     OW22207   4.031   0.178   4.707 -0.4040 -0.4180  0.4106
 3524SOL    HW122208   4.039   0.250   4.770 -1.2071 -1.7908  2.0593
 3524SOL    HW222209   3.940   0.153   4.726 -0.1868 -3.5183 -2.5958
 3525SOL     OW22210   2.294   0.784   7.491  0.1608  0.4779  0.2551
 3525SOL    HW122211   2.309   0.827   7.575  0.0513  0.3842  0.3219
 3525SOL    HW222212   2.335   0.699   7.507  1.6026  1.0884 -0.0913
 3526SOL     OW22213   2.174   2.135   6.136 -0.3751  0.4399 -0.5002
 3526SOL    HW122214   2.264   2.105   6.150 -0.3661 -0.5101 -2.5632
 3526SOL    HW222215   2.127   2.094   6.209  0.9936 -0.0813  0.0887
 3527SOL     OW22216   3.057   1.616   7.389  0.0722  0.0482 -0.0838
 3527SOL    HW122217   3.033   1.543   7.332 -0.9953  0.7023 -0.4602
 3527SOL    HW222218   3.152   1.608   7.394  0.1404 -0.4142 -2.0879
 3528SOL     OW22219   1.216   1.834   1.408 -0.2296  0.7150  0.3435
 3528SOL    HW122220   1.277   1.764   1.387 -2.3746 -0.5846 -1.6549
 3528SOL    HW222221   1.252   1.912   1.367  0.7099  0.1902  0.1854
 3529SOL     OW22222   0.884   4.019   4.023  0.2379 -0.0484 -0.4300
 3529SOL    HW122223   0.913   3.942   4.072 -1.5311  0.5884  1.6526
 3529SOL    HW222224   0.967   4.064   4.011 -0.0911  0.4240 -0.9512
 3530SOL     OW22225   1.382   1.881   3.838  0.1568  0.5415 -0.1471
 3530SOL    HW122226   1.374   1.911   3.929 -0.9143 -3.8601  1.2108
 3530SOL    HW222227   1.470   1.844   3.850  0.0460  0.3615  0.1178
 3531SOL     OW22228   3.342   2.774   6.994  0.1988  0.0881 -0.0305
 3531SOL    HW122229   3.378   2.831   6.926 -0.0010  1.8319  1.3064
 3531SOL    HW222230   3.260   2.736   6.962 -0.2858  0.4744  0.7411
 3532SOL     OW22231   1.336   0.565   0.563  0.3718 -0.1076 -0.4223
 3532SOL    HW122232   1.354   0.594   0.652  3.7828 -2.1879 -0.4448
 3532SOL    HW222233   1.307   0.645   0.517  0.7862  0.7954  0.9021
 3533SOL     OW22234   4.536   2.987   6.120 -0.4730 -0.0249 -0.1573
 3533SOL    HW122235   4.476   3.041   6.068 -0.3590  0.6283  0.3898
 3533SOL    HW222236   4.487   2.918   6.165  2.1884 -2.1857 -0.6089
 3534SOL     OW22237   1.942   1.512  13.242 -0.2753 -0.4614 -0.6017
 3534SOL    HW122238   1.889   1.433  13.253 -2.0062  0.4108 -2.8169
 3534SOL    HW222239   1.960   1.526  13.335 -0.4107  0.8405 -0.7621
 3535SOL     OW22240   2.528   0.780   2.197  0.1719 -0.1896 -0.0071
 3535SOL    HW122241   2.502   0.709   2.138 -0.7878  0.1721 -0.0114
 3535SOL    HW222242   2.596   0.739   2.251 -0.1700  0.4869  0.9389
 3536SOL     OW22243   4.156   3.022  10.705  0.5617  0.0790  0.4998
 3536SOL    HW122244   4.221   3.029  10.775  1.7369  1.3670 -0.7191
 3536SOL    HW222245   4.084   2.982  10.753 -1.4121  2.8910 -0.1411
 3537SOL     OW22246   2.664   3.840   7.933 -0.2816  0.1124  0.0338
 3537SOL    HW122247   2.592   3.818   7.873  0.3651 -1.5352 -0.1162
 3537SOL    HW222248   2.734   3.783   7.905  0.9690  1.4620  0.3983
 3538SOL     OW22249   4.384   0.830  17.446 -1.1865  0.5426  0.0101
 3538SOL    HW122250   4.387   0.906  17.504  2.7104  0.2972  0.1628
 3538SOL    HW222251   4.368   0.753  17.501 -0.1915 -0.8929 -1.7136
 3539SOL     OW22252   3.448   1.151   9.199 -0.2254 -0.2334  0.3475
 3539SOL    HW122253   3.523   1.207   9.180 -0.5519  0.6135  1.5631
 3539SOL    HW222254   3.487   1.065   9.183  0.9994  0.2711  0.6390
 3540SOL     OW22255   2.367   1.173  11.666 -0.1670 -0.0757  0.1489
 3540SOL    HW122256   2.352   1.222  11.586  2.6350  0.8171  0.1601
 3540SOL    HW222257   2.297   1.213  11.718  0.2785  1.3623 -0.3773
 3541SOL     OW22258   4.611   2.470   1.756 -0.4834  0.3723  0.2602
 3541SOL    HW122259   4.516   2.475   1.767 -0.8510 -1.3995 -2.2347
 3541SOL    HW222260   4.627   2.467   1.662  0.6456 -3.2215  0.5434
 3542SOL     OW22261   1.338   3.879   1.188  0.1527 -0.4184  0.9278
 3542SOL    HW122262   1.275   3.925   1.132  0.5890  0.1300  0.8928
 3542SOL    HW222263   1.394   3.832   1.126  0.7306 -0.2181  1.3016
 3543SOL     OW22264   0.046   2.466   7.564 -0.1801 -0.5000 -0.4028
 3543SOL    HW122265   4.717   2.524   7.531 -0.1497  0.0656  0.5230
 3543SOL    HW222266   4.734   2.401   7.613  1.4761 -0.4015  1.4657
 3544SOL     OW22267   4.670   1.136   7.179 -0.2589 -0.2020  0.5251
 3544SOL    HW122268   0.022   1.113   7.162 -0.6748  0.2029 -2.2952
 3544SOL    HW222269   4.625   1.139   7.095 -0.4227 -0.2414  0.6122
 3545SOL     OW22270   2.069   3.529   7.432  0.3964 -0.9150 -0.1682
 3545SOL    HW122271   2.038   3.551   7.519  2.1157  0.8492 -0.0062
 3545SOL    HW222272   2.041   3.600   7.373  0.5234 -0.5320  0.2350
 3546SOL     OW22273   3.007   1.113   6.263 -0.6087 -1.3254 -0.1959
 3546SOL    HW122274   3.055   1.130   6.182 -1.9710  0.5521 -0.6070
 3546SOL    HW222275   2.915   1.108   6.238 -0.5240  5.3408 -2.0690
 3547SOL     OW22276   3.772   3.938   8.138  0.3545  0.0564  0.5588
 3547SOL    HW122277   3.750   4.029   8.158  1.9483 -0.2531  3.8291
 3547SOL    HW222278   3.717   3.881   8.192 -0.7095 -0.6455 -1.2494
 3548SOL     OW22279   3.431   0.943   5.946 -0.2705  0.1301 -0.5721
 3548SOL    HW122280   3.481   0.994   5.882  3.1979 -1.3839  0.9264
 3548SOL    HW222281   3.497   0.949   6.015  0.6712 -1.3257 -1.3454
 3549SOL     OW22282   3.947   0.544   4.333  0.1109  0.0618  0.0328
 3549SOL    HW122283   3.856   0.561   4.357 -0.6158 -1.9127 -1.3411
 3549SOL    HW222284   3.944   0.517   4.241  0.1428  1.2248 -0.3094
 3550SOL     OW22285   0.058   2.774  16.845 -0.2043 -0.0222  0.1009
 3550SOL    HW122286   4.728   2.737  16.900  0.4252 -0.3791  0.6378
 3550SOL    HW222287   0.061   2.869  16.859 -0.1570 -0.0166  0.0508
 3551SOL     OW22288   4.159   2.272  14.464 -0.0921  0.0003 -0.8045
 3551SOL    HW122289   4.230   2.315  14.513 -0.0676 -1.7404  0.6523
 3551SOL    HW222290   4.079   2.306  14.503  1.6940  1.0710  1.9600
 3552SOL     OW22291   1.883   3.799   7.998  0.3079 -1.0212 -0.1465
 3552SOL    HW122292   1.852   3.765   8.082 -0.7621 -2.2322 -1.0415
 3552SOL    HW222293   1.953   3.859   8.024 -0.8444 -0.4639  1.6355
 3553SOL     OW22294   2.507   3.785   3.974 -0.2223  0.2686 -0.1823
 3553SOL    HW122295   2.591   3.739   3.969  0.5210  1.9027 -2.6833
 3553SOL    HW222296   2.531   3.870   4.011 -2.3313  0.6679  0.2535
 3554SOL     OW22297   3.143   0.869   6.656 -0.8260 -0.2129  0.2646
 3554SOL    HW122298   3.105   0.919   6.584  0.6639 -0.2025 -0.5085
 3554SOL    HW222299   3.072   0.805   6.660 -2.5049  1.7221  1.4119
 3555SOL     OW22300   0.717   1.305   2.108  0.0844 -0.1687  1.0880
 3555SOL    HW122301   0.680   1.346   2.030  1.8017  0.4520  0.5754
 3555SOL    HW222302   0.810   1.328   2.099  0.2125 -1.7966 -1.8127
 3556SOL     OW22303   2.897   2.602   7.100 -0.4722 -0.4452  0.7060
 3556SOL    HW122304   2.874   2.687   7.138 -2.7314 -0.2449 -1.1364
 3556SOL    HW222305   2.926   2.542   7.169  2.3406 -0.1891 -0.2900
 3557SOL     OW22306   2.753   0.586   8.492 -0.3280  0.5372 -0.8281
 3557SOL    HW122307   2.827   0.623   8.541 -0.3278 -1.2095  0.5081
 3557SOL    HW222308   2.798   0.554   8.414 -0.9870  0.7833 -1.3094
 3558SOL     OW22309   0.959   0.036  13.246 -0.1143  0.2822 -0.0110
 3558SOL    HW122310   1.051   0.048  13.271 -0.3025 -1.4604  1.5105
 3558SOL    HW222311   0.938   0.122  13.210  0.4222  0.8149  0.9453
 3559SOL     OW22312   3.473   0.070  11.303 -0.2871  0.1737 -0.1071
 3559SOL    HW122313   3.466   0.034  11.391 -0.4510 -2.1903 -1.0711
 3559SOL    HW222314   3.567   0.083  11.297 -0.4389  0.6006 -1.7250
 3560SOL     OW22315   3.112   0.316   9.455  0.4566 -0.1708 -0.2793
 3560SOL    HW122316   3.054   0.388   9.432  0.1297 -0.0987  0.7472
 3560SOL    HW222317   3.172   0.314   9.381  1.4767 -0.8088  0.5626
 3561SOL     OW22318   2.826   1.183   9.030  0.1325 -0.2124  0.5520
 3561SOL    HW122319   2.763   1.162   9.100 -0.9050  0.4408 -0.1834
 3561SOL    HW222320   2.754   1.221   8.979  0.6016  0.2088  0.2127
 3562SOL     OW22321   4.634   0.133   5.580 -0.5932 -0.1373  0.0273
 3562SOL    HW122322   4.557   0.188   5.588 -0.8393 -0.3940 -0.5635
 3562SOL    HW222323   4.694   0.200   5.614  0.1835 -1.6389  1.6380
 3563SOL     OW22324   1.868   0.921  16.586 -0.4410  0.0430  0.5336
 3563SOL    HW122325   1.815   0.842  16.598  0.6304 -0.7822 -0.1721
 3563SOL    HW222326   1.902   0.903  16.499 -0.7565  1.8074  0.0371
 3564SOL     OW22327   4.551   2.000  15.337 -0.3277 -0.0606  0.3989
 3564SOL    HW122328   4.590   2.076  15.294 -0.3089  0.1825  0.8519
 3564SOL    HW222329   4.595   1.928  15.293 -0.1283  0.0650  0.3924
 3565SOL     OW22330   4.457   2.084  13.436  0.1732  0.2630  0.1337
 3565SOL    HW122331   4.371   2.105  13.399  0.3980 -0.0621 -0.5712
 3565SOL    HW222332   4.506   2.149  13.386  1.1844 -1.6050 -1.3409
 3566SOL     OW22333   2.107   0.443  14.965  0.0202 -0.5969  0.0814
 3566SOL    HW122334   2.171   0.375  14.944  0.1841 -0.1559 -0.8582
 3566SOL    HW222335   2.076   0.426  15.054 -0.2395 -0.3749  0.0308
 3567SOL     OW22336   4.294   2.312   6.854 -0.0801  0.0629  0.2771
 3567SOL    HW122337   4.282   2.257   6.931  0.6207  1.5856  1.4744
 3567SOL    HW222338   4.288   2.397   6.897 -0.6713 -0.2708  0.8507
 3568SOL     OW22339   1.857   0.428  16.762 -0.5478  0.0093 -0.2122
 3568SOL    HW122340   1.835   0.338  16.736 -1.7266  0.7867 -1.8579
 3568SOL    HW222341   1.841   0.420  16.856 -0.3552 -0.4632 -0.2194
 3569SOL     OW22342   0.413   4.708   4.883  0.4802 -0.2166 -0.0924
 3569SOL    HW122343   0.320   4.722   4.867 -0.2875 -1.4553  3.2159
 3569SOL    HW222344   0.423   4.622   4.923  0.7483 -0.4200 -0.6118
 3570SOL     OW22345   4.252   4.534   7.518 -0.6535 -0.2399 -0.1522
 3570SOL    HW122346   4.288   4.458   7.472 -0.1679  0.0528 -0.2520
 3570SOL    HW222347   4.170   4.502   7.556 -0.2404 -0.0722  0.8926
 3571SOL     OW22348   0.506   0.955   6.955  0.0503 -0.1011 -0.0104
 3571SOL    HW122349   0.569   0.926   6.889 -1.2483 -1.8397 -0.4712
 3571SOL    HW222350   0.516   0.894   7.028  2.0798  0.2664  0.0197
 3572SOL     OW22351   1.686   0.955   0.397  0.6485 -0.8474 -0.2621
 3572SOL    HW122352   1.618   0.943   0.331  1.6528 -0.0202 -1.4478
 3572SOL    HW222353   1.694   0.863   0.420  2.0312 -0.3886  1.1094
 3573SOL     OW22354   0.064   0.385  10.117  0.2319 -0.3952  0.2256
 3573SOL    HW122355   4.722   0.381  10.168  0.1352 -0.1406  0.0897
 3573SOL    HW222356   0.051   0.300  10.076  2.9224 -0.7473  0.0795
 3574SOL     OW22357   2.074   0.121   6.510 -0.2894 -0.3078 -0.1326
 3574SOL    HW122358   2.131   0.187   6.550  0.6992 -0.1415 -1.7843
 3574SOL    HW222359   2.129   0.059   6.462 -1.4551  0.1326 -2.0391
 3575SOL     OW22360   0.215   1.775   7.082 -0.4488 -0.4439  0.1546
 3575SOL    HW122361   0.132   1.765   7.128 -1.3072 -0.9620 -1.4915
 3575SOL    HW222362   0.258   1.847   7.129 -1.2471 -0.0931  0.3535
 3576SOL     OW22363   2.615   2.817   4.294 -0.2040 -0.7153 -0.5423
 3576SOL    HW122364   2.618   2.880   4.222 -1.2541  0.0027  0.0402
 3576SOL    HW222365   2.585   2.872   4.366 -1.2575 -2.3327  0.2673
 3577SOL     OW22366   1.985   4.424  10.374  0.4933 -0.0239 -0.0309
 3577SOL    HW122367   1.980   4.471  10.291  1.0740  3.3974  1.8882
 3577SOL    HW222368   1.894   4.398  10.385  1.3096 -2.8680  0.0806
 3578SOL     OW22369   0.254   0.872   2.099  0.0005 -0.6874 -0.3241
 3578SOL    HW122370   0.163   0.899   2.084  0.6001  1.9229  0.7447
 3578SOL    HW222371   0.313   0.947   2.087 -1.2893  0.5480  1.0941
 3579SOL     OW22372   3.902   4.478   3.811  0.0646  0.5054  0.7917
 3579SOL    HW122373   3.819   4.487   3.764 -0.2980 -0.9176  1.1504
 3579SOL    HW222374   3.872   4.478   3.902 -1.0378  0.5007  0.4265
 3580SOL     OW22375   0.789   3.295   1.216  0.2090 -0.0619  0.1871
 3580SOL    HW122376   0.866   3.245   1.241  0.2918 -0.3558 -0.6487
 3580SOL    HW222377   0.773   3.264   1.127  0.2234  0.4327  0.0090
 3581SOL     OW22378   4.489   2.213   8.097 -0.3627  0.0830  0.4159
 3581SOL    HW122379   4.468   2.137   8.043 -0.5900  0.6345 -0.2798
 3581SOL    HW222380   4.582   2.232   8.082 -0.3020 -0.3968  0.1712
 3582SOL     OW22381   2.446   2.825   5.084 -0.6323 -0.7190  0.1175
 3582SOL    HW122382   2.506   2.782   5.023 -1.5348  1.9137 -2.5867
 3582SOL    HW222383   2.508   2.887   5.123  0.5956 -0.8068 -1.7209
 3583SOL     OW22384   3.628   0.028   5.386 -0.2929  0.0514 -0.9150
 3583SOL    HW122385   3.626   4.712   5.464 -0.3266 -1.7577 -2.1894
 3583SOL    HW222386   3.611   0.116   5.421  1.3388  0.5387 -1.3182
 3584SOL     OW22387   3.644   4.348   7.211  0.7074  0.0342  0.3802
 3584SOL    HW122388   3.584   4.419   7.232  1.4620  0.6742  0.3928
 3584SOL    HW222389   3.616   4.324   7.123 -0.2596 -1.0165  0.9647
 3585SOL     OW22390   2.491   3.539  10.031 -0.4817  0.0692  0.8622
 3585SOL    HW122391   2.416   3.505  10.080 -1.2071  0.1158 -0.2236
 3585SOL    HW222392   2.453   3.609   9.978 -1.3339 -1.4473 -0.4996
 3586SOL     OW22393   2.621   3.501  16.517  0.5451  0.4993 -0.1019
 3586SOL    HW122394   2.530   3.481  16.493  0.8344 -0.0392 -0.7287
 3586SOL    HW222395   2.660   3.536  16.437 -1.8641  1.1087 -1.0326
 3587SOL     OW22396   0.201   0.345   0.788  0.2264  0.0191  0.3079
 3587SOL    HW122397   0.204   0.413   0.721 -1.5224  0.6898  0.8952
 3587SOL    HW222398   0.283   0.368   0.831 -0.2974 -0.4645  1.6006
 3588SOL     OW22399   4.120   2.101  13.534  0.6119  0.6532  0.0666
 3588SOL    HW122400   4.146   2.131  13.447 -2.9083 -0.5945 -1.4095
 3588SOL    HW222401   4.189   2.146  13.582  0.7218  0.2988  0.2406
 3589SOL     OW22402   4.552   1.229   3.702 -0.0355  0.0058  0.4006
 3589SOL    HW122403   4.645   1.209   3.693 -0.1094 -0.2498  0.1989
 3589SOL    HW222404   4.545   1.256   3.793  2.9123 -0.6704  0.8441
 3590SOL     OW22405   3.611   1.788   1.285  0.2425  0.5305  0.5075
 3590SOL    HW122406   3.544   1.754   1.225  0.7683  0.7029 -0.1755
 3590SOL    HW222407   3.615   1.709   1.339  2.6305 -1.4138 -2.4586
 3591SOL     OW22408   0.059   3.866   4.952 -0.2363 -0.1125  0.2275
 3591SOL    HW122409   0.084   3.776   4.934 -3.6354 -0.7577 -1.2362
 3591SOL    HW222410   0.136   3.898   4.999 -0.0934  0.9301 -0.7032
 3592SOL     OW22411   3.982   1.829   4.257 -0.2863 -0.4002  0.2930
 3592SOL    HW122412   3.905   1.789   4.216 -0.2553  0.7361 -0.8738
 3592SOL    HW222413   4.055   1.768   4.245 -0.3628 -0.1312 -1.4793
 3593SOL     OW22414   4.215   3.879   6.108  0.2425  0.1125 -0.4247
 3593SOL    HW122415   4.233   3.949   6.044 -1.2785  0.2447 -0.7148
 3593SOL    HW222416   4.241   3.796   6.069 -1.6699 -0.7391  0.1655
 3594SOL     OW22417   2.891   2.027  16.864  0.1328  0.2696 -0.3315
 3594SOL    HW122418   2.888   2.007  16.958 -1.4124  2.1679  0.0143
 3594SOL    HW222419   2.952   2.101  16.858  1.5504 -0.6887  1.8598
 3595SOL     OW22420   4.098   3.781   4.857 -0.1390 -0.2321  0.3600
 3595SOL    HW122421   4.014   3.779   4.903 -0.9061  1.6456 -0.9434
 3595SOL    HW222422   4.079   3.852   4.795  1.4402  0.4080  0.6155
 3596SOL     OW22423   3.360   2.215  14.311 -0.1104 -0.7754  0.4162
 3596SOL    HW122424   3.399   2.253  14.232  0.1296 -1.7790  0.0478
 3596SOL    HW222425   3.304   2.148  14.274 -1.5011  0.9982 -0.6845
 3597SOL     OW22426   1.698   0.681   5.107  0.5265 -0.2143 -0.4607
 3597SOL    HW122427   1.650   0.605   5.074  1.9757 -0.3451 -2.2590
 3597SOL    HW222428   1.708   0.727   5.024  1.9757  0.6233  0.1803
 3598SOL     OW22429   3.728   4.444   6.805  0.1843  0.0851  0.2514
 3598SOL    HW122430   3.808   4.470   6.759 -0.4004 -1.0695 -1.4096
 3598SOL    HW222431   3.668   4.503   6.759 -0.2255 -1.0392 -0.6363
 3599SOL     OW22432   2.336   0.641   3.530  0.1388 -0.0898 -0.4877
 3599SOL    HW122433   2.351   0.612   3.620 -0.2310  0.8988 -0.1147
 3599SOL    HW222434   2.248   0.677   3.539  0.2370 -0.1581  0.8163
 3600SOL     OW22435   3.492   0.508   6.277  0.1682 -0.3651  0.7956
 3600SOL    HW122436   3.543   0.467   6.207 -1.8669  1.4349 -1.7043
 3600SOL    HW222437   3.563   0.520   6.340  0.4327 -0.9363  0.6071
 3601SOL     OW22438   3.912   3.004  16.885 -0.0335 -0.4653  0.0313
 3601SOL    HW122439   3.927   3.097  16.868 -1.0977 -0.0966  1.0993
 3601SOL    HW222440   3.916   2.993  16.979  1.1593 -1.7401 -0.1728
 3602SOL     OW22441   3.922   2.980   3.387  0.3709 -0.9149 -0.3125
 3602SOL    HW122442   3.973   2.977   3.306 -1.0651 -0.2246 -1.2470
 3602SOL    HW222443   3.991   2.993   3.452 -0.5230  0.7433  0.3034
 3603SOL     OW22444   2.560   2.178   2.202 -0.5116 -0.3210  0.4274
 3603SOL    HW122445   2.472   2.183   2.239 -1.3056  0.7428 -1.5965
 3603SOL    HW222446   2.611   2.133   2.270 -0.9615 -0.9358  0.3514
 3604SOL     OW22447   3.388   1.627   7.806 -0.2360 -0.1044 -0.0732
 3604SOL    HW122448   3.383   1.722   7.817  0.2091  0.2377 -2.7001
 3604SOL    HW222449   3.353   1.594   7.888  2.2732 -2.1398  0.1818
 3605SOL     OW22450   2.486   0.078   4.151  0.1576  0.3127  0.0893
 3605SOL    HW122451   2.398   0.042   4.168 -0.4266  1.3892 -0.6879
 3605SOL    HW222452   2.452   0.141   4.087  1.5633  0.1219 -0.8336
 3606SOL     OW22453   3.139   3.831   2.175  0.0959 -0.3713  0.1012
 3606SOL    HW122454   3.171   3.920   2.188  2.0932 -1.0481 -0.2679
 3606SOL    HW222455   3.077   3.822   2.248  2.4741  0.0671  2.1781
 3607SOL     OW22456   3.713   2.954   5.144  0.3665  0.0658  0.3091
 3607SOL    HW122457   3.667   2.942   5.227  1.6067 -0.0814  0.9826
 3607SOL    HW222458   3.803   2.952   5.176  0.2803 -3.2559  0.3278
 3608SOL     OW22459   1.383   4.188  12.688 -0.3316  0.4815 -0.1561
 3608SOL    HW122460   1.419   4.103  12.660 -0.8384  0.7297 -1.5657
 3608SOL    HW222461   1.292   4.162  12.698  0.3318 -1.3257  1.2896
 3609SOL     OW22462   1.372   0.829  15.494 -0.1443  0.2015  0.2456
 3609SOL    HW122463   1.382   0.748  15.543 -0.9523  0.3539  0.6574
 3609SOL    HW222464   1.353   0.790  15.409  0.5499  2.7148 -1.0479
 3610SOL     OW22465   0.391   0.488   6.010  0.1317 -0.4309  0.4082
 3610SOL    HW122466   0.369   0.409   6.060  1.4465 -0.8060  0.3815
 3610SOL    HW222467   0.480   0.505   6.039  0.1869 -0.6611  0.3769
 3611SOL     OW22468   1.692   0.606  13.704  0.3491  0.3989  0.1474
 3611SOL    HW122469   1.699   0.702  13.702  1.5995  0.2949 -1.1168
 3611SOL    HW222470   1.765   0.583  13.646  1.2360  1.1869  0.9365
 3612SOL     OW22471   3.240   3.393   8.001  0.0897 -0.0396  0.3629
 3612SOL    HW122472   3.276   3.475   8.034  1.3004  0.4266 -2.1069
 3612SOL    HW222473   3.196   3.423   7.922 -1.4767  0.0811  1.2684
 3613SOL     OW22474   0.151   1.119   4.821 -0.0949  0.4282 -0.2580
 3613SOL    HW122475   0.234   1.081   4.793 -0.4431 -1.3553  1.1639
 3613SOL    HW222476   0.096   1.045   4.843  0.7558  0.0576  0.6274
 3614SOL     OW22477   2.289   0.575  12.807 -0.2346  0.0031  0.5492
 3614SOL    HW122478   2.297   0.575  12.902  0.3899 -0.9473  0.4903
 3614SOL    HW222479   2.378   0.603  12.785 -0.3979 -0.9366 -1.3239
 3615SOL     OW22480   2.200   1.974   5.454  0.1452  0.1300  0.1118
 3615SOL    HW122481   2.221   1.911   5.522  1.1350  1.2502  0.8366
 3615SOL    HW222482   2.119   1.941   5.413 -0.1988  1.4976 -0.3201
 3616SOL     OW22483   4.473   3.684   8.596 -0.2727  0.9528 -0.3452
 3616SOL    HW122484   4.439   3.604   8.558  0.0488  2.4128 -3.7034
 3616SOL    HW222485   4.497   3.660   8.686 -1.6162 -2.2125 -0.8550
 3617SOL     OW22486   2.045   4.545   0.203  0.2109  0.4806 -0.2958
 3617SOL    HW122487   2.062   4.514   0.292  1.0073  1.2748 -0.1686
 3617SOL    HW222488   1.952   4.568   0.201  0.5619  1.9279 -0.3144
 3618SOL     OW22489   3.330   3.918   5.855 -0.1334 -0.3304  0.0616
 3618SOL    HW122490   3.244   3.901   5.816  0.2025  2.1106 -1.6785
 3618SOL    HW222491   3.315   3.898   5.948  1.1580 -2.0433 -0.1008
 3619SOL     OW22492   0.314   3.965   8.301 -0.2317  0.2636  0.4028
 3619SOL    HW122493   0.229   4.008   8.294 -0.6512 -0.7139 -0.4504
 3619SOL    HW222494   0.312   3.942   8.394 -1.7306 -0.9922  0.0661
 3620SOL     OW22495   2.405   4.582   2.998 -0.4077 -0.4121 -0.0056
 3620SOL    HW122496   2.433   4.606   3.086 -2.5571  1.7030  0.0895
 3620SOL    HW222497   2.316   4.616   2.999 -0.3582 -0.1511 -2.9878
 3621SOL     OW22498   3.260   1.367   6.955 -0.1753 -0.3485  0.4146
 3621SOL    HW122499   3.339   1.312   6.958 -1.2492 -1.8297  1.5319
 3621SOL    HW222500   3.202   1.302   6.916 -2.2885  0.6354  1.9283
 3622SOL     OW22501   3.231   2.413  11.177 -0.2424 -0.0150  0.3186
 3622SOL    HW122502   3.156   2.386  11.125  0.7210 -1.6670 -0.2284
 3622SOL    HW222503   3.217   2.507  11.178  0.5823  0.1219 -2.4825
 3623SOL     OW22504   1.889   3.158   4.863  1.0227 -0.0565  0.0042
 3623SOL    HW122505   1.814   3.195   4.816  1.8739  0.2208 -1.1437
 3623SOL    HW222506   1.858   3.178   4.951  1.3514 -1.7176  0.4894
 3624SOL     OW22507   3.898   2.208   7.650  0.4520  0.5808 -0.5936
 3624SOL    HW122508   3.831   2.243   7.709  0.0633  0.1011 -0.7492
 3624SOL    HW222509   3.856   2.224   7.565  1.1618  0.9100 -0.8826
 3625SOL     OW22510   2.734   1.709   4.165  0.1563 -0.2178 -0.1071
 3625SOL    HW122511   2.785   1.646   4.215 -1.3992  0.2143  2.0075
 3625SOL    HW222512   2.800   1.743   4.105 -1.7450  1.2114 -1.3588
 3626SOL     OW22513   0.780   3.114   2.911 -0.3206 -0.4117  0.2093
 3626SOL    HW122514   0.727   3.180   2.957 -0.7313 -0.5029 -0.1327
 3626SOL    HW222515   0.729   3.092   2.833  1.1627 -2.2042 -0.2399
 3627SOL     OW22516   0.348   4.017   2.930  0.1141 -0.0803  0.2019
 3627SOL    HW122517   0.419   4.036   2.869 -0.8710 -1.5675 -1.4121
 3627SOL    HW222518   0.341   4.093   2.988  0.9242 -1.2375  1.7937
 3628SOL     OW22519   1.046   4.161   2.917 -0.0467  0.4881  0.0696
 3628SOL    HW122520   1.064   4.171   2.824 -2.2610 -0.7056 -0.5006
 3628SOL    HW222521   1.113   4.096   2.940 -0.1401 -0.1537 -1.4858
 3629SOL     OW22522   3.539   1.529   8.210  0.1316  0.4199 -0.0361
 3629SOL    HW122523   3.488   1.547   8.290 -2.3695 -0.4821 -1.4226
 3629SOL    HW222524   3.561   1.619   8.186  0.3007  0.6447  0.9323
 3630SOL     OW22525   4.210   2.210  10.206  0.1234  0.2675 -0.3141
 3630SOL    HW122526   4.213   2.159  10.287  2.1410  2.6486  1.1378
 3630SOL    HW222527   4.162   2.290  10.230 -0.3851  0.2420 -1.2580
 3631SOL     OW22528   0.166   2.103   6.979  0.4986  0.2798  0.4283
 3631SOL    HW122529   0.215   2.072   7.056 -1.0100 -1.9226  0.5310
 3631SOL    HW222530   0.103   2.035   6.952 -0.4179  1.4834 -0.4589
 3632SOL     OW22531   2.496   0.956   8.713  0.4393  0.4099  0.9483
 3632SOL    HW122532   2.560   0.932   8.646 -1.1044  1.3322 -0.8750
 3632SOL    HW222533   2.552   0.968   8.789  1.9789 -2.6224  0.2793
 3633SOL     OW22534   1.406   1.793   5.519 -0.1488 -0.7856 -0.1260
 3633SOL    HW122535   1.358   1.712   5.538  1.5575 -1.6488  0.5643
 3633SOL    HW222536   1.353   1.864   5.553 -0.8782 -1.2342 -0.3205
 3634SOL     OW22537   3.580   2.588  10.716 -0.6501 -0.1166 -0.2156
 3634SOL    HW122538   3.504   2.622  10.762 -0.1541 -0.1345  0.6202
 3634SOL    HW222539   3.640   2.559  10.785 -2.0765 -2.1232  0.1639
 3635SOL     OW22540   3.243   1.543   3.380  0.3965 -0.0431  0.2496
 3635SOL    HW122541   3.322   1.520   3.428  0.0474  0.2480  0.9628
 3635SOL    HW222542   3.186   1.573   3.451  0.4976 -0.9796  0.7239
 3636SOL     OW22543   0.911   1.364   5.367 -0.1099 -0.0330  0.2318
 3636SOL    HW122544   0.970   1.408   5.306 -1.0203  0.6177 -0.1834
 3636SOL    HW222545   0.904   1.274   5.335 -0.2609  0.8070 -2.0499
 3637SOL     OW22546   2.377   1.810  15.427  0.5817 -0.1318  0.9968
 3637SOL    HW122547   2.405   1.882  15.371  0.3477 -0.2634  0.7074
 3637SOL    HW222548   2.284   1.801  15.404  0.7601  1.1904 -0.2250
 3638SOL     OW22549   4.022   2.057  14.228 -0.4514  0.5483 -0.2592
 3638SOL    HW122550   4.003   1.977  14.179  1.9675 -0.1884  0.0295
 3638SOL    HW222551   3.940   2.072  14.275 -2.0529  0.1177 -2.8980
 3639SOL     OW22552   0.276   3.485   5.441 -0.0842 -0.3548 -0.1427
 3639SOL    HW122553   0.197   3.502   5.492  0.8776 -0.2772  1.3198
 3639SOL    HW222554   0.239   3.465   5.354 -0.7342  1.1510 -0.2196
 3640SOL     OW22555   4.000   4.359   5.122 -0.0521  0.0721 -0.6038
 3640SOL    HW122556   3.987   4.436   5.177  2.2880 -0.7928  1.1449
 3640SOL    HW222557   3.994   4.294   5.192 -1.2754 -0.4245 -1.1768
 3641SOL     OW22558   3.969   1.368   5.151  0.5067  0.2128  0.3082
 3641SOL    HW122559   4.014   1.292   5.114 -0.8234 -1.1365  1.4670
 3641SOL    HW222560   3.984   1.443   5.094  1.2246 -0.7035 -0.7073
 3642SOL     OW22561   1.089   1.629  11.461  0.2659 -0.3081 -0.0406
 3642SOL    HW122562   1.148   1.581  11.403 -2.3012 -2.0200 -1.1973
 3642SOL    HW222563   1.004   1.613  11.420 -0.4983  1.6591  0.8088
 3643SOL     OW22564   2.841   3.646   4.526 -0.1641 -0.0013 -0.4867
 3643SOL    HW122565   2.895   3.569   4.507  2.0483  1.5261 -0.3688
 3643SOL    HW222566   2.831   3.681   4.438  2.1626  0.9576 -0.3724
 3644SOL     OW22567   0.654   2.792   7.298 -0.0406  0.0042 -0.3433
 3644SOL    HW122568   0.735   2.842   7.285 -0.4114  1.2388  2.0694
 3644SOL    HW222569   0.627   2.813   7.388 -0.8197 -0.2525 -0.5188
 3645SOL     OW22570   0.860   3.297   2.566 -0.1681  0.4959  0.0970
 3645SOL    HW122571   0.942   3.308   2.614 -0.5081  1.1123  0.5390
 3645SOL    HW222572   0.884   3.232   2.500 -2.9931  0.3319 -0.7379
 3646SOL     OW22573   0.663   2.816  10.845  0.8834  0.1896 -0.4267
 3646SOL    HW122574   0.756   2.799  10.853  0.8371  1.3300  2.8165
 3646SOL    HW222575   0.657   2.841  10.753  0.1045 -2.0945 -0.9832
 3647SOL     OW22576   1.283   4.102   6.669  0.2666  0.0550 -0.4309
 3647SOL    HW122577   1.354   4.040   6.653  0.1717 -0.0876 -0.3004
 3647SOL    HW222578   1.340   4.152   6.726 -1.0496 -1.2862  2.0458
 3648SOL     OW22579   2.221   0.973  13.140  0.1629  0.5533 -0.0081
 3648SOL    HW122580   2.297   0.975  13.082  0.9364 -2.0418  0.9243
 3648SOL    HW222581   2.179   0.890  13.119  0.5647  0.1009  0.9867
 3649SOL     OW22582   2.035   2.945   9.330 -0.1157 -0.4546  0.2320
 3649SOL    HW122583   2.109   2.901   9.287 -1.0508 -1.1638 -0.6840
 3649SOL    HW222584   2.081   3.011   9.381  0.8010 -0.3770 -0.6821
 3650SOL     OW22585   2.740   3.755  10.641 -0.3321 -0.2887  0.4431
 3650SOL    HW122586   2.757   3.835  10.691  0.4367  0.4940 -1.0734
 3650SOL    HW222587   2.826   3.715  10.655 -0.0121 -0.3764 -1.8878
 3651SOL     OW22588   1.097   2.067   4.850  0.1851 -0.0624 -0.4609
 3651SOL    HW122589   1.119   2.159   4.859  0.6033  0.0759 -2.8217
 3651SOL    HW222590   1.180   2.034   4.816 -0.2840 -0.0508 -1.6109
 3652SOL     OW22591   4.605   2.587   9.637  0.5851 -0.2055 -0.7378
 3652SOL    HW122592   4.527   2.589   9.581  0.5729 -0.1409 -0.7189
 3652SOL    HW222593   4.567   2.623   9.717  1.1594 -0.5750 -0.2969
 3653SOL     OW22594   4.412   3.393  10.596  0.1795 -0.1846 -0.3060
 3653SOL    HW122595   4.318   3.386  10.611  0.5814  0.6488  2.5145
 3653SOL    HW222596   4.429   3.485  10.615  0.7020 -0.4011  0.2525
 3654SOL     OW22597   1.884   4.152  10.618  0.0358 -0.1207 -0.1989
 3654SOL    HW122598   1.946   4.219  10.645 -1.5996  1.0490  0.6798
 3654SOL    HW222599   1.834   4.198  10.551 -2.3990 -1.1226  0.9164
 3655SOL     OW22600   0.519   4.448   6.210 -0.3289  0.3906 -0.3235
 3655SOL    HW122601   0.529   4.360   6.246  0.8091  0.9563  0.7325
 3655SOL    HW222602   0.609   4.481   6.215  1.5172 -4.1472 -2.5033
 3656SOL     OW22603   0.792   2.078   5.949 -0.0649  0.4772 -0.5065
 3656SOL    HW122604   0.802   1.984   5.967 -1.6157  0.4513  0.2498
 3656SOL    HW222605   0.703   2.098   5.978  0.8611  1.2187  1.8067
 3657SOL     OW22606   0.171   2.633   5.698 -0.3346  0.6171  0.0180
 3657SOL    HW122607   0.081   2.604   5.710 -0.0808  0.2934  1.1276
 3657SOL    HW222608   0.162   2.709   5.640  3.0957 -0.0752 -1.4707
 3658SOL     OW22609   4.594   1.600  15.475  0.0450  0.1590  0.0691
 3658SOL    HW122610   4.537   1.568  15.406  0.4344 -0.5337  0.0642
 3658SOL    HW222611   4.577   1.694  15.477  1.3052  0.3967 -0.4681
 3659SOL     OW22612   4.391   2.825   3.844  0.6886 -0.6893 -0.7423
 3659SOL    HW122613   4.310   2.830   3.792 -0.6184 -3.2795  1.0258
 3659SOL    HW222614   4.449   2.837   3.769  1.7921 -0.4383  0.1578
 3660SOL     OW22615   4.673   3.102   3.471 -0.3298 -0.5200  0.3030
 3660SOL    HW122616   4.637   3.162   3.537 -1.2565  0.5794 -1.2028
 3660SOL    HW222617   4.590   3.076   3.430  0.2381 -0.7365 -0.6970
 3661SOL     OW22618   3.579   3.461   6.365  0.0827  0.8201  0.1878
 3661SOL    HW122619   3.514   3.503   6.309  1.0440 -0.2828 -1.7182
 3661SOL    HW222620   3.670   3.479   6.342  0.0798 -1.0737 -1.2354
 3662SOL     OW22621   1.837   1.401   8.447 -0.3018 -0.1177  0.0859
 3662SOL    HW122622   1.907   1.467   8.452 -0.1391 -0.3326  0.7104
 3662SOL    HW222623   1.790   1.412   8.530  1.9465  0.7473  1.2430
 3663SOL     OW22624   1.031   4.632  16.343  0.0793 -0.1971 -0.5117
 3663SOL    HW122625   1.008   4.718  16.307 -1.7735 -1.1090 -1.4816
 3663SOL    HW222626   1.028   4.659  16.435 -1.8947 -0.4269 -0.5161
 3664SOL     OW22627   2.865   2.464   3.057  0.0473  0.0755 -0.3500
 3664SOL    HW122628   2.782   2.483   3.014 -1.2444 -0.2047  1.9881
 3664SOL    HW222629   2.887   2.372   3.039  0.3248 -0.0079  0.4031
 3665SOL     OW22630   3.022   3.234  10.326 -0.6439 -0.2469 -0.7261
 3665SOL    HW122631   2.974   3.256  10.247  0.3633  0.0916 -1.2423
 3665SOL    HW222632   3.046   3.143  10.311 -0.4112 -0.2713 -0.1920
 3666SOL     OW22633   4.342   4.130   1.397  0.3714 -0.3482 -0.3332
 3666SOL    HW122634   4.293   4.054   1.368 -0.0756 -1.0670  2.3191
 3666SOL    HW222635   4.432   4.102   1.381  0.2580  0.1323 -1.8407
 3667SOL     OW22636   2.905   2.088   6.754  0.0674 -0.3196 -0.9581
 3667SOL    HW122637   2.883   2.178   6.733 -2.0718 -0.7742 -0.6904
 3667SOL    HW222638   2.965   2.098   6.828  1.6025 -1.2622 -2.0807
 3668SOL     OW22639   1.870   4.514  15.611 -0.0217  0.6174 -0.3890
 3668SOL    HW122640   1.888   4.478  15.698  0.0130  1.9934  0.1732
 3668SOL    HW222641   1.957   4.514  15.570 -0.3081  0.6070 -0.9911
 3669SOL     OW22642   3.500   1.356  12.262 -0.0356 -0.1498  0.5019
 3669SOL    HW122643   3.533   1.267  12.266 -0.6934 -0.3868  0.4953
 3669SOL    HW222644   3.585   1.391  12.290 -0.1072  0.3559  0.0958
 3670SOL     OW22645   3.953   0.877  10.250 -0.0873 -0.0308 -0.0622
 3670SOL    HW122646   3.982   0.838  10.332  0.8072 -1.1581 -0.9086
 3670SOL    HW222647   3.978   0.968  10.266  1.7054 -0.8620  1.8489
 3671SOL     OW22648   2.844   4.658   9.285  0.4197 -0.0191  0.1302
 3671SOL    HW122649   2.899   4.728   9.251  2.1427 -0.7486  1.3761
 3671SOL    HW222650   2.883   4.585   9.237 -2.8915 -0.5252 -1.7841
 3672SOL     OW22651   0.106   4.442  16.302  0.1485  0.0653  0.1152
 3672SOL    HW122652   0.115   4.437  16.397  2.8159  0.8952 -0.0849
 3672SOL    HW222653   0.075   4.533  16.306  0.3005  0.1026  0.4508
 3673SOL     OW22654   0.610   1.443   1.911 -0.3042  0.1964 -0.1333
 3673SOL    HW122655   0.575   1.531   1.895 -1.8265 -0.2734  0.6241
 3673SOL    HW222656   0.542   1.387   1.873 -0.7683  1.4007 -1.0906
 3674SOL     OW22657   3.640   2.772  13.686 -0.8861  0.0571 -0.1815
 3674SOL    HW122658   3.716   2.825  13.711 -1.5074 -0.1854  2.2838
 3674SOL    HW222659   3.584   2.848  13.671  0.7656  0.8731 -2.0997
 3675SOL     OW22660   2.655   1.017   7.538 -0.0317  0.3655  0.4532
 3675SOL    HW122661   2.707   1.076   7.482 -0.0866  0.7641  0.8221
 3675SOL    HW222662   2.569   1.053   7.514 -0.7045 -1.4742  0.1643
 3676SOL     OW22663   1.514   4.620   8.168 -0.1767  0.2792 -0.7151
 3676SOL    HW122664   1.575   4.627   8.094 -0.2481 -1.5242 -0.9277
 3676SOL    HW222665   1.511   4.710   8.201 -0.5343 -0.7507  2.0880
 3677SOL     OW22666   0.768   3.577   3.613  0.0704  0.0657  0.0209
 3677SOL    HW122667   0.681   3.571   3.574  0.2424 -2.4937  0.0677
 3677SOL    HW222668   0.761   3.649   3.676  0.9669 -1.6206  2.0478
 3678SOL     OW22669   4.562   3.929  13.051 -1.3582 -0.2613  0.4447
 3678SOL    HW122670   4.641   3.883  13.022 -0.4142  1.0318  0.9676
 3678SOL    HW222671   4.508   3.937  12.973 -0.5758 -5.5708 -0.6632
 3679SOL     OW22672   1.781   0.709   0.196 -0.0538  0.2679  0.0942
 3679SOL    HW122673   1.868   0.749   0.191  1.0459 -2.0922  0.2273
 3679SOL    HW222674   1.794   0.632   0.141  0.4250 -0.1742  0.8201
 3680SOL     OW22675   0.490   3.633   6.056  0.3967  0.1817 -0.5652
 3680SOL    HW122676   0.496   3.706   6.117 -3.3741 -0.1880  0.2553
 3680SOL    HW222677   0.525   3.664   5.972 -0.2171  1.7586 -0.2279
 3681SOL     OW22678   2.015   3.541   2.301  0.4592  0.0822  0.6973
 3681SOL    HW122679   2.077   3.502   2.239 -0.4009  0.4163 -0.3791
 3681SOL    HW222680   1.980   3.468   2.352  0.7453 -0.4504  0.1373
 3682SOL     OW22681   1.459   3.796   7.485  0.9341 -0.3645  0.1147
 3682SOL    HW122682   1.481   3.887   7.464  0.6423 -1.0040 -3.0413
 3682SOL    HW222683   1.500   3.750   7.412  3.8563 -1.6605  2.5842
 3683SOL     OW22684   0.955   4.459   0.683  0.5872 -0.1416 -0.4370
 3683SOL    HW122685   1.028   4.518   0.666  0.6304 -0.5120 -1.5895
 3683SOL    HW222686   0.880   4.481   0.627  0.6577  0.3703 -0.3229
 3684SOL     OW22687   2.956   2.256   5.624  0.2295  0.1035  0.0053
 3684SOL    HW122688   2.991   2.226   5.709  0.1729 -3.7044 -1.3003
 3684SOL    HW222689   3.008   2.204   5.563  0.1258 -1.3861  1.1677
 3685SOL     OW22690   0.757   2.768   4.623 -0.5097  0.5558 -0.5294
 3685SOL    HW122691   0.764   2.861   4.602  2.6674  0.5998  0.6930
 3685SOL    HW222692   0.681   2.754   4.567 -0.5555 -1.1466 -0.0356
 3686SOL     OW22693   3.435   0.069   5.181 -0.1497 -0.3356  0.3728
 3686SOL    HW122694   3.517   0.055   5.228 -0.3310 -0.0312  0.7775
 3686SOL    HW222695   3.471   0.073   5.093 -1.1617  2.9195  0.1356
 3687SOL     OW22696   2.413   0.585   3.789  0.7752  0.1335 -0.8806
 3687SOL    HW122697   2.478   0.519   3.813 -0.3075 -1.0391 -1.1450
 3687SOL    HW222698   2.343   0.576   3.853 -0.0120  1.2990 -1.5874
 3688SOL     OW22699   0.448   0.255  16.061  0.2068  0.1941 -0.2938
 3688SOL    HW122700   0.390   0.253  15.985  1.5375  1.0746 -1.3309
 3688SOL    HW222701   0.401   0.309  16.125 -0.6899  0.2530 -1.0098
 3689SOL     OW22702   3.738   1.901   5.756 -0.3673  0.1115  0.0623
 3689SOL    HW122703   3.750   1.900   5.851 -2.7792 -0.9458  0.3444
 3689SOL    HW222704   3.805   1.841   5.723  0.1728 -1.1584  3.4641
 3690SOL     OW22705   0.317   0.147   1.637  0.2331 -0.2971  0.0904
 3690SOL    HW122706   0.381   0.143   1.566 -0.7051 -0.9803 -0.7082
 3690SOL    HW222707   0.376   0.144   1.712 -0.0103 -2.2706  0.2057
 3691SOL     OW22708   2.190   3.178   9.789  0.4948 -0.1929 -0.4677
 3691SOL    HW122709   2.114   3.141   9.744  2.1084 -0.7764 -2.7166
 3691SOL    HW222710   2.190   3.114   9.860 -1.3683  0.0411 -0.2454
 3692SOL     OW22711   1.945   0.757   8.616  0.0432  0.0391  0.2351
 3692SOL    HW122712   1.865   0.790   8.658  0.2696 -1.8751  2.1761
 3692SOL    HW222713   1.939   0.663   8.632 -2.1924  0.2639  0.7901
 3693SOL     OW22714   1.041   4.103   7.127  0.6819  0.0509  0.3593
 3693SOL    HW122715   1.135   4.123   7.133  0.4365  1.4213 -0.4934
 3693SOL    HW222716   1.013   4.186   7.089 -0.6612 -1.1045 -1.1133
 3694SOL     OW22717   4.427   3.274  17.164  0.0211  0.1232 -0.1878
 3694SOL    HW122718   4.423   3.357  17.116  0.9897 -0.4617 -1.2688
 3694SOL    HW222719   4.519   3.251  17.156  0.0795  0.4618 -0.4991
 3695SOL     OW22720   2.812   2.798   7.977 -0.2040 -0.2130  0.6262
 3695SOL    HW122721   2.746   2.785   7.910  0.9164 -2.8599  0.0390
 3695SOL    HW222722   2.752   2.835   8.042  0.1223 -1.6979  1.7854
 3696SOL     OW22723   1.096   2.011   5.833 -0.1074 -0.1582  0.2041
 3696SOL    HW122724   1.056   1.926   5.853  2.0115 -1.2223 -0.1485
 3696SOL    HW222725   1.029   2.071   5.866  0.0721  0.0266  0.2343
 3697SOL     OW22726   0.153   2.113   1.154  0.1692 -0.7009 -0.0411
 3697SOL    HW122727   0.236   2.112   1.108 -0.4113 -2.4727 -1.0188
 3697SOL    HW222728   0.090   2.090   1.086 -1.7218 -0.2577  1.5388
 3698SOL     OW22729   3.721   3.199   6.407  0.5902  0.1473 -0.0344
 3698SOL    HW122730   3.809   3.161   6.410  0.7645  0.5891  0.3959
 3698SOL    HW222731   3.733   3.287   6.443 -0.6638  0.3311 -0.0695
 3699SOL     OW22732   3.614   0.999   5.759  0.2151  0.4306  0.6444
 3699SOL    HW122733   3.599   1.092   5.772  0.2996  0.2591  1.9426
 3699SOL    HW222734   3.710   1.008   5.758  0.2296  0.2600 -0.6814
 3700SOL     OW22735   1.641   1.724  15.442 -0.4238  0.2067  0.4147
 3700SOL    HW122736   1.633   1.799  15.501  0.5322  1.6248 -1.2373
 3700SOL    HW222737   1.651   1.773  15.361  0.8519  0.0201  0.4524
 3701SOL     OW22738   1.481   1.069  10.522  0.1512 -0.4476 -0.3850
 3701SOL    HW122739   1.430   1.076  10.602  0.1637  1.0607 -0.5119
 3701SOL    HW222740   1.543   1.136  10.552  0.0934  0.4136 -2.1485
 3702SOL     OW22741   0.410   1.306   6.421  0.0303  0.0363  0.3220
 3702SOL    HW122742   0.326   1.300   6.374  0.5802  1.0503 -0.7894
 3702SOL    HW222743   0.396   1.233   6.481  0.0644  0.1894  0.5168
 3703SOL     OW22744   3.985   0.204   6.090  0.2352  0.3023  0.3102
 3703SOL    HW122745   4.007   0.164   6.174 -0.8202 -0.5066  0.1950
 3703SOL    HW222746   3.936   0.128   6.059  0.2906  1.9182 -3.7714
 3704SOL     OW22747   2.509   4.620   3.267  0.1655  0.2933 -0.5030
 3704SOL    HW122748   2.517   4.667   3.350 -0.2431  0.8727 -0.7927
 3704SOL    HW222749   2.579   4.662   3.218  0.5186 -1.1373 -1.2333
 3705SOL     OW22750   2.099   1.158  10.142  0.2855  0.0049  0.6632
 3705SOL    HW122751   2.115   1.200  10.226  2.9619  3.0800 -1.3873
 3705SOL    HW222752   2.007   1.132  10.152  0.1475  0.6843  1.1333
 3706SOL     OW22753   4.232   3.141   1.066 -0.0064  0.3722  0.0510
 3706SOL    HW122754   4.238   3.231   1.034 -1.0020  1.0281  1.7096
 3706SOL    HW222755   4.215   3.158   1.158 -0.0572 -0.8032  0.2576
 3707SOL     OW22756   0.923   2.205  11.972 -0.1319  0.0078  0.0898
 3707SOL    HW122757   0.974   2.241  12.045 -0.4464 -0.4538  0.5440
 3707SOL    HW222758   0.863   2.162  12.033 -3.1924 -1.0965 -3.7318
 3708SOL     OW22759   0.515   2.660   3.745 -0.3432  0.0349 -0.3314
 3708SOL    HW122760   0.490   2.751   3.727 -1.3829 -0.4199 -1.1820
 3708SOL    HW222761   0.605   2.685   3.768 -0.8610  1.2862  0.3597
 3709SOL     OW22762   0.381   0.335   5.025  0.5713  0.6068 -0.4225
 3709SOL    HW122763   0.301   0.281   5.029  1.7492 -1.0998  0.3694
 3709SOL    HW222764   0.366   0.375   5.111 -1.1531  1.9870 -1.3585
 3710SOL     OW22765   3.546   2.313   2.717 -0.2064  0.0825  0.0243
 3710SOL    HW122766   3.635   2.331   2.689 -0.4569 -0.8721 -1.4270
 3710SOL    HW222767   3.549   2.217   2.719 -0.7706  0.0348 -1.2047
 3711SOL     OW22768   3.045   1.161   0.434 -0.5727  0.7620 -0.0113
 3711SOL    HW122769   3.050   1.255   0.414 -4.4732  0.6540 -1.4735
 3711SOL    HW222770   2.983   1.156   0.506  0.0522  0.5776  0.5188
 3712SOL     OW22771   0.424   1.163  10.220  0.0361 -0.2199 -0.3268
 3712SOL    HW122772   0.509   1.119  10.220  0.8518  1.3505 -1.7808
 3712SOL    HW222773   0.438   1.217  10.142 -2.7252 -0.5603 -1.0537
 3713SOL     OW22774   0.402   3.248  14.596 -0.0798 -0.0103 -0.3169
 3713SOL    HW122775   0.306   3.247  14.596 -0.0576 -1.5754 -1.3464
 3713SOL    HW222776   0.419   3.286  14.683 -1.5855  0.0206 -0.0402
 3714SOL     OW22777   1.251   3.517  15.956 -0.1994  0.0642 -0.4767
 3714SOL    HW122778   1.243   3.514  15.861 -0.6112  1.0265 -0.4766
 3714SOL    HW222779   1.191   3.588  15.978 -1.4683 -1.0382 -0.4021
 3715SOL     OW22780   1.152   0.925  16.711 -0.1041 -0.2398  0.5879
 3715SOL    HW122781   1.066   0.902  16.676  0.3128 -0.9821  0.0598
 3715SOL    HW222782   1.206   0.914  16.633 -0.7056 -0.5185  0.2128
 3716SOL     OW22783   4.162   2.105   5.900 -0.2165 -0.1213 -0.4859
 3716SOL    HW122784   4.067   2.092   5.900 -0.2362  0.0061 -1.2483
 3716SOL    HW222785   4.164   2.174   5.834 -0.0952 -0.2449 -0.6121
 3717SOL     OW22786   1.467   3.177   6.197  0.6774 -0.3346 -0.2188
 3717SOL    HW122787   1.416   3.218   6.128  2.4018  1.1489 -0.5937
 3717SOL    HW222788   1.398   3.124   6.239 -0.6883  0.3146 -1.6446
 3718SOL     OW22789   2.232   3.524  12.737  0.2082  0.4978 -0.2571
 3718SOL    HW122790   2.238   3.458  12.668  1.9493  0.6162 -0.2330
 3718SOL    HW222791   2.317   3.566  12.749 -0.3491  0.5774  3.4396
 3719SOL     OW22792   3.054   1.986   7.000 -0.1858 -0.1125  0.1203
 3719SOL    HW122793   3.017   2.007   7.086 -0.2946 -0.4279  0.1500
 3719SOL    HW222794   3.144   2.018   7.003  0.2582 -1.1833 -1.8496
 3720SOL     OW22795   4.342   2.409   1.815 -0.6090  0.5079 -0.6039
 3720SOL    HW122796   4.296   2.335   1.776 -0.9347 -0.9260  2.4937
 3720SOL    HW222797   4.287   2.443   1.886  1.3832  0.4915  0.9518
 3721SOL     OW22798   2.486   2.819   6.218 -0.8009  0.1103  0.1253
 3721SOL    HW122799   2.489   2.822   6.122 -2.5014  1.1880  0.1102
 3721SOL    HW222800   2.448   2.736   6.246 -1.0103  0.9241  2.2449
 3722SOL     OW22801   4.504   2.808  10.659  1.0572 -0.0125 -0.2703
 3722SOL    HW122802   4.594   2.827  10.633  1.1715 -0.0743  0.0770
 3722SOL    HW222803   4.514   2.724  10.703  1.3255 -0.7982 -1.8588
 3723SOL     OW22804   0.946   0.610   4.639 -0.5239  0.3636 -0.2872
 3723SOL    HW122805   1.020   0.668   4.659  0.5133 -0.2788 -2.3123
 3723SOL    HW222806   0.941   0.564   4.723  0.6464  1.3369  0.3253
 3724SOL     OW22807   3.359   0.802   3.794  0.3582  0.0490  0.3196
 3724SOL    HW122808   3.366   0.793   3.699  0.3680 -2.3953  0.5365
 3724SOL    HW222809   3.414   0.730   3.825 -1.4692 -1.5274 -0.1344
 3725SOL     OW22810   1.132   4.577   4.881 -0.7742  0.2381 -0.0510
 3725SOL    HW122811   1.100   4.490   4.904 -0.3918 -0.0116 -0.4598
 3725SOL    HW222812   1.078   4.600   4.806  1.9821  0.3970 -2.0092
 3726SOL     OW22813   3.282   4.132   6.300 -0.0073 -0.5275  0.2848
 3726SOL    HW122814   3.219   4.077   6.254  1.1836 -0.7396 -1.0812
 3726SOL    HW222815   3.270   4.102   6.390  1.3326 -1.0182  0.2990
 3727SOL     OW22816   0.625   3.466   2.517 -0.4066  0.2206  0.5596
 3727SOL    HW122817   0.636   3.457   2.423 -1.9599 -0.0400  0.3896
 3727SOL    HW222818   0.699   3.422   2.560 -0.3983 -1.0471 -0.7569
 3728SOL     OW22819   2.952   3.947   3.035  0.3844  0.0727  0.1729
 3728SOL    HW122820   2.857   3.936   3.034  0.2495  1.1851  0.6791
 3728SOL    HW222821   2.971   3.921   3.125  1.8613  0.7431  0.0430
 3729SOL     OW22822   0.125   0.041  15.449  0.0336  0.2479 -0.7244
 3729SOL    HW122823   0.103   4.714  15.383  1.3869  0.5567 -1.4880
 3729SOL    HW222824   0.115   0.125  15.403  0.8112  0.6951 -0.0675
 3730SOL     OW22825   2.607   3.554   1.440  0.7539 -0.3054 -0.4230
 3730SOL    HW122826   2.532   3.524   1.389  1.2670  0.6571 -1.7497
 3730SOL    HW222827   2.663   3.477   1.436 -0.2600 -1.1578  1.8950
 3731SOL     OW22828   3.722   2.081   8.192  0.4172  0.6823 -0.4970
 3731SOL    HW122829   3.814   2.069   8.213  0.5884 -0.0705 -1.6526
 3731SOL    HW222830   3.704   2.149   8.256 -1.5669  1.3944 -1.7867
 3732SOL     OW22831   0.989   1.679  12.514 -0.6276 -0.3426  0.0224
 3732SOL    HW122832   1.055   1.631  12.564  1.3578 -0.3015 -2.5894
 3732SOL    HW222833   1.018   1.668  12.424 -0.6822 -1.4817  0.1511
 3733SOL     OW22834   2.161   0.705   9.722 -0.1409 -0.1392  0.3529
 3733SOL    HW122835   2.206   0.621   9.716  2.3307  1.2271  0.0009
 3733SOL    HW222836   2.070   0.676   9.731 -0.4351  0.0979 -1.7285
 3734SOL     OW22837   3.856   3.592   5.366 -0.5241  0.7610 -0.4315
 3734SOL    HW122838   3.886   3.571   5.454  0.7294  0.8195 -0.8520
 3734SOL    HW222839   3.812   3.675   5.384  0.5432  0.6903  2.4835
 3735SOL     OW22840   2.333   3.635  17.621  0.0356 -0.1929  0.3451
 3735SOL    HW122841   2.385   3.558  17.643  0.2421 -0.4639 -1.0930
 3735SOL    HW222842   2.346   3.687  17.700 -0.7696 -0.9503  0.9677
 3736SOL     OW22843   1.095   2.271  12.265  0.4171 -0.1672 -0.0738
 3736SOL    HW122844   1.048   2.353  12.281  1.6821  0.5575 -0.0422
 3736SOL    HW222845   1.133   2.255  12.352  1.8157 -0.8824 -0.8082
 3737SOL     OW22846   3.422   4.069   2.319 -0.0822 -0.7127  0.1086
 3737SOL    HW122847   3.336   4.103   2.295 -0.3239 -0.1902  1.7133
 3737SOL    HW222848   3.471   4.067   2.236 -1.3482 -0.5533 -0.6401
 3738SOL     OW22849   3.486   3.903   5.594 -0.3673 -0.1182  0.1841
 3738SOL    HW122850   3.401   3.936   5.565 -0.4717  0.4587  1.1501
 3738SOL    HW222851   3.473   3.886   5.687  0.2285  1.8219  0.6123
 3739SOL     OW22852   0.899   3.224   2.224  0.6441  0.1125 -0.0690
 3739SOL    HW122853   0.982   3.243   2.180  0.2712  1.2511 -0.2791
 3739SOL    HW222854   0.886   3.129   2.223  0.1382  0.1733  0.3803
 3740SOL     OW22855   1.536   0.616   3.805 -0.1593  0.1636  0.0970
 3740SOL    HW122856   1.448   0.603   3.840  0.3387 -1.1871  0.8795
 3740SOL    HW222857   1.573   0.686   3.859 -1.0117  1.1965 -0.6691
 3741SOL     OW22858   3.099   2.831   6.293  0.5117  0.1489  0.5227
 3741SOL    HW122859   3.075   2.898   6.229  2.5231  1.0843  0.7454
 3741SOL    HW222860   3.167   2.784   6.245 -1.0265 -0.4923 -1.0450
 3742SOL     OW22861   2.094   0.938   6.173 -0.2631 -0.6858  0.1210
 3742SOL    HW122862   2.024   0.981   6.123  1.8229  2.5798 -0.0587
 3742SOL    HW222863   2.052   0.918   6.256 -2.0970 -0.1940 -0.6813
 3743SOL     OW22864   1.474   0.619   8.850  0.2645 -0.2614  0.5177
 3743SOL    HW122865   1.421   0.540   8.834  1.7701 -0.7205 -2.2136
 3743SOL    HW222866   1.432   0.649   8.931  0.4497 -2.0534  1.2735
 3744SOL     OW22867   1.337   0.744   4.956 -0.2801 -0.1119  0.2702
 3744SOL    HW122868   1.282   0.675   4.920 -0.8575 -0.8799  2.5964
 3744SOL    HW222869   1.414   0.686   4.960  0.8014  1.2636 -0.3207
 3745SOL     OW22870   3.989   4.721   2.150 -0.3409  0.1197 -0.0680
 3745SOL    HW122871   4.038   4.643   2.177  0.5123  0.3240 -1.0504
 3745SOL    HW222872   3.907   4.697   2.192  0.5749 -2.4457  0.2683
 3746SOL     OW22873   1.545   3.216   2.610  0.0181  0.4501  0.0525
 3746SOL    HW122874   1.451   3.212   2.627  0.1736 -0.2529  0.7212
 3746SOL    HW222875   1.553   3.184   2.520 -1.6566 -2.9163  1.0930
 3747SOL     OW22876   3.815   2.408   1.626 -0.7574 -0.5918 -0.0613
 3747SOL    HW122877   3.817   2.450   1.540  2.6903 -0.9025 -0.1605
 3747SOL    HW222878   3.721   2.393   1.634 -0.7297 -1.2728 -1.0518
 3748SOL     OW22879   0.505   3.772   2.961 -0.2764 -0.2437 -0.2099
 3748SOL    HW122880   0.576   3.725   2.918 -0.9570 -0.0682 -1.5329
 3748SOL    HW222881   0.472   3.830   2.893 -2.1444  1.3699  2.0759
 3749SOL     OW22882   3.910   4.389  11.928  0.5418 -0.1936 -0.3036
 3749SOL    HW122883   3.981   4.325  11.941  0.9637  0.5450  1.0237
 3749SOL    HW222884   3.942   4.435  11.851  2.0089  1.2426  1.1795
 3750SOL     OW22885   1.892   2.863   3.098 -0.1200  0.0622 -0.0088
 3750SOL    HW122886   1.906   2.770   3.116 -1.3957 -0.2404 -0.5584
 3750SOL    HW222887   1.862   2.891   3.184  2.5349  0.6935  0.7180
 3751SOL     OW22888   0.147   2.163  10.034  0.2290 -1.0268 -0.4536
 3751SOL    HW122889   0.188   2.107  10.100 -1.3005 -0.7512  0.7226
 3751SOL    HW222890   0.148   2.098   9.964  0.6948  0.4669 -1.8205
 3752SOL     OW22891   3.825   2.345   8.521  0.5954 -0.1717 -0.1942
 3752SOL    HW122892   3.908   2.361   8.565 -0.1134 -0.5133  1.2883
 3752SOL    HW222893   3.782   2.429   8.505 -2.5543 -1.5714  0.7369
 3753SOL     OW22894   3.096   4.577   8.611  0.0939 -0.3785 -0.3318
 3753SOL    HW122895   3.073   4.670   8.605  0.0112 -0.4829 -1.7553
 3753SOL    HW222896   3.158   4.565   8.539 -1.1436  1.9040 -1.7811
 3754SOL     OW22897   4.217   2.448   9.552  0.1193  0.0251  0.6315
 3754SOL    HW122898   4.148   2.510   9.574 -1.0849 -0.4608 -1.8285
 3754SOL    HW222899   4.282   2.516   9.534  0.1596 -0.5224 -1.3293
 3755SOL     OW22900   4.723   4.424   0.617  0.1136 -0.0047  0.3610
 3755SOL    HW122901   0.049   4.469   0.669 -0.5612 -1.4547  2.4450
 3755SOL    HW222902   4.667   4.500   0.597 -1.3354 -1.2357 -0.3144
 3756SOL     OW22903   1.293   0.760   9.398 -0.1121 -0.4616 -0.3103
 3756SOL    HW122904   1.372   0.769   9.453 -0.7755  1.6154  0.3019
 3756SOL    HW222905   1.315   0.674   9.363  2.8094 -1.0996  3.0515
 3757SOL     OW22906   0.810   0.577   8.765 -0.1580 -0.3949  1.0258
 3757SOL    HW122907   0.733   0.560   8.711 -0.3985 -0.8270  1.5078
 3757SOL    HW222908   0.880   0.563   8.701 -1.5123  1.1202 -0.7882
 3758SOL     OW22909   2.737   0.791   9.137  0.0951  0.0102 -0.0108
 3758SOL    HW122910   2.743   0.765   9.229 -1.5328  0.8974  0.3439
 3758SOL    HW222911   2.811   0.745   9.097 -0.3067 -0.7088  0.0767
 3759SOL     OW22912   3.973   4.690   2.956 -0.1583  0.2472 -0.0894
 3759SOL    HW122913   3.893   4.638   2.945 -0.2503  0.4334 -0.3034
 3759SOL    HW222914   4.037   4.624   2.927 -1.8206 -1.5275  0.2846
 3760SOL     OW22915   2.121   0.945  14.829 -0.0556 -0.1710 -0.1104
 3760SOL    HW122916   2.093   0.917  14.916  1.9978 -0.1812  0.5250
 3760SOL    HW222917   2.145   0.863  14.787 -2.8342 -1.3881  0.6480
 3761SOL     OW22918   4.018   2.679   5.562  0.3074 -0.6592 -0.0717
 3761SOL    HW122919   4.057   2.592   5.556  0.1175 -0.7368 -0.1736
 3761SOL    HW222920   3.947   2.657   5.622 -0.4679  0.1879 -0.6739
 3762SOL     OW22921   4.022   3.358   5.873  0.7546  0.0103 -0.3561
 3762SOL    HW122922   3.936   3.317   5.864  0.0313  1.8824 -2.0783
 3762SOL    HW222923   4.049   3.377   5.783 -2.7684  1.4332 -1.1358
 3763SOL     OW22924   3.801   2.061   9.661  0.3466  0.4732  0.1038
 3763SOL    HW122925   3.824   2.102   9.745  1.3873  1.5507 -0.7141
 3763SOL    HW222926   3.868   1.992   9.660  1.0457  1.1562 -0.9354
 3764SOL     OW22927   1.250   3.911   4.924 -0.6979  0.0796 -0.2780
 3764SOL    HW122928   1.309   3.983   4.945  1.5303 -1.5484 -0.9717
 3764SOL    HW222929   1.288   3.837   4.970 -2.2938 -1.6984 -1.7603
 3765SOL     OW22930   3.825   4.346   4.871  0.2048 -0.2455  0.0067
 3765SOL    HW122931   3.888   4.361   4.942 -0.4706  1.8754  0.1693
 3765SOL    HW222932   3.778   4.268   4.900 -0.9588  0.3286 -0.3106
 3766SOL     OW22933   2.473   3.096   4.305 -0.6594 -0.1617  0.2943
 3766SOL    HW122934   2.543   3.065   4.248 -1.6024 -1.3967 -0.2294
 3766SOL    HW222935   2.499   3.060   4.390  1.6020  0.8562  0.0186
 3767SOL     OW22936   4.053   0.909   9.590  0.4689  0.2720  0.3786
 3767SOL    HW122937   3.987   0.863   9.538  0.0928 -0.4085  1.4529
 3767SOL    HW222938   4.115   0.932   9.521  0.3118 -2.5306 -0.7049
 3768SOL     OW22939   0.756   1.360   6.737  0.7116  0.0573  0.2460
 3768SOL    HW122940   0.675   1.313   6.755  1.0424 -1.6829 -2.6402
 3768SOL    HW222941   0.714   1.429   6.686  2.1226 -1.9386 -3.6400
 3769SOL     OW22942   3.549   3.490   8.230 -0.7196 -0.2611  0.3747
 3769SOL    HW122943   3.496   3.411   8.236  0.5056 -1.1712 -0.6985
 3769SOL    HW222944   3.612   3.466   8.162  1.4088 -0.6163  2.4673
 3770SOL     OW22945   1.587   1.841   5.318  0.2993 -0.3643 -0.1307
 3770SOL    HW122946   1.643   1.916   5.339  1.3921 -0.8470 -1.3420
 3770SOL    HW222947   1.549   1.820   5.404  0.4349  1.7628  0.4465
 3771SOL     OW22948   2.903   1.763   3.605  0.4606  0.0244  0.0929
 3771SOL    HW122949   2.911   1.842   3.657 -1.0739 -0.0413  0.4340
 3771SOL    HW222950   2.814   1.769   3.571  0.6922 -0.4580 -0.6137
 3772SOL     OW22951   2.099   2.899   7.207  0.0975  0.0455 -0.5168
 3772SOL    HW122952   2.048   2.977   7.187 -2.8892 -2.0883 -1.3486
 3772SOL    HW222953   2.158   2.898   7.132  2.4738 -1.5459  1.3579
 3773SOL     OW22954   2.699   2.582  16.787 -0.6236  0.4075 -0.7998
 3773SOL    HW122955   2.708   2.501  16.738 -0.6899  1.3612 -2.3780
 3773SOL    HW222956   2.793   2.601  16.778 -0.8141  2.0554  0.6826
 3774SOL     OW22957   4.497   0.241   6.789 -0.5074  0.1101 -0.4479
 3774SOL    HW122958   4.440   0.258   6.714 -2.5636  1.1441  1.3655
 3774SOL    HW222959   4.444   0.195   6.853 -1.2276  2.6922  0.7947
 3775SOL     OW22960   1.739   4.243   5.181  0.0982  0.1363 -0.0630
 3775SOL    HW122961   1.661   4.222   5.231  0.4199 -0.6709  0.1090
 3775SOL    HW222962   1.730   4.338   5.180  1.9188  0.3462  3.3714
 3776SOL     OW22963   0.760   0.309  15.245  0.7142 -0.5316 -0.1168
 3776SOL    HW122964   0.743   0.379  15.309  2.4305  0.2707 -0.5362
 3776SOL    HW222965   0.772   0.230  15.298  1.6244 -0.9634 -0.9804
 3777SOL     OW22966   0.618   3.682  12.593  0.8775  0.1012 -0.3683
 3777SOL    HW122967   0.530   3.716  12.608 -0.1038 -1.4741 -2.4743
 3777SOL    HW222968   0.589   3.605  12.544  0.4669  0.6761 -1.0261
 3778SOL     OW22969   1.471   0.600  11.160 -0.4600 -0.3243 -0.0064
 3778SOL    HW122970   1.520   0.530  11.117 -1.6586 -0.8321 -0.5389
 3778SOL    HW222971   1.536   0.670  11.150  0.2037 -0.5021  3.1938
 3779SOL     OW22972   0.463   0.478   6.297 -0.1285 -0.2564 -0.1703
 3779SOL    HW122973   0.549   0.437   6.297 -0.2460 -0.5075  1.1603
 3779SOL    HW222974   0.410   0.399   6.306 -3.5876  2.2534  1.2470
 3780SOL     OW22975   0.184   2.403  16.663  0.1987  0.3284 -0.5776
 3780SOL    HW122976   0.242   2.459  16.715 -0.6094  0.2056  0.4632
 3780SOL    HW222977   0.098   2.437  16.688 -0.3316 -0.5984 -1.1625
 3781SOL     OW22978   1.996   1.892   4.309 -0.0140 -0.2037  0.0717
 3781SOL    HW122979   2.044   1.959   4.260 -0.7465  2.2583  2.7444
 3781SOL    HW222980   2.000   1.820   4.246  1.6189 -0.9111  0.9704
 3782SOL     OW22981   1.624   1.721  16.567 -0.8158 -0.4390  0.6412
 3782SOL    HW122982   1.644   1.711  16.660 -2.8739 -1.3915  0.9831
 3782SOL    HW222983   1.621   1.630  16.537 -0.0617 -0.2684  0.0404
 3783SOL     OW22984   2.868   3.481  10.970 -0.1089  0.0723  0.1809
 3783SOL    HW122985   2.855   3.566  11.010 -0.2721  0.8989 -1.6043
 3783SOL    HW222986   2.941   3.443  11.019  0.6521  0.4503 -0.6670
 3784SOL     OW22987   1.092   0.902   9.270 -0.3252  0.1216  0.0210
 3784SOL    HW122988   1.021   0.839   9.271  0.8626 -1.1679  2.3375
 3784SOL    HW222989   1.147   0.861   9.337 -0.4387  2.6278  1.6614
 3785SOL     OW22990   4.430   0.937   8.635 -0.4396 -0.3757 -0.3481
 3785SOL    HW122991   4.420   1.027   8.666 -2.2640 -1.2712  1.6909
 3785SOL    HW222992   4.388   0.945   8.550  1.1949  1.1604 -1.0140
 3786SOL     OW22993   4.676   0.376   3.999 -0.1357  0.2515 -0.0826
 3786SOL    HW122994   4.591   0.400   3.960  0.2471  0.0358 -1.0455
 3786SOL    HW222995   4.710   0.465   4.006  0.2262 -0.0592  1.9471
 3787SOL     OW22996   2.963   1.673   4.623 -0.0967  0.2393  0.5656
 3787SOL    HW122997   2.902   1.711   4.687 -0.5859 -1.1029  0.8907
 3787SOL    HW222998   2.998   1.755   4.588 -3.3860  1.8273  0.9647
 3788SOL     OW22999   1.716   0.603   9.158  0.0578 -0.2979 -0.0053
 3788SOL    HW123000   1.790   0.548   9.181 -0.5547 -1.0652  0.1199
 3788SOL    HW223001   1.638   0.548   9.171  0.9035 -1.3672  0.5122
 3789SOL     OW23002   3.331   3.058   7.714 -0.0095  0.5540 -0.6993
 3789SOL    HW123003   3.243   3.082   7.684 -0.8270 -1.8450 -0.2524
 3789SOL    HW223004   3.382   3.138   7.704 -0.2901  0.8704  0.4603
 3790SOL     OW23005   0.715   3.440  16.770 -0.2006 -0.4927  0.0599
 3790SOL    HW123006   0.619   3.435  16.777 -0.3492  1.7565 -0.5705
 3790SOL    HW223007   0.723   3.464  16.678 -3.9548  2.4819  0.4973
 3791SOL     OW23008   2.410   4.597   9.602  0.1510 -0.1119 -0.3539
 3791SOL    HW123009   2.353   4.569   9.673  0.4264 -3.1432 -1.3204
 3791SOL    HW223010   2.451   4.517   9.570 -1.8212  0.1554 -3.5649
 3792SOL     OW23011   4.060   0.959  15.188  0.2092  0.4805  0.3628
 3792SOL    HW123012   4.081   0.881  15.137  0.6836  1.4870 -0.9926
 3792SOL    HW223013   4.142   1.006  15.202  0.8489 -0.5866  0.2032
 3793SOL     OW23014   0.720   4.736   6.931 -0.0272  0.1623  0.7084
 3793SOL    HW123015   0.700   0.065   6.866 -2.5449 -0.2351  1.1008
 3793SOL    HW223016   0.783   4.687   6.878  0.4800  0.3068  1.1806
 3794SOL     OW23017   1.974   2.392   7.346  0.0566 -0.2535 -0.7453
 3794SOL    HW123018   2.044   2.343   7.303  1.4773  0.7685  0.3653
 3794SOL    HW223019   2.000   2.475   7.306 -0.9887  0.4249 -0.0206
 3795SOL     OW23020   0.501   4.717  16.069 -0.3128  0.5734  0.1456
 3795SOL    HW123021   0.556   0.014  16.138 -0.6627  0.3412  0.5524
 3795SOL    HW223022   0.441   0.052  16.057 -1.7834 -0.6124  0.1276
 3796SOL     OW23023   4.651   3.199  10.979 -0.1811 -0.2329 -0.8011
 3796SOL    HW123024   4.610   3.113  10.982 -4.0178  1.5604 -1.9833
 3796SOL    HW223025   0.003   3.199  10.951 -0.0561  1.1395 -0.4170
 3797SOL     OW23026   4.432   0.479   9.222 -0.0132 -0.1745 -0.3454
 3797SOL    HW123027   4.521   0.511   9.237 -0.5614  1.1495  0.0614
 3797SOL    HW223028   4.418   0.453   9.131  0.0135 -0.8944 -0.1425
 3798SOL     OW23029   4.681   4.353   9.641  0.7305  0.2307  0.2728
 3798SOL    HW123030   4.683   4.427   9.702 -1.5152  1.4796 -1.1603
 3798SOL    HW223031   4.586   4.356   9.626  0.7389 -0.0536  0.1639
 3799SOL     OW23032   2.169   0.772  11.930  0.1964  0.4935 -0.0025
 3799SOL    HW123033   2.207   0.721  11.858  2.0135  2.0870 -0.1794
 3799SOL    HW223034   2.232   0.752  12.000 -1.3059  0.6056  1.3798
 3800SOL     OW23035   2.066   3.846   4.423  0.0204 -0.3370  0.4967
 3800SOL    HW123036   2.136   3.784   4.444 -0.5795 -0.7462  1.2716
 3800SOL    HW223037   1.990   3.802   4.461 -0.3385 -0.2633 -0.1477
 3801SOL     OW23038   3.778   3.634   2.639  0.1614  0.0036 -0.0152
 3801SOL    HW123039   3.793   3.722   2.604  3.1406  0.5946  2.7700
 3801SOL    HW223040   3.859   3.589   2.614 -0.1343 -0.7456  0.3997
 3802SOL     OW23041   1.431   1.360  10.332  0.1272 -0.5608  0.9405
 3802SOL    HW123042   1.525   1.357  10.348  0.4492  0.9439 -0.6764
 3802SOL    HW223043   1.391   1.349  10.419  0.4673 -0.3271  1.1262
 3803SOL     OW23044   0.996   3.713   3.938 -0.6498  0.2990  0.2706
 3803SOL    HW123045   1.040   3.760   3.866  0.0671  1.7080  1.6328
 3803SOL    HW223046   0.951   3.642   3.892  0.5052  0.1090 -0.5707
 3804SOL     OW23047   0.133   1.259   4.581  0.0928  0.4922  0.3977
 3804SOL    HW123048   0.154   1.237   4.672  1.1767  2.4878  0.6424
 3804SOL    HW223049   0.050   1.212   4.570  1.1510 -0.9886 -1.1816
 3805SOL     OW23050   0.852   0.617  17.290  0.3357  0.3403 -0.4833
 3805SOL    HW123051   0.774   0.668  17.312 -0.8658 -0.4891 -2.8090
 3805SOL    HW223052   0.908   0.677  17.242  1.2362  0.3061  0.5204
 3806SOL     OW23053   2.969   0.149   2.892 -0.1771  0.4046  0.1785
 3806SOL    HW123054   2.984   0.140   2.798 -0.7539 -0.4367  0.1625
 3806SOL    HW223055   2.944   0.062   2.926 -4.3944  1.9060  0.8911
 3807SOL     OW23056   1.316   0.514   4.678 -0.4302  0.1291  0.3703
 3807SOL    HW123057   1.336   0.421   4.692  1.1930  0.3066 -0.8471
 3807SOL    HW223058   1.252   0.509   4.749 -1.5473 -0.8581 -0.6995
 3808SOL     OW23059   3.871   3.064  14.739  0.0695 -0.0873  0.2050
 3808SOL    HW123060   3.907   3.121  14.672 -1.6101 -0.3586 -0.9160
 3808SOL    HW223061   3.871   3.125  14.813 -1.2117 -1.6544  1.5005
 3809SOL     OW23062   1.844   2.962  16.341 -0.5872 -0.1446 -0.0017
 3809SOL    HW123063   1.803   3.037  16.383  0.3399  1.5482 -2.1141
 3809SOL    HW223064   1.810   2.885  16.387  0.2906 -2.0435 -2.4945
 3810SOL     OW23065   0.692   4.243   8.194 -0.2015  0.1408  0.1027
 3810SOL    HW123066   0.626   4.174   8.183  1.9403 -1.8344 -0.2383
 3810SOL    HW223067   0.642   4.320   8.221  0.6648  0.5565  0.5094
 3811SOL     OW23068   1.190   1.374   5.409  0.9982  0.3227  0.0120
 3811SOL    HW123069   1.108   1.327   5.425  0.8528  1.0824  1.4255
 3811SOL    HW223070   1.232   1.322   5.340  0.6668 -1.5628  1.2187
 3812SOL     OW23071   0.693   0.253   3.655 -0.4729 -0.0593  0.2221
 3812SOL    HW123072   0.751   0.326   3.633 -0.3657 -1.0416 -2.7245
 3812SOL    HW223073   0.720   0.190   3.588  0.6362  0.5893  0.0586
 3813SOL     OW23074   3.665   4.478   3.677 -0.0874  0.3396  0.2875
 3813SOL    HW123075   3.626   4.394   3.702 -1.0869  0.2606 -1.5296
 3813SOL    HW223076   3.614   4.482   3.596 -0.0569  1.2664  0.3193
 3814SOL     OW23077   2.231   0.073  10.741 -0.5660  0.8097 -0.2629
 3814SOL    HW123078   2.311   0.097  10.694 -0.2728 -1.1309 -0.7541
 3814SOL    HW223079   2.165   0.077  10.671  0.6592 -0.6420 -1.5083
 3815SOL     OW23080   2.295   1.279   9.665  0.6464  0.2335  0.1331
 3815SOL    HW123081   2.272   1.190   9.691  0.8472  0.2548  0.3818
 3815SOL    HW223082   2.272   1.327   9.745  1.5787  1.1207 -0.1306
 3816SOL     OW23083   1.528   1.125  14.377  0.5443 -0.5659  0.2598
 3816SOL    HW123084   1.580   1.089  14.448 -1.1933  3.2086  3.4666
 3816SOL    HW223085   1.549   1.218  14.384  0.6308 -0.6013  0.4697
 3817SOL     OW23086   1.335   1.597   2.840 -0.1774  0.0810 -0.5896
 3817SOL    HW123087   1.262   1.578   2.781  1.7657 -1.8028 -2.3700
 3817SOL    HW223088   1.401   1.536   2.807  1.2181  1.7477 -0.9069
 3818SOL     OW23089   1.750   3.871   6.271  0.0857  0.3385 -0.3601
 3818SOL    HW123090   1.836   3.851   6.233  0.8970 -2.2419  2.7879
 3818SOL    HW223091   1.770   3.944   6.329  1.1808  0.7369 -1.2438
 3819SOL     OW23092   1.642   1.272  10.594 -0.5678  0.1429 -0.2172
 3819SOL    HW123093   1.617   1.359  10.626  3.6579  2.1621 -2.4491
 3819SOL    HW223094   1.708   1.250  10.660 -1.0571  1.0190  0.5657
 3820SOL     OW23095   3.763   1.909   7.236  0.3580  0.1069  0.3734
 3820SOL    HW123096   3.718   1.984   7.276  0.8077  0.7544 -0.3397
 3820SOL    HW223097   3.700   1.837   7.242 -2.1040  2.2471  0.2931
 3821SOL     OW23098   3.062   3.648  16.907  0.3862 -0.0777  0.3069
 3821SOL    HW123099   3.112   3.600  16.841  0.7514 -0.1019  0.6032
 3821SOL    HW223100   2.974   3.635  16.871  1.0157 -2.1471 -0.5001
 3822SOL     OW23101   4.566   2.288   7.679  0.0276 -0.0293  0.4316
 3822SOL    HW123102   4.523   2.354   7.625 -2.1958 -2.0899 -0.2912
 3822SOL    HW223103   4.566   2.337   7.761  1.4746 -0.7931  0.8983
 3823SOL     OW23104   3.755   4.068   5.949 -0.2535 -0.2891  0.3513
 3823SOL    HW123105   3.664   4.092   5.933 -0.1444 -0.3199 -0.3093
 3823SOL    HW223106   3.746   3.973   5.950 -2.2420 -0.1064 -0.4972
 3824SOL     OW23107   1.567   4.154   4.181  0.3978 -0.6423 -0.1949
 3824SOL    HW123108   1.657   4.181   4.160  1.7240 -1.9158  3.7036
 3824SOL    HW223109   1.583   4.079   4.238 -0.1311 -0.9006 -0.3888
 3825SOL     OW23110   3.065   3.963  14.531 -0.5279  0.4751  0.4760
 3825SOL    HW123111   3.152   3.978  14.567  0.0376  1.0399 -1.1326
 3825SOL    HW223112   3.046   4.055  14.509 -1.6263  0.3979  1.0776
 3826SOL     OW23113   0.105   4.281   5.671 -0.8442  0.2775  0.2955
 3826SOL    HW123114   0.014   4.302   5.692 -0.8932  1.9779 -1.5746
 3826SOL    HW223115   0.149   4.322   5.745 -0.5070  0.9901 -0.2936
 3827SOL     OW23116   1.663   0.774   8.709  0.6164  1.0256  0.1095
 3827SOL    HW123117   1.615   0.694   8.729 -0.5020  2.2249  2.1120
 3827SOL    HW223118   1.624   0.842   8.763  0.1441  0.8569 -0.0228
 3828SOL     OW23119   2.826   0.312   3.214 -0.3742 -0.4706 -0.7554
 3828SOL    HW123120   2.811   0.359   3.297 -2.8941 -3.9883  0.7632
 3828SOL    HW223121   2.876   0.380   3.170  0.0126 -0.4892 -0.3490
 3829SOL     OW23122   3.208   3.038   6.649 -0.6730  0.3257 -0.3603
 3829SOL    HW123123   3.293   2.996   6.661  0.1025  1.9903  0.0691
 3829SOL    HW223124   3.157   2.964   6.618 -0.1234 -0.5899  0.9194
 3830SOL     OW23125   2.909   3.224   9.929 -0.3299  0.8016  0.0099
 3830SOL    HW123126   2.874   3.280   9.999  0.1974  0.1244  0.8137
 3830SOL    HW223127   2.867   3.141   9.954 -1.6967  1.8400  1.2039
 3831SOL     OW23128   1.067   1.165  11.665  0.4315 -0.0329  0.0967
 3831SOL    HW123129   1.076   1.120  11.749  1.6671  1.0869  0.5528
 3831SOL    HW223130   0.972   1.168  11.649  0.6492 -0.7335 -1.3968
 3832SOL     OW23131   2.550   0.851   3.806 -0.1365 -0.8839  0.2654
 3832SOL    HW123132   2.618   0.914   3.780  1.5789 -2.3365  1.2261
 3832SOL    HW223133   2.573   0.775   3.753  3.3898 -0.3608  0.9831
 3833SOL     OW23134   1.516   0.590  14.419  0.2352  0.4525  0.3570
 3833SOL    HW123135   1.449   0.591  14.350  1.1362  1.1458 -0.4975
 3833SOL    HW223136   1.556   0.504  14.402 -0.5917  0.0970  0.1849
 3834SOL     OW23137   1.810   2.900  15.933  0.1539  0.3608 -0.5596
 3834SOL    HW123138   1.789   2.850  15.854 -1.4519  2.1984 -1.3067
 3834SOL    HW223139   1.900   2.867  15.937  0.2148  0.5382 -0.4303
 3835SOL     OW23140   2.119   1.539  16.591 -0.5379  0.2451 -0.1103
 3835SOL    HW123141   2.143   1.523  16.683 -1.4327  0.3762  0.1375
 3835SOL    HW223142   2.173   1.478  16.540  2.1840  3.2442 -0.8440
 3836SOL     OW23143   4.602   1.164   1.357 -0.4350  0.1062 -0.0319
 3836SOL    HW123144   4.685   1.210   1.344  0.1143 -0.2590  2.2809
 3836SOL    HW223145   4.609   1.107   1.281 -2.2251  2.6381 -2.1178
 3837SOL     OW23146   1.540   0.556  14.094 -0.1784  0.2677 -0.0557
 3837SOL    HW123147   1.455   0.590  14.122  0.4910  1.3212  0.6994
 3837SOL    HW223148   1.584   0.640  14.110  1.9358 -0.1101 -3.6906
 3838SOL     OW23149   1.277   4.661   1.511  0.1856  0.4013  0.2654
 3838SOL    HW123150   1.322   4.694   1.434 -1.0889  0.6723 -0.3749
 3838SOL    HW223151   1.242   4.580   1.474  1.8728  0.0950 -0.6522
 3839SOL     OW23152   4.003   2.809   9.756  0.3190 -0.9052 -0.2111
 3839SOL    HW123153   3.976   2.731   9.804 -2.0266 -1.5355 -2.5216
 3839SOL    HW223154   3.947   2.877   9.793  1.6498  0.5636 -0.9013
 3840SOL     OW23155   3.551   3.424  11.950 -0.2119 -0.3681 -0.0752
 3840SOL    HW123156   3.465   3.450  11.985  0.0697  0.6827 -0.1447
 3840SOL    HW223157   3.514   3.382  11.872 -0.9679  1.0919 -0.5114
 3841SOL     OW23158   1.927   2.357  13.530  0.5194 -0.5246  0.1477
 3841SOL    HW123159   1.994   2.399  13.584 -1.3542  2.2508  0.2801
 3841SOL    HW223160   1.952   2.264  13.528 -0.9552 -0.8675 -1.3366
 3842SOL     OW23161   1.328   4.358   8.879 -0.4684 -0.2534  0.0944
 3842SOL    HW123162   1.409   4.312   8.858  0.0201  1.2509 -1.3012
 3842SOL    HW223163   1.271   4.291   8.917 -1.3353  0.1106 -0.5495
 3843SOL     OW23164   2.837   3.624   9.168  0.2287 -0.1025  0.2548
 3843SOL    HW123165   2.776   3.560   9.204  0.7401 -1.4585 -1.2851
 3843SOL    HW223166   2.858   3.683   9.240 -0.9910  1.5481 -0.7223
 3844SOL     OW23167   1.593   3.516  14.707 -0.2469 -0.0392  0.0271
 3844SOL    HW123168   1.612   3.422  14.699  2.7168  0.5175  0.4552
 3844SOL    HW223169   1.646   3.537  14.630 -1.3381  0.3566 -0.6170
 3845SOL     OW23170   3.141   3.139   9.834  0.5098  0.3905 -0.1083
 3845SOL    HW123171   3.064   3.174   9.878  0.9052 -0.1416  1.0070
 3845SOL    HW223172   3.168   3.228   9.809 -2.6896  1.4304  0.1918
 3846SOL     OW23173   1.412   1.398   6.402  0.1570  0.0210  0.2146
 3846SOL    HW123174   1.370   1.464   6.457  0.8149 -0.8446  1.7628
 3846SOL    HW223175   1.474   1.460   6.364  0.3129 -0.5500 -0.4708
 3847SOL     OW23176   2.977   3.079   5.232  0.1403  0.2307 -0.2053
 3847SOL    HW123177   2.914   3.063   5.162  2.1097 -2.0142 -1.4644
 3847SOL    HW223178   3.031   3.004   5.207 -0.2532 -0.3538  0.6806
 3848SOL     OW23179   2.970   0.521   8.796 -0.4420  0.6455  0.1254
 3848SOL    HW123180   2.883   0.563   8.796 -0.4670  0.5845  4.7049
 3848SOL    HW223181   3.021   0.578   8.853  0.5028  0.6934 -0.7690
 3849SOL     OW23182   2.562   2.187   6.986 -1.2267  0.2382 -0.0337
 3849SOL    HW123183   2.635   2.230   7.031 -0.0320 -0.8011 -1.0174
 3849SOL    HW223184   2.513   2.266   6.961 -1.1851  0.3707  0.3013
 3850SOL     OW23185   3.654   3.695   8.557  0.7910  0.8572 -0.2346
 3850SOL    HW123186   3.704   3.757   8.610  0.5487  1.5753 -0.8540
 3850SOL    HW223187   3.626   3.751   8.485  0.6046  0.8630 -0.1557
 3851SOL     OW23188   1.680   2.799   7.273 -0.2427  0.2979  0.1314
 3851SOL    HW123189   1.600   2.763   7.235 -1.0225  1.4286  0.7025
 3851SOL    HW223190   1.720   2.851   7.203 -2.4378  2.8062  0.7337
 3852SOL     OW23191   0.446   4.703   2.801  0.2669  0.1411  0.1464
 3852SOL    HW123192   0.532   4.662   2.796 -0.6315 -1.8458  0.9605
 3852SOL    HW223193   0.385   4.632   2.781  0.0263  0.0337  1.2650
 3853SOL     OW23194   3.839   2.633   7.858  0.0284 -0.4937 -0.9392
 3853SOL    HW123195   3.842   2.579   7.779  0.2298 -0.0230 -1.2578
 3853SOL    HW223196   3.931   2.655   7.867 -0.4957  2.7192 -3.3459
 3854SOL     OW23197   2.633   1.085  11.985 -0.2705  0.3799  0.2919
 3854SOL    HW123198   2.609   1.024  11.915 -0.3047  0.5228  0.1809
 3854SOL    HW223199   2.646   1.167  11.938  1.8605 -0.2465 -0.1970
 3855SOL     OW23200   1.907   2.811   2.028 -0.6949 -0.2110 -0.2606
 3855SOL    HW123201   1.991   2.774   2.001  0.1241  0.0932  1.8178
 3855SOL    HW223202   1.923   2.904   2.012 -0.6255 -0.2719 -0.5451
 3856SOL     OW23203   3.312   0.636   8.762  0.3198 -0.0551 -0.1921
 3856SOL    HW123204   3.280   0.643   8.672  0.0507  1.2025  0.0001
 3856SOL    HW223205   3.399   0.598   8.745 -0.7153 -1.8629 -1.4464
 3857SOL     OW23206   3.340   2.658  13.624  0.3041  0.0216  0.4974
 3857SOL    HW123207   3.272   2.712  13.666  0.4382 -0.9199  1.9216
 3857SOL    HW223208   3.390   2.733  13.590 -1.0046  0.1155 -1.2307
 3858SOL     OW23209   4.732   2.780   4.723  0.1581 -0.7435 -0.2580
 3858SOL    HW123210   0.014   2.710   4.785 -0.7231 -0.4148  0.4098
 3858SOL    HW223211   4.638   2.778   4.744  0.2723 -0.3477  0.2693
 3859SOL     OW23212   0.090   1.129  13.876 -0.7823 -0.0825 -0.0629
 3859SOL    HW123213   4.739   1.108  13.901 -2.1451  2.3156 -3.0102
 3859SOL    HW223214   0.127   1.041  13.883  0.8643  0.5619 -0.7744
 3860SOL     OW23215   2.807   3.458   8.767 -0.0251 -0.5375 -0.1423
 3860SOL    HW123216   2.794   3.523   8.698 -0.7257  0.3719  0.8609
 3860SOL    HW223217   2.761   3.385   8.724 -1.1114  0.0002  0.1021
 3861SOL     OW23218   2.468   3.782   7.758  0.8528  0.6839 -0.5860
 3861SOL    HW123219   2.420   3.701   7.771 -0.3137  1.5527  0.5272
 3861SOL    HW223220   2.496   3.763   7.668 -1.4611  0.7454 -1.3068
 3862SOL     OW23221   1.640   3.284   5.459  0.8731 -0.4472  0.3901
 3862SOL    HW123222   1.710   3.350   5.454 -0.6223  1.1871  1.0168
 3862SOL    HW223223   1.681   3.204   5.426  0.2862 -1.3872  1.9420
 3863SOL     OW23224   1.562   0.155   8.459  0.2551 -0.1044  0.1206
 3863SOL    HW123225   1.656   0.146   8.441  0.4948  1.6166  0.5541
 3863SOL    HW223226   1.554   0.218   8.530 -1.1865 -1.4327  1.1332
 3864SOL     OW23227   2.495   4.726  12.900  0.1684  0.6073  0.2919
 3864SOL    HW123228   2.449   0.027  12.974  1.7733  1.4463  0.8366
 3864SOL    HW223229   2.559   0.052  12.870 -0.8971  1.5461  0.0881
 3865SOL     OW23230   0.768   1.087   0.715 -0.3370  0.3747 -0.3365
 3865SOL    HW123231   0.797   1.002   0.683  0.6926  0.0207  1.5631
 3865SOL    HW223232   0.728   1.142   0.647  1.1593  1.0916 -0.6237
 3866SOL     OW23233   3.897   2.541  12.778  0.6463  0.6236  0.2765
 3866SOL    HW123234   3.811   2.570  12.748  0.4080  1.0194  1.3213
 3866SOL    HW223235   3.901   2.558  12.873 -0.1402 -1.0453  0.6155
 3867SOL     OW23236   4.154   0.844   2.825  0.4513  0.1768 -0.2239
 3867SOL    HW123237   4.210   0.789   2.880 -0.0896 -0.8886 -0.7350
 3867SOL    HW223238   4.115   0.903   2.890 -1.6644 -1.5375  0.0401
 3868SOL     OW23239   2.670   2.432   5.099 -0.4911 -0.4744 -0.2411
 3868SOL    HW123240   2.651   2.348   5.139 -0.3748  0.0864  0.9849
 3868SOL    HW223241   2.734   2.464   5.162  0.1663 -1.3437 -0.4762
 3869SOL     OW23242   4.549   2.655   2.310  0.2426  1.2371 -0.4133
 3869SOL    HW123243   4.521   2.623   2.224  2.5028 -0.1593 -0.6241
 3869SOL    HW223244   4.465   2.690   2.340  0.7265  1.1770  1.0271
 3870SOL     OW23245   4.132   1.387   9.253  0.2619 -0.7222 -0.0421
 3870SOL    HW123246   4.058   1.440   9.222  0.1507  0.0528  1.5536
 3870SOL    HW223247   4.090   1.305   9.278  1.5621 -1.0076  1.1774
 3871SOL     OW23248   4.066   2.575   2.572 -0.4025  0.0169  0.1510
 3871SOL    HW123249   4.120   2.647   2.604  2.3419 -1.8554 -0.3514
 3871SOL    HW223250   3.988   2.602   2.622  0.1361  0.3737  0.7976
 3872SOL     OW23251   3.067   1.744   2.337  0.0632 -0.1952 -0.0126
 3872SOL    HW123252   3.027   1.771   2.420  0.4855  0.5015 -0.0359
 3872SOL    HW223253   3.020   1.661   2.333 -1.7593  0.8061  0.5473
 3873SOL     OW23254   2.582   3.654   9.661 -0.7334  0.0120 -0.5220
 3873SOL    HW123255   2.547   3.605   9.587 -0.5599 -0.5053 -0.2671
 3873SOL    HW223256   2.496   3.688   9.685  0.3236  0.7872  2.1577
 3874SOL     OW23257   1.695   3.772   2.938 -0.4198 -0.1538 -0.3278
 3874SOL    HW123258   1.616   3.804   2.895  0.2364  1.4627 -0.3171
 3874SOL    HW223259   1.723   3.696   2.885 -2.1721  0.6876 -2.4731
 3875SOL     OW23260   1.639   0.969  16.225  0.9481 -0.0733  1.0597
 3875SOL    HW123261   1.662   1.062  16.232 -0.8716  0.4847 -0.6118
 3875SOL    HW223262   1.553   0.973  16.184  1.2422  1.4423  0.5632
 3876SOL     OW23263   3.361   2.085   1.847 -0.0147 -0.0539 -0.3303
 3876SOL    HW123264   3.271   2.103   1.874  0.4681 -0.6536  1.7025
 3876SOL    HW223265   3.381   2.150   1.780  0.8901 -1.6835 -1.6376
 3877SOL     OW23266   0.507   0.768   8.663  0.2940  0.0627  0.2143
 3877SOL    HW123267   0.571   0.702   8.636 -0.3037 -1.2799  2.1168
 3877SOL    HW223268   0.557   0.805   8.736  0.2234 -2.6791  1.6663
 3878SOL     OW23269   3.094   4.191   0.969 -0.0352 -0.0589 -0.1896
 3878SOL    HW123270   3.042   4.267   0.943  0.6251  0.0470 -1.1988
 3878SOL    HW223271   3.183   4.215   0.943 -0.2071  0.1595 -0.5688
 3879SOL     OW23272   1.293   3.423  11.218  0.5880 -0.0220  0.2817
 3879SOL    HW123273   1.301   3.330  11.241 -3.1332 -0.4060 -0.1102
 3879SOL    HW223274   1.364   3.427  11.153  0.5452 -0.1724  0.2259
 3880SOL     OW23275   4.373   4.551   5.065  0.4298 -0.4744  0.4190
 3880SOL    HW123276   4.425   4.612   5.013  0.5629 -0.9890 -0.0564
 3880SOL    HW223277   4.284   4.581   5.048  0.6908 -2.0927 -3.9121
 3881SOL     OW23278   2.539   3.120   6.288  0.1117  0.0127 -0.6550
 3881SOL    HW123279   2.599   3.136   6.361 -0.2463  2.3149 -0.8784
 3881SOL    HW223280   2.497   3.035   6.301  3.7033 -1.6110  0.4096
 3882SOL     OW23281   3.550   4.222   8.733  0.2979 -0.4811 -0.3811
 3882SOL    HW123282   3.498   4.302   8.728  1.6897  0.4854  0.4138
 3882SOL    HW223283   3.565   4.190   8.645  1.5112  1.4203 -0.8648
 3883SOL     OW23284   2.623   4.413   9.218 -0.1804  0.5382 -0.0325
 3883SOL    HW123285   2.652   4.497   9.254  2.8804  0.7779 -3.1272
 3883SOL    HW223286   2.540   4.394   9.262  1.7744 -0.7544  3.1370
 3884SOL     OW23287   4.500   2.061  14.111 -0.4737  0.7245  0.0588
 3884SOL    HW123288   4.423   2.070  14.166 -0.2283  0.7642  0.3998
 3884SOL    HW223289   4.474   1.977  14.072 -1.2120  0.0392  2.0281
 3885SOL     OW23290   0.546   3.930   8.639 -0.0135 -0.4069  0.6677
 3885SOL    HW123291   0.462   3.894   8.608  0.4228  0.4620 -1.4837
 3885SOL    HW223292   0.577   3.989   8.571 -1.1071  1.4861  1.8315
 3886SOL     OW23293   1.672   2.268  17.098  0.3571 -0.3108  0.4706
 3886SOL    HW123294   1.692   2.246  17.190 -1.4134 -2.3943  0.3491
 3886SOL    HW223295   1.649   2.360  17.108  0.7429 -0.3841  2.0738
 3887SOL     OW23296   4.437   4.583   7.733  0.0888 -0.3568 -0.0713
 3887SOL    HW123297   4.382   4.551   7.662  0.3806 -0.6423 -0.1668
 3887SOL    HW223298   4.390   4.657   7.773  1.4632 -1.4809  3.6843
 3888SOL     OW23299   3.045   3.246   5.957  0.1233  0.1240 -0.2646
 3888SOL    HW123300   3.074   3.274   5.870 -0.6991 -1.9174 -1.1896
 3888SOL    HW223301   3.004   3.328   5.986  1.5958  0.7592  0.0418
 3889SOL     OW23302   4.603   2.943   4.236  0.0039 -0.2397 -0.1500
 3889SOL    HW123303   4.688   2.899   4.238  0.6426  1.0509  2.2969
 3889SOL    HW223304   4.558   2.885   4.175 -0.4863 -0.1004  0.0748
 3890SOL     OW23305   2.086   1.157  16.554 -0.0510  0.2827  0.2479
 3890SOL    HW123306   2.068   1.069  16.520  1.0523 -0.1589  0.8030
 3890SOL    HW223307   2.181   1.166  16.549 -0.0520  0.2118  0.0838
 3891SOL     OW23308   4.732   0.217  11.247 -0.6303  0.2492  0.0590
 3891SOL    HW123309   0.078   0.259  11.235 -0.5803  0.0365 -0.3286
 3891SOL    HW223310   4.720   0.231  11.341 -0.0806  0.4896  0.0997
 3892SOL     OW23311   3.751   3.554  13.966 -0.2422  0.1581  0.0076
 3892SOL    HW123312   3.729   3.461  13.956 -1.5778  0.4057  0.6595
 3892SOL    HW223313   3.722   3.595  13.884  0.4894  1.2145  0.2793
 3893SOL     OW23314   0.527   0.100  15.540  0.0213  0.1261 -0.0136
 3893SOL    HW123315   0.541   0.188  15.574  1.6091  0.1186 -0.6726
 3893SOL    HW223316   0.459   0.066  15.598  0.1527 -0.3780 -0.1521
 3894SOL     OW23317   1.973   0.071  12.177 -0.0633  0.0835  0.1669
 3894SOL    HW123318   1.983   0.164  12.199 -0.2064  0.3884 -1.0323
 3894SOL    HW223319   2.029   0.064  12.100 -1.7250 -1.1371 -0.9150
 3895SOL     OW23320   2.436   2.554   5.167 -0.2537  0.0150 -0.0139
 3895SOL    HW123321   2.450   2.646   5.185  0.7157  0.1008 -1.1673
 3895SOL    HW223322   2.520   2.531   5.126  0.0517 -0.4364  0.8736
 3896SOL     OW23323   3.189   1.983  17.426  0.2639 -0.1778  0.0833
 3896SOL    HW123324   3.158   2.057  17.373 -0.4075 -0.9947 -0.6601
 3896SOL    HW223325   3.174   2.016  17.514 -1.5482  0.1466 -0.3475
 3897SOL     OW23326   4.473   4.338   2.990 -0.6301 -0.4216  0.4397
 3897SOL    HW123327   4.536   4.309   2.925 -2.0629 -2.0949 -0.1959
 3897SOL    HW223328   4.467   4.431   2.969  0.3454 -0.2573  0.8808
 3898SOL     OW23329   3.658   0.918   5.091 -0.4594  0.2710 -0.0325
 3898SOL    HW123330   3.576   0.961   5.068 -0.8399 -0.7669 -0.6348
 3898SOL    HW223331   3.709   0.998   5.104  0.1735 -0.4387  1.8074
 3899SOL     OW23332   2.549   0.497  12.020  0.2967 -0.2200  0.6161
 3899SOL    HW123333   2.570   0.590  12.009  1.2688 -0.7003 -1.4686
 3899SOL    HW223334   2.513   0.485  11.932 -1.3833 -2.1497  1.5745
 3900SOL     OW23335   3.607   0.195  15.238  0.0191  0.1150 -0.5729
 3900SOL    HW123336   3.694   0.157  15.249 -0.5463 -0.8332  0.5625
 3900SOL    HW223337   3.578   0.151  15.158 -1.9039  0.7086 -0.1976
 3901SOL     OW23338   4.302   2.073   6.387  0.2271 -0.7639  0.2387
 3901SOL    HW123339   4.313   2.146   6.448  1.8973  1.4047 -2.7031
 3901SOL    HW223340   4.214   2.081   6.351 -0.0277 -0.4157  0.9429
 3902SOL     OW23341   2.701   1.328   3.577  0.1310 -0.1876 -0.1634
 3902SOL    HW123342   2.729   1.237   3.572 -0.1584 -0.3412  0.9703
 3902SOL    HW223343   2.681   1.348   3.486  4.5856  0.0223 -1.1147
 3903SOL     OW23344   3.334   1.883   7.899 -0.3468 -0.1796 -0.0509
 3903SOL    HW123345   3.349   1.952   7.835  1.6744 -0.2218  0.3730
 3903SOL    HW223346   3.240   1.887   7.919  0.0671 -3.0524  2.5073
 3904SOL     OW23347   2.288   2.071   4.632 -0.8037  0.5530  0.1687
 3904SOL    HW123348   2.250   2.060   4.719  1.9382 -1.5635  1.0986
 3904SOL    HW223349   2.371   2.110   4.660 -0.1347  0.2199 -1.3722
 3905SOL     OW23350   2.350   1.963   2.799  0.3959 -0.0259  0.3991
 3905SOL    HW123351   2.373   1.943   2.890  1.3100  2.7844  0.7661
 3905SOL    HW223352   2.255   1.972   2.796  0.5804  1.4517 -0.7785
 3906SOL     OW23353   3.729   1.314  16.455  0.4789  0.4239  0.5820
 3906SOL    HW123354   3.693   1.294  16.369 -2.7674  0.4597  1.9598
 3906SOL    HW223355   3.653   1.289  16.506  0.2130 -2.5915 -1.2728
 3907SOL     OW23356   1.701   1.807   6.442 -0.1158 -0.3545  0.4715
 3907SOL    HW123357   1.670   1.851   6.521 -0.4931 -0.9001  0.6247
 3907SOL    HW223358   1.759   1.749   6.491  0.1080  0.0109  0.6400
 3908SOL     OW23359   0.115   2.980   0.181 -0.3929  0.3831 -0.6028
 3908SOL    HW123360   0.173   3.041   0.226  0.9734  0.8585 -2.9744
 3908SOL    HW223361   0.166   2.899   0.172  0.3880  1.0885 -2.4971
 3909SOL     OW23362   3.566   0.488   0.909  0.5684 -0.0567 -0.3541
 3909SOL    HW123363   3.653   0.492   0.948  0.7657 -0.8655 -0.7170
 3909SOL    HW223364   3.509   0.506   0.984  0.7987  1.5656 -0.5656
 3910SOL     OW23365   1.837   4.615   6.494 -0.1619 -0.1456  0.1785
 3910SOL    HW123366   1.897   4.674   6.538 -1.3338  1.4189 -0.3193
 3910SOL    HW223367   1.872   4.624   6.405 -0.5448  1.0205  0.1445
 3911SOL     OW23368   0.864   1.301   4.883  0.6897  0.4457 -0.0879
 3911SOL    HW123369   0.920   1.266   4.952  0.9831 -0.7704 -0.9336
 3911SOL    HW223370   0.884   1.239   4.813  2.6153  0.2706  0.6153
 3912SOL     OW23371   1.758   2.008  14.928 -0.1918 -0.1846  0.4337
 3912SOL    HW123372   1.769   2.005  15.023  0.0525 -2.5995  0.3338
 3912SOL    HW223373   1.732   2.099  14.917 -1.1618 -0.4539  0.4811
 3913SOL     OW23374   0.823   1.889   3.091  0.4175  0.3174  0.6257
 3913SOL    HW123375   0.914   1.871   3.114  0.4029 -1.9422 -1.1210
 3913SOL    HW223376   0.828   1.947   3.016  1.2704  0.8753  1.1192
 3914SOL     OW23377   1.204   4.500   4.504 -0.4036  0.7949 -0.7010
 3914SOL    HW123378   1.300   4.490   4.505 -0.6565 -1.5241  0.3550
 3914SOL    HW223379   1.176   4.415   4.537 -1.0530  1.6302  0.8660
 3915SOL     OW23380   2.934   3.711   8.911  0.4762 -0.0698  0.2053
 3915SOL    HW123381   2.929   3.653   8.835  0.4447  0.0054  0.1505
 3915SOL    HW223382   2.875   3.673   8.977 -1.0209 -0.6761 -1.4791
 3916SOL     OW23383   4.087   2.805  17.168 -0.4672 -0.0525  0.6062
 3916SOL    HW123384   4.032   2.788  17.245  0.0406 -0.0666  0.9704
 3916SOL    HW223385   4.053   2.740  17.107 -2.2455  2.2663 -0.8634
 3917SOL     OW23386   3.193   3.962   3.907  0.1945 -0.6702  0.4065
 3917SOL    HW123387   3.273   3.926   3.946  1.2419  0.5012 -0.6260
 3917SOL    HW223388   3.208   3.935   3.817  1.0872 -0.1301  0.3925
 3918SOL     OW23389   1.095   4.519   5.335  0.0685  0.5186 -0.1264
 3918SOL    HW123390   1.101   4.606   5.294  2.1846  0.7972  0.8184
 3918SOL    HW223391   0.999   4.512   5.339  0.1375 -0.6549 -0.6823
 3919SOL     OW23392   3.779   2.642   4.419  0.3175  0.4056  0.2031
 3919SOL    HW123393   3.849   2.691   4.375  2.4484 -2.4287  0.4465
 3919SOL    HW223394   3.790   2.691   4.500 -1.7810  0.5904  0.3753
 3920SOL     OW23395   3.457   4.613   1.501 -0.2049 -0.1276  0.3777
 3920SOL    HW123396   3.548   4.607   1.473  0.1654 -0.6162  1.6861
 3920SOL    HW223397   3.458   4.677   1.572  1.9827 -0.5738  0.7451
 3921SOL     OW23398   1.852   0.708   3.768  0.1331  0.3291  0.3770
 3921SOL    HW123399   1.766   0.700   3.809  1.1010 -3.7101  1.6710
 3921SOL    HW223400   1.852   0.801   3.748  2.5061  0.2381 -0.0225
 3922SOL     OW23401   3.809   0.225  11.759  0.1107  0.5498 -0.1138
 3922SOL    HW123402   3.888   0.266  11.724 -0.3643  0.1044 -1.7290
 3922SOL    HW223403   3.801   0.271  11.842  2.2196 -2.3747  1.7109
 3923SOL     OW23404   2.727   3.123   6.076  0.2989  0.0461  0.0581
 3923SOL    HW123405   2.671   3.092   6.147  0.3648  0.3962  0.2619
 3923SOL    HW223406   2.767   3.201   6.116  2.5185 -0.1898 -1.6621
 3924SOL     OW23407   1.943   1.516   3.300 -0.7232 -0.4372 -0.0128
 3924SOL    HW123408   1.922   1.529   3.392  3.8908 -0.2097  1.0359
 3924SOL    HW223409   1.875   1.455   3.271 -1.8932  0.6076  0.5901
 3925SOL     OW23410   1.698   1.922  15.648 -0.1687  0.0224  0.0656
 3925SOL    HW123411   1.663   1.983  15.584  0.5929 -0.3653 -0.7178
 3925SOL    HW223412   1.789   1.952  15.651 -0.3150  0.4900 -0.2718
 3926SOL     OW23413   4.585   1.547  15.740  0.5756 -0.0520 -0.2733
 3926SOL    HW123414   4.607   1.584  15.655 -0.1150  0.9728 -0.0114
 3926SOL    HW223415   4.507   1.495  15.722  1.1826 -1.4378  1.0792
 3927SOL     OW23416   4.645   2.956   5.248 -0.1481 -1.1670  0.5646
 3927SOL    HW123417   4.642   3.051   5.254  2.5634 -1.0366 -0.4081
 3927SOL    HW223418   4.690   2.948   5.164 -1.3210  0.0287 -0.1733
 3928SOL     OW23419   2.833   4.569   3.579  0.2834 -0.7012 -0.0161
 3928SOL    HW123420   2.825   4.481   3.542 -1.3526  0.0926 -1.5889
 3928SOL    HW223421   2.758   4.579   3.638 -1.4973 -5.3979 -1.4530
 3929SOL     OW23422   1.380   1.817   6.330  0.1708  1.0946  0.2388
 3929SOL    HW123423   1.431   1.744   6.294  1.2176  1.3091  1.2880
 3929SOL    HW223424   1.330   1.841   6.252 -0.2011 -0.8842 -0.1270
 3930SOL     OW23425   3.776   4.659   0.535 -0.3528 -0.8273 -0.5584
 3930SOL    HW123426   3.859   4.632   0.497  0.0230 -0.5375  0.0544
 3930SOL    HW223427   3.720   4.637   0.461 -0.5875 -2.8043  0.2073
 3931SOL     OW23428   4.304   2.357   8.227 -0.0243  0.0602 -0.2287
 3931SOL    HW123429   4.349   2.280   8.192  1.2119  0.7621 -0.1643
 3931SOL    HW223430   4.293   2.330   8.318  1.0722  0.3484 -0.0068
 3932SOL     OW23431   2.273   1.921  16.530 -0.4089  0.3797  0.3302
 3932SOL    HW123432   2.330   1.953  16.460  1.2672 -3.1723  0.0756
 3932SOL    HW223433   2.329   1.914  16.607  0.2571 -1.6166 -0.3131
 3933SOL     OW23434   2.369   1.324   4.687  0.6754  0.2752 -0.1002
 3933SOL    HW123435   2.444   1.362   4.642 -0.3092 -2.3239 -3.9461
 3933SOL    HW223436   2.374   1.235   4.653 -1.6671  0.4052 -0.8273
 3934SOL     OW23437   3.753   3.837   9.001 -0.0759 -0.2469  0.2502
 3934SOL    HW123438   3.838   3.823   8.960 -0.6614 -0.6380 -0.8439
 3934SOL    HW223439   3.704   3.897   8.945 -0.1380 -2.6351 -2.2569
 3935SOL     OW23440   3.669   2.284   4.863 -0.1458 -0.5714  0.0077
 3935SOL    HW123441   3.611   2.260   4.935  0.4254  1.7868  1.2537
 3935SOL    HW223442   3.597   2.282   4.799 -1.0198 -0.2350  0.9862
 3936SOL     OW23443   2.214   0.576   6.304  0.4911  0.3900 -0.1917
 3936SOL    HW123444   2.274   0.504   6.284  1.2964  0.7682  0.8998
 3936SOL    HW223445   2.272   0.637   6.350 -1.5201  1.4765  0.9073
 3937SOL     OW23446   3.162   0.240   3.689  0.5854 -0.5570  0.5630
 3937SOL    HW123447   3.084   0.204   3.647 -0.3637  0.8727  1.0743
 3937SOL    HW223448   3.157   0.329   3.654  0.5131 -0.3927  0.9816
 3938SOL     OW23449   3.569   1.716   7.212  0.3053  0.2864  0.0060
 3938SOL    HW123450   3.568   1.681   7.301 -0.6411  0.5429  0.0920
 3938SOL    HW223451   3.483   1.757   7.202  1.5869  2.2795 -2.7689
 3939SOL     OW23452   1.473   0.630   5.783 -0.1846  0.5135 -0.1688
 3939SOL    HW123453   1.422   0.703   5.819  2.2825  1.1595  1.9771
 3939SOL    HW223454   1.565   0.647   5.801 -0.6523  1.6038  1.1979
 3940SOL     OW23455   1.845   1.302  14.486 -0.9055  0.3074  0.0391
 3940SOL    HW123456   1.896   1.238  14.534  2.8017  1.9079 -1.7884
 3940SOL    HW223457   1.876   1.287  14.397 -0.8720 -0.8510  0.2474
 3941SOL     OW23458   1.591   1.492  15.348 -0.4796 -0.0183  0.2101
 3941SOL    HW123459   1.663   1.486  15.285 -2.1932 -0.4224 -1.7058
 3941SOL    HW223460   1.619   1.571  15.395  1.3784 -0.3370 -0.3473
 3942SOL     OW23461   2.033   0.704  13.218  0.1178 -0.1692 -0.0719
 3942SOL    HW123462   1.998   0.615  13.205 -0.2504  0.1492 -1.2525
 3942SOL    HW223463   1.956   0.759  13.231  0.5185  0.6172 -1.0430
 3943SOL     OW23464   4.696   3.015  10.300  0.2108  0.3064  0.3786
 3943SOL    HW123465   4.632   3.085  10.316  0.7017  1.0332 -0.8302
 3943SOL    HW223466   4.638   2.942  10.279  0.7587  0.4980 -1.7649
 3944SOL     OW23467   4.301   4.287   7.404  0.2775  0.1736 -1.1410
 3944SOL    HW123468   4.350   4.254   7.328  3.3792 -0.9164  1.3580
 3944SOL    HW223469   4.235   4.218   7.402  1.7434 -1.2805  0.7746
 3945SOL     OW23470   3.082   3.478   6.310  0.5151 -0.6224 -0.6872
 3945SOL    HW123471   3.082   3.388   6.278  1.3084  0.7202 -4.5237
 3945SOL    HW223472   3.001   3.485   6.360  2.1411  0.2699  1.8304
 3946SOL     OW23473   0.329   1.785   1.088 -0.3047 -0.1262  0.0557
 3946SOL    HW123474   0.422   1.773   1.108 -0.8486 -2.7352  1.1145
 3946SOL    HW223475   0.326   1.874   1.054 -1.4863 -1.2616 -2.8069
 3947SOL     OW23476   0.592   0.049   7.690  0.7142 -0.1800  0.6772
 3947SOL    HW123477   0.661   0.026   7.753  0.5288  1.8444  1.6492
 3947SOL    HW223478   0.627   0.131   7.655  1.3021  0.5676  3.0216
 3948SOL     OW23479   2.800   0.196  17.240 -0.2120  0.0542 -0.5587
 3948SOL    HW123480   2.747   0.189  17.161 -0.3093  0.4061 -0.5250
 3948SOL    HW223481   2.867   0.263  17.228 -2.8683  2.7927  0.0402
 3949SOL     OW23482   2.764   1.694   5.122 -0.1190 -0.1277 -0.1580
 3949SOL    HW123483   2.734   1.607   5.150 -1.1056 -0.3090 -1.7421
 3949SOL    HW223484   2.829   1.700   5.192 -0.0038 -1.7878 -0.1190
 3950SOL     OW23485   4.122   4.515   1.419 -0.2807  0.2958 -0.0613
 3950SOL    HW123486   4.156   4.465   1.493  4.0501 -0.5091 -2.5783
 3950SOL    HW223487   4.193   4.496   1.358 -0.0123 -0.6353  0.5438
 3951SOL     OW23488   1.968   0.248   3.726  0.4299 -0.0650 -0.0460
 3951SOL    HW123489   1.953   0.329   3.775  0.5407 -0.7507  1.1062
 3951SOL    HW223490   2.021   0.272   3.649 -0.4918 -1.5276 -1.1418
 3952SOL     OW23491   0.432   3.388   0.878 -0.4399  0.2054  0.3842
 3952SOL    HW123492   0.366   3.405   0.811 -0.3672  0.6413  0.4256
 3952SOL    HW223493   0.496   3.459   0.876  0.4053 -0.5091  1.9236
 3953SOL     OW23494   1.454   3.358   8.685  0.3459  0.1160 -0.6464
 3953SOL    HW123495   1.396   3.285   8.665  0.2309  0.0113  0.0701
 3953SOL    HW223496   1.492   3.334   8.770 -1.8734 -1.7601 -0.2040
 3954SOL     OW23497   1.749   3.218   2.288  1.0152 -0.0957 -0.2227
 3954SOL    HW123498   1.801   3.242   2.365 -1.1541 -3.0505  2.1636
 3954SOL    HW223499   1.817   3.212   2.221 -1.5157  1.8354 -2.9678
 3955SOL     OW23500   1.572   2.570   8.437  0.1029 -0.4396  0.2585
 3955SOL    HW123501   1.650   2.553   8.490  1.0889 -0.8072 -1.3216
 3955SOL    HW223502   1.591   2.657   8.403  2.1812  0.0420  2.6361
 3956SOL     OW23503   3.789   4.725  17.538  0.4604 -0.0730 -0.0905
 3956SOL    HW123504   3.703   4.698  17.571  0.4419 -1.8576 -1.6310
 3956SOL    HW223505   3.781   0.070  17.492 -0.1898 -0.1769 -0.1660
 3957SOL     OW23506   1.183   2.184   2.910  0.0118  0.2058 -0.1283
 3957SOL    HW123507   1.254   2.212   2.852  0.9482 -0.7375  0.5538
 3957SOL    HW223508   1.227   2.110   2.952  2.1199  2.2591  1.2430
 3958SOL     OW23509   2.328   3.505   7.369  0.3128  0.0496  0.0712
 3958SOL    HW123510   2.235   3.484   7.377  0.5339 -0.1224  2.4354
 3958SOL    HW223511   2.341   3.521   7.276  0.0538 -2.3099 -0.3780
 3959SOL     OW23512   1.674   1.612   5.191  0.8293 -0.2222  0.4170
 3959SOL    HW123513   1.634   1.688   5.232 -2.3054 -1.4411 -0.3722
 3959SOL    HW223514   1.743   1.651   5.138  2.5223 -0.5395  2.4026
 3960SOL     OW23515   1.013   1.771   0.930  0.3713 -0.6557  0.2921
 3960SOL    HW123516   0.938   1.778   0.989  0.1703 -2.1591  0.2107
 3960SOL    HW223517   1.021   1.863   0.903 -0.1518 -0.9176 -0.7736
 3961SOL     OW23518   3.038   2.727  17.054  0.1376  0.1045 -0.7163
 3961SOL    HW123519   3.012   2.644  17.092 -2.8340  0.9436 -0.9140
 3961SOL    HW223520   2.977   2.778  17.107  1.4493  0.5143  0.3915
 3962SOL     OW23521   2.713   4.490  14.531 -0.3507  0.1198 -0.2712
 3962SOL    HW123522   2.693   4.417  14.472 -2.1068  0.9386 -0.7112
 3962SOL    HW223523   2.712   4.567  14.475 -1.7288 -0.5993 -1.2549
 3963SOL     OW23524   2.238   4.642   9.926  0.0474 -0.4184 -0.0570
 3963SOL    HW123525   2.244   4.723   9.875  1.3042 -1.0152 -0.8721
 3963SOL    HW223526   2.207   4.660  10.014  1.2596 -0.4511  0.3759
 3964SOL     OW23527   3.891   4.438  12.769 -0.3577  0.1720 -0.5408
 3964SOL    HW123528   3.976   4.460  12.730 -0.7506  2.5878 -0.0481
 3964SOL    HW223529   3.881   4.497  12.844  1.1361  1.8187 -1.6261
 3965SOL     OW23530   0.544   2.267   2.705 -0.3135 -0.3015 -0.2196
 3965SOL    HW123531   0.561   2.227   2.620 -1.0855  1.0912 -1.0179
 3965SOL    HW223532   0.622   2.232   2.748  0.9330  1.8786 -0.7296
 3966SOL     OW23533   0.900   2.086   3.600  0.1463  0.5333 -0.0389
 3966SOL    HW123534   0.938   2.020   3.659 -0.9970  2.8088  3.2557
 3966SOL    HW223535   0.965   2.087   3.530 -0.6376 -2.9315 -0.7998
 3967SOL     OW23536   4.249   3.873   3.230  0.5343 -0.3346 -0.5058
 3967SOL    HW123537   4.248   3.964   3.201 -1.1094 -0.3927 -0.6565
 3967SOL    HW223538   4.183   3.861   3.298  0.6960  0.7448 -0.1615
 3968SOL     OW23539   1.688   1.115   4.050  0.2175 -0.0124  0.0968
 3968SOL    HW123540   1.732   1.194   4.081  0.1981  0.0950 -0.1523
 3968SOL    HW223541   1.661   1.140   3.962 -0.7686  3.7188  1.4695
 3969SOL     OW23542   4.528   1.056   0.147 -0.2956  0.7622 -0.4062
 3969SOL    HW123543   4.591   1.011   0.203  0.1635  1.7747 -0.1017
 3969SOL    HW223544   4.559   1.147   0.142  3.2429 -0.4202  0.4397
 3970SOL     OW23545   4.165   1.304   8.974 -0.2481 -0.2121 -0.3656
 3970SOL    HW123546   4.101   1.303   9.045  1.6046 -0.8594  1.2921
 3970SOL    HW223547   4.208   1.389   8.985 -0.9075  0.3685 -2.1704
 3971SOL     OW23548   3.603   3.186   8.138 -0.7430 -0.0090 -0.0476
 3971SOL    HW123549   3.561   3.175   8.224  0.3068 -0.6937  0.3876
 3971SOL    HW223550   3.670   3.118   8.140 -0.4029  0.3425  0.6193
 3972SOL     OW23551   1.271   0.045   2.769 -0.1576  0.1552 -0.4375
 3972SOL    HW123552   1.178   0.022   2.774 -0.1266 -0.1484 -1.3525
 3972SOL    HW223553   1.315   4.711   2.725 -0.0804 -1.2431  1.9365
 3973SOL     OW23554   0.340   2.715   5.455 -0.9090 -0.2507 -0.1651
 3973SOL    HW123555   0.416   2.773   5.460 -0.6298 -0.7030  0.8185
 3973SOL    HW223556   0.353   2.673   5.370 -1.9359 -0.0921 -0.3965
 3974SOL     OW23557   3.407   4.359   4.774  0.0545  0.0628  0.0507
 3974SOL    HW123558   3.342   4.328   4.837  0.6025 -0.6212  0.2808
 3974SOL    HW223559   3.380   4.451   4.767 -3.4552 -0.8839  1.2545
 3975SOL     OW23560   0.684   1.854  11.900 -0.1571  0.2643 -0.8845
 3975SOL    HW123561   0.666   1.919  11.968  3.0109 -1.2948  1.5058
 3975SOL    HW223562   0.735   1.911  11.842 -0.8468  0.1178 -1.6334
 3976SOL     OW23563   0.069   4.703   2.793 -0.6828 -0.4345  0.5007
 3976SOL    HW123564   0.126   0.040   2.783  1.2944 -1.7578  1.7658
 3976SOL    HW223565   0.133   4.633   2.783  1.7955  1.8957  0.0120
 3977SOL     OW23566   2.248   1.898  10.849 -0.1897  0.3491 -0.3281
 3977SOL    HW123567   2.234   1.968  10.784  3.1597 -0.3485 -1.7578
 3977SOL    HW223568   2.159   1.878  10.880  0.6550 -0.6421  1.4496
 3978SOL     OW23569   3.346   0.345  11.201 -0.4708 -0.2076  0.1876
 3978SOL    HW123570   3.282   0.281  11.231 -0.7221  0.0294  0.1619
 3978SOL    HW223571   3.421   0.291  11.174 -0.4874 -1.5790  2.9694
 3979SOL     OW23572   4.206   0.143   8.898  0.1928 -0.2374  0.2004
 3979SOL    HW123573   4.123   0.148   8.945 -0.8865 -0.1686 -1.7031
 3979SOL    HW223574   4.185   0.111   8.810 -1.0095 -0.2748  0.5008
 3980SOL     OW23575   0.855   1.652  11.285 -0.4643  0.0959  0.3495
 3980SOL    HW123576   0.915   1.710  11.238 -0.0359 -0.4071  0.2739
 3980SOL    HW223577   0.774   1.697  11.259 -0.8862 -1.1679 -0.5027
 3981SOL     OW23578   2.259   0.798   4.643 -0.0749 -0.2776  0.4971
 3981SOL    HW123579   2.166   0.774   4.645  0.3455 -1.9774 -0.2208
 3981SOL    HW223580   2.305   0.714   4.644  2.3956  1.0814  0.1031
 3982SOL     OW23581   2.458   2.065   3.642  0.2151  0.6865 -0.9472
 3982SOL    HW123582   2.494   2.070   3.730 -1.4940 -1.6343 -0.1127
 3982SOL    HW223583   2.374   2.019   3.651  0.4329  0.8205  1.6937
 3983SOL     OW23584   2.898   0.471   9.912 -0.6236 -0.1374  0.3051
 3983SOL    HW123585   2.812   0.433   9.894 -0.8908  0.9092 -0.5707
 3983SOL    HW223586   2.863   0.553   9.947  1.0521  1.9066 -2.8097
 3984SOL     OW23587   0.288   4.491  15.730 -0.3144  0.3544  0.5407
 3984SOL    HW123588   0.291   4.401  15.699 -1.4830  0.2314  0.7828
 3984SOL    HW223589   0.332   4.489  15.815 -1.1477  0.0488  0.9695
 3985SOL     OW23590   3.825   4.724   5.039  0.1282 -0.0289  0.0114
 3985SOL    HW123591   3.764   4.714   4.966 -0.3362  2.8388  0.0279
 3985SOL    HW223592   3.831   0.079   5.050  2.6091 -0.2205  0.2572
 3986SOL     OW23593   0.589   3.330  10.707  0.0298 -0.4897  0.0859
 3986SOL    HW123594   0.680   3.362  10.715 -0.1769  0.2655 -0.6277
 3986SOL    HW223595   0.556   3.307  10.794  0.3470  0.4805  0.4687
 3987SOL     OW23596   0.914   4.230   6.676  0.0294  0.1212 -0.0501
 3987SOL    HW123597   0.964   4.156   6.643  0.7158  0.6963 -0.3141
 3987SOL    HW223598   0.848   4.190   6.733  2.0773  1.0284  2.9040
 3988SOL     OW23599   3.912   0.604   9.664  0.1899  0.5363  0.2986
 3988SOL    HW123600   3.890   0.662   9.591  0.4290 -1.1195 -1.1078
 3988SOL    HW223601   3.851   0.530   9.655 -0.4813  1.2693 -1.2196
 3989SOL     OW23602   4.051   0.303   3.292 -0.2041  0.4419 -0.5201
 3989SOL    HW123603   4.123   0.361   3.269  1.4690 -0.5555  2.1858
 3989SOL    HW223604   3.982   0.336   3.234 -0.7702 -0.6016 -0.4460
 3990SOL     OW23605   1.012   3.562  16.412  0.4664 -0.7148  0.6131
 3990SOL    HW123606   1.077   3.493  16.420 -2.1039 -2.8073  3.2923
 3990SOL    HW223607   0.946   3.521  16.356  1.2315 -1.9992  0.6706
 3991SOL     OW23608   3.927   0.327  15.180  0.2897 -0.1237  0.3294
 3991SOL    HW123609   3.908   0.293  15.268 -0.2120  0.5086  0.4646
 3991SOL    HW223610   3.986   0.266  15.135 -0.7628 -2.0722  1.5729
 3992SOL     OW23611   1.160   3.373   8.432  0.4277  0.0221  0.1031
 3992SOL    HW123612   1.148   3.290   8.478  0.7291  0.2951  0.6746
 3992SOL    HW223613   1.090   3.365   8.368  0.1450  2.1649  0.1571
 3993SOL     OW23614   0.605   2.875   7.565  0.9788 -0.1244  0.5219
 3993SOL    HW123615   0.604   2.959   7.611 -1.1051 -0.2430  0.7130
 3993SOL    HW223616   0.525   2.840   7.606  0.1988  1.1986  0.1284
 3994SOL     OW23617   2.909   3.652   7.216 -0.4586 -0.0618  0.0863
 3994SOL    HW123618   2.913   3.569   7.169 -1.9475 -0.6159  0.9477
 3994SOL    HW223619   3.001   3.667   7.237 -0.2897  0.7978 -1.2267
 3995SOL     OW23620   0.872   3.185  17.521 -0.2734 -0.5458 -0.2570
 3995SOL    HW123621   0.900   3.274  17.540 -0.1431 -1.0589  1.9392
 3995SOL    HW223622   0.950   3.160  17.470 -0.1854 -0.7602 -0.0162
 3996SOL     OW23623   2.730   1.662   3.051 -0.2749 -0.4716  0.2848
 3996SOL    HW123624   2.768   1.582   3.014 -1.9215 -1.1612  0.0666
 3996SOL    HW223625   2.756   1.649   3.143 -1.1246 -0.9870  0.4495
 3997SOL     OW23626   4.252   4.177  10.593 -0.4332 -0.4941 -0.0766
 3997SOL    HW123627   4.238   4.096  10.642 -1.8002 -0.6502 -0.7282
 3997SOL    HW223628   4.191   4.149  10.525 -0.1047  0.2062 -0.6571
 3998SOL     OW23629   1.281   2.031  15.739 -0.6163  0.4603 -0.2399
 3998SOL    HW123630   1.349   2.099  15.737  0.8783 -1.0551 -2.0612
 3998SOL    HW223631   1.291   1.983  15.657 -1.3647  1.1612 -0.7375
 3999SOL     OW23632   1.054   3.250  11.941 -0.2414  0.2814 -0.1917
 3999SOL    HW123633   1.130   3.251  11.998  1.5628 -0.8972 -2.5805
 3999SOL    HW223634   1.006   3.169  11.963  0.4372 -0.3112 -0.8835
 4000SOL     OW23635   2.697   2.454   4.819 -0.3648 -0.1582  0.3343
 4000SOL    HW123636   2.791   2.471   4.812 -0.8921  3.7308  2.5618
 4000SOL    HW223637   2.698   2.415   4.906  2.6089  2.8046  1.6259
 4001SOL     OW23638   0.704   4.701   9.757  0.3738 -0.2941  0.0367
 4001SOL    HW123639   0.699   4.624   9.814  1.5836  1.0044  1.8843
 4001SOL    HW223640   0.748   4.668   9.678  1.6776  1.6127 -0.0492
 4002SOL     OW23641   4.055   0.284   7.831  0.2010  0.1375 -0.0680
 4002SOL    HW123642   4.014   0.238   7.905  0.8676  0.2705  0.3856
 4002SOL    HW223643   4.014   0.370   7.842 -0.3402 -0.1052 -0.1469
 4003SOL     OW23644   1.144   4.683  11.070  0.4091 -0.3103  0.2171
 4003SOL    HW123645   1.151   0.025  11.119 -2.4860  0.0641  0.0524
 4003SOL    HW223646   1.111   4.718  10.987 -0.4250 -2.0672 -0.1930
 4004SOL     OW23647   2.729   1.516  14.246  0.0779 -0.6311 -0.1164
 4004SOL    HW123648   2.692   1.602  14.225  1.8250  0.2409  0.4353
 4004SOL    HW223649   2.704   1.456  14.176 -1.4263  2.0438 -1.8851
 4005SOL     OW23650   2.274   0.893  13.463  0.3755 -0.6363 -0.0844
 4005SOL    HW123651   2.289   0.950  13.388  3.2756 -0.6122  0.4882
 4005SOL    HW223652   2.269   0.957  13.534 -1.9765 -1.6400  0.6542
 4006SOL     OW23653   3.986   1.687  12.554  0.0075 -0.1728 -0.0019
 4006SOL    HW123654   3.923   1.746  12.595  1.2646  0.9317  0.3766
 4006SOL    HW223655   4.057   1.751  12.565  0.8634 -1.2755  0.9326
 4007SOL     OW23656   4.130   3.325   2.767  0.4949  0.5780  0.3583
 4007SOL    HW123657   4.195   3.388   2.801  1.3535  0.4922 -1.1322
 4007SOL    HW223658   4.170   3.302   2.683 -0.8261 -0.1068 -0.0839
 4008SOL     OW23659   4.227   3.420   7.234 -0.7650 -0.1859  0.0822
 4008SOL    HW123660   4.276   3.430   7.315 -0.3676 -2.1118  0.0803
 4008SOL    HW223661   4.203   3.327   7.229 -1.4117 -0.0506  0.6606
 4009SOL     OW23662   2.102   2.809  16.443  0.2533 -0.5413 -0.4858
 4009SOL    HW123663   2.097   2.782  16.351 -1.0576 -2.3929  0.1172
 4009SOL    HW223664   2.195   2.789  16.447  0.2291 -0.0385  2.7118
 4010SOL     OW23665   3.282   3.136   8.538 -0.3579 -0.2192 -0.0110
 4010SOL    HW123666   3.214   3.113   8.474  1.3648 -1.5537 -1.3516
 4010SOL    HW223667   3.232   3.196   8.594 -1.2459 -0.2115 -0.8089
 4011SOL     OW23668   0.175   1.701   2.889  0.4186 -0.1753 -0.1463
 4011SOL    HW123669   0.190   1.787   2.929  1.3448  0.2656 -1.4271
 4011SOL    HW223670   0.249   1.647   2.916  1.5526  1.5403  0.1403
 4012SOL     OW23671   4.296   4.556   5.680  0.1811  0.3272 -0.0715
 4012SOL    HW123672   4.297   4.651   5.684 -0.5610  0.2808  1.3352
 4012SOL    HW223673   4.383   4.538   5.646 -0.9351 -0.3214 -2.5891
 4013SOL     OW23674   1.470   3.766  17.221 -0.2476  0.3996 -0.0946
 4013SOL    HW123675   1.387   3.771  17.174 -0.0616 -1.7598 -0.6566
 4013SOL    HW223676   1.497   3.857  17.230 -0.2162  0.4218 -0.4173
 4014SOL     OW23677   2.600   3.409   8.359  0.1965 -0.4340  0.0604
 4014SOL    HW123678   2.688   3.447   8.355  0.3560 -0.4979  2.8938
 4014SOL    HW223679   2.625   3.318   8.370 -2.6135 -0.9738  1.9766
 4015SOL     OW23680   0.369   2.711  15.796  0.2745  0.0049 -0.1124
 4015SOL    HW123681   0.415   2.775  15.851  1.1418  0.6824 -1.6127
 4015SOL    HW223682   0.419   2.734  15.717  0.6861 -4.5276 -1.1706
 4016SOL     OW23683   1.012   4.389   7.151  0.5744 -0.3098  0.3085
 4016SOL    HW123684   0.971   4.460   7.201 -0.4863  0.1069 -1.1555
 4016SOL    HW223685   0.930   4.350   7.122 -0.9407  1.5499  2.0742
 4017SOL     OW23686   2.334   3.801   7.042 -0.0226 -0.7777 -0.1372
 4017SOL    HW123687   2.405   3.840   6.991  1.0139 -0.1022  1.8434
 4017SOL    HW223688   2.272   3.870   7.069  1.1745  0.4044 -0.4228
 4018SOL     OW23689   1.391   3.517  11.797 -0.4137 -0.7076 -0.0552
 4018SOL    HW123690   1.340   3.447  11.757 -0.8987  0.2947 -1.1817
 4018SOL    HW223691   1.351   3.517  11.884 -0.0264 -0.0640  0.1204
 4019SOL     OW23692   0.314   3.667  17.327 -0.0677 -0.4471  0.5406
 4019SOL    HW123693   0.379   3.597  17.329 -2.0157 -2.3178 -0.8474
 4019SOL    HW223694   0.342   3.726  17.396 -0.4660  3.5470 -2.7329
 4020SOL     OW23695   2.508   3.449   0.599 -0.0311  0.5072 -0.4282
 4020SOL    HW123696   2.487   3.375   0.656  1.6441  0.6978  0.4415
 4020SOL    HW223697   2.424   3.470   0.558  0.3664  1.2498 -0.8562
 4021SOL     OW23698   1.824   1.200   4.348 -0.4030  0.1709 -0.4379
 4021SOL    HW123699   1.840   1.255   4.271 -2.9185  1.9316  0.3240
 4021SOL    HW223700   1.871   1.127   4.307 -2.7212 -1.4031 -0.2588
 4022SOL     OW23701   2.508   0.129   2.916  0.4997  0.8117  0.0388
 4022SOL    HW123702   2.583   0.188   2.925  0.9421  0.3985 -0.9238
 4022SOL    HW223703   2.434   0.187   2.903  0.5794  0.5290 -1.7005
 4023SOL     OW23704   0.041   3.919  12.399 -0.0593 -0.2512 -0.0183
 4023SOL    HW123705   4.722   3.893  12.470  0.0747 -0.6691 -0.0645
 4023SOL    HW223706   0.101   3.984  12.436 -0.5628  1.0178 -1.3969
 4024SOL     OW23707   3.695   3.369   5.479 -0.5005  0.3858 -0.1038
 4024SOL    HW123708   3.739   3.378   5.395  2.2649  3.9289  1.7200
 4024SOL    HW223709   3.611   3.329   5.460 -0.1208 -0.3809 -0.1769
 4025SOL     OW23710   3.162   1.839   4.500  0.5229 -0.5101  0.6059
 4025SOL    HW123711   3.143   1.925   4.462  1.6221 -0.1294  0.9044
 4025SOL    HW223712   3.208   1.878   4.575 -0.5193 -0.7629  1.3880
 4026SOL     OW23713   1.135   0.967  17.630  0.1633  0.1476  0.1883
 4026SOL    HW123714   1.200   0.984  17.562  0.5182 -1.4339  0.1317
 4026SOL    HW223715   1.066   1.029  17.610  0.8121  0.9852  0.5441
 4027SOL     OW23716   2.319   1.294   9.390 -0.2806 -0.2218  0.2432
 4027SOL    HW123717   2.282   1.291   9.478 -0.7832 -0.1189  0.0360
 4027SOL    HW223718   2.292   1.215   9.343  0.2128  0.1240 -0.6237
 4028SOL     OW23719   2.684   4.212  13.574  0.3328 -0.3783  0.8658
 4028SOL    HW123720   2.601   4.180  13.540  0.6922  0.7121 -1.0136
 4028SOL    HW223721   2.728   4.129  13.594 -2.7412 -2.6449 -1.8010
 4029SOL     OW23722   2.780   2.612   4.386 -0.1064  0.3503  0.5528
 4029SOL    HW123723   2.738   2.677   4.329 -2.4172 -0.0685  1.7743
 4029SOL    HW223724   2.709   2.593   4.448 -0.9614  1.2177 -0.1641
 4030SOL     OW23725   4.179   2.660   8.893  0.8370 -0.0137 -0.2860
 4030SOL    HW123726   4.184   2.655   8.989  0.8326  0.3890 -0.2648
 4030SOL    HW223727   4.173   2.755   8.880 -3.6959 -0.4535 -1.4962
 4031SOL     OW23728   2.670   4.469   1.510 -0.3968  0.3917  0.3687
 4031SOL    HW123729   2.616   4.513   1.576  1.0868  2.4834  0.1876
 4031SOL    HW223730   2.661   4.525   1.434  1.0045  1.9003  1.3155
 4032SOL     OW23731   2.320   1.014   7.338 -0.2225 -0.2390  0.4503
 4032SOL    HW123732   2.235   1.043   7.370  0.2205  0.0859  1.3408
 4032SOL    HW223733   2.319   0.933   7.389  3.4917 -0.5381  0.0550
 4033SOL     OW23734   3.556   3.840  15.858  0.4091  0.7830  0.2031
 4033SOL    HW123735   3.469   3.859  15.893  0.0990  0.4949 -0.4019
 4033SOL    HW223736   3.591   3.787  15.930 -0.2245 -1.4420 -1.1116
 4034SOL     OW23737   0.919   0.153  16.156  0.0364 -0.0447  0.1429
 4034SOL    HW123738   0.915   0.249  16.148  0.7131  0.0005  0.3739
 4034SOL    HW223739   0.950   0.130  16.068 -2.5035  1.6965 -1.2212
 4035SOL     OW23740   3.418   3.741   3.442  0.1054  0.4557  0.0219
 4035SOL    HW123741   3.453   3.820   3.484  0.3997  0.0135  0.6109
 4035SOL    HW223742   3.499   3.693   3.460  1.4585  2.6328 -0.2089
 4036SOL     OW23743   0.623   4.616   8.743 -0.4478 -0.2362  0.1031
 4036SOL    HW123744   0.583   4.571   8.668 -0.0351  0.0932 -0.3123
 4036SOL    HW223745   0.687   4.673   8.699  1.1845 -2.6858 -0.7436
 4037SOL     OW23746   1.340   2.036   3.625 -0.2755 -0.2746 -0.2648
 4037SOL    HW123747   1.333   1.988   3.708  1.7116 -1.2383 -0.6560
 4037SOL    HW223748   1.382   1.967   3.575 -0.6906  0.3441 -1.4790
 4038SOL     OW23749   2.386   1.480  10.714 -0.2427 -0.2041  0.2209
 4038SOL    HW123750   2.385   1.387  10.694 -1.6250  0.0017 -0.6166
 4038SOL    HW223751   2.417   1.519  10.632  3.0624 -1.6305  0.7791
 4039SOL     OW23752   0.003   4.101   2.410 -0.3272  0.2416 -0.1954
 4039SOL    HW123753   4.649   4.121   2.402 -0.1660  0.3928 -1.8522
 4039SOL    HW223754   0.017   4.054   2.492  0.3063  0.8540  0.0452
 4040SOL     OW23755   2.565   3.080   7.071 -0.3273  0.3342 -0.5594
 4040SOL    HW123756   2.477   3.113   7.055  0.3958  1.7280 -1.6512
 4040SOL    HW223757   2.619   3.158   7.062  1.2648 -0.6671  0.2258
 4041SOL     OW23758   0.974   0.012   6.169 -0.3488  0.1923 -0.0471
 4041SOL    HW123759   1.010   0.052   6.248 -1.4833 -0.6586  0.9027
 4041SOL    HW223760   1.028   4.672   6.165  2.1423  1.8595  0.3853
 4042SOL     OW23761   0.990   1.157   4.181  0.1616  0.1392 -0.1465
 4042SOL    HW123762   0.926   1.132   4.114  0.9661 -2.8993  0.1946
 4042SOL    HW223763   1.072   1.133   4.139 -0.3142 -0.7024 -0.6068
 4043SOL     OW23764   3.831   3.493  14.738  0.4359  0.4753  0.9714
 4043SOL    HW123765   3.857   3.424  14.800 -1.0318 -1.0145 -0.0664
 4043SOL    HW223766   3.914   3.511  14.693  1.3557  0.6937  2.7604
 4044SOL     OW23767   4.075   3.929   3.453 -0.2827  0.5928  0.2498
 4044SOL    HW123768   4.153   3.911   3.506 -0.2127  0.4446  0.0960
 4044SOL    HW223769   4.068   4.024   3.462  1.2068  0.7798 -0.7390
 4045SOL     OW23770   1.793   4.561  16.132  0.5056  0.2415  0.0805
 4045SOL    HW123771   1.738   4.487  16.107  1.6479 -0.4479 -0.3760
 4045SOL    HW223772   1.753   4.574  16.218 -2.7288 -0.2762 -1.3397
 4046SOL     OW23773   0.994   0.493  12.293 -0.1651 -0.1414 -0.2768
 4046SOL    HW123774   0.984   0.563  12.228  1.7798 -1.2689 -1.7951
 4046SOL    HW223775   1.019   0.422  12.234 -1.6905  0.9461 -2.2349
 4047SOL     OW23776   2.443   0.921  12.569  0.2633 -0.4418 -0.3473
 4047SOL    HW123777   2.506   0.994  12.569  0.7938 -0.9115  1.3152
 4047SOL    HW223778   2.375   0.960  12.513 -0.6300  0.1433  1.1484
 4048SOL     OW23779   0.599   4.554   7.256 -0.2673 -0.3618 -0.1263
 4048SOL    HW123780   0.690   4.569   7.281 -0.0309 -0.6608 -0.8043
 4048SOL    HW223781   0.594   4.459   7.257  0.1108 -0.3850 -0.4526
 4049SOL     OW23782   4.185   3.335  17.750  0.4975  0.7819  0.3406
 4049SOL    HW123783   4.246   3.407   0.008  1.9424 -0.1217 -1.4855
 4049SOL    HW223784   4.243   3.262   0.019 -0.4649 -0.3617 -0.8086
 4050SOL     OW23785   1.670   1.549  17.038  0.1674  0.1644 -0.5729
 4050SOL    HW123786   1.575   1.556  17.034  0.0808 -0.8536 -0.3032
 4050SOL    HW223787   1.666   1.460  17.074 -0.4853  1.1525  1.8459
 4051SOL     OW23788   1.381   2.721   3.002 -0.1105  0.0071  0.0432
 4051SOL    HW123789   1.296   2.767   3.000  0.9725  1.9873 -1.0420
 4051SOL    HW223790   1.433   2.776   2.943 -1.6290  2.3649  0.8684
 4052SOL     OW23791   2.801   3.000  13.098  0.3159  0.0267  0.0722
 4052SOL    HW123792   2.742   2.925  13.091 -0.2519  0.6940 -2.3475
 4052SOL    HW223793   2.788   3.040  13.012  2.1858 -1.8157 -1.0945
 4053SOL     OW23794   1.532   3.793   4.750 -0.0123 -0.5147  0.4074
 4053SOL    HW123795   1.531   3.884   4.780 -0.0462 -0.4282  0.1442
 4053SOL    HW223796   1.453   3.797   4.697  0.8168 -1.1577 -0.8951
 4054SOL     OW23797   1.118   2.132  12.811  0.4644  0.6570 -0.0273
 4054SOL    HW123798   1.053   2.083  12.760  2.5968 -1.0361 -1.1163
 4054SOL    HW223799   1.161   2.191  12.749  0.4935 -0.1691 -0.8061
 4055SOL     OW23800   3.333   3.859   2.734  0.3434  0.0559 -0.4697
 4055SOL    HW123801   3.396   3.875   2.664  1.5496 -0.4131  0.5111
 4055SOL    HW223802   3.392   3.870   2.809 -2.2635 -0.8212  1.7098
 4056SOL     OW23803   2.468   0.998   9.432 -0.5417  0.2858  0.1606
 4056SOL    HW123804   2.387   1.027   9.389 -0.6229  0.6336  0.5487
 4056SOL    HW223805   2.419   0.972   9.510  0.5176 -2.6264 -0.1540
 4057SOL     OW23806   2.277   1.096   8.632 -0.1884 -0.3997 -0.3381
 4057SOL    HW123807   2.216   1.033   8.670 -2.2416  2.7787  1.5397
 4057SOL    HW223808   2.363   1.059   8.653 -0.8875 -1.3492  0.7982
 4058SOL     OW23809   0.098   1.646   0.002 -0.1821 -0.0124 -0.1252
 4058SOL    HW123810   0.166   1.713   0.015 -0.7327  0.2256  1.4683
 4058SOL    HW223811   0.013   1.687  17.743 -1.2090 -2.3045 -0.5728
 4059SOL     OW23812   0.102   3.269   0.412  0.7790 -0.6155  0.2614
 4059SOL    HW123813   0.167   3.243   0.347 -1.2866  1.0782 -2.5438
 4059SOL    HW223814   0.053   3.335   0.363  0.5453 -0.9665  0.0185
 4060SOL     OW23815   1.739   3.939   2.601  0.1021  0.6135 -0.5975
 4060SOL    HW123816   1.680   3.919   2.529  1.2358  0.6568 -1.5319
 4060SOL    HW223817   1.821   3.902   2.568 -0.7377 -2.5074  0.8284
 4061SOL     OW23818   1.093   4.111  17.278 -0.3151  0.3451 -0.5357
 4061SOL    HW123819   1.155   4.115  17.350 -1.9404  0.1932  0.8824
 4061SOL    HW223820   1.021   4.163  17.313  0.8788  1.6098  0.0227
 4062SOL     OW23821   3.700   1.845   2.135 -0.3040  0.2334 -0.0094
 4062SOL    HW123822   3.753   1.883   2.205 -0.0946 -1.3976  0.7112
 4062SOL    HW223823   3.645   1.921   2.114 -0.8136 -0.1071  0.0981
 4063SOL     OW23824   4.682   0.892  17.060 -0.6643  0.5677 -0.2388
 4063SOL    HW123825   4.607   0.834  17.073 -2.3277  2.3627 -1.8237
 4063SOL    HW223826   4.638   0.963  17.014 -2.0663 -1.4137 -1.9291
 4064SOL     OW23827   2.141   2.925  17.059  0.5845 -0.2011 -0.2785
 4064SOL    HW123828   2.183   3.011  17.064  0.7479 -0.2465 -0.8667
 4064SOL    HW223829   2.165   2.888  16.974  2.3415 -1.8753  0.9367
 4065SOL     OW23830   0.348   1.273  12.284  0.0681 -0.5795 -0.1168
 4065SOL    HW123831   0.411   1.221  12.333  1.4772  1.2013 -0.0279
 4065SOL    HW223832   0.298   1.316  12.353 -1.1524 -0.4078 -1.1036
 4066SOL     OW23833   2.408   4.496   0.007 -0.0556 -0.1221 -0.2570
 4066SOL    HW123834   2.427   4.421  17.705 -0.1387  0.1845 -0.6921
 4066SOL    HW223835   2.496   4.530   0.024  0.2544 -0.4100 -1.2793
 4067SOL     OW23836   3.639   1.945   6.221 -0.0921  0.0875  0.7124
 4067SOL    HW123837   3.643   1.937   6.316  0.7747  1.1828  0.7591
 4067SOL    HW223838   3.718   1.999   6.218  0.1047 -0.1207  2.5814
 4068SOL     OW23839   1.058   2.001  13.303  0.4282  0.1063 -1.3319
 4068SOL    HW123840   0.984   2.017  13.245 -0.7037 -0.6576 -0.0812
 4068SOL    HW223841   1.126   1.976  13.241  0.6790 -0.2092 -0.9336
 4069SOL     OW23842   3.857   0.525  11.373 -0.3270  0.6334  0.1172
 4069SOL    HW123843   3.800   0.463  11.419 -1.0874  2.2597  1.3629
 4069SOL    HW223844   3.821   0.513  11.285  3.6532  1.4328 -1.6225
 4070SOL     OW23845   1.067   1.426   7.559 -0.7289 -0.1943 -0.3537
 4070SOL    HW123846   1.134   1.406   7.624 -1.2386 -0.3790  0.1157
 4070SOL    HW223847   1.100   1.371   7.489  0.0031  1.4438 -1.3076
 4071SOL     OW23848   1.166   0.603   3.337  0.5868 -0.3015 -0.2098
 4071SOL    HW123849   1.256   0.631   3.355  0.9502 -1.0469 -0.8611
 4071SOL    HW223850   1.153   0.637   3.249 -1.3099 -0.4162  0.0352
 4072SOL     OW23851   0.676   3.705   2.300 -0.1671  0.5041 -0.5263
 4072SOL    HW123852   0.712   3.785   2.339 -0.1524  0.1008  0.3025
 4072SOL    HW223853   0.600   3.694   2.357  0.2064  0.9401  0.0542
 4073SOL     OW23854   2.251   4.186   9.064  0.2514 -0.1630 -0.8904
 4073SOL    HW123855   2.333   4.164   9.019  0.2490  0.5089 -1.2281
 4073SOL    HW223856   2.228   4.104   9.107  2.2553 -1.0987 -1.5958
 4074SOL     OW23857   0.601   1.066   4.930 -0.0777  0.3513  0.5712
 4074SOL    HW123858   0.654   0.989   4.951 -0.9035 -0.1868  0.7269
 4074SOL    HW223859   0.528   1.050   4.991 -0.2484 -1.0372  0.0030
 4075SOL     OW23860   1.907   2.737   2.279 -0.1249 -0.4326 -0.4170
 4075SOL    HW123861   2.002   2.742   2.273 -0.0640  1.6908  2.0825
 4075SOL    HW223862   1.878   2.768   2.193 -1.3099 -0.4350 -0.0238
 4076SOL     OW23863   2.928   0.112   6.163 -0.0304 -0.7374  0.2801
 4076SOL    HW123864   2.901   0.022   6.179 -0.8363 -1.0186 -2.6325
 4076SOL    HW223865   3.013   0.103   6.120  1.1258  1.5221  2.1053
 4077SOL     OW23866   3.407   0.911   0.361  0.5607  0.1812  0.1824
 4077SOL    HW123867   3.490   0.863   0.356  0.5966  0.1994  0.6369
 4077SOL    HW223868   3.427   0.997   0.398 -3.4325  1.5937 -1.0215
 4078SOL     OW23869   4.592   0.387  15.049  0.0469 -0.3132  0.0570
 4078SOL    HW123870   4.525   0.323  15.073  0.6177 -0.2948  1.7430
 4078SOL    HW223871   4.615   0.426  15.133  0.3732  1.2089 -0.7479
 4079SOL     OW23872   2.482   0.008   4.987 -0.6101 -0.2874 -0.0561
 4079SOL    HW123873   2.404   0.055   5.019 -0.8584 -0.4541 -0.4104
 4079SOL    HW223874   2.443   4.678   4.933 -1.1349  0.0268 -0.0794
 4080SOL     OW23875   3.801   1.257   7.184 -0.0016 -0.1047 -0.0997
 4080SOL    HW123876   3.846   1.324   7.237 -2.1561  2.5354 -1.5861
 4080SOL    HW223877   3.871   1.201   7.152 -0.9019 -1.6896  0.6949
 4081SOL     OW23878   3.563   1.136   4.223  0.4911 -0.0947 -0.2205
 4081SOL    HW123879   3.529   1.046   4.217  0.2827 -0.0643  0.5209
 4081SOL    HW223880   3.572   1.154   4.316  3.8685  0.4068 -0.6613
 4082SOL     OW23881   4.024   0.645  11.079  0.6513 -0.1265  0.0519
 4082SOL    HW123882   4.042   0.651  10.985 -1.1062 -0.2745 -0.2913
 4082SOL    HW223883   3.950   0.585  11.080  0.2145  0.3822 -2.3876
 4083SOL     OW23884   2.840   3.044   4.582 -0.3467 -0.8299  0.6464
 4083SOL    HW123885   2.818   2.951   4.589 -0.5814 -0.5819  3.3752
 4083SOL    HW223886   2.917   3.035   4.526 -0.4387 -0.2930  0.4328
 4084SOL     OW23887   0.326   1.901  10.629 -0.1036 -0.4327 -0.0134
 4084SOL    HW123888   0.251   1.960  10.640  0.4731  0.6145 -1.8444
 4084SOL    HW223889   0.395   1.968  10.629 -0.4535 -0.0959 -2.7954
 4085SOL     OW23890   2.089   3.155   4.536  0.4340  0.1753  0.3299
 4085SOL    HW123891   2.082   3.250   4.527  0.5740  0.1690  0.1414
 4085SOL    HW223892   2.083   3.144   4.630  0.0907  3.4434  0.6893
 4086SOL     OW23893   3.097   1.137   5.852 -0.1392  0.0746 -0.8504
 4086SOL    HW123894   3.178   1.172   5.815  0.3112  1.6682  1.6289
 4086SOL    HW223895   3.052   1.208   5.897 -1.0074 -1.2068  0.3108
 4087SOL     OW23896   2.160   1.590   0.377  0.1819  0.0950  0.2504
 4087SOL    HW123897   2.239   1.644   0.383 -0.5603  0.9600  2.0743
 4087SOL    HW223898   2.193   1.509   0.416 -0.7282  0.2901  1.4336
 4088SOL     OW23899   2.381   2.538   7.746  0.1760 -0.5299 -0.1283
 4088SOL    HW123900   2.344   2.619   7.782 -0.8257 -1.7836  1.6920
 4088SOL    HW223901   2.341   2.481   7.812  0.1841  1.4083  1.5623
 4089SOL     OW23902   0.573   1.881   5.200 -0.1545 -0.1792  0.1238
 4089SOL    HW123903   0.630   1.945   5.244 -0.0491  0.4197 -0.8847
 4089SOL    HW223904   0.602   1.858   5.112  0.4948 -1.2091  0.5998
 4090SOL     OW23905   1.096   3.113   8.181 -0.0836 -0.3752  0.3490
 4090SOL    HW123906   1.105   3.042   8.118 -0.3869 -0.2591  0.1718
 4090SOL    HW223907   1.149   3.184   8.146  4.0216 -3.1181  1.0945
 4091SOL     OW23908   4.409   2.598   2.092  0.0127 -0.0980  0.6334
 4091SOL    HW123909   4.318   2.573   2.109  0.4639 -0.0894  3.1463
 4091SOL    HW223910   4.406   2.654   2.015 -0.3498 -0.5090  0.3465
 4092SOL     OW23911   4.309   4.317   4.619 -0.5055  0.9160 -0.3366
 4092SOL    HW123912   4.232   4.306   4.675 -1.1207  2.8684 -0.7756
 4092SOL    HW223913   4.386   4.321   4.675 -0.1548  0.6145 -0.7959
 4093SOL     OW23914   0.684   2.783   1.953 -0.2036 -0.1787 -0.2983
 4093SOL    HW123915   0.710   2.692   1.968 -2.7231 -0.2795  3.2651
 4093SOL    HW223916   0.589   2.782   1.947 -0.1333 -2.0037 -1.1926
 4094SOL     OW23917   3.591   0.331   8.896 -0.2428  0.4204  0.0877
 4094SOL    HW123918   3.600   0.376   8.980  0.4234 -0.2656  0.3735
 4094SOL    HW223919   3.682   0.303   8.883 -0.2303 -0.0212  1.1008
 4095SOL     OW23920   1.673   0.377  15.927  0.1680 -0.0414 -0.0306
 4095SOL    HW123921   1.680   0.283  15.943 -1.9774 -0.5217 -1.9445
 4095SOL    HW223922   1.679   0.385  15.832  0.4740 -1.9403 -0.1661
 4096SOL     OW23923   0.741   4.492   1.636 -0.3702  0.4482 -0.3803
 4096SOL    HW123924   0.808   4.502   1.704 -0.9631  1.8648 -0.0013
 4096SOL    HW223925   0.672   4.456   1.693  0.6783 -1.0979 -0.0924
 4097SOL     OW23926   2.929   3.476   7.021  0.0387  0.3878  0.2994
 4097SOL    HW123927   3.018   3.463   6.986 -0.5949  0.9464 -1.5166
 4097SOL    HW223928   2.894   3.521   6.944 -0.4233  0.4736  0.5636
 4098SOL     OW23929   2.756   1.134   4.002 -0.7520 -0.2673  0.5076
 4098SOL    HW123930   2.771   1.221   4.040 -0.7425  0.1235 -0.3885
 4098SOL    HW223931   2.676   1.105   4.044  0.0427  1.4838  3.2414
 4099SOL     OW23932   0.734   1.503  12.116 -0.0201  0.1040  0.2457
 4099SOL    HW123933   0.643   1.476  12.115 -0.0468  0.2015  0.1406
 4099SOL    HW223934   0.776   1.436  12.062  1.1286  1.1407 -0.1484
 4100SOL     OW23935   2.724   1.616   2.639  0.2855 -1.2690 -0.1047
 4100SOL    HW123936   2.748   1.525   2.658 -1.3209 -1.7791 -0.4709
 4100SOL    HW223937   2.629   1.604   2.647  0.0618  0.1037 -0.7219
 4101SOL     OW23938   2.138   0.904   8.741 -0.3362  0.2039  0.2030
 4101SOL    HW123939   2.140   0.823   8.792 -1.1975  0.5669  0.8072
 4101SOL    HW223940   2.073   0.888   8.673 -2.0540 -1.6459  2.2730
 4102SOL     OW23941   3.071   3.109   7.667 -0.3733  0.4595  0.0210
 4102SOL    HW123942   3.027   3.174   7.612  0.4744  0.3562 -0.7768
 4102SOL    HW223943   2.988   3.077   7.702  0.1851 -1.5302 -0.4745
 4103SOL     OW23944   1.952   4.364   6.569  0.4866 -0.9178  0.3021
 4103SOL    HW123945   1.907   4.443   6.541  1.3486 -0.0356  1.4323
 4103SOL    HW223946   2.044   4.391   6.567  1.1848 -3.2255  0.2931
 4104SOL     OW23947   1.070   3.305  10.948  0.5655 -0.0955 -0.0760
 4104SOL    HW123948   1.077   3.211  10.931 -1.5464  0.1912 -2.6951
 4104SOL    HW223949   0.996   3.294  11.008  0.5502 -1.0560 -0.2687
 4105SOL     OW23950   1.818   4.055   3.676 -0.3193 -0.3471 -0.6334
 4105SOL    HW123951   1.856   4.130   3.631 -0.0472  0.8890  1.6418
 4105SOL    HW223952   1.894   4.003   3.701  0.1452  1.4321  1.7293
 4106SOL     OW23953   1.170   4.424  13.754 -0.0468 -0.4362 -0.2428
 4106SOL    HW123954   1.151   4.441  13.662  1.0762 -0.7409 -0.5298
 4106SOL    HW223955   1.202   4.334  13.742  0.8735  0.1053 -1.8575
 4107SOL     OW23956   1.222   0.717  14.828  0.1049 -0.6951  0.0520
 4107SOL    HW123957   1.221   0.624  14.849 -1.7035 -0.4475  1.0128
 4107SOL    HW223958   1.307   0.748  14.862 -0.4249  1.2757 -0.4160
 4108SOL     OW23959   0.151   4.251   8.766 -0.1413 -0.2275  0.6256
 4108SOL    HW123960   0.151   4.176   8.825 -2.3429 -0.8079 -0.1018
 4108SOL    HW223961   0.075   4.240   8.708  0.6370 -1.9242 -0.0498
 4109SOL     OW23962   4.292   1.266  17.684 -0.5502 -0.4902  0.2587
 4109SOL    HW123963   4.278   1.359  17.672  0.6263 -0.2354  0.8772
 4109SOL    HW223964   4.235   1.240   0.003  0.0844 -1.6048  0.3654
 4110SOL     OW23965   0.239   2.349  16.118  0.3053 -0.4524  1.0034
 4110SOL    HW123966   0.177   2.407  16.074  0.2832 -0.4807  0.9976
 4110SOL    HW223967   0.239   2.381  16.208 -1.1858  0.8263  0.5486
 4111SOL     OW23968   4.033   3.384   5.576 -0.0022 -0.0326  0.1472
 4111SOL    HW123969   3.953   3.337   5.599  1.3214 -1.0719  2.6640
 4111SOL    HW223970   4.075   3.306   5.539 -0.0067  0.4232 -0.7920
 4112SOL     OW23971   0.268   4.650   1.238 -0.4519  0.3807 -0.1580
 4112SOL    HW123972   0.306   4.563   1.244 -1.0375  0.0097 -1.7872
 4112SOL    HW223973   0.189   4.627   1.190  0.1360  0.6909 -1.2692
 4113SOL     OW23974   0.205   0.205   3.006  0.3649  0.1813 -0.5563
 4113SOL    HW123975   0.289   0.162   2.989  1.1501  1.5898 -0.1831
 4113SOL    HW223976   0.233   0.289   3.043 -1.0575  0.4854 -0.1952
 4114SOL     OW23977   3.301   0.536   2.384  0.4523  0.2576 -0.5897
 4114SOL    HW123978   3.284   0.596   2.312  3.9619  0.9176 -0.8493
 4114SOL    HW223979   3.250   0.457   2.367 -0.1996  0.4436  0.4177
 4115SOL     OW23980   2.652   2.383   1.847 -0.1138 -0.1501  0.0536
 4115SOL    HW123981   2.569   2.375   1.895 -0.4191  0.5907 -0.3540
 4115SOL    HW223982   2.717   2.379   1.918 -0.4905  1.5756  0.5028
 4116SOL     OW23983   3.081   0.886  12.462 -0.5131  0.3752  0.3727
 4116SOL    HW123984   3.059   0.974  12.431 -1.9232  0.6427  2.1822
 4116SOL    HW223985   3.024   0.837  12.402 -0.1834 -0.6418  0.8966
 4117SOL     OW23986   3.573   1.212   3.402  0.1292  0.4525 -0.5575
 4117SOL    HW123987   3.662   1.213   3.366 -0.2816  1.1386 -1.5712
 4117SOL    HW223988   3.551   1.305   3.414  0.9384  0.6224 -0.4048
 4118SOL     OW23989   1.975   0.416  12.838 -0.4040  0.3028 -0.5769
 4118SOL    HW123990   2.051   0.372  12.875 -0.5894  1.2332  0.9330
 4118SOL    HW223991   1.932   0.458  12.913 -0.6070  1.8810 -1.5771
 4119SOL     OW23992   1.341   3.028  10.070  0.0829 -0.1539 -0.0026
 4119SOL    HW123993   1.327   3.093  10.139  0.8101  2.1894 -2.0669
 4119SOL    HW223994   1.414   2.970  10.091  0.1991  0.1044  0.3034
 4120SOL     OW23995   2.470   3.063  11.909  0.1021 -0.0360 -0.0187
 4120SOL    HW123996   2.449   2.987  11.855  0.5120 -1.0745  1.2864
 4120SOL    HW223997   2.513   3.121  11.846 -3.4524  2.0931 -0.5128
 4121SOL     OW23998   1.641   1.503   2.637  0.6269 -0.0807  0.4231
 4121SOL    HW123999   1.633   1.535   2.726 -1.6356 -0.7359  0.4387
 4121SOL    HW224000   1.627   1.576   2.576 -2.8647  0.1602  1.5203
 4122SOL     OW24001   4.143   2.626  11.158 -0.3224  0.3941 -0.4306
 4122SOL    HW124002   4.233   2.631  11.126 -0.6277  2.1336 -1.0213
 4122SOL    HW224003   4.157   2.667  11.243 -0.2624  1.4967 -0.9599
 4123SOL     OW24004   2.237   2.971   6.375 -0.2518  0.0106  0.2468
 4123SOL    HW124005   2.249   2.954   6.281 -1.0847  0.5328  0.0467
 4123SOL    HW224006   2.182   3.049   6.361 -0.0024  0.3457  1.1653
 4124SOL     OW24007   3.924   2.903   7.498  0.3595 -0.1263  0.5250
 4124SOL    HW124008   3.833   2.932   7.487  0.8279  0.8748 -0.6708
 4124SOL    HW224009   3.965   2.989   7.505  0.1189  0.0324 -0.0431
 4125SOL     OW24010   1.241   2.464   8.282 -0.4561 -0.4608  0.1912
 4125SOL    HW124011   1.332   2.445   8.260 -0.5729  0.1290 -0.7956
 4125SOL    HW224012   1.197   2.493   8.201 -1.5541 -0.6633  0.7113
 4126SOL     OW24013   3.958   1.432   8.239  0.2420  0.2131  0.1719
 4126SOL    HW124014   4.024   1.398   8.179  0.9476 -0.1424  1.1423
 4126SOL    HW224015   3.954   1.521   8.206  1.7530 -0.6550 -2.3830
 4127SOL     OW24016   2.989   2.109   6.097 -0.1241  0.2360 -0.3646
 4127SOL    HW124017   2.981   2.051   6.173  0.0893  0.3685 -0.2396
 4127SOL    HW224018   3.023   2.188   6.139 -2.9771  0.4514  1.5367
 4128SOL     OW24019   2.613   3.105  11.680  0.0590 -0.2951  0.1122
 4128SOL    HW124020   2.673   3.090  11.607 -0.2877 -1.3699  0.0486
 4128SOL    HW224021   2.676   3.128  11.749  1.7763 -1.1644 -1.1789
 4129SOL     OW24022   1.345   3.293   8.076  0.7378 -0.0927 -0.2177
 4129SOL    HW124023   1.377   3.363   8.019  0.0801 -0.7183 -1.3600
 4129SOL    HW224024   1.404   3.222   8.050  1.0571 -0.4247  1.3682
 4130SOL     OW24025   4.544   4.422  12.522 -0.0936 -0.4148  0.1779
 4130SOL    HW124026   4.618   4.401  12.579 -1.2296  1.6090  2.3586
 4130SOL    HW224027   4.532   4.345  12.466  1.9423 -0.7721  0.2085
 4131SOL     OW24028   3.442   2.858  13.470 -0.3599  0.2615 -0.2272
 4131SOL    HW124029   3.512   2.913  13.434  0.2642 -0.7256 -0.5054
 4131SOL    HW224030   3.393   2.819  13.398 -0.6438 -0.9142  0.6104
 4132SOL     OW24031   4.313   2.515   7.996  0.8341 -0.3875 -0.1233
 4132SOL    HW124032   4.387   2.550   7.948  1.0634  0.8171  1.1103
 4132SOL    HW224033   4.346   2.474   8.077  0.7292 -0.7469 -0.2604
 4133SOL     OW24034   2.387   2.388   6.094  0.3140  0.1472  0.0215
 4133SOL    HW124035   2.303   2.368   6.052  0.7391  0.1134 -0.8186
 4133SOL    HW224036   2.433   2.422   6.017 -1.4337 -1.2152 -1.6538
 4134SOL     OW24037   0.412   2.946   5.791  0.0254  0.4495 -0.1343
 4134SOL    HW124038   0.371   2.892   5.859  0.6201  0.6311  0.3765
 4134SOL    HW224039   0.428   3.019   5.850 -0.5612 -0.1250  0.7389
 4135SOL     OW24040   4.731   4.674   4.297  0.2337 -0.0494 -0.1924
 4135SOL    HW124041   4.704   0.025   4.279  0.2268  0.4059  2.1388
 4135SOL    HW224042   0.066   4.673   4.236  1.4704 -1.7909  1.3414
 4136SOL     OW24043   3.214   4.352   7.027 -0.0321  0.3209  0.0128
 4136SOL    HW124044   3.154   4.365   7.101 -1.6517  1.0102 -1.4343
 4136SOL    HW224045   3.235   4.259   7.034  0.5470  0.7049  3.2588
 4137SOL     OW24046   2.396   3.671   2.946  0.3808 -0.2862  0.0022
 4137SOL    HW124047   2.365   3.744   3.000 -0.7297  1.1043 -2.4914
 4137SOL    HW224048   2.374   3.610   3.016  1.4700  0.2700  0.8388
 4138SOL     OW24049   0.204   2.480  15.822 -0.4635 -0.1629  0.6866
 4138SOL    HW124050   0.154   2.523  15.753  2.0801  1.6106 -0.0544
 4138SOL    HW224051   0.277   2.542  15.831  0.3393 -1.2991  2.0214
 4139SOL     OW24052   1.859   0.626  10.088  0.9452 -0.4326  0.8563
 4139SOL    HW124053   1.900   0.578  10.160  0.4807  1.3921  2.3476
 4139SOL    HW224054   1.766   0.622  10.112  0.6776  0.6548  0.0222
 4140SOL     OW24055   2.945   0.243   9.216  0.0691  0.2827  0.2835
 4140SOL    HW124056   2.896   0.205   9.288 -1.1746  0.3275 -0.5326
 4140SOL    HW224057   2.934   0.338   9.227  2.2455  1.0602 -4.3664
 4141SOL     OW24058   3.265   0.766   5.637  0.3254  0.1068  0.1793
 4141SOL    HW124059   3.225   0.839   5.683  0.9358 -0.2300  1.2288
 4141SOL    HW224060   3.197   0.743   5.573  0.9318 -2.7334  0.5721
 4142SOL     OW24061   1.021   1.440  17.563  0.7574  0.1445 -0.1436
 4142SOL    HW124062   0.940   1.416  17.517  0.3700  1.6433 -0.2427
 4142SOL    HW224063   0.992   1.457  17.652  2.1662 -0.5404  0.4465
 4143SOL     OW24064   3.549   0.874  12.237 -0.2181 -0.1754 -0.1228
 4143SOL    HW124065   3.467   0.884  12.189  0.6088 -1.4336 -1.7867
 4143SOL    HW224066   3.551   0.945  12.302  1.3521 -1.4642  1.2544
 4144SOL     OW24067   0.650   0.854   9.119  0.3065  0.4025  0.7591
 4144SOL    HW124068   0.683   0.931   9.165 -1.3707  1.8621 -0.4826
 4144SOL    HW224069   0.690   0.775   9.156 -0.3075 -1.2463 -2.0947
 4145SOL     OW24070   0.417   2.611   9.328  0.3204  0.4615 -0.0300
 4145SOL    HW124071   0.367   2.532   9.352 -1.6238  1.4133 -0.9412
 4145SOL    HW224072   0.491   2.563   9.292 -0.4035 -0.5052 -0.2545
 4146SOL     OW24073   2.811   1.582  15.813  0.4095  0.2394 -0.1717
 4146SOL    HW124074   2.834   1.491  15.833  2.8231  0.8818 -0.0141
 4146SOL    HW224075   2.888   1.610  15.763  1.0492  1.6258  1.5558
 4147SOL     OW24076   1.928   1.647   0.488 -0.1954 -0.8535  0.5629
 4147SOL    HW124077   1.862   1.581   0.472 -1.3627  0.9875 -2.2247
 4147SOL    HW224078   2.002   1.611   0.438  0.5262  0.7780  0.4508
 4148SOL     OW24079   3.810   4.259   3.431 -0.4230  0.3025 -0.3886
 4148SOL    HW124080   3.872   4.218   3.490  0.6178  2.6620  0.1345
 4148SOL    HW224081   3.840   4.349   3.421 -0.2449  0.2505 -0.3166
 4149SOL     OW24082   4.712   1.442   7.924  0.3737  0.1147 -0.5367
 4149SOL    HW124083   0.012   1.399   7.848  2.9663  0.3677  0.6515
 4149SOL    HW224084   0.021   1.525   7.925  0.7831 -0.1073 -1.3901
 4150SOL     OW24085   0.958   3.571   4.344 -0.4793 -0.1826  0.2849
 4150SOL    HW124086   1.027   3.524   4.390 -0.8951 -1.3705 -0.2976
 4150SOL    HW224087   0.952   3.651   4.396 -0.0304 -0.7747  1.2430
 4151SOL     OW24088   3.359   4.613   7.969  0.0900 -0.3212 -0.1729
 4151SOL    HW124089   3.266   4.604   7.951 -0.1063  1.6931 -0.0632
 4151SOL    HW224090   3.396   4.637   7.884 -3.7654  1.1060 -1.4408
 4152SOL     OW24091   2.687   4.603   7.268 -0.2101  0.2393  0.2229
 4152SOL    HW124092   2.613   4.580   7.325 -0.4930 -2.0746 -1.0484
 4152SOL    HW224093   2.700   4.523   7.216  0.4098  0.4778  0.0109
 4153SOL     OW24094   0.269   2.755  10.103 -0.6480  0.1673 -0.5292
 4153SOL    HW124095   0.359   2.786  10.097 -0.3611 -0.7655 -1.0663
 4153SOL    HW224096   0.272   2.698  10.180  2.0046 -2.0074 -2.2563
 4154SOL     OW24097   4.355   3.762   0.814  0.4827 -0.7310 -0.5946
 4154SOL    HW124098   4.368   3.688   0.755  1.2664 -0.7666 -0.3827
 4154SOL    HW224099   4.327   3.834   0.757 -1.7373 -2.0957 -1.2089
 4155SOL     OW24100   3.809   2.766   6.193  0.0708  0.2101  0.4367
 4155SOL    HW124101   3.895   2.725   6.206  0.1030  0.2899  0.4778
 4155SOL    HW224102   3.830   2.859   6.193 -0.4816  0.3347 -0.6042
 4156SOL     OW24103   0.128   0.823   5.897  0.8473 -0.2693  0.1320
 4156SOL    HW124104   0.201   0.831   5.959  2.0200 -0.3184 -1.2222
 4156SOL    HW224105   0.087   0.908   5.911 -0.3353 -0.9302  0.6942
 4157SOL     OW24106   0.175   0.630   2.227  0.0787 -0.2360 -0.3944
 4157SOL    HW124107   0.154   0.723   2.218 -0.2468 -0.2591  0.1305
 4157SOL    HW224108   0.167   0.592   2.139  1.1516 -0.5828 -0.3378
 4158SOL     OW24109   2.820   2.475   6.211 -0.2190 -0.7810 -0.0505
 4158SOL    HW124110   2.749   2.426   6.253  0.0843 -2.1951 -1.1921
 4158SOL    HW224111   2.817   2.549   6.271 -1.2154  0.1063 -1.2023
 4159SOL     OW24112   0.938   3.636   2.672  0.5334 -0.2013  0.9836
 4159SOL    HW124113   1.011   3.593   2.717  2.3432  0.2843 -1.4737
 4159SOL    HW224114   0.936   3.586   2.590  0.9401  1.0115  0.2352
 4160SOL     OW24115   4.332   2.196   4.996  0.1564 -0.0403 -0.2562
 4160SOL    HW124116   4.417   2.240   4.992 -0.5772  1.5083  0.8414
 4160SOL    HW224117   4.304   2.197   4.905 -0.7653  0.9466  0.0343
 4161SOL     OW24118   1.563   2.352   3.248  0.6102 -0.7760  0.2887
 4161SOL    HW124119   1.570   2.368   3.342  0.9708 -0.2266  0.1645
 4161SOL    HW224120   1.505   2.421   3.216 -0.8444 -2.8601 -1.5853
 4162SOL     OW24121   4.263   1.749   4.117 -0.1968  0.0644  0.1578
 4162SOL    HW124122   4.213   1.793   4.048 -0.2870 -1.4656 -0.7500
 4162SOL    HW224123   4.354   1.770   4.097  0.0430 -2.4453 -1.3419
 4163SOL     OW24124   2.519   0.587   9.126  0.3974  0.4309  0.3540
 4163SOL    HW124125   2.501   0.566   9.035 -1.1875 -0.8323  0.9502
 4163SOL    HW224126   2.566   0.667   9.105  0.8156  0.4227  1.2566
 4164SOL     OW24127   4.355   2.750   5.948 -0.2073  0.6524 -0.3562
 4164SOL    HW124128   4.390   2.736   6.036 -1.5266  1.1898  0.2504
 4164SOL    HW224129   4.276   2.802   5.963 -0.3690  0.4637 -0.5602
 4165SOL     OW24130   3.280   3.954   6.521 -0.0799 -0.0733 -0.2833
 4165SOL    HW124131   3.345   3.920   6.584 -1.0681 -2.7125 -0.6860
 4165SOL    HW224132   3.244   3.868   6.498  0.0831  0.4167 -2.3470
 4166SOL     OW24133   4.217   4.084   7.064 -0.3165  0.2485 -0.0638
 4166SOL    HW124134   4.297   4.131   7.087  0.6591 -0.9543 -1.0622
 4166SOL    HW224135   4.234   3.997   7.099 -0.3984  0.1466 -0.2744
 4167SOL     OW24136   4.351   3.269   2.206  0.2646 -1.1029 -0.2906
 4167SOL    HW124137   4.368   3.268   2.301 -0.1009 -0.3275 -0.2197
 4167SOL    HW224138   4.435   3.297   2.169 -0.0401  0.1188 -0.0460
 4168SOL     OW24139   0.260   3.361  14.842 -0.1450 -0.2592  0.0969
 4168SOL    HW124140   0.176   3.402  14.859 -0.6189 -1.1357 -0.1194
 4168SOL    HW224141   0.254   3.280  14.892  1.8219 -0.1792  0.4773
 4169SOL     OW24142   3.898   1.406   2.440 -0.2916  0.0979 -0.4908
 4169SOL    HW124143   3.939   1.460   2.372 -1.1281  0.1637 -0.9433
 4169SOL    HW224144   3.966   1.355   2.485 -0.6295 -0.9738 -1.1821
 4170SOL     OW24145   3.413   1.876  16.788  0.3725  0.1751 -0.2209
 4170SOL    HW124146   3.369   1.959  16.809 -0.5052 -0.4689  0.4831
 4170SOL    HW224147   3.438   1.905  16.700 -0.8467 -0.3194 -0.7356
 4171SOL     OW24148   2.204   4.243   4.037 -0.1887 -0.5767  0.1336
 4171SOL    HW124149   2.219   4.158   4.079 -2.2505 -0.9147  0.1828
 4171SOL    HW224150   2.285   4.257   3.988 -0.1571 -0.3955  0.2370
 4172SOL     OW24151   1.373   0.995   0.383 -0.5899 -0.1351  0.0724
 4172SOL    HW124152   1.355   1.065   0.320  1.1204  0.2208 -0.0225
 4172SOL    HW224153   1.427   1.042   0.446  0.6597 -0.9196 -0.4137
 4173SOL     OW24154   2.087   1.351   8.195 -0.9548  0.0862 -0.4466
 4173SOL    HW124155   2.111   1.292   8.267  0.6495  0.6767 -0.4829
 4173SOL    HW224156   2.075   1.437   8.234  1.4815 -0.0288  0.5538
 4174SOL     OW24157   3.872   1.047   4.067  0.1417  0.6993 -0.5636
 4174SOL    HW124158   3.823   0.966   4.083  1.7167  0.1402  1.4816
 4174SOL    HW224159   3.962   1.020   4.082 -1.0441 -1.0682  3.2425
 4175SOL     OW24160   2.106   2.509   5.858  0.2164  0.1181  0.1871
 4175SOL    HW124161   2.089   2.484   5.768 -1.8353  0.1524  0.5527
 4175SOL    HW224162   2.053   2.445   5.905 -0.6171 -0.9570 -2.2341
 4176SOL     OW24163   2.422   3.073  17.230  0.4124  0.0282  0.2559
 4176SOL    HW124164   2.478   3.054  17.305 -1.3903 -0.2025  1.5415
 4176SOL    HW224165   2.343   3.023  17.252  0.1774  0.2422 -0.1119
 4177SOL     OW24166   1.109   4.195   2.632 -0.4864  0.1231  0.8566
 4177SOL    HW124167   1.036   4.205   2.570 -0.3555 -0.8976  0.5536
 4177SOL    HW224168   1.190   4.197   2.580 -1.4992  0.8888 -0.6998
 4178SOL     OW24169   1.032   1.681  13.383 -0.2240 -0.3663 -0.5600
 4178SOL    HW124170   1.078   1.729  13.451 -1.7174 -0.2022  0.3281
 4178SOL    HW224171   1.087   1.604  13.396  0.1374  0.0055  0.1187
 4179SOL     OW24172   3.155   0.220   3.376  0.3432  0.7767 -0.1855
 4179SOL    HW124173   3.134   0.243   3.286 -1.1133  0.0290 -0.0355
 4179SOL    HW224174   3.072   0.180   3.403  1.1425 -1.3430 -0.9014
 4180SOL     OW24175   3.187   1.358   7.844  0.4050  0.1023  0.1849
 4180SOL    HW124176   3.247   1.406   7.900 -1.3408  1.2255  1.0728
 4180SOL    HW224177   3.127   1.431   7.829  2.1302  1.2865 -0.9633
 4181SOL     OW24178   3.449   2.834   3.430  0.0106  0.8148 -1.0589
 4181SOL    HW124179   3.356   2.820   3.445  0.8183 -0.8437  2.3903
 4181SOL    HW224180   3.459   2.925   3.402  2.3314  1.1444  0.8319
 4182SOL     OW24181   2.356   3.673   3.774  0.1212  0.5638 -0.1173
 4182SOL    HW124182   2.368   3.716   3.859  0.3973  0.5172 -0.1330
 4182SOL    HW224183   2.275   3.717   3.747 -0.3970 -1.4780 -1.9149
 4183SOL     OW24184   0.221   2.106  16.745  0.0193 -0.4813 -0.2315
 4183SOL    HW124185   0.227   2.201  16.737  0.0829 -0.5362 -0.8619
 4183SOL    HW224186   0.139   2.100  16.696 -1.1789  0.7053  1.6201
 4184SOL     OW24187   3.290   4.611   3.856  0.2441 -0.2041 -0.0997
 4184SOL    HW124188   3.312   4.521   3.832 -1.2417  0.3126 -3.3659
 4184SOL    HW224189   3.223   4.636   3.793  1.3591  2.7696 -0.1193
 4185SOL     OW24190   2.480   1.480   2.251 -0.1871 -0.2873  0.6050
 4185SOL    HW124191   2.395   1.513   2.220  1.1114  3.0968  0.6650
 4185SOL    HW224192   2.533   1.559   2.243  1.5977 -1.3750  1.8687
 4186SOL     OW24193   2.199   3.366   2.175 -0.0863 -0.2098 -0.3163
 4186SOL    HW124194   2.285   3.388   2.213 -0.2012  1.4057 -1.0108
 4186SOL    HW224195   2.202   3.404   2.088 -0.2001  0.8959  0.1664
 4187SOL     OW24196   3.201   3.746   4.853 -0.2373 -0.2796 -0.1038
 4187SOL    HW124197   3.115   3.735   4.894 -0.6006  1.0254 -0.5084
 4187SOL    HW224198   3.202   3.838   4.827  0.9574  0.0538  1.1660
 4188SOL     OW24199   4.044   0.057   6.346 -0.2547  0.1696  0.1476
 4188SOL    HW124200   4.028   0.002   6.423 -0.3678  1.7671  1.2665
 4188SOL    HW224201   4.066   4.723   6.288  0.4497 -0.1583  0.8324
 4189SOL     OW24202   3.457   3.520   1.171 -0.0840  0.5075 -0.3755
 4189SOL    HW124203   3.544   3.534   1.207  1.1813 -0.8752 -2.8537
 4189SOL    HW224204   3.448   3.598   1.116 -0.5606  0.3627 -0.5041
 4190SOL     OW24205   2.327   3.641  16.838 -0.3688 -0.5007  0.1085
 4190SOL    HW124206   2.235   3.638  16.813 -0.5871  0.3850  0.8194
 4190SOL    HW224207   2.329   3.676  16.927 -0.2698  3.7042 -1.5732
 4191SOL     OW24208   1.105   4.059  16.691 -0.5406 -0.0762  0.1834
 4191SOL    HW124209   1.026   4.066  16.637  0.3860 -0.7192 -1.2798
 4191SOL    HW224210   1.174   4.043  16.625 -0.1597  0.5066  0.4460
 4192SOL     OW24211   2.464   1.872   6.774 -0.2571  0.1305  0.0878
 4192SOL    HW124212   2.537   1.901   6.828 -0.2298 -2.0617  1.2257
 4192SOL    HW224213   2.499   1.818   6.702 -1.8349 -0.9526  0.1352
 4193SOL     OW24214   2.383   3.268   5.863  0.1941  0.0113 -0.2440
 4193SOL    HW124215   2.359   3.272   5.955  1.3237  0.0598  0.0488
 4193SOL    HW224216   2.304   3.312   5.832  1.3258  3.0051  1.1428
 4194SOL     OW24217   3.354   3.490   8.529  0.5508 -0.0098 -0.4315
 4194SOL    HW124218   3.376   3.567   8.582 -1.2735  2.1531 -2.7857
 4194SOL    HW224219   3.436   3.443   8.545  0.0136 -1.1362 -1.0456
 4195SOL     OW24220   4.096   3.997  17.009 -0.0095 -0.2998 -0.5079
 4195SOL    HW124221   4.034   4.060  17.046 -1.3534 -1.0262 -1.5282
 4195SOL    HW224222   4.148   3.982  17.088  0.1487 -1.6738 -0.8789
 4196SOL     OW24223   3.785   1.773   7.973 -0.2534  0.3287  0.1068
 4196SOL    HW124224   3.859   1.762   8.034 -0.4770  2.2136  0.7209
 4196SOL    HW224225   3.799   1.694   7.920 -0.7951  0.4305 -0.1818
 4197SOL     OW24226   0.870   4.518  13.240  0.8275 -0.1786 -0.4023
 4197SOL    HW124227   0.880   4.613  13.229 -0.4323  0.1709  1.4572
 4197SOL    HW224228   0.901   4.491  13.153 -2.8680 -1.2859 -1.3540
 4198SOL     OW24229   2.037   1.072   9.522  0.1900 -0.4268 -0.7883
 4198SOL    HW124230   1.995   1.017   9.587  1.4988 -0.1549  0.2823
 4198SOL    HW224231   2.100   1.016   9.477  2.0604  0.2864  0.9446
 4199SOL     OW24232   0.633   2.104   0.732  0.1136  0.7815  0.0618
 4199SOL    HW124233   0.683   2.106   0.813 -1.0767  0.3670  0.8051
 4199SOL    HW224234   0.698   2.079   0.666  0.5262 -0.4249  0.9181
 4200SOL     OW24235   2.049   4.542   2.639  0.0599 -0.0155  0.1981
 4200SOL    HW124236   2.143   4.531   2.622 -0.6051  0.0828 -3.5172
 4200SOL    HW224237   2.039   4.466   2.697  0.5589  0.4159  0.8521
 4201SOL     OW24238   3.189   3.505   7.474 -0.5011 -0.2077  0.4115
 4201SOL    HW124239   3.209   3.555   7.395 -2.8038  0.3790  0.2151
 4201SOL    HW224240   3.264   3.519   7.532 -0.1227  1.1418 -0.4181
 4202SOL     OW24241   2.897   2.056   4.173  0.4285  0.0050 -0.5542
 4202SOL    HW124242   2.941   2.133   4.136 -0.2761  1.0795  0.8225
 4202SOL    HW224243   2.908   1.989   4.106  1.5907 -3.4767  3.1285
 4203SOL     OW24244   0.604   0.142   5.070  0.5885  0.3025 -0.0914
 4203SOL    HW124245   0.550   0.160   5.146  1.4841  0.9849  0.3914
 4203SOL    HW224246   0.564   0.182   4.993  0.1645  1.2298  0.6107
 4204SOL     OW24247   3.094   0.424  14.454  0.6847 -0.1163  0.0422
 4204SOL    HW124248   3.126   0.444  14.366 -0.0570 -1.9018 -0.6312
 4204SOL    HW224249   3.093   0.511  14.492 -3.1629 -0.4125  0.5873
 4205SOL     OW24250   4.526   0.066   5.868 -0.0466  0.0272 -0.1462
 4205SOL    HW124251   4.559   0.151   5.896  0.0607  0.7347 -2.4069
 4205SOL    HW224252   4.585   0.042   5.796  0.6629 -1.5955  0.9755
 4206SOL     OW24253   4.197   2.780   9.572 -0.1031  0.4258 -0.2941
 4206SOL    HW124254   4.130   2.822   9.626  1.7695  0.5240  1.9137
 4206SOL    HW224255   4.247   2.736   9.641  0.0311 -2.7962 -2.4234
 4207SOL     OW24256   1.633   2.287   3.916  0.3807  0.3928 -0.0316
 4207SOL    HW124257   1.608   2.246   3.832 -2.5721 -0.4987  1.2653
 4207SOL    HW224258   1.722   2.254   3.923  0.5509  0.4758 -1.6539
 4208SOL     OW24259   2.454   0.995  16.269  0.2736 -0.0209  0.2810
 4208SOL    HW124260   2.491   0.914  16.234 -2.8938 -0.4947 -1.9597
 4208SOL    HW224261   2.453   0.982  16.363 -3.4790 -0.9758  0.0754
 4209SOL     OW24262   3.844   4.217   8.247 -0.2122  0.2831 -0.0670
 4209SOL    HW124263   3.839   4.310   8.268  0.3607  0.7915 -2.1823
 4209SOL    HW224264   3.938   4.200   8.253 -0.3201 -0.7747 -1.2686
 4210SOL     OW24265   0.214   1.501   1.594  0.0649  0.4670  0.2167
 4210SOL    HW124266   0.300   1.464   1.613 -1.6021 -3.2016  0.5357
 4210SOL    HW224267   0.235   1.566   1.526 -0.2371 -1.7261 -1.9507
 4211SOL     OW24268   3.505   1.336  13.426 -0.8021  0.3035 -0.5341
 4211SOL    HW124269   3.593   1.305  13.446 -1.1327 -0.3701 -0.1358
 4211SOL    HW224270   3.523   1.414  13.374  3.1475  1.0870  2.0909
 4212SOL     OW24271   0.305   2.369   9.458 -0.5439  0.9110 -0.5348
 4212SOL    HW124272   0.234   2.330   9.406 -0.2723  1.7787 -1.5633
 4212SOL    HW224273   0.287   2.318   9.537  0.5722  1.2671 -0.0457
 4213SOL     OW24274   1.136   2.786   3.130 -0.3284 -0.1209  0.6178
 4213SOL    HW124275   1.059   2.831   3.094  1.0680  1.8042  0.0268
 4213SOL    HW224276   1.103   2.735   3.203  0.8967  1.4950  2.3074
 4214SOL     OW24277   4.503   1.231   4.882  0.0350  0.0647  0.0394
 4214SOL    HW124278   4.567   1.302   4.889 -0.3801  0.3127  1.4279
 4214SOL    HW224279   4.541   1.167   4.942  0.2552  1.7025  1.6575
 4215SOL     OW24280   1.712   0.106  15.942  0.4606  0.1272  0.3423
 4215SOL    HW124281   1.732   0.070  15.856  0.8711  1.9977 -0.3598
 4215SOL    HW224282   1.659   0.034  15.977  0.7885  0.0729  0.7275
 4216SOL     OW24283   3.668   2.040  16.673 -0.6650  0.5584  0.6482
 4216SOL    HW124284   3.704   2.038  16.585  0.6965 -0.9493  1.2589
 4216SOL    HW224285   3.695   1.954  16.704 -0.8372  0.1747 -0.2778
 4217SOL     OW24286   3.018   0.736   6.065 -0.1407  0.0573  0.5285
 4217SOL    HW124287   3.065   0.761   5.986  0.4721  1.0872  1.2062
 4217SOL    HW224288   3.075   0.778   6.130  0.9490 -0.3745 -0.1459
 4218SOL     OW24289   1.275   2.882  17.088  0.6372 -0.0659  0.3758
 4218SOL    HW124290   1.329   2.823  17.035  0.4229 -0.0946  0.1876
 4218SOL    HW224291   1.337   2.953  17.107  2.0988 -0.7818 -1.6755
 4219SOL     OW24292   2.326   1.338   7.374 -0.2405  0.0575 -0.1593
 4219SOL    HW124293   2.234   1.358   7.357 -0.0539  0.3778 -0.7704
 4219SOL    HW224294   2.356   1.396   7.304  0.7053 -0.5777 -0.2767
 4220SOL     OW24295   1.998   0.439  13.184 -0.1643  0.0120  0.2705
 4220SOL    HW124296   1.951   0.357  13.170  0.7092 -0.8028  2.1553
 4220SOL    HW224297   2.086   0.414  13.156 -0.0309  1.8426 -0.9598
 4221SOL     OW24298   2.381   0.198   2.394 -0.2817 -0.2010 -0.5288
 4221SOL    HW124299   2.402   0.105   2.389  0.8258 -0.0212  0.7619
 4221SOL    HW224300   2.366   0.204   2.489 -3.7417  0.4323 -1.1123
 4222SOL     OW24301   2.933   4.017  14.098  0.5081 -0.5759 -0.0538
 4222SOL    HW124302   2.902   4.037  14.187  2.2627 -2.2317  0.9000
 4222SOL    HW224303   2.999   3.950  14.115  0.8128 -0.1455  0.4794
 4223SOL     OW24304   2.485   1.721   7.241 -0.2609 -0.5187  0.3575
 4223SOL    HW124305   2.508   1.792   7.181  0.0026 -0.3541  0.6522
 4223SOL    HW224306   2.449   1.769   7.316  1.1363 -0.2935  0.9028
 4224SOL     OW24307   0.339   1.355   7.775  0.0784 -0.3050  0.1340
 4224SOL    HW124308   0.252   1.373   7.740  0.1743  0.9935  0.5824
 4224SOL    HW224309   0.328   1.260   7.788  2.9156 -0.6104  0.2809
 4225SOL     OW24310   0.540   4.000   5.626 -0.4209  0.3733  0.3487
 4225SOL    HW124311   0.612   4.020   5.687 -0.0701  0.8073 -0.2159
 4225SOL    HW224312   0.464   3.987   5.682  0.1894 -1.7438  0.6861
 4226SOL     OW24313   2.536   2.219   4.664 -0.4041 -0.5007  0.2424
 4226SOL    HW124314   2.552   2.205   4.757 -0.4193 -0.5296  0.2408
 4226SOL    HW224315   2.588   2.295   4.639  0.8897 -1.2578  0.6284
 4227SOL     OW24316   2.305   4.641   8.292  0.0656 -0.3016 -0.0247
 4227SOL    HW124317   2.224   4.689   8.305  1.2327  1.4249  0.8696
 4227SOL    HW224318   2.344   4.700   8.228 -1.1179  0.8174  0.2882
 4228SOL     OW24319   3.837   1.985   6.988  0.0381 -0.3004 -0.3562
 4228SOL    HW124320   3.822   1.986   7.083 -1.3292  0.6294 -0.5813
 4228SOL    HW224321   3.780   1.913   6.964 -2.9666  1.0891  2.5395
 4229SOL     OW24322   1.734   2.357   5.652 -0.1454 -0.0294 -0.6968
 4229SOL    HW124323   1.652   2.315   5.626  0.2970 -1.1452 -0.3046
 4229SOL    HW224324   1.717   2.451   5.644 -3.1266 -0.5382 -0.2427
 4230SOL     OW24325   2.364   0.192  15.228 -0.2753  0.3985  0.3498
 4230SOL    HW124326   2.380   0.264  15.289 -1.0631 -0.6153  1.7505
 4230SOL    HW224327   2.279   0.214  15.189 -0.1647 -0.5352 -0.4118
 4231SOL     OW24328   2.342   3.177   5.360  0.3291 -0.3295  0.2501
 4231SOL    HW124329   2.411   3.111   5.369  0.4277 -0.0939  1.2724
 4231SOL    HW224330   2.394   3.255   5.382 -0.4471  0.6565 -1.4176
 4232SOL     OW24331   3.482   2.964   3.980 -0.1262 -0.3359 -0.0521
 4232SOL    HW124332   3.569   2.962   4.020  0.2987 -2.1293 -1.0328
 4232SOL    HW224333   3.440   2.898   4.036  0.0195  2.1829  3.0231
 4233SOL     OW24334   1.239   3.290   2.573  0.1688 -0.1520  0.1766
 4233SOL    HW124335   1.261   3.199   2.591 -0.5487 -0.5823 -1.1517
 4233SOL    HW224336   1.234   3.297   2.478 -0.7034  2.1733  0.3926
 4234SOL     OW24337   2.966   2.479   6.846  0.6980 -0.2428 -0.0672
 4234SOL    HW124338   2.905   2.408   6.828  0.7802 -0.6180  1.1515
 4234SOL    HW224339   2.919   2.541   6.901 -2.7139 -2.7725 -0.1193
 4235SOL     OW24340   0.429   0.237   3.717  0.1241  0.5954  0.0820
 4235SOL    HW124341   0.517   0.256   3.685  0.6064 -1.3111  0.3083
 4235SOL    HW224342   0.419   0.315   3.772 -0.9272 -0.0707  0.8444
 4236SOL     OW24343   0.050   1.319   2.268 -0.5236  0.7298  0.0856
 4236SOL    HW124344   0.014   1.260   2.335  0.1829  0.5425  0.3030
 4236SOL    HW224345   0.037   1.406   2.305  0.3607  0.5774  0.7727
 4237SOL     OW24346   2.115   1.043   9.821 -0.2663  0.5893 -0.1019
 4237SOL    HW124347   2.056   1.110   9.855  0.4070  0.8906  0.4729
 4237SOL    HW224348   2.083   0.963   9.862  1.7574  1.5761  3.4559
 4238SOL     OW24349   3.856   3.249  14.954 -0.5565  0.1217 -0.1029
 4238SOL    HW124350   3.779   3.287  14.997 -0.8196 -0.0049 -0.4591
 4238SOL    HW224351   3.920   3.296  15.006 -0.4815  0.6924 -0.7155
 4239SOL     OW24352   1.321   1.340  17.139  0.0332 -0.6007 -0.4099
 4239SOL    HW124353   1.250   1.335  17.204  1.0547 -0.0348  0.7526
 4239SOL    HW224354   1.270   1.387  17.073  1.1734 -0.5364 -1.2431
 4240SOL     OW24355   2.145   2.586   2.948  0.0134  0.7693  0.5554
 4240SOL    HW124356   2.138   2.491   2.957  0.3471  0.7943  1.0715
 4240SOL    HW224357   2.215   2.588   2.883 -1.4925  1.9668 -1.0093
 4241SOL     OW24358   2.270   3.801  14.624 -0.0684  0.2556 -0.5229
 4241SOL    HW124359   2.239   3.866  14.561 -1.4768 -0.3622 -0.4652
 4241SOL    HW224360   2.253   3.723  14.573 -1.7083  0.8912 -0.9576
 4242SOL     OW24361   3.856   4.019   0.654  0.3230  0.3633 -0.1914
 4242SOL    HW124362   3.879   4.064   0.736 -2.4134  0.0072  0.7850
 4242SOL    HW224363   3.803   3.945   0.683  1.0030 -0.9786 -2.4671
 4243SOL     OW24364   4.083   2.873   2.358 -0.0854 -0.1042  1.0441
 4243SOL    HW124365   3.989   2.886   2.374 -0.5993  0.4022 -2.4429
 4243SOL    HW224366   4.108   2.962   2.335 -3.3782  0.4325 -0.4648
 4244SOL     OW24367   2.772   1.155   0.131  0.7382  0.4236  0.4983
 4244SOL    HW124368   2.773   1.237   0.082  0.9805  1.2419  1.8687
 4244SOL    HW224369   2.713   1.173   0.204 -1.1028 -1.6480 -0.4879
 4245SOL     OW24370   2.528   3.124   0.582  0.2911  0.0297  0.2388
 4245SOL    HW124371   2.570   3.184   0.520  0.7169 -0.2762  0.2292
 4245SOL    HW224372   2.440   3.147   0.554 -0.6542 -3.6007  0.3106
 4246SOL     OW24373   3.727   0.191   6.414 -0.0322 -0.1676  0.1987
 4246SOL    HW124374   3.815   0.219   6.441 -0.4632 -0.4907  1.9379
 4246SOL    HW224375   3.733   0.220   6.323 -0.6746  1.6293  0.7398
 4247SOL     OW24376   4.718   0.706   4.882 -0.3224 -0.2561 -0.0170
 4247SOL    HW124377   0.046   0.741   4.823 -0.4615  0.4952  0.2663
 4247SOL    HW224378   0.020   0.622   4.902 -1.0682 -0.4768  0.5877
 4248SOL     OW24379   4.567   1.838   4.622  0.3149 -0.1155 -0.0302
 4248SOL    HW124380   4.557   1.813   4.530  0.3706 -1.3678  0.3179
 4248SOL    HW224381   4.641   1.795   4.666  0.3694 -0.3465 -0.3504
 4249SOL     OW24382   1.005   2.742   7.183  0.2809 -0.2995  0.1009
 4249SOL    HW124383   1.019   2.765   7.091 -0.2971  0.3892  0.1804
 4249SOL    HW224384   0.980   2.650   7.172  0.0431  0.0546 -2.3269
 4250SOL     OW24385   1.863   4.361   1.739 -0.4123  0.1107  0.1691
 4250SOL    HW124386   1.782   4.327   1.775 -1.1165 -0.9121 -2.3853
 4250SOL    HW224387   1.830   4.402   1.659 -0.6664 -0.3210  0.0541
 4251SOL     OW24388   4.092   2.472  10.238  0.3740 -0.5009 -0.2335
 4251SOL    HW124389   4.161   2.536  10.252  0.5151 -0.9506  1.1242
 4251SOL    HW224390   4.020   2.513  10.286  0.7995 -1.7105  1.4372
 4252SOL     OW24391   2.669   1.760  17.721 -0.0036  0.2739 -0.3876
 4252SOL    HW124392   2.700   1.850  17.734  0.8170 -0.5063  2.9998
 4252SOL    HW224393   2.683   1.718   0.052 -0.6580  0.8867  0.0152
 4253SOL     OW24394   0.056   2.057   7.702 -0.3984  0.4525  0.1849
 4253SOL    HW124395   0.116   2.132   7.712 -0.3993  0.4418  0.2737
 4253SOL    HW224396   4.713   2.090   7.739 -0.7202  1.2302 -1.1989
 4254SOL     OW24397   1.645   0.332   8.070  0.3178  0.3112 -0.4325
 4254SOL    HW124398   1.586   0.363   8.140  0.7913  0.9364 -0.3072
 4254SOL    HW224399   1.724   0.385   8.063  0.7316 -0.6117 -2.7434
 4255SOL     OW24400   0.476   3.423  12.321 -0.4457 -0.0816 -0.2301
 4255SOL    HW124401   0.498   3.422  12.414 -1.0451 -2.4090 -0.1304
 4255SOL    HW224402   0.552   3.376  12.288 -0.7385 -0.8305  0.1674
 4256SOL     OW24403   4.062   4.030   7.910 -0.1026 -0.2695 -0.1510
 4256SOL    HW124404   4.035   3.990   7.993 -1.0457  0.8507  0.0727
 4256SOL    HW224405   4.037   3.957   7.852  2.6460 -0.6554 -0.8603
 4257SOL     OW24406   2.517   1.808  15.793  0.7332  0.0801 -0.4076
 4257SOL    HW124407   2.579   1.852  15.852 -0.1239  0.6457  0.0765
 4257SOL    HW224408   2.431   1.840  15.822  1.3658 -0.9247  2.6091
 4258SOL     OW24409   0.819   4.549   9.552  0.1431  0.1820  0.1623
 4258SOL    HW124410   0.780   4.527   9.467 -2.3437  0.5943  1.1785
 4258SOL    HW224411   0.854   4.463   9.571 -2.3671 -0.8755  0.0052
 4259SOL     OW24412   3.074   2.969  11.253  0.1452 -0.7468  0.3384
 4259SOL    HW124413   3.103   3.023  11.326  0.6990  1.2837 -1.3960
 4259SOL    HW224414   3.063   3.034  11.184  1.8262 -0.0257  0.7547
 4260SOL     OW24415   4.576   4.621   5.568 -0.1458  0.1062 -0.2339
 4260SOL    HW124416   4.553   4.611   5.476 -0.0290 -2.3432 -0.0118
 4260SOL    HW224417   4.573   4.716   5.571 -0.1840  0.0633  1.4386
 4261SOL     OW24418   4.284   4.136   4.414  0.4589  0.0782  0.3604
 4261SOL    HW124419   4.248   4.066   4.468 -1.3468  1.6954  1.2374
 4261SOL    HW224420   4.307   4.201   4.480 -0.8839 -1.0154  1.9153
 4262SOL     OW24421   2.609   2.519   6.526  0.6187  0.5956 -0.1094
 4262SOL    HW124422   2.594   2.454   6.457  0.3228 -1.4436  1.8675
 4262SOL    HW224423   2.660   2.585   6.479  0.2943 -0.0876 -1.4121
 4263SOL     OW24424   0.771   2.606   3.474  0.1454  0.4672 -0.1573
 4263SOL    HW124425   0.814   2.526   3.506  0.2634  0.9661  0.9475
 4263SOL    HW224426   0.688   2.562   3.454 -0.0498  1.3831 -1.3320
 4264SOL     OW24427   2.429   0.115   7.186  0.3199 -0.3681  0.0153
 4264SOL    HW124428   2.521   0.101   7.208 -0.0934 -1.9595  0.7120
 4264SOL    HW224429   2.387   0.129   7.271 -0.6780  1.0771 -0.7106
 4265SOL     OW24430   2.096   3.160   5.507 -0.5093  0.4910  0.5057
 4265SOL    HW124431   2.140   3.134   5.589  0.8533  0.1494 -0.3290
 4265SOL    HW224432   2.176   3.169   5.454 -0.5424  1.2845  0.6011
 4266SOL     OW24433   3.535   1.805   8.081  0.1895  0.5419  0.0067
 4266SOL    HW124434   3.620   1.799   8.039  0.1240  2.0513 -0.3468
 4266SOL    HW224435   3.475   1.841   8.016 -0.6798 -1.2602 -0.2006
 4267SOL     OW24436   2.882   1.836   1.636  0.0086  0.6458  0.3330
 4267SOL    HW124437   2.910   1.914   1.685 -2.8662  1.9300 -0.0655
 4267SOL    HW224438   2.800   1.858   1.593  0.3369  0.0210 -0.6177
 4268SOL     OW24439   3.858   1.043   8.598 -0.3300  1.0119 -0.0579
 4268SOL    HW124440   3.941   1.028   8.642 -1.9697 -0.2558  2.6147
 4268SOL    HW224441   3.879   1.099   8.523 -0.5051  2.2432  0.8021
 4269SOL     OW24442   0.445   0.264   9.248  0.8022  0.2492  0.5883
 4269SOL    HW124443   0.412   0.216   9.324  0.1882  1.1562  0.8934
 4269SOL    HW224444   0.465   0.351   9.284 -0.1796  1.8342 -2.6919
 4270SOL     OW24445   4.161   4.499   6.940 -0.1229 -0.0731  0.0795
 4270SOL    HW124446   4.133   4.569   6.999  0.0573 -0.0885  0.1815
 4270SOL    HW224447   4.255   4.497   6.958 -0.1719 -2.0478  0.0558
 4271SOL     OW24448   4.459   3.968   5.816 -0.2421 -0.0171 -0.1614
 4271SOL    HW124449   4.456   3.911   5.739  1.2822 -0.9468  0.4604
 4271SOL    HW224450   4.452   4.055   5.778  0.7781  0.5592  1.0056
 4272SOL     OW24451   2.518   2.737   5.970 -0.0121  0.2241 -0.5531
 4272SOL    HW124452   2.543   2.757   5.880  1.7345  0.4081 -0.0289
 4272SOL    HW224453   2.603   2.702   5.996 -0.3093  0.1218  0.2960
 4273SOL     OW24454   1.469   3.558   6.591  0.0459  0.0066 -0.1838
 4273SOL    HW124455   1.428   3.507   6.521 -1.5390 -0.7488  1.3004
 4273SOL    HW224456   1.478   3.641   6.546  0.2587 -0.4074 -0.9093
 4274SOL     OW24457   2.722   0.537   6.772  0.5470  0.3618  0.4510
 4274SOL    HW124458   2.753   0.556   6.861 -1.7769 -0.5052  1.4439
 4274SOL    HW224459   2.762   0.452   6.754  0.9752  0.5171  0.6482
 4275SOL     OW24460   0.942   0.812  16.599  0.1943  0.4130 -0.0537
 4275SOL    HW124461   0.984   0.753  16.537  0.7317  0.4021  0.3160
 4275SOL    HW224462   0.875   0.844  16.538 -0.4759  1.9233  1.4706
 4276SOL     OW24463   3.779   4.663  10.632  0.1987  0.2367 -0.3546
 4276SOL    HW124464   3.759   0.016  10.613  0.4131  0.9113  2.7016
 4276SOL    HW224465   3.873   4.657  10.647  0.6277  2.6166 -1.9332
 4277SOL     OW24466   1.512   2.514   4.592  0.0860 -0.8025 -0.3925
 4277SOL    HW124467   1.488   2.606   4.604 -0.9322 -0.8788 -1.8785
 4277SOL    HW224468   1.595   2.527   4.547 -0.3629 -0.8038 -1.2235
 4278SOL     OW24469   2.090   3.738  15.065  0.1747 -0.1851  0.4965
 4278SOL    HW124470   2.055   3.672  15.005  1.3811 -0.3652 -0.0147
 4278SOL    HW224471   2.135   3.796  15.002  1.4302  0.8346  2.3425
 4279SOL     OW24472   2.126   0.264   0.997 -0.1424  0.3306  0.0642
 4279SOL    HW124473   2.045   0.244   1.043 -0.7024  2.0978 -0.1439
 4279SOL    HW224474   2.178   0.305   1.065  1.3822 -0.5590 -0.5594
 4280SOL     OW24475   1.983   4.596  15.921  0.3207  0.1937 -0.1283
 4280SOL    HW124476   1.955   4.598  16.012 -0.9023  0.9905 -0.5246
 4280SOL    HW224477   1.987   4.502  15.906  1.4945  0.9628 -4.6374
 4281SOL     OW24478   3.834   4.409   1.999  0.3775 -0.4678  0.5995
 4281SOL    HW124479   3.873   4.418   2.086  0.0466  1.3517  0.5584
 4281SOL    HW224480   3.766   4.345   2.019 -1.7377  1.7451  0.4070
 4282SOL     OW24481   3.949   1.061  13.898  0.3598 -0.3263  0.1834
 4282SOL    HW124482   3.949   1.157  13.899  2.3644 -0.3313  0.9201
 4282SOL    HW224483   3.859   1.046  13.924 -0.1409  2.4630  0.1252
 4283SOL     OW24484   2.153   1.899   1.841 -0.6395  0.2801  0.2663
 4283SOL    HW124485   2.175   1.829   1.779 -0.0415 -0.7869  1.6714
 4283SOL    HW224486   2.233   1.950   1.838 -0.7998  0.7414  4.3551
 4284SOL     OW24487   2.488   2.827   1.976 -0.2212  0.3037 -0.2914
 4284SOL    HW124488   2.558   2.882   1.939  0.2661  1.0032  1.6981
 4284SOL    HW224489   2.410   2.882   1.975 -0.7458 -0.4620 -2.2997
 4285SOL     OW24490   0.970   0.351  12.048 -0.3506  0.4506  0.2216
 4285SOL    HW124491   0.888   0.312  12.017  0.7579 -0.8423 -1.1680
 4285SOL    HW224492   1.034   0.279  12.056 -1.6782 -0.7858 -0.1992
 4286SOL     OW24493   1.219   0.989   8.172  0.9118 -0.3346  0.4413
 4286SOL    HW124494   1.178   1.042   8.241 -2.2882 -2.4704  0.1802
 4286SOL    HW224495   1.262   1.049   8.110  0.8191  0.6944  1.3751
 4287SOL     OW24496   1.308   1.339  11.103 -0.4146  0.0623  0.0631
 4287SOL    HW124497   1.339   1.252  11.078 -1.3793 -0.1810 -0.2745
 4287SOL    HW224498   1.353   1.391  11.037 -0.8819 -0.3920 -0.6159
 4288SOL     OW24499   4.674   3.592   6.181 -0.1126  0.4197  0.5481
 4288SOL    HW124500   4.597   3.637   6.147 -1.0158 -1.4378  0.1432
 4288SOL    HW224501   0.005   3.654   6.159  0.1061  0.4879  1.4645
 4289SOL     OW24502   4.305   2.342   5.204 -0.0740 -0.2075 -0.4636
 4289SOL    HW124503   4.341   2.288   5.274  1.2130 -1.3646 -2.0159
 4289SOL    HW224504   4.320   2.289   5.126 -1.6090  1.1270 -1.6600
 4290SOL     OW24505   2.913   0.892  12.670 -0.1370 -0.1036 -0.1235
 4290SOL    HW124506   2.997   0.864  12.634  1.4074  1.8699  1.9346
 4290SOL    HW224507   2.861   0.886  12.590 -0.8746  3.6149  0.0744
 4291SOL     OW24508   1.311   3.420  10.561 -0.3186  0.1659  0.3201
 4291SOL    HW124509   1.283   3.410  10.471 -1.2827  3.0179  0.3010
 4291SOL    HW224510   1.251   3.488  10.593 -0.1706  0.2681  0.3827
 4292SOL     OW24511   2.502   0.363  15.865  0.4780 -0.0362 -0.4772
 4292SOL    HW124512   2.533   0.410  15.787 -1.5230  0.3963 -1.0339
 4292SOL    HW224513   2.457   0.286  15.830 -1.8354  0.1148  2.2099
 4293SOL     OW24514   2.815   1.370   4.139 -0.0526  0.4027  0.4460
 4293SOL    HW124515   2.870   1.406   4.070 -0.2689 -1.5353 -0.7573
 4293SOL    HW224516   2.871   1.372   4.216  0.6266  1.4320 -0.0867
 4294SOL     OW24517   2.805   1.315   8.405  0.1123  0.2779  0.1584
 4294SOL    HW124518   2.870   1.289   8.339 -0.3097  0.8020 -0.4654
 4294SOL    HW224519   2.865   1.370   8.455  0.0679 -0.8049  1.3728
 4295SOL     OW24520   1.056   3.573  12.862  0.0975 -0.5367 -0.0618
 4295SOL    HW124521   1.051   3.556  12.956 -0.0067 -1.2013 -0.1854
 4295SOL    HW224522   0.964   3.560  12.838  0.5831 -0.6177 -1.8391
 4296SOL     OW24523   0.877   4.163   2.492  0.3433  0.1645 -0.0556
 4296SOL    HW124524   0.830   4.242   2.519 -0.2337  0.7258 -2.7164
 4296SOL    HW224525   0.903   4.187   2.403 -1.1611 -0.2299 -0.6040
 4297SOL     OW24526   0.562   0.227   5.525 -0.0430 -0.3957  1.0428
 4297SOL    HW124527   0.524   0.242   5.611 -2.4344 -1.9157  0.2656
 4297SOL    HW224528   0.610   0.148   5.551 -0.4058 -0.3454  1.8605
 4298SOL     OW24529   0.845   1.981  12.870 -0.1395  0.4780  0.3086
 4298SOL    HW124530   0.772   1.918  12.876 -0.7856  1.1849 -0.1581
 4298SOL    HW224531   0.883   1.951  12.787  0.2846 -0.6531  0.9054
 4299SOL     OW24532   2.339   0.548  15.152  0.4250 -0.3617 -0.2316
 4299SOL    HW124533   2.353   0.480  15.086  2.0948  1.1485 -1.4357
 4299SOL    HW224534   2.255   0.510  15.176  1.1651 -1.9076 -0.0489
 4300SOL     OW24535   0.119   1.640   1.798 -0.3326  0.6225 -0.2794
 4300SOL    HW124536   0.159   1.562   1.761  0.5625  0.6028  0.7138
 4300SOL    HW224537   0.095   1.684   1.716 -1.4585 -0.8431 -0.7278
 4301SOL     OW24538   0.467   4.125   4.175  0.7185 -0.0723 -0.2524
 4301SOL    HW124539   0.422   4.124   4.259 -0.2360  0.7919 -0.7590
 4301SOL    HW224540   0.416   4.189   4.124  1.3781  0.2227 -0.5566
 4302SOL     OW24541   4.431   3.586   4.202  0.6159 -0.1447  0.2468
 4302SOL    HW124542   4.519   3.571   4.166  0.7009 -1.8205  1.2078
 4302SOL    HW224543   4.388   3.512   4.160  1.9069  0.8637 -2.9063
 4303SOL     OW24544   3.011   3.564   9.897 -0.2433 -0.0019  0.6680
 4303SOL    HW124545   2.917   3.562   9.882 -0.0574  1.7543 -0.6585
 4303SOL    HW224546   3.019   3.654   9.866  0.9453 -0.5313 -0.5754
 4304SOL     OW24547   3.256   3.263   9.484 -0.1067  0.2735 -0.2949
 4304SOL    HW124548   3.162   3.276   9.468  0.1496  2.1322 -0.3175
 4304SOL    HW224549   3.270   3.305   9.569 -0.9138 -0.7805  0.3631
 4305SOL     OW24550   3.374   2.152   0.058  0.1569 -0.7087  0.5579
 4305SOL    HW124551   3.321   2.151   0.138 -0.5518 -0.3812  0.0883
 4305SOL    HW224552   3.364   2.057   0.047 -0.6409 -0.6027  0.3746
 4306SOL     OW24553   2.856   2.443   7.794  0.1934  0.3518 -0.1657
 4306SOL    HW124554   2.799   2.410   7.725 -0.4529  0.0822  0.5005
 4306SOL    HW224555   2.791   2.466   7.861  0.3812 -0.2049  0.2034
 4307SOL     OW24556   0.508   4.066  10.503  0.1180 -0.0203 -0.1150
 4307SOL    HW124557   0.535   4.133  10.441 -0.1102 -2.0811 -2.4151
 4307SOL    HW224558   0.434   4.017  10.467  0.6937 -1.2108  0.3056
 4308SOL     OW24559   1.956   1.416  10.775  0.3144  0.0824  0.1782
 4308SOL    HW124560   1.897   1.341  10.764  0.1246  0.6571 -2.5245
 4308SOL    HW224561   1.937   1.473  10.700 -1.8561 -0.9071 -0.0306
 4309SOL     OW24562   1.995   1.179   2.359  0.1744 -0.4374  0.2178
 4309SOL    HW124563   1.960   1.267   2.346  1.8875  0.0122 -1.3059
 4309SOL    HW224564   2.022   1.157   2.270 -1.0261  1.0465 -0.5202
 4310SOL     OW24565   1.135   0.627  17.619 -0.2953  0.2766  0.2799
 4310SOL    HW124566   1.155   0.714  17.587 -1.1268  0.0068 -0.9633
 4310SOL    HW224567   1.188   0.615  17.698 -2.9080 -2.1110  1.7009
 4311SOL     OW24568   3.858   0.250   1.343 -0.0622  0.1188  0.0801
 4311SOL    HW124569   3.824   0.188   1.278 -0.5211 -1.1218  1.5122
 4311SOL    HW224570   3.825   0.339   1.333  0.7164  0.3895 -0.0610
 4312SOL     OW24571   4.225   4.439  17.123  0.3126 -0.2288 -0.7056
 4312SOL    HW124572   4.174   4.385  17.182  2.0443 -1.1357 -0.0302
 4312SOL    HW224573   4.261   4.371  17.066 -0.1736 -2.0703  1.2020
 4313SOL     OW24574   1.753   1.254   6.334  0.3860  0.4697  0.1593
 4313SOL    HW124575   1.728   1.227   6.245  0.4917 -0.3261  0.3791
 4313SOL    HW224576   1.733   1.348   6.326  0.0963  0.4488  0.7026
 4314SOL     OW24577   4.622   4.595   6.007  0.4076  0.1066  0.0755
 4314SOL    HW124578   4.585   4.673   5.966 -0.4018 -0.6398 -0.5930
 4314SOL    HW224579   4.546   4.586   6.064 -0.7100  1.8540 -1.1730
 4315SOL     OW24580   3.995   3.814   7.747 -0.7228  0.3381  0.0262
 4315SOL    HW124581   3.948   3.739   7.784  0.6661 -0.8686 -0.6596
 4315SOL    HW224582   3.979   3.803   7.653 -0.9924  1.1177 -0.0211
 4316SOL     OW24583   4.183   0.850   7.444  0.0719  0.1396 -0.1506
 4316SOL    HW124584   4.124   0.778   7.421  1.7907 -0.8546 -1.3886
 4316SOL    HW224585   4.206   0.895   7.363  1.3464  1.4678  0.9384
 4317SOL     OW24586   1.728   2.865   5.847 -0.2566  0.0676  0.3038
 4317SOL    HW124587   1.724   2.821   5.762  3.5266  0.3348  0.0017
 4317SOL    HW224588   1.784   2.937   5.819 -0.6607  0.5880  0.8214
 4318SOL     OW24589   2.154   4.729   9.176 -0.5869  0.0081 -0.3962
 4318SOL    HW124590   2.095   4.667   9.132 -1.6267  0.0887  0.8525
 4318SOL    HW224591   2.236   4.701   9.136 -0.1222 -0.1848  0.6864
 4319SOL     OW24592   1.275   3.060   1.394 -0.3619 -0.0177  0.1168
 4319SOL    HW124593   1.234   2.980   1.428 -1.1245 -0.2596 -1.3635
 4319SOL    HW224594   1.366   3.031   1.393 -0.5093 -0.4727 -0.6359
 4320SOL     OW24595   3.373   2.785   4.157  0.2776 -0.4910  0.3195
 4320SOL    HW124596   3.319   2.719   4.115 -0.3699 -0.0981  0.5436
 4320SOL    HW224597   3.417   2.726   4.219  0.4372 -0.5933  0.1099
 4321SOL     OW24598   3.669   4.212   2.147  0.0670  0.5022  0.1362
 4321SOL    HW124599   3.661   4.178   2.236 -0.1011 -0.4495 -0.2446
 4321SOL    HW224600   3.582   4.192   2.113 -1.4568  1.6510  3.4340
 4322SOL     OW24601   4.354   0.043  15.315  0.2823  0.2951 -0.1827
 4322SOL    HW124602   4.349   0.031  15.410  0.3586 -0.0204 -0.2164
 4322SOL    HW224603   4.334   4.690  15.296  0.4250 -0.1812  1.9570
 4323SOL     OW24604   1.247   0.841   9.070 -0.0084  0.6267  0.0817
 4323SOL    HW124605   1.323   0.871   9.120 -1.0777  3.3115  0.0933
 4323SOL    HW224606   1.175   0.861   9.129  0.8125 -0.1744  1.3653
 4324SOL     OW24607   1.016   0.617   5.702  0.1348  0.0638 -0.2352
 4324SOL    HW124608   1.023   0.584   5.792  2.9038 -0.4090 -0.6345
 4324SOL    HW224609   0.947   0.560   5.668 -1.2191  1.1113  0.7269
 4325SOL     OW24610   1.360   0.922   7.213  0.0439 -0.1937  0.4567
 4325SOL    HW124611   1.361   0.927   7.308  1.4729  0.4003  0.4147
 4325SOL    HW224612   1.440   0.975   7.205 -0.6233  0.4266 -2.2386
 4326SOL     OW24613   1.091   1.583   3.822  0.0966 -0.2789  0.5933
 4326SOL    HW124614   1.116   1.592   3.914 -1.0464 -2.1977  1.0875
 4326SOL    HW224615   1.172   1.560   3.778  1.3070  0.6605  2.2982
 4327SOL     OW24616   1.308   3.430  12.075  0.1948  0.1531 -0.3308
 4327SOL    HW124617   1.306   3.338  12.102  1.8256  0.2070  0.0121
 4327SOL    HW224618   1.217   3.450  12.096  0.7038  1.8395  0.2158
 4328SOL     OW24619   1.763   0.859   4.232 -0.4741  0.4817  0.1252
 4328SOL    HW124620   1.847   0.866   4.278  0.4887 -1.1046 -1.3698
 4328SOL    HW224621   1.751   0.949   4.202 -0.8102  0.4373  0.1212
 4329SOL     OW24622   0.778   4.007  10.575 -0.0478  0.4428 -0.0440
 4329SOL    HW124623   0.772   4.024  10.669 -0.5332 -1.2429  0.2427
 4329SOL    HW224624   0.685   4.009  10.549 -0.3771  4.0823  1.4213
 4330SOL     OW24625   1.027   1.726  14.969  0.4108  0.5384  0.0103
 4330SOL    HW124626   0.963   1.773  14.916 -1.0831 -1.6828 -0.1165
 4330SOL    HW224627   0.963   1.691  15.030  0.4936  0.1461 -0.1284
 4331SOL     OW24628   3.657   0.371  11.483  0.2124  0.1196 -0.4079
 4331SOL    HW124629   3.588   0.430  11.514 -0.4875 -0.2108 -1.3346
 4331SOL    HW224630   3.639   0.281  11.509  1.7404  0.1857  0.8940
 4332SOL     OW24631   3.859   1.815   1.384  0.1908  0.1063  0.0138
 4332SOL    HW124632   3.848   1.887   1.446  1.0412  1.4714 -1.4275
 4332SOL    HW224633   3.774   1.815   1.341  0.2924 -0.3889 -0.1928
 4333SOL     OW24634   3.669   4.665   6.242 -0.5588 -0.2929  0.0657
 4333SOL    HW124635   3.654   4.609   6.319  2.9091  0.2388  1.1410
 4333SOL    HW224636   3.676   0.010   6.288  0.6971  0.6234 -1.7796
 4334SOL     OW24637   2.845   4.568   5.925 -0.2523 -0.1304  0.1066
 4334SOL    HW124638   2.779   4.637   5.934  0.3688  0.6422 -1.2921
 4334SOL    HW224639   2.922   4.616   5.894 -0.6219  1.2278  1.2864
 4335SOL     OW24640   4.333   0.185  10.168 -0.5629  0.0294  0.2274
 4335SOL    HW124641   4.351   0.208  10.259  2.9460  0.5748 -0.5965
 4335SOL    HW224642   4.311   0.092  10.170  1.2987 -0.4211 -0.4078
 4336SOL     OW24643   1.493   1.324   8.652 -0.7545  0.1194  0.0996
 4336SOL    HW124644   1.471   1.274   8.573  0.3036  0.0555 -0.1513
 4336SOL    HW224645   1.405   1.354   8.677 -1.2726 -2.4159  1.3256
 4337SOL     OW24646   3.375   2.565   2.390  0.0487  0.2314  0.2204
 4337SOL    HW124647   3.353   2.636   2.330 -2.0820  0.0384  0.7649
 4337SOL    HW224648   3.468   2.578   2.405  0.5385 -3.7138  0.6940
 4338SOL     OW24649   3.928   4.493   8.293  0.3595  0.2055  0.2304
 4338SOL    HW124650   3.909   4.487   8.200 -0.1773  0.3506  0.3348
 4338SOL    HW224651   3.979   4.574   8.301 -0.6479  0.8523  0.0832
 4339SOL     OW24652   4.071   2.139  12.125  0.3743 -0.3365  0.8653
 4339SOL    HW124653   4.071   2.047  12.101 -2.0095  0.0885 -0.7666
 4339SOL    HW224654   4.101   2.132  12.216 -0.4712  0.6489  1.2374
 4340SOL     OW24655   2.122   1.196   6.933  0.2154  0.0220  0.2075
 4340SOL    HW124656   2.120   1.270   6.993  0.5041  0.1318  0.0821
 4340SOL    HW224657   2.126   1.124   6.996  0.2353 -0.1221  0.0419
 4341SOL     OW24658   1.515   3.337   5.056  0.1169 -0.5582  0.0744
 4341SOL    HW124659   1.500   3.419   5.008 -0.6942  0.4045  2.0112
 4341SOL    HW224660   1.441   3.284   5.027  0.0611 -1.1935  1.4296
 4342SOL     OW24661   0.404   3.247  16.170  0.3598 -0.3784 -0.0187
 4342SOL    HW124662   0.462   3.220  16.099  0.0256 -1.6606  0.1886
 4342SOL    HW224663   0.335   3.269  16.108 -0.1645 -1.0629  0.3257
 4343SOL     OW24664   1.553   3.059   7.685  0.2136 -0.7211 -0.0284
 4343SOL    HW124665   1.607   3.003   7.741  1.3014 -1.4498 -1.8451
 4343SOL    HW224666   1.486   2.995   7.660 -1.7652  1.1857  0.3348
 4344SOL     OW24667   2.113   0.405  15.253 -0.1683 -0.3656  0.6924
 4344SOL    HW124668   2.137   0.333  15.312  1.2772  0.2679  0.8730
 4344SOL    HW224669   2.034   0.427  15.303  0.9978  1.1756  1.8275
 4345SOL     OW24670   4.664   2.325   8.778 -0.1822  0.2322  0.1891
 4345SOL    HW124671   0.004   2.355   8.824 -0.5878 -1.4183  2.0089
 4345SOL    HW224672   4.594   2.372   8.822  0.2208  1.1928 -0.1948
 4346SOL     OW24673   1.459   0.468  15.070 -0.4729  0.3659  0.0429
 4346SOL    HW124674   1.455   0.518  14.988  0.0190 -0.7250 -0.6582
 4346SOL    HW224675   1.378   0.486  15.117  0.1374  0.4467  1.0526
 4347SOL     OW24676   2.387   1.549   1.005  0.5684 -0.0213  0.3766
 4347SOL    HW124677   2.366   1.457   0.988  0.9120  0.1604 -1.0659
 4347SOL    HW224678   2.331   1.591   0.939  1.2984 -1.3354 -1.0935
 4348SOL     OW24679   1.200   1.626   4.067 -0.4325 -0.1122 -0.1343
 4348SOL    HW124680   1.225   1.537   4.091 -0.2862  0.3122  1.2623
 4348SOL    HW224681   1.144   1.654   4.139  1.1434 -0.2591  1.1410
 4349SOL     OW24682   3.274   1.504   1.779 -0.6799 -0.3116  0.4824
 4349SOL    HW124683   3.205   1.559   1.742  0.4312  0.7430 -0.0123
 4349SOL    HW224684   3.263   1.526   1.871 -0.7312  1.0188  0.1597
 4350SOL     OW24685   3.574   0.154   4.336  0.4055  0.1727 -0.4559
 4350SOL    HW124686   3.597   0.236   4.292 -0.4962  2.1638  2.7997
 4350SOL    HW224687   3.659   0.113   4.353  1.4462  2.8341  0.8110
 4351SOL     OW24688   1.262   4.607   8.696  0.3421 -0.2294  0.0634
 4351SOL    HW124689   1.267   4.512   8.686 -3.0218 -0.3926 -0.0080
 4351SOL    HW224690   1.197   4.622   8.765  0.5772  1.5256 -0.0930
 4352SOL     OW24691   1.499   1.711   4.908 -0.2427  0.6483 -0.0408
 4352SOL    HW124692   1.445   1.669   4.974  0.6100  0.3203  0.4488
 4352SOL    HW224693   1.547   1.760   4.975  0.8191  0.8717 -0.9641
 4353SOL     OW24694   2.303   4.480   6.294 -0.0717 -0.6006  0.3574
 4353SOL    HW124695   2.308   4.548   6.228  1.3873 -0.5626  0.4962
 4353SOL    HW224696   2.386   4.434   6.281 -2.3224 -4.0380 -1.6607
 4354SOL     OW24697   0.102   1.673   3.338 -0.1248 -0.4747 -0.0924
 4354SOL    HW124698   0.102   1.764   3.309  0.1440 -0.4294  0.0479
 4354SOL    HW224699   0.163   1.638   3.273  1.8440  0.5354  1.1929
 4355SOL     OW24700   3.492   3.553  13.848 -0.2939 -0.5293 -0.6867
 4355SOL    HW124701   3.551   3.478  13.855  0.6877  0.1549 -1.5412
 4355SOL    HW224702   3.420   3.508  13.805 -1.8277 -0.0324  1.3327
 4356SOL     OW24703   3.795   2.029  16.410 -0.2639  0.5471 -0.0706
 4356SOL    HW124704   3.841   1.954  16.370 -1.4083 -0.1993  0.0283
 4356SOL    HW224705   3.703   2.020  16.387 -0.2592  1.5073 -0.4488
 4357SOL     OW24706   0.745   0.829   6.061  0.4442  0.7819  0.3989
 4357SOL    HW124707   0.710   0.874   6.138 -1.6378  0.6329 -0.4505
 4357SOL    HW224708   0.735   0.901   5.999  2.0354  1.3092  0.7649
 4358SOL     OW24709   0.930   4.515   8.197  0.0272 -0.5418 -0.4944
 4358SOL    HW124710   0.932   4.457   8.121  1.6876 -0.3876 -0.5729
 4358SOL    HW224711   1.009   4.561   8.169  0.6263 -1.3918 -0.2163
 4359SOL     OW24712   3.122   3.240   8.193 -0.4470 -0.0990  0.0130
 4359SOL    HW124713   3.154   3.292   8.119 -2.3135  1.5340  0.3394
 4359SOL    HW224714   3.174   3.161   8.179  0.5476  0.6800 -0.7059
 4360SOL     OW24715   3.831   1.018   7.444 -0.0462 -0.6241  0.7348
 4360SOL    HW124716   3.810   0.927   7.466  0.8313 -1.8908 -3.6096
 4360SOL    HW224717   3.860   1.018   7.353 -1.6711 -0.2012  0.2310
 4361SOL     OW24718   3.911   2.112  11.520 -0.6973 -0.3225 -0.3311
 4361SOL    HW124719   3.844   2.132  11.454 -0.6414  1.4858  0.1513
 4361SOL    HW224720   3.977   2.175  11.493  0.8713 -1.6212  0.4980
 4362SOL     OW24721   2.129   3.597   6.353 -0.4262 -0.2993  0.4791
 4362SOL    HW124722   2.185   3.644   6.292  1.8096 -0.4520  2.4024
 4362SOL    HW224723   2.099   3.533   6.289 -1.3077 -2.4488  3.0589
 4363SOL     OW24724   3.588   1.849   2.458  0.1961 -0.3146 -0.1710
 4363SOL    HW124725   3.569   1.761   2.492  2.7704 -0.8886 -0.1959
 4363SOL    HW224726   3.678   1.848   2.426  0.1622 -0.1771 -0.2676
 4364SOL     OW24727   2.879   4.515  10.920 -0.0043 -0.3673  0.2609
 4364SOL    HW124728   2.925   4.434  10.943  0.6722 -0.0959 -0.1431
 4364SOL    HW224729   2.826   4.532  10.998  0.3072  1.8696 -0.0331
 4365SOL     OW24730   3.587   0.981   1.382  0.1048  0.6030 -0.2505
 4365SOL    HW124731   3.525   1.051   1.395 -0.9117 -0.6086  1.4134
 4365SOL    HW224732   3.570   0.968   1.288 -1.9882 -1.8901  0.4710
 4366SOL     OW24733   2.793   2.934   0.381  0.0664  0.3606  0.4772
 4366SOL    HW124734   2.824   3.009   0.331 -1.2309 -0.8117 -2.1287
 4366SOL    HW224735   2.846   2.945   0.459 -0.6615  1.0529  0.8761
 4367SOL     OW24736   3.568   1.955   0.896 -0.4417 -0.4698  0.6278
 4367SOL    HW124737   3.525   1.886   0.948 -1.1985 -1.4313 -1.2592
 4367SOL    HW224738   3.645   1.904   0.871 -0.1775  1.1430 -1.7773
 4368SOL     OW24739   1.083   2.280   2.470 -0.1001  0.4759 -0.0054
 4368SOL    HW124740   1.131   2.198   2.466 -1.5574 -0.3825 -0.1889
 4368SOL    HW224741   1.142   2.354   2.457 -0.0081  0.6807  1.5336
 4369SOL     OW24742   2.241   0.764   7.019  0.0944  0.0851  0.1732
 4369SOL    HW124743   2.324   0.763   7.067 -0.8146  4.2412  1.8458
 4369SOL    HW224744   2.251   0.672   6.995  0.7170  0.7646 -2.1606
 4370SOL     OW24745   0.272   3.538   8.798 -0.1840 -0.0258 -0.7488
 4370SOL    HW124746   0.346   3.589   8.828 -0.8723  0.6623 -0.2138
 4370SOL    HW224747   0.194   3.575   8.839 -0.4963 -1.2007 -0.2891
 4371SOL     OW24748   3.730   3.253   3.035  0.1372  0.4957  0.7963
 4371SOL    HW124749   3.783   3.229   3.111  1.7480  1.9390  0.1236
 4371SOL    HW224750   3.652   3.199   3.046 -0.0685 -0.1455 -3.6992
 4372SOL     OW24751   0.675   4.522   4.116 -0.4879  0.2508 -0.5711
 4372SOL    HW124752   0.654   4.613   4.096 -1.6007  0.5742  1.9862
 4372SOL    HW224753   0.637   4.460   4.054  0.3051 -1.2027  0.3894
 4373SOL     OW24754   0.847   3.682   1.637  0.0822 -0.0261  0.1733
 4373SOL    HW124755   0.884   3.652   1.555 -0.3063  1.7609 -0.6614
 4373SOL    HW224756   0.785   3.751   1.615  0.7186 -0.2587 -2.2802
 4374SOL     OW24757   3.855   3.285   6.679 -0.2153 -0.6648  0.2042
 4374SOL    HW124758   3.903   3.222   6.732  0.9227  0.0270 -0.0041
 4374SOL    HW224759   3.925   3.341   6.644  0.8762 -1.3673  1.2690
 4375SOL     OW24760   1.805   4.204  14.231 -0.1977 -0.8133  0.0595
 4375SOL    HW124761   1.832   4.226  14.320 -2.9021 -0.6563  0.8108
 4375SOL    HW224762   1.890   4.196  14.187  0.5213  2.9743  0.7947
 4376SOL     OW24763   1.900   1.694   5.022  0.4074 -0.0934 -0.2852
 4376SOL    HW124764   1.959   1.674   4.949 -0.7268 -1.2414 -0.8861
 4376SOL    HW224765   1.969   1.705   5.088 -0.1497  0.4187  0.1976
 4377SOL     OW24766   2.703   4.069   9.781 -0.3404 -0.2080  0.0891
 4377SOL    HW124767   2.706   4.008   9.707 -1.3595 -0.1776  0.0214
 4377SOL    HW224768   2.766   4.137   9.756  0.0963 -0.4139  0.6275
 4378SOL     OW24769   4.537   2.220   4.641 -0.5283 -0.3193 -0.8497
 4378SOL    HW124770   4.454   2.264   4.620 -0.8659  0.1695  1.6003
 4378SOL    HW224771   4.511   2.130   4.620  2.2651 -1.7847  2.0396
 4379SOL     OW24772   3.394   0.148  11.732  0.4579 -0.0615  0.0825
 4379SOL    HW124773   3.474   0.116  11.688 -0.3046 -2.5499  0.4756
 4379SOL    HW224774   3.396   0.110  11.820  0.1015  0.2017  0.2028
 4380SOL     OW24775   3.149   4.040  15.780 -0.1095  0.5077 -0.4961
 4380SOL    HW124776   3.067   3.995  15.798 -0.0735  0.0738 -1.3958
 4380SOL    HW224777   3.131   4.125  15.821  0.2975  0.7589 -0.8321
 4381SOL     OW24778   3.367   2.372   2.013  0.2103  0.5476 -0.1415
 4381SOL    HW124779   3.445   2.318   2.020  1.2718  1.9906 -0.9858
 4381SOL    HW224780   3.389   2.441   1.950  2.9554  0.6140  0.9042
 4382SOL     OW24781   4.126   4.628  14.808  0.1674  0.4742  0.0929
 4382SOL    HW124782   4.189   4.696  14.786 -1.5289  0.9496 -3.1857
 4382SOL    HW224783   4.113   4.576  14.729  1.6479 -0.5861  0.5433
 4383SOL     OW24784   1.692   0.528   7.742  0.1050 -0.4816 -0.2601
 4383SOL    HW124785   1.649   0.602   7.697  0.0096 -0.5426 -0.2692
 4383SOL    HW224786   1.700   0.471   7.666 -3.5678 -0.4614 -0.6538
 4384SOL     OW24787   1.931   0.879   1.753  0.6459 -0.0837 -0.3260
 4384SOL    HW124788   1.996   0.833   1.806  0.8390  0.0422 -0.4550
 4384SOL    HW224789   1.866   0.810   1.760  1.6018 -0.6835  2.8379
 4385SOL     OW24790   1.661   0.689   8.362  0.0863 -0.0277 -0.4704
 4385SOL    HW124791   1.592   0.705   8.426 -1.3195  0.8079 -2.1831
 4385SOL    HW224792   1.634   0.769   8.317  3.3014  1.1200 -0.3690
 4386SOL     OW24793   4.142   1.727   7.917  0.5502 -0.5160  0.2401
 4386SOL    HW124794   4.074   1.713   7.851 -0.7490  0.5918  1.3727
 4386SOL    HW224795   4.167   1.636   7.937  2.0582  0.1495  1.4033
 4387SOL     OW24796   4.244   2.490   5.859  0.0380 -0.6512 -0.0907
 4387SOL    HW124797   4.156   2.526   5.871  0.2195  0.0062 -0.7639
 4387SOL    HW224798   4.309   2.540   5.908  0.1850 -1.6241  0.6917
 4388SOL     OW24799   4.026   3.254  16.919  0.5261  0.0086 -0.0173
 4388SOL    HW124800   4.084   3.249  16.843 -1.2882 -0.2893 -1.3889
 4388SOL    HW224801   4.069   3.324  16.969  0.2148  1.0211 -1.1569
 4389SOL     OW24802   1.943   4.166   6.841  0.3119 -0.3144  0.2234
 4389SOL    HW124803   1.966   4.090   6.788  3.2947  1.0915 -0.5008
 4389SOL    HW224804   2.027   4.212   6.843  0.4947 -0.6392 -0.0954
 4390SOL     OW24805   2.994   3.651  10.683  0.2937 -0.2381 -0.1369
 4390SOL    HW124806   3.021   3.721  10.742 -1.1890  0.2103  0.0089
 4390SOL    HW224807   3.079   3.627  10.647 -0.7122 -3.4101 -0.4043
 4391SOL     OW24808   0.269   2.101   7.905  0.0411  0.5133  0.2480
 4391SOL    HW124809   0.298   2.022   7.951 -2.3472 -1.3484 -1.4862
 4391SOL    HW224810   0.175   2.091   7.921 -0.1514  0.3150 -1.0327
 4392SOL     OW24811   1.923   1.108  16.758  0.2546  0.0332 -0.0852
 4392SOL    HW124812   1.879   1.039  16.708  1.7952 -1.0406  0.0175
 4392SOL    HW224813   2.001   1.114  16.703 -0.0619  1.2114 -0.3822
 4393SOL     OW24814   0.293   0.891   2.826 -0.3455  0.1306 -0.8304
 4393SOL    HW124815   0.281   0.890   2.921 -0.4607  1.9568 -0.8218
 4393SOL    HW224816   0.272   0.800   2.806  2.0844 -0.7046  0.2968
 4394SOL     OW24817   3.739   2.936   0.819 -0.6282  0.5851 -0.4538
 4394SOL    HW124818   3.673   2.995   0.856 -0.8048  0.5182 -0.6589
 4394SOL    HW224819   3.689   2.899   0.746  2.0651  0.2793 -2.1553
 4395SOL     OW24820   3.344   0.458  16.869  0.6609 -0.5924  0.1699
 4395SOL    HW124821   3.389   0.492  16.792  0.2177  0.0044  0.1765
 4395SOL    HW224822   3.411   0.426  16.930  1.8053 -0.7808 -1.2089
 4396SOL     OW24823   4.059   4.417  12.240  0.1187  0.3482  0.3847
 4396SOL    HW124824   4.002   4.340  12.246 -0.8909  0.8840 -2.3515
 4396SOL    HW224825   4.148   4.385  12.221  0.2346  0.5471  0.5922
 4397SOL     OW24826   3.808   0.348   1.047 -0.1356  0.3456 -0.3521
 4397SOL    HW124827   3.776   0.381   1.131  1.2236 -0.9937  0.7107
 4397SOL    HW224828   3.901   0.328   1.058 -0.6342 -1.3883  0.7972
 4398SOL     OW24829   2.877   4.068   2.265 -0.8417  0.0011 -0.0288
 4398SOL    HW124830   2.833   4.153   2.260  1.7186  1.3143 -0.4559
 4398SOL    HW224831   2.892   4.054   2.359  1.7649  1.1455 -0.2570
 4399SOL     OW24832   0.495   3.289  15.311  0.1377 -0.5952  0.5238
 4399SOL    HW124833   0.556   3.353  15.346 -0.8694  0.1224  0.9623
 4399SOL    HW224834   0.491   3.320  15.221  0.3021 -0.3822  0.5914
 4400SOL     OW24835   2.212   1.679   3.383  0.0141 -0.1157 -0.2424
 4400SOL    HW124836   2.177   1.621   3.315 -0.2305  0.6344 -0.7522
 4400SOL    HW224837   2.238   1.620   3.453 -0.6670  1.7594  1.5824
 4401SOL     OW24838   1.335   4.321   8.551 -0.3204 -0.4902 -0.4420
 4401SOL    HW124839   1.422   4.323   8.592 -1.4727  0.8897  1.9237
 4401SOL    HW224840   1.365   4.321   8.459 -2.0357 -1.5593 -0.9967
 4402SOL     OW24841   0.602   0.593   6.973  0.3753  0.3217  0.4223
 4402SOL    HW124842   0.668   0.540   7.018  1.0497  0.6598 -0.1668
 4402SOL    HW224843   0.659   0.645   6.916  0.8884 -1.3932 -0.6306
 4403SOL     OW24844   0.698   3.692  13.799 -1.0338  0.2886 -0.3859
 4403SOL    HW124845   0.702   3.781  13.833 -1.4108  1.1393 -2.6058
 4403SOL    HW224846   0.634   3.648  13.856 -0.3362  0.7804  0.7896
 4404SOL     OW24847   3.066   1.597   7.857  0.1273 -0.1736  0.1666
 4404SOL    HW124848   3.107   1.666   7.805 -1.1428 -0.7872 -1.6356
 4404SOL    HW224849   2.972   1.606   7.839  0.2905 -0.1762 -0.6958
 4405SOL     OW24850   3.870   3.009  13.172 -0.3576  0.1394 -0.1557
 4405SOL    HW124851   3.889   2.916  13.161  1.7172  0.4244  0.8185
 4405SOL    HW224852   3.945   3.030  13.228 -1.1810 -0.7911  1.2939
 4406SOL     OW24853   4.169   2.519   3.962  0.4157  0.2516 -0.3075
 4406SOL    HW124854   4.171   2.476   3.877 -2.4286 -3.1372  1.3652
 4406SOL    HW224855   4.243   2.477   4.005  0.7513  1.4195  0.2778
 4407SOL     OW24856   3.220   2.975   5.758 -0.8938  0.1754 -0.1503
 4407SOL    HW124857   3.125   2.973   5.744 -0.7121  1.1574 -1.5043
 4407SOL    HW224858   3.223   2.999   5.851 -1.1329  1.5822 -0.5048
 4408SOL     OW24859   2.895   0.475   8.050  0.3036  0.2135  0.4080
 4408SOL    HW124860   2.936   0.475   8.136 -0.8351 -0.8067  0.9505
 4408SOL    HW224861   2.809   0.512   8.071 -0.0729 -1.9100  2.6820
 4409SOL     OW24862   1.227   3.894   3.733 -0.2257 -0.4338 -0.2244
 4409SOL    HW124863   1.196   3.984   3.732  0.5397 -0.1832 -3.0787
 4409SOL    HW224864   1.269   3.901   3.819  0.6071 -0.9115 -0.5888
 4410SOL     OW24865   4.056   4.690  10.125  0.0604 -0.5899  0.1607
 4410SOL    HW124866   4.091   4.695  10.213 -1.1376 -1.3329  0.6792
 4410SOL    HW224867   4.016   4.603  10.130 -0.4422 -0.4769 -1.5638
 4411SOL     OW24868   1.070   0.208   2.419 -0.0276  0.5149 -0.3781
 4411SOL    HW124869   1.068   0.188   2.326 -1.4355 -1.6029  0.0995
 4411SOL    HW224870   1.002   0.274   2.431 -0.7211  0.2296 -2.7891
 4412SOL     OW24871   0.254   3.172   2.200  0.2632 -0.0747 -0.2482
 4412SOL    HW124872   0.247   3.082   2.169 -1.3880 -0.5337  1.4854
 4412SOL    HW224873   0.349   3.183   2.189  0.3080 -1.9175 -1.6285
 4413SOL     OW24874   0.459   1.805   6.896  0.5362 -0.4027 -0.4377
 4413SOL    HW124875   0.537   1.766   6.935  0.0873 -0.3015  0.5516
 4413SOL    HW224876   0.393   1.782   6.961  2.0716 -1.7261  0.6558
 4414SOL     OW24877   2.024   1.313  10.435  0.2756 -0.2008  0.2622
 4414SOL    HW124878   2.057   1.263  10.509  2.4063  1.2372  0.2426
 4414SOL    HW224879   2.103   1.361  10.411  0.7577 -1.3334 -0.4189
 4415SOL     OW24880   1.723   0.058   7.317  0.1442  0.1299 -0.2503
 4415SOL    HW124881   1.799   0.098   7.360  0.4699 -0.6135 -0.1403
 4415SOL    HW224882   1.752   0.058   7.226 -0.2722  1.5698 -0.3972
 4416SOL     OW24883   1.407   0.395   1.633 -0.1733 -0.5197 -0.1002
 4416SOL    HW124884   1.317   0.395   1.667 -0.2759 -0.5529 -0.3698
 4416SOL    HW224885   1.447   0.362   1.713  0.3415  1.6000  0.5073
 4417SOL     OW24886   1.724   2.011   7.272 -0.5079 -0.3183 -0.2257
 4417SOL    HW124887   1.737   1.979   7.361 -1.4665  0.9960  0.3987
 4417SOL    HW224888   1.709   1.929   7.226  2.0509 -0.8812 -0.0746
 4418SOL     OW24889   4.125   2.707   7.925  0.8506 -0.5381  0.3693
 4418SOL    HW124890   4.185   2.636   7.905  1.7953  0.0909  0.9665
 4418SOL    HW224891   4.134   2.770   7.853 -1.0060 -0.5792  0.0937
 4419SOL     OW24892   0.317   2.902  12.110  0.0388  0.2664  0.2120
 4419SOL    HW124893   0.343   2.975  12.054  0.8819 -0.6024 -0.5211
 4419SOL    HW224894   0.228   2.876  12.087  0.6815 -1.0143 -0.8000
 4420SOL     OW24895   2.402   0.870   3.159 -0.2060 -0.1940 -0.0356
 4420SOL    HW124896   2.326   0.830   3.117  0.0757 -0.2847 -0.4588
 4420SOL    HW224897   2.445   0.914   3.086 -2.0619 -0.6128 -1.3870
 4421SOL     OW24898   2.123   2.100   0.421 -0.1728 -0.5690  0.7923
 4421SOL    HW124899   2.152   2.092   0.512  1.3561 -0.1152  0.3412
 4421SOL    HW224900   2.051   2.037   0.420  0.2887 -1.0542 -1.2296
 4422SOL     OW24901   0.689   2.445   6.664 -0.0377 -0.1885  0.0045
 4422SOL    HW124902   0.603   2.411   6.642  0.3772 -0.8470 -0.6305
 4422SOL    HW224903   0.727   2.373   6.715  0.3920  0.2830  0.3540
 4423SOL     OW24904   0.347   0.483   6.999  1.1401 -0.5827  0.8787
 4423SOL    HW124905   0.288   0.524   7.062  0.6382 -0.5108  0.3666
 4423SOL    HW224906   0.412   0.551   6.977 -1.3666  2.3926  2.6385
 4424SOL     OW24907   0.366   0.609  12.387  0.2263 -0.4731 -0.0791
 4424SOL    HW124908   0.458   0.631  12.372  0.3242 -0.1857  0.9385
 4424SOL    HW224909   0.330   0.697  12.398 -1.3097 -0.8483 -2.0591
 4425SOL     OW24910   0.065   3.229   7.938 -0.2964 -0.3520  0.1112
 4425SOL    HW124911   0.038   3.268   8.022 -1.5911  2.3854 -1.5633
 4425SOL    HW224912   0.142   3.186   7.975  0.0123  0.3929  0.3418
 4426SOL     OW24913   0.087   2.449  13.404  0.2495  0.0444  0.0403
 4426SOL    HW124914   0.092   2.537  13.442 -0.2547 -0.3393  1.0046
 4426SOL    HW224915   0.059   2.476  13.317 -1.2705  0.8300  0.7822
 4427SOL     OW24916   2.705   1.347   2.167 -0.5316 -0.0493  0.0261
 4427SOL    HW124917   2.688   1.274   2.107  2.1131 -0.4281 -0.2463
 4427SOL    HW224918   2.621   1.367   2.208  0.0049  2.5058 -0.1417
 4428SOL     OW24919   0.198   1.030   6.364  0.5080 -0.1604  0.1464
 4428SOL    HW124920   0.206   0.963   6.297 -1.5781 -0.7389  0.4636
 4428SOL    HW224921   0.195   1.112   6.315  0.8273  0.1389  0.6224
 4429SOL     OW24922   2.114   2.034   8.674 -0.0884 -0.3834  0.2845
 4429SOL    HW124923   2.161   2.093   8.615 -2.2753 -1.0257 -2.1398
 4429SOL    HW224924   2.149   2.053   8.760 -0.4119 -1.8024  0.7290
 4430SOL     OW24925   0.562   2.285   9.842  0.0878  0.3062 -0.1233
 4430SOL    HW124926   0.553   2.268   9.749  0.0454  0.8003 -0.2091
 4430SOL    HW224927   0.528   2.371   9.867  0.0759  0.5503 -1.0161
 4431SOL     OW24928   3.893   1.610   8.984  0.4845 -0.3328  0.0317
 4431SOL    HW124929   3.889   1.525   8.940 -0.1353 -1.0103  1.3806
 4431SOL    HW224930   3.835   1.660   8.926  2.2905  1.0598 -0.5762
 4432SOL     OW24931   1.808   2.430  15.754 -0.0944 -0.7403  0.2965
 4432SOL    HW124932   1.790   2.394  15.667 -2.0737  2.4628 -0.6615
 4432SOL    HW224933   1.781   2.522  15.746 -0.9464 -1.0474 -0.3841
 4433SOL     OW24934   0.443   2.654   7.649 -0.2770 -0.0014  0.3297
 4433SOL    HW124935   0.458   2.627   7.559  2.9277  1.2729  0.4889
 4433SOL    HW224936   0.521   2.623   7.695  0.4585 -0.1104 -1.0129
 4434SOL     OW24937   0.674   2.625   4.988  0.0079  0.1134  0.9488
 4434SOL    HW124938   0.678   2.587   4.900 -0.6884 -0.5547  1.2028
 4434SOL    HW224939   0.737   2.566   5.030  0.7165  0.4389  0.3307
 4435SOL     OW24940   3.643   3.481   2.813 -0.3929  0.3438  0.2987
 4435SOL    HW124941   3.679   3.538   2.745 -0.4208  0.2070  0.1674
 4435SOL    HW224942   3.705   3.408   2.810 -2.6221 -1.5377 -0.2898
 4436SOL     OW24943   3.660   1.309   7.923 -0.0247 -0.0862 -0.0653
 4436SOL    HW124944   3.564   1.308   7.926  0.0394 -1.8665  1.5265
 4436SOL    HW224945   3.676   1.295   7.829  2.2588 -0.7542  0.4392
 4437SOL     OW24946   1.998   2.495   3.459  0.0382  0.2728  0.0081
 4437SOL    HW124947   2.067   2.441   3.498  1.2545  0.5659 -1.7630
 4437SOL    HW224948   1.923   2.434   3.455  0.4016 -0.2017  0.3635
 4438SOL     OW24949   0.802   0.799   8.496 -0.8754 -0.1774  0.8148
 4438SOL    HW124950   0.811   0.732   8.428  0.9351  1.3573 -0.4682
 4438SOL    HW224951   0.863   0.768   8.563  1.0195  0.1312 -0.7601
 4439SOL     OW24952   0.958   4.100  16.008  0.0919  0.7050  0.1084
 4439SOL    HW124953   1.048   4.133  16.005 -0.3755  2.1575  2.1874
 4439SOL    HW224954   0.909   4.179  15.987 -1.5713  0.4722  3.0488
 4440SOL     OW24955   1.202   2.205   1.998  0.2355 -0.7036  0.1693
 4440SOL    HW124956   1.142   2.180   2.069  0.4076 -1.2974  0.1101
 4440SOL    HW224957   1.146   2.227   1.923  0.5481 -0.4102  0.0238
 4441SOL     OW24958   1.984   0.604   7.210  0.0016  0.2820  0.7720
 4441SOL    HW124959   1.902   0.605   7.259  0.9875  3.2349  2.3894
 4441SOL    HW224960   2.023   0.683   7.247  0.5684  0.1863  0.3746
 4442SOL     OW24961   3.719   4.235  12.685 -0.3070  0.3098  0.0162
 4442SOL    HW124962   3.765   4.311  12.722  1.3410  0.2976 -1.9969
 4442SOL    HW224963   3.793   4.175  12.687 -0.6233 -0.1315 -1.3482
 4443SOL     OW24964   4.067   3.355  11.920 -0.1414  0.3539 -0.2107
 4443SOL    HW124965   4.127   3.281  11.927 -0.3288  0.1163 -1.0281
 4443SOL    HW224966   4.093   3.416  11.988  0.2150 -0.1018  0.0579
 4444SOL     OW24967   0.476   4.092   8.121 -0.1571  0.4110 -0.0426
 4444SOL    HW124968   0.403   4.140   8.081 -1.9946 -1.7313  0.6965
 4444SOL    HW224969   0.430   4.050   8.194  0.4793  1.1538  0.7882
 4445SOL     OW24970   1.246   4.251  16.342 -0.0300  0.1230 -0.1731
 4445SOL    HW124971   1.319   4.230  16.284 -0.4796 -0.0904 -0.6729
 4445SOL    HW224972   1.225   4.171  16.390 -2.0082  0.6880 -0.1052
 4446SOL     OW24973   1.138   1.522   6.246  0.0153  0.3599 -0.1446
 4446SOL    HW124974   1.231   1.543   6.236  0.4743 -0.3674  2.7118
 4446SOL    HW224975   1.150   1.441   6.296  0.7113  0.3048 -0.3994
 4447SOL     OW24976   3.268   4.227   3.849 -0.2066  0.1708  0.2290
 4447SOL    HW124977   3.303   4.242   3.937 -0.2903  1.2568  0.0773
 4447SOL    HW224978   3.230   4.142   3.871  2.7740 -0.9054  1.2962
 4448SOL     OW24979   4.475   1.759   1.882  0.6005 -0.0461  0.9969
 4448SOL    HW124980   4.570   1.772   1.886  0.3758  1.4868  1.4459
 4448SOL    HW224981   4.458   1.848   1.850 -2.3768 -0.6523  0.9202
 4449SOL     OW24982   2.060   4.134   3.805  0.4326  0.4438  0.1026
 4449SOL    HW124983   1.990   4.198   3.788 -1.4180 -1.5268  0.2942
 4449SOL    HW224984   2.086   4.152   3.896 -0.3984  3.6366 -0.2944
 4450SOL     OW24985   4.459   4.610  12.336  0.2361  0.2722 -0.2048
 4450SOL    HW124986   4.523   4.551  12.378  2.0836  2.2317 -0.2708
 4450SOL    HW224987   4.386   4.549  12.342 -0.5935  1.2597 -0.4770
 4451SOL     OW24988   1.633   0.088  17.138  0.0445 -0.2147 -0.0096
 4451SOL    HW124989   1.643   0.031  17.061  2.0957  0.1323 -0.0009
 4451SOL    HW224990   1.540   0.082  17.160  0.0044  0.7658  0.0524
 4452SOL     OW24991   3.706   2.267  11.423  0.5362 -0.2531  0.0251
 4452SOL    HW124992   3.747   2.339  11.470  0.6237 -0.4872  0.3045
 4452SOL    HW224993   3.613   2.280  11.440  0.8324  2.1157 -0.1374
 4453SOL     OW24994   2.433   1.573   0.069 -0.2373  0.2265  0.2476
 4453SOL    HW124995   2.405   1.481   0.070 -0.3801  0.2683  0.0830
 4453SOL    HW224996   2.511   1.582   0.124 -0.3941  0.4593  0.4305
 4454SOL     OW24997   1.317   3.521  15.683 -0.2761  0.2048 -0.9111
 4454SOL    HW124998   1.372   3.558  15.614  0.0534 -0.4303 -0.9858
 4454SOL    HW224999   1.382   3.466  15.727 -0.9825  0.0929 -0.0103
 4455SOL     OW25000   3.142   0.256   4.796 -0.0774  0.8439  0.0162
 4455SOL    HW125001   3.129   0.350   4.801 -0.8442  0.7446 -0.1475
 4455SOL    HW225002   3.065   0.237   4.850 -1.3951  0.9489 -1.8061
 4456SOL     OW25003   1.941   4.585  15.054  0.0309 -0.1433  0.4478
 4456SOL    HW125004   1.873   4.652  15.060 -0.7390 -0.7721 -1.6161
 4456SOL    HW225005   1.934   4.550  15.143  0.4589  1.9804  1.3280
 4457SOL     OW25006   1.160   1.913   8.202 -1.1290 -0.5692  0.2861
 4457SOL    HW125007   1.187   1.970   8.130  1.6682  0.9841  2.5417
 4457SOL    HW225008   1.219   1.944   8.270 -1.9206 -0.4994  0.9404
 4458SOL     OW25009   0.816   4.405   5.011 -0.0157  0.5694 -0.2476
 4458SOL    HW125010   0.752   4.366   4.952  0.3234  0.0717 -0.2827
 4458SOL    HW225011   0.770   4.487   5.032  1.9567  1.1876  1.7320
 4459SOL     OW25012   0.498   1.679  11.668  0.1404  0.2638  0.2600
 4459SOL    HW125013   0.449   1.597  11.667 -0.0139  0.3538  0.3421
 4459SOL    HW225014   0.579   1.644  11.705  0.9553  3.9237  1.9467
 4460SOL     OW25015   1.268   4.499   7.098  0.1531  0.7602  0.0509
 4460SOL    HW125016   1.299   4.569   7.155  1.1134  0.1364  0.2885
 4460SOL    HW225017   1.197   4.547   7.055  0.7544  0.4848 -1.2381
 4461SOL     OW25018   0.608   0.481   9.102  0.5099  0.4775 -0.0290
 4461SOL    HW125019   0.536   0.517   9.154  1.3689  1.7335  0.3081
 4461SOL    HW225020   0.567   0.493   9.016 -0.6261  1.1423  0.5918
 4462SOL     OW25021   0.175   3.175   2.717 -0.4424 -0.2159  0.1771
 4462SOL    HW125022   0.234   3.154   2.790 -0.8840 -0.2379  0.5247
 4462SOL    HW225023   0.218   3.123   2.650  0.8911  1.0364  0.0509
 4463SOL     OW25024   1.536   3.954   5.959  0.4618  0.5541  0.4029
 4463SOL    HW125025   1.577   3.944   5.873  3.0512 -1.2094  1.8664
 4463SOL    HW225026   1.600   3.920   6.021  0.5493 -1.5277 -0.8228
 4464SOL     OW25027   4.335   0.723  14.220 -0.2592 -0.1079  0.8069
 4464SOL    HW125028   4.283   0.699  14.296 -0.1244 -0.7380  0.7044
 4464SOL    HW225029   4.387   0.642  14.213  1.9160  1.3534  0.1335
 4465SOL     OW25030   2.154   3.461  13.600  0.2968  0.0933 -0.5438
 4465SOL    HW125031   2.148   3.551  13.568 -2.2362 -1.0209 -3.1621
 4465SOL    HW225032   2.185   3.411  13.525  2.0173 -1.3344  1.0984
 4466SOL     OW25033   2.669   3.898   2.218 -0.0463 -0.0979 -0.3856
 4466SOL    HW125034   2.699   3.807   2.220  2.2103  0.6775  1.4443
 4466SOL    HW225035   2.754   3.942   2.223  0.2465 -0.6434 -0.4849
 4467SOL     OW25036   3.858   1.398   8.821 -0.0927  0.0299 -0.6356
 4467SOL    HW125037   3.873   1.428   8.731  1.2627 -1.0176 -0.7499
 4467SOL    HW225038   3.922   1.327   8.826 -1.4962 -1.0222  2.3874
 4468SOL     OW25039   1.580   1.788   7.464 -0.5546  0.1454  0.3514
 4468SOL    HW125040   1.541   1.810   7.380  0.0058  0.2666  0.1247
 4468SOL    HW225041   1.525   1.714   7.492 -2.6851  1.9162  0.8206
 4469SOL     OW25042   2.057   2.076   4.471  0.3242  0.0109 -0.1281
 4469SOL    HW125043   2.020   1.991   4.447  0.5785  0.3461 -1.6830
 4469SOL    HW225044   2.150   2.064   4.490  0.2436 -2.4727 -1.2894
 4470SOL     OW25045   3.043   0.650   3.333 -0.2880  0.5906  0.3048
 4470SOL    HW125046   3.101   0.692   3.270  0.3715 -1.5683 -0.5296
 4470SOL    HW225047   3.047   0.713   3.405 -0.3945 -0.0831  0.9013
 4471SOL     OW25048   1.207   1.099   6.124  0.0061  0.0749 -0.2507
 4471SOL    HW125049   1.234   1.110   6.215 -2.2940 -1.5895  0.6275
 4471SOL    HW225050   1.278   1.044   6.089 -0.6666 -1.3498  0.6214
 4472SOL     OW25051   0.564   1.721  17.667 -0.1661 -0.1285 -0.0366
 4472SOL    HW125052   0.481   1.678  17.689 -1.0165  2.1619  1.1916
 4472SOL    HW225053   0.618   1.714  17.745  0.1676 -0.1566 -0.2727
 4473SOL     OW25054   1.854   3.948   8.813  0.2038  0.1427 -0.0719
 4473SOL    HW125055   1.846   4.042   8.796  1.3760  0.1719 -0.4859
 4473SOL    HW225056   1.944   3.943   8.780  0.7980  0.8101  1.4820
 4474SOL     OW25057   0.477   2.928   4.886  0.0074  0.3090 -0.7420
 4474SOL    HW125058   0.469   2.851   4.830  0.1887 -0.4545  0.2804
 4474SOL    HW225059   0.487   2.997   4.820 -0.3087  0.6804 -0.4044
 4475SOL     OW25060   4.353   0.156  13.521  0.0878 -0.0509  0.5292
 4475SOL    HW125061   4.331   0.196  13.605 -0.7982  1.3359 -0.3532
 4475SOL    HW225062   4.399   0.080  13.557 -1.7870 -0.9318  1.0586
 4476SOL     OW25063   3.894   2.232   5.472 -0.2990 -0.2198 -0.0028
 4476SOL    HW125064   3.811   2.214   5.426  0.5639  1.1025 -2.0569
 4476SOL    HW225065   3.954   2.167   5.436 -0.7526 -0.7766  0.2368
 4477SOL     OW25066   4.733   0.236   7.194  0.8373  0.1075  0.2465
 4477SOL    HW125067   0.011   0.252   7.101 -2.6374 -1.2707 -0.6170
 4477SOL    HW225068   4.739   0.141   7.202 -2.2781 -0.2612 -1.7948
 4478SOL     OW25069   0.521   0.728   6.365 -0.2030 -0.1759  0.1697
 4478SOL    HW125070   0.523   0.649   6.311 -0.1337 -1.1926  1.6662
 4478SOL    HW225071   0.615   0.745   6.374 -0.1363  0.0788 -0.9779
 4479SOL     OW25072   2.785   3.068   7.420  0.0474 -0.2173  0.1310
 4479SOL    HW125073   2.762   3.011   7.347 -0.4978  1.3791 -0.9422
 4479SOL    HW225074   2.775   3.012   7.497  0.2925 -1.6908 -0.9118
 4480SOL     OW25075   1.309   4.162   7.525 -0.1143 -0.0121 -0.6782
 4480SOL    HW125076   1.253   4.217   7.471  1.5372 -0.2336 -2.5900
 4480SOL    HW225077   1.398   4.183   7.497 -0.3516 -1.0298 -2.2045
 4481SOL     OW25078   0.543   1.494   9.121  0.4878  0.3457 -0.5054
 4481SOL    HW125079   0.563   1.424   9.184  2.6719  2.5073  1.2038
 4481SOL    HW225080   0.597   1.562   9.162  0.4142 -0.1253  0.3714
 4482SOL     OW25081   0.795   0.245   2.083  0.8376 -0.1188 -0.7478
 4482SOL    HW125082   0.810   0.335   2.111  2.4044 -0.9096  0.9084
 4482SOL    HW225083   0.700   0.250   2.098  1.0785  1.6172  0.1236
 4483SOL     OW25084   1.172   0.952   5.377  0.0117  0.1150  0.4719
 4483SOL    HW125085   1.217   0.888   5.433  0.9747  0.2612 -0.1230
 4483SOL    HW225086   1.235   1.024   5.377  2.7835 -2.3061 -0.6483
 4484SOL     OW25087   1.934   3.671   4.727  0.0718  0.6896  0.0697
 4484SOL    HW125088   1.852   3.630   4.755  0.7714 -1.0501 -0.4053
 4484SOL    HW225089   1.930   3.670   4.631  1.0468 -0.2677  0.0330
 4485SOL     OW25090   0.127   2.213   5.046 -0.2322 -0.1390  0.8681
 4485SOL    HW125091   0.175   2.155   4.986  0.0044  1.2462 -0.2758
 4485SOL    HW225092   0.187   2.213   5.120 -1.6640  1.9914  2.0460
 4486SOL     OW25093   0.083   3.657   9.419 -0.3399 -0.8538  0.5857
 4486SOL    HW125094   0.034   3.715   9.478  1.3293  1.1308  0.0533
 4486SOL    HW225095   0.141   3.616   9.484  0.5186  0.0054  0.3710
 4487SOL     OW25096   3.766   3.446   9.969  0.6449 -0.0208  0.1638
 4487SOL    HW125097   3.779   3.355   9.944  0.1408 -0.2763  0.8158
 4487SOL    HW225098   3.713   3.431  10.048  0.8711  1.3833  0.5795
 4488SOL     OW25099   3.001   0.349   7.232  0.5083 -0.1908 -0.5718
 4488SOL    HW125100   2.977   0.308   7.316 -0.5712  0.4521 -0.5631
 4488SOL    HW225101   2.957   0.433   7.246 -0.2505 -0.8271  0.8917
 4489SOL     OW25102   4.434   0.720   6.229 -0.6208 -0.4217 -0.1310
 4489SOL    HW125103   4.341   0.698   6.234 -0.3964 -1.4325 -0.4583
 4489SOL    HW225104   4.445   0.805   6.272  1.4705 -0.6313 -0.2765
 4490SOL     OW25105   4.167   1.308   4.396  0.2013 -0.7483  0.5657
 4490SOL    HW125106   4.121   1.356   4.327 -0.5964 -2.7777 -0.3064
 4490SOL    HW225107   4.108   1.319   4.471  1.4278 -0.1431  1.4351
 4491SOL     OW25108   3.669   2.879   6.985  0.4365  0.2341 -0.2737
 4491SOL    HW125109   3.628   2.808   6.936 -0.4425 -0.5813  1.6493
 4491SOL    HW225110   3.674   2.850   7.075 -0.1303  0.3621 -0.1959
 4492SOL     OW25111   2.827   1.310  13.151 -0.0541 -0.0199 -0.1918
 4492SOL    HW125112   2.908   1.276  13.190 -0.2496  0.7582  0.8892
 4492SOL    HW225113   2.789   1.227  13.124 -3.1159  1.5302 -0.5984
 4493SOL     OW25114   1.535   3.619   7.272 -0.0753  0.2577  0.0698
 4493SOL    HW125115   1.440   3.614   7.258 -0.0416 -2.6662  0.9629
 4493SOL    HW225116   1.571   3.626   7.183 -1.0620  3.2193 -0.0931
 4494SOL     OW25117   3.526   1.737  15.397 -0.2295  0.5218  0.8876
 4494SOL    HW125118   3.508   1.682  15.322 -0.5529  1.5256  0.2268
 4494SOL    HW225119   3.478   1.818  15.381  1.3323  1.0326 -1.2337
 4495SOL     OW25120   4.207   4.704   4.741 -0.0439 -0.2657 -0.6201
 4495SOL    HW125121   4.142   4.666   4.801  0.8102  0.2036  0.6048
 4495SOL    HW225122   4.183   0.056   4.728  2.2283  0.4077 -0.0594
 4496SOL     OW25123   2.732   4.152  12.243 -0.3467 -0.3420  0.1471
 4496SOL    HW125124   2.673   4.226  12.258 -2.5099 -2.7089  3.1843
 4496SOL    HW225125   2.706   4.126  12.155  1.0421 -2.1300  0.2744
 4497SOL     OW25126   4.131   3.579  17.008  0.0080  0.2528  0.2104
 4497SOL    HW125127   4.125   3.620  17.095 -0.7447 -0.7940  0.6557
 4497SOL    HW225128   4.039   3.557  16.989  0.8045 -2.0120 -1.0216
 4498SOL     OW25129   0.763   3.292  12.808  0.2082 -0.0173  0.2212
 4498SOL    HW125130   0.819   3.260  12.738 -0.8632 -0.3633 -0.4805
 4498SOL    HW225131   0.715   3.213  12.832 -0.3496  0.2784  0.0747
 4499SOL     OW25132   2.625   3.986  15.859 -0.0837  0.0566  0.0137
 4499SOL    HW125133   2.644   4.031  15.941  0.6099 -0.8789  0.3605
 4499SOL    HW225134   2.555   4.044  15.828  1.5147  1.7799 -0.3944
 4500SOL     OW25135   1.016   4.283  12.841 -0.1491  0.0567 -0.1108
 4500SOL    HW125136   0.932   4.243  12.819 -1.2266  1.9074  0.6083
 4500SOL    HW225137   1.057   4.208  12.799  0.6001 -0.8382  2.2287
 4501SOL     OW25138   3.840   0.877   6.578  0.6528 -0.3493 -0.5990
 4501SOL    HW125139   3.907   0.938   6.608 -0.0109  0.2148 -0.2572
 4501SOL    HW225140   3.792   0.862   6.660 -0.9900  1.3331 -1.2615
 4502SOL     OW25141   3.478   2.108   8.547  0.1367  0.1382  0.2028
 4502SOL    HW125142   3.411   2.130   8.482  1.5295 -1.2070 -1.6861
 4502SOL    HW225143   3.515   2.030   8.506  1.0175  0.1666  0.9221
 4503SOL     OW25144   4.623   4.235   2.797  0.4588 -0.0338  0.2185
 4503SOL    HW125145   4.687   4.166   2.816 -0.3829 -1.0841 -0.7200
 4503SOL    HW225146   4.656   4.264   2.712  2.5004  0.6709  1.2587
 4504SOL     OW25147   1.106   3.813  16.360  0.0503 -0.2753 -0.3433
 4504SOL    HW125148   1.096   3.719  16.375 -0.0129 -0.1814  0.1752
 4504SOL    HW225149   1.192   3.815  16.318 -0.1356  0.1659 -0.7109
 4505SOL     OW25150   2.840   3.504   5.478  0.1744 -0.3131  0.0795
 4505SOL    HW125151   2.922   3.536   5.442 -0.0567  1.1482  0.8782
 4505SOL    HW225152   2.862   3.410   5.483  0.8901 -0.1586 -0.1443
 4506SOL     OW25153   2.331   4.485   7.208  0.2375 -0.3179 -0.3603
 4506SOL    HW125154   2.275   4.562   7.217  1.3691  0.3198  1.1166
 4506SOL    HW225155   2.279   4.412   7.243 -0.9680  1.2293  1.0834
 4507SOL     OW25156   2.384   4.451  14.586 -0.1881  0.6170 -0.3265
 4507SOL    HW125157   2.472   4.466  14.550 -0.2552  0.4881 -0.5452
 4507SOL    HW225158   2.389   4.462  14.680  1.3132 -1.5848 -0.1518
 4508SOL     OW25159   1.155   2.192   7.671  0.2441  0.5736 -0.1580
 4508SOL    HW125160   1.200   2.275   7.684  2.1483 -0.3512 -0.8756
 4508SOL    HW225161   1.228   2.142   7.634  0.5240 -0.1169  1.3570
 4509SOL     OW25162   0.538   0.376   8.327  0.1677 -0.0236 -0.0406
 4509SOL    HW125163   0.587   0.298   8.303 -0.4168 -0.0392 -1.1968
 4509SOL    HW225164   0.576   0.445   8.272  0.0220 -0.6902 -0.9755
 4510SOL     OW25165   3.825   0.792  15.220  0.6072 -0.4706 -0.6327
 4510SOL    HW125166   3.908   0.838  15.229  0.0822  0.5490 -0.8926
 4510SOL    HW225167   3.853   0.723  15.160 -0.0964 -1.9853  0.7710
 4511SOL     OW25168   2.142   1.167   8.378 -0.7041 -0.0641 -0.7459
 4511SOL    HW125169   2.226   1.167   8.424 -0.3079 -1.3427 -1.4722
 4511SOL    HW225170   2.078   1.131   8.439  1.1405 -0.3065  1.0075
 4512SOL     OW25171   2.878   1.371   2.502  0.4391  0.9654 -0.3575
 4512SOL    HW125172   2.840   1.450   2.465 -0.7286  0.4611 -0.2241
 4512SOL    HW225173   2.969   1.401   2.508  1.3003 -2.0643  1.6659
 4513SOL     OW25174   4.418   2.737   2.872  0.2419 -0.4903  0.2951
 4513SOL    HW125175   4.448   2.695   2.953  0.7043  0.0456  0.3976
 4513SOL    HW225176   4.442   2.828   2.888 -2.2740  0.4757 -1.5168
 4514SOL     OW25177   3.389   3.867   9.061  0.1723  0.4287 -0.2481
 4514SOL    HW125178   3.307   3.820   9.077  0.6099  0.5932  2.5803
 4514SOL    HW225179   3.359   3.943   9.013  2.0782  1.1651 -0.2792
 4515SOL     OW25180   4.162   4.144   9.175 -0.5795  0.2420 -0.1780
 4515SOL    HW125181   4.134   4.101   9.094  2.5381 -0.8628 -0.6440
 4515SOL    HW225182   4.220   4.212   9.141  1.3577 -0.2211  2.1925
 4516SOL     OW25183   4.672   1.523   4.654  0.1752 -0.2646 -0.2053
 4516SOL    HW125184   4.603   1.493   4.595 -0.5640 -1.2516  1.1731
 4516SOL    HW225185   4.644   1.481   4.736 -1.6553  3.7163  1.1570
 4517SOL     OW25186   3.709   1.983   9.224  0.2929  0.6511  0.3694
 4517SOL    HW125187   3.795   1.985   9.265  0.8415 -1.9545 -0.6685
 4517SOL    HW225188   3.734   2.007   9.135  1.6575  0.7852  0.7863
 4518SOL     OW25189   4.235   1.036  16.681 -0.2084 -0.2936  0.8174
 4518SOL    HW125190   4.269   1.028  16.770 -0.5812  2.0167  1.1699
 4518SOL    HW225191   4.269   0.957  16.640  0.5337 -0.3253  1.5002
 4519SOL     OW25192   4.535   1.552  17.517  0.0788 -0.1502  0.0688
 4519SOL    HW125193   4.524   1.460  17.541 -0.5980 -0.0300  0.2300
 4519SOL    HW225194   4.537   1.593  17.604 -0.4887  3.2515 -1.5080
 4520SOL     OW25195   4.487   4.369  14.106 -0.6803 -0.7658 -0.8242
 4520SOL    HW125196   4.501   4.348  14.199 -1.1127 -1.6241 -0.9551
 4520SOL    HW225197   4.519   4.290  14.062 -0.7569  0.1147 -2.4331
 4521SOL     OW25198   2.038   1.840   6.615 -0.6045  1.0490  0.5522
 4521SOL    HW125199   1.964   1.897   6.594 -1.4419 -0.1317  0.2937
 4521SOL    HW225200   2.102   1.910   6.628  1.2990 -0.7277  0.6297
 4522SOL     OW25201   2.151   4.424  14.817  0.0369 -0.7263 -0.2578
 4522SOL    HW125202   2.132   4.453  14.728 -0.5882 -1.3569 -0.3347
 4522SOL    HW225203   2.091   4.349  14.819 -0.8792 -0.0318 -1.7550
 4523SOL     OW25204   4.066   4.732   3.745  0.3504 -0.1869  0.2676
 4523SOL    HW125205   3.984   4.684   3.732  0.5723 -0.5311  0.1265
 4523SOL    HW225206   4.061   0.038   3.829  0.8975  0.3981 -0.0150
 4524SOL     OW25207   2.146   0.443   8.698  0.9233  0.3857 -0.4826
 4524SOL    HW125208   2.228   0.396   8.687 -1.0816 -3.4000  0.7813
 4524SOL    HW225209   2.156   0.504   8.624  2.5813 -0.5889 -1.0586
 4525SOL     OW25210   1.952   1.864   3.364  0.2993  0.0641 -0.1100
 4525SOL    HW125211   1.991   1.882   3.279  0.2957  2.7299  0.4545
 4525SOL    HW225212   1.991   1.777   3.377  0.4145 -0.3569 -3.2354
 4526SOL     OW25213   1.432   0.691   3.510  0.2780  0.5688 -0.1022
 4526SOL    HW125214   1.459   0.683   3.601 -0.3030 -0.1943 -0.0063
 4526SOL    HW225215   1.517   0.698   3.466  0.7216 -2.6283  0.3048
 4527SOL     OW25216   0.025   0.500   5.384 -0.1953 -0.3613 -0.6968
 4527SOL    HW125217   4.733   0.440   5.316 -0.1348  0.4299 -1.4229
 4527SOL    HW225218   0.098   0.455   5.425 -0.9133 -1.0648 -0.2017
 4528SOL     OW25219   3.246   3.098   6.279  0.6710 -0.1778  0.1432
 4528SOL    HW125220   3.327   3.115   6.326  2.1167 -2.3748 -1.5707
 4528SOL    HW225221   3.185   3.140   6.339 -0.3862  0.6728 -1.5174
 4529SOL     OW25222   1.547   4.403  15.260 -0.4066 -0.3539 -0.3447
 4529SOL    HW125223   1.577   4.335  15.320  1.7805  2.7589  2.0653
 4529SOL    HW225224   1.533   4.350  15.181  0.8044 -0.1263 -0.7198
 4530SOL     OW25225   2.533   1.264   2.487 -0.1713  0.0294 -0.1456
 4530SOL    HW125226   2.533   1.202   2.414 -0.0168 -1.0493  0.7558
 4530SOL    HW225227   2.530   1.349   2.445 -2.2168  0.0044 -0.0747
 4531SOL     OW25228   3.399   4.466   2.099  0.1910 -0.6021  0.4011
 4531SOL    HW125229   3.403   4.427   2.187 -0.7508 -0.3698  0.5438
 4531SOL    HW225230   3.476   4.524   2.099 -0.3519  0.1194 -0.4130
 4532SOL     OW25231   3.864   1.581   1.904  0.2520  0.2691  0.6772
 4532SOL    HW125232   3.806   1.533   1.963 -3.4132  0.4317 -2.7617
 4532SOL    HW225233   3.813   1.662   1.896  1.0373  0.8641  1.7214
 4533SOL     OW25234   4.165   1.283   7.295 -0.5083  0.0459  0.9463
 4533SOL    HW125235   4.087   1.295   7.349 -1.2537  2.1582 -0.5675
 4533SOL    HW225236   4.195   1.373   7.306  0.2503 -0.2502  1.2813
 4534SOL     OW25237   3.884   2.487   3.815 -0.0042 -0.6445 -0.3770
 4534SOL    HW125238   3.795   2.452   3.804 -0.3606  0.0493  0.1977
 4534SOL    HW225239   3.896   2.495   3.910 -1.4409  0.5253 -0.2787
 4535SOL     OW25240   2.040   2.474  14.330 -0.0709  0.5274 -0.0690
 4535SOL    HW125241   1.959   2.426  14.349 -0.2967  1.1820  0.5949
 4535SOL    HW225242   2.069   2.485  14.420 -0.5458 -1.4838  0.3492
 4536SOL     OW25243   1.354   3.812   6.873 -0.3941  0.7906  0.0582
 4536SOL    HW125244   1.374   3.884   6.814 -0.6102  0.6406 -0.1946
 4536SOL    HW225245   1.348   3.861   6.955  0.4680 -0.8468  1.0985
 4537SOL     OW25246   2.935   0.851   8.615  0.1468  0.0635 -0.7311
 4537SOL    HW125247   2.942   0.946   8.626  2.3705 -0.0958 -0.7930
 4537SOL    HW225248   2.972   0.822   8.698  1.3606 -1.9074 -1.9466
 4538SOL     OW25249   1.336   4.189  13.698 -0.1803 -0.0726 -0.1449
 4538SOL    HW125250   1.422   4.213  13.662  0.4423 -1.1744  0.6125
 4538SOL    HW225251   1.323   4.107  13.651  1.9578  0.4140 -1.6031
 4539SOL     OW25252   1.416   4.283   2.598 -0.4935 -0.0378  0.2828
 4539SOL    HW125253   1.478   4.286   2.525 -1.0974 -0.5800 -0.2512
 4539SOL    HW225254   1.463   4.235   2.667 -0.8601 -0.7550  0.0299
 4540SOL     OW25255   2.511   0.644   5.611  0.2365  0.1387 -0.1166
 4540SOL    HW125256   2.523   0.736   5.587 -2.0834  0.2597 -0.8482
 4540SOL    HW225257   2.530   0.612   5.523  2.7535 -0.8642  0.7976
 4541SOL     OW25258   1.405   0.163   2.983 -0.0491  0.9037 -0.1866
 4541SOL    HW125259   1.379   0.255   2.971 -0.5117  0.5734 -1.6610
 4541SOL    HW225260   1.372   0.133   2.899 -1.2996 -0.6579  0.8797
 4542SOL     OW25261   1.055   0.700   3.999  0.6196 -0.1765  0.2171
 4542SOL    HW125262   1.036   0.655   4.081  0.0710 -1.0112 -0.3703
 4542SOL    HW225263   0.974   0.742   3.971  1.7940  1.5489 -0.5863
 4543SOL     OW25264   2.141   1.251   4.388  0.2656 -0.2588 -0.2985
 4543SOL    HW125265   2.134   1.193   4.464 -0.6755  2.5960  1.8001
 4543SOL    HW225266   2.104   1.334   4.417 -1.4683 -2.0377  2.5223
 4544SOL     OW25267   1.115   1.895   6.152 -0.0821 -0.3404 -0.4904
 4544SOL    HW125268   1.092   1.806   6.127  0.6756 -0.4221 -0.8914
 4544SOL    HW225269   1.139   1.939   6.070 -3.7016  1.4054 -0.6429
 4545SOL     OW25270   4.641   0.017  15.239 -0.3193  0.7517 -0.3323
 4545SOL    HW125271   4.673   0.103  15.269  1.1551 -0.2893  1.1247
 4545SOL    HW225272   4.550   0.029  15.265  0.5793  0.1389  3.0759
 4546SOL     OW25273   4.360   2.220   3.376 -0.4192  0.2772  0.5912
 4546SOL    HW125274   4.294   2.161   3.339  0.4695 -0.8261  0.7594
 4546SOL    HW225275   4.375   2.185   3.464 -0.8914  0.9090  0.9208
 4547SOL     OW25276   4.518   2.528   5.141 -0.0900 -0.5461 -0.1709
 4547SOL    HW125277   4.595   2.477   5.116  0.5712  0.4007 -0.0815
 4547SOL    HW225278   4.463   2.461   5.182 -1.8924  0.4091 -1.0305
 4548SOL     OW25279   0.717   2.411   7.974  0.2891 -0.1247 -0.6273
 4548SOL    HW125280   0.804   2.373   7.991 -0.6042 -2.1800 -0.6602
 4548SOL    HW225281   0.663   2.362   8.036  1.9532 -2.0192 -0.6646
 4549SOL     OW25282   0.960   1.911  17.710  0.8044  0.2721  0.0049
 4549SOL    HW125283   0.941   2.002  17.735  0.0330  0.2331 -0.4084
 4549SOL    HW225284   1.053   1.898  17.728  1.4506  2.3942 -1.7231
 4550SOL     OW25285   1.327   2.468   6.641 -0.1578  0.3183 -0.1645
 4550SOL    HW125286   1.384   2.545   6.635  1.4093 -0.9446 -1.7878
 4550SOL    HW225287   1.318   2.432   6.553  1.0370 -0.8965  0.2095
 4551SOL     OW25288   3.388   2.286  12.189  0.0611 -0.0206  0.2302
 4551SOL    HW125289   3.420   2.312  12.103 -1.1744 -0.9854 -0.5256
 4551SOL    HW225290   3.350   2.199  12.178 -3.3059  1.4746 -0.2188
 4552SOL     OW25291   4.069   2.462   5.249  0.3995  0.7265  0.0427
 4552SOL    HW125292   4.058   2.448   5.155  1.3734 -2.8222  0.4679
 4552SOL    HW225293   4.156   2.422   5.257  0.8077  1.2692 -1.7775
 4553SOL     OW25294   0.164   4.485   8.936  0.3934  0.9524  0.1569
 4553SOL    HW125295   0.185   4.413   8.876 -1.4014 -0.6534  1.4618
 4553SOL    HW225296   0.130   4.551   8.875  0.0416  2.1345  1.6219
 4554SOL     OW25297   2.598   4.017   5.594 -0.2322  0.3023 -0.6983
 4554SOL    HW125298   2.624   4.109   5.584  2.2842 -0.3527 -0.3476
 4554SOL    HW225299   2.677   3.975   5.630  0.1266  1.3386 -0.2699
 4555SOL     OW25300   3.448   0.129   9.044 -0.2692  0.4230 -0.4027
 4555SOL    HW125301   3.358   0.153   9.024  0.2333  2.5240 -0.1636
 4555SOL    HW225302   3.491   0.177   8.973  0.0205 -0.4513 -0.8150
 4556SOL     OW25303   2.899   4.402   8.494  0.0697 -0.8329 -0.3325
 4556SOL    HW125304   2.929   4.312   8.500  1.5761 -0.2869  0.3637
 4556SOL    HW225305   2.969   4.453   8.535 -1.5649  1.5285 -0.4283
 4557SOL     OW25306   2.181   3.123   3.746  0.2654  0.0595  0.0789
 4557SOL    HW125307   2.090   3.154   3.740 -0.1559 -0.9607  1.0991
 4557SOL    HW225308   2.233   3.199   3.721  0.7449 -0.3100 -0.0416
 4558SOL     OW25309   4.635   4.730   8.427 -0.0203  0.1646  0.2333
 4558SOL    HW125310   4.609   0.080   8.447 -0.2437  0.1479  0.0189
 4558SOL    HW225311   4.587   4.714   8.346 -0.3773  1.4696  0.1889
 4559SOL     OW25312   1.290   0.783   0.138  0.5423  0.1699 -0.3659
 4559SOL    HW125313   1.225   0.849   0.163  1.1994  1.9436 -3.3391
 4559SOL    HW225314   1.232   0.709   0.117  1.8231 -0.8261 -0.3456
 4560SOL     OW25315   3.402   2.194   8.796 -0.2585 -0.1292  0.3208
 4560SOL    HW125316   3.417   2.210   8.703 -0.0287  1.4091  0.6219
 4560SOL    HW225317   3.441   2.109   8.814  0.2301 -0.5115 -2.5436
 4561SOL     OW25318   3.710   0.204   2.325 -0.4477  0.1223 -0.0949
 4561SOL    HW125319   3.736   0.184   2.415 -1.2738 -1.0851 -0.1337
 4561SOL    HW225320   3.653   0.279   2.339 -0.8599 -0.5950  2.0518
 4562SOL     OW25321   3.305   4.583   4.899  0.5251 -0.6317 -0.4841
 4562SOL    HW125322   3.301   4.551   4.989 -0.4209  2.8636  0.6973
 4562SOL    HW225323   3.380   4.643   4.902 -0.7109  0.8581  0.7425
 4563SOL     OW25324   3.382   0.197   3.042  0.2277 -0.5273 -0.1606
 4563SOL    HW125325   3.435   0.133   2.995 -0.4543  0.3218 -2.1157
 4563SOL    HW225326   3.320   0.231   2.977  0.0635 -1.3595 -0.4408
 4564SOL     OW25327   4.329   4.001  12.934 -0.1875  0.2286 -0.0755
 4564SOL    HW125328   4.274   4.049  12.872 -1.0581 -1.9573 -0.9740
 4564SOL    HW225329   4.359   4.077  12.985  3.3029 -0.6139 -0.8378
 4565SOL     OW25330   4.205   3.458  15.319 -0.4178 -0.0237 -0.6235
 4565SOL    HW125331   4.256   3.538  15.330  1.1698 -0.9019 -1.6520
 4565SOL    HW225332   4.122   3.489  15.356  0.1477  1.4705 -0.6326
 4566SOL     OW25333   1.676   1.881   5.034 -0.6845 -0.4881  0.4765
 4566SOL    HW125334   1.767   1.852   5.025 -1.1077 -1.9365  0.8973
 4566SOL    HW225335   1.669   1.948   4.966 -1.7055  0.5417  1.6119
 4567SOL     OW25336   0.577   2.458   2.874  0.2004 -0.5180  0.3560
 4567SOL    HW125337   0.533   2.402   2.810  1.3150 -4.1455  2.7784
 4567SOL    HW225338   0.667   2.426   2.869  0.4442  0.2774 -0.4068
 4568SOL     OW25339   4.235   2.585   8.448  0.6003  0.0408  0.7803
 4568SOL    HW125340   4.199   2.604   8.361 -0.0223 -0.0189  1.0231
 4568SOL    HW225341   4.249   2.490   8.446  0.7616  0.0435  2.0953
 4569SOL     OW25342   3.648   0.894  13.960 -0.0711 -0.2244  0.2995
 4569SOL    HW125343   3.608   0.966  13.912 -0.7468  0.2104  1.5144
 4569SOL    HW225344   3.702   0.941  14.024 -0.2756  0.3000  0.0830
 4570SOL     OW25345   1.500   0.309   2.428  0.5357 -0.1654 -0.6028
 4570SOL    HW125346   1.558   0.384   2.414 -2.7254  2.2717 -0.9620
 4570SOL    HW225347   1.428   0.323   2.367  0.0939 -0.5703 -0.1782
 4571SOL     OW25348   2.627   4.391   7.779  0.0866 -0.5002 -0.4174
 4571SOL    HW125349   2.575   4.338   7.840 -0.1777  0.2972  0.0441
 4571SOL    HW225350   2.713   4.351   7.793 -0.0218 -0.8674 -0.7669
 4572SOL     OW25351   3.321   1.097   2.097  0.0561 -0.0839  0.0141
 4572SOL    HW125352   3.410   1.129   2.083 -0.2704  1.1409  0.7125
 4572SOL    HW225353   3.273   1.178   2.114 -0.8855 -1.0295  1.8947
 4573SOL     OW25354   3.084   3.263   3.874  0.3931 -0.2172 -0.0122
 4573SOL    HW125355   3.076   3.181   3.924  0.2465 -1.6901 -2.4298
 4573SOL    HW225356   3.100   3.325   3.945 -2.0157  0.0230  0.3379
 4574SOL     OW25357   0.823   0.012   8.572 -0.0680 -0.3252  0.5125
 4574SOL    HW125358   0.782   4.722   8.491  0.2334  0.8192 -0.0658
 4574SOL    HW225359   0.906   0.044   8.536 -0.2053  1.0003  1.3448
 4575SOL     OW25360   3.341   0.497   8.332 -0.0704  0.1275  0.7009
 4575SOL    HW125361   3.294   0.513   8.413 -0.2256 -1.8802  0.9979
 4575SOL    HW225362   3.367   0.579   8.289  2.0411 -0.9358 -0.0791
 4576SOL     OW25363   3.566   2.686   4.621  0.5557 -0.5678  0.1733
 4576SOL    HW125364   3.527   2.694   4.708 -1.0265 -2.5672 -0.3428
 4576SOL    HW225365   3.656   2.677   4.653  0.8840  4.4432  0.5542
 4577SOL     OW25366   2.988   2.038   5.447  0.9575 -0.7068  0.1136
 4577SOL    HW125367   2.934   2.073   5.376  3.2709  0.8292 -0.9154
 4577SOL    HW225368   3.066   2.015   5.396  1.0858 -0.1879  0.0669
 4578SOL     OW25369   0.133   4.384  12.898 -0.1652 -0.3498  0.5502
 4578SOL    HW125370   0.161   4.327  12.970  0.7901 -1.1255 -0.4337
 4578SOL    HW225371   0.135   4.470  12.940  0.5671  0.6909 -1.6275
 4579SOL     OW25372   0.894   2.734   8.293 -0.3718 -0.4718 -0.8191
 4579SOL    HW125373   0.835   2.773   8.358 -0.2869  1.9641 -2.2054
 4579SOL    HW225374   0.876   2.795   8.221 -0.4682  0.2429 -0.1956
 4580SOL     OW25375   1.251   4.576   7.460 -0.0447  0.0391  0.5619
 4580SOL    HW125376   1.208   4.639   7.516 -0.7466  0.0304  0.0384
 4580SOL    HW225377   1.278   4.632   7.387 -0.3980  0.0772  0.4606
 4581SOL     OW25378   2.745   4.713   4.215 -0.0388  0.0600  0.2884
 4581SOL    HW125379   2.798   0.009   4.144 -1.1035 -0.3822 -0.7283
 4581SOL    HW225380   2.661   0.006   4.182  0.6167  1.0447 -0.4254
 4582SOL     OW25381   1.404   2.961  15.561  0.2216 -0.6884 -0.3378
 4582SOL    HW125382   1.387   2.930  15.650 -0.0237 -0.5140 -0.3264
 4582SOL    HW225383   1.322   3.008  15.554  0.8177  0.5403  1.1742
 4583SOL     OW25384   4.599   3.669   0.051 -0.2591 -0.1469  0.1468
 4583SOL    HW125385   4.675   3.717   0.018 -0.5631 -1.2218 -2.0570
 4583SOL    HW225386   4.593   3.705   0.140  0.0116  1.6997 -0.5749
 4584SOL     OW25387   1.812   1.130   1.792 -0.3722  0.1687  0.0662
 4584SOL    HW125388   1.777   1.134   1.703  0.9692 -0.1639 -0.4823
 4584SOL    HW225389   1.872   1.056   1.785 -0.5841 -0.2390  2.4549
 4585SOL     OW25390   3.543   1.455   5.723 -0.2399  1.0289 -0.2648
 4585SOL    HW125391   3.523   1.544   5.754  1.3187  0.5067  2.1979
 4585SOL    HW225392   3.637   1.452   5.739  0.4405  1.1976 -4.2266
 4586SOL     OW25393   0.776   1.356  17.491 -0.1587 -0.1315  0.1385
 4586SOL    HW125394   0.733   1.383  17.410  0.3007 -1.6869 -0.6409
 4586SOL    HW225395   0.707   1.314  17.542 -0.9186  0.1417 -0.6625
 4587SOL     OW25396   3.939   4.655   7.783 -0.0881 -0.4681 -0.4430
 4587SOL    HW125397   3.948   4.593   7.711  1.0497 -0.3854 -0.3614
 4587SOL    HW225398   3.965   4.734   7.735 -0.1237 -1.5257 -2.1858
 4588SOL     OW25399   3.254   2.330  11.669 -0.0635 -0.3411  0.7818
 4588SOL    HW125400   3.212   2.406  11.630  0.4808  1.1884  3.1931
 4588SOL    HW225401   3.329   2.321  11.611  0.1171  0.3830  0.9056
 4589SOL     OW25402   0.419   3.770  10.485 -0.1725  0.1285 -0.1807
 4589SOL    HW125403   0.506   3.753  10.450  0.1208  1.6654 -0.2068
 4589SOL    HW225404   0.375   3.759  10.401  3.4009 -2.1294 -1.7319
 4590SOL     OW25405   1.714   2.185   4.520  0.0050 -0.0621  0.7580
 4590SOL    HW125406   1.793   2.237   4.505 -1.1361  1.6862  0.8096
 4590SOL    HW225407   1.756   2.099   4.507 -0.5137 -0.1452 -0.3737
 4591SOL     OW25408   3.961   0.976   6.893 -0.4908 -0.1754  0.4631
 4591SOL    HW125409   3.876   1.008   6.863 -0.4233 -1.9777 -1.6810
 4591SOL    HW225410   3.963   0.986   6.988 -2.1954 -1.8707  0.6649
 4592SOL     OW25411   0.762   1.436  17.185  0.5819 -0.7532 -0.3232
 4592SOL    HW125412   0.845   1.403  17.219  2.1363  2.8805 -0.5928
 4592SOL    HW225413   0.788   1.485  17.107 -0.1849 -0.3376 -0.3182
 4593SOL     OW25414   3.704   2.226   5.275 -0.2327 -0.3415 -0.1601
 4593SOL    HW125415   3.751   2.298   5.233 -0.8787  0.6155  0.7410
 4593SOL    HW225416   3.635   2.284   5.309 -0.6897 -1.4381  0.7713
 4594SOL     OW25417   0.304   4.572   6.545  0.3172 -0.0110 -0.3821
 4594SOL    HW125418   0.300   4.662   6.513  2.7564  0.7412  1.4510
 4594SOL    HW225419   0.353   4.526   6.476  1.4337  1.0622 -0.2943
 4595SOL     OW25420   0.063   2.550   2.780 -0.7905  0.4975  0.2437
 4595SOL    HW125421   0.100   2.635   2.806  0.8005 -0.8652  2.3456
 4595SOL    HW225422   0.132   2.490   2.808  0.8486  1.3709 -1.9089
 4596SOL     OW25423   0.899   4.242   6.309  0.3219  0.5196  0.1794
 4596SOL    HW125424   0.868   4.243   6.218  0.6477 -1.7662  0.0424
 4596SOL    HW225425   0.819   4.272   6.352 -0.4103  0.1265 -0.8997
 4597SOL     OW25426   1.674   1.556   6.346  0.1559  0.2443 -0.2538
 4597SOL    HW125427   1.684   1.536   6.253  1.8282 -2.1514  0.4538
 4597SOL    HW225428   1.702   1.647   6.352 -0.8783  0.4819  1.0213
 4598SOL     OW25429   1.270   1.590  11.247 -0.5452 -0.1235  0.0116
 4598SOL    HW125430   1.274   1.507  11.200 -2.0286  0.2079 -0.6930
 4598SOL    HW225431   1.365   1.598  11.252 -0.3460 -2.0464 -0.7117
 4599SOL     OW25432   4.608   3.639  12.060  0.2229 -0.5653  0.0005
 4599SOL    HW125433   4.541   3.577  12.032  1.0202 -0.6963 -1.6207
 4599SOL    HW225434   4.679   3.583  12.092 -0.6712 -0.2095  2.5603
 4600SOL     OW25435   1.210   0.406   6.400  1.1986 -0.0651 -0.2190
 4600SOL    HW125436   1.155   0.413   6.322  0.9199  1.9147  0.1665
 4600SOL    HW225437   1.244   0.495   6.406 -1.3026  0.7923  1.0577
 4601SOL     OW25438   2.569   1.154   8.446  0.0165 -0.2785 -0.3552
 4601SOL    HW125439   2.600   1.203   8.522 -0.0584  2.3146 -2.0086
 4601SOL    HW225440   2.620   1.192   8.375 -1.6148 -1.9605 -2.4128
 4602SOL     OW25441   4.122   4.196   3.530 -0.2795  0.2036 -0.0824
 4602SOL    HW125442   4.151   4.187   3.621 -0.9891  0.2460  0.1482
 4602SOL    HW225443   4.109   4.290   3.522  1.1815  0.4012 -0.1321
 4603SOL     OW25444   1.025   1.695  16.997 -0.0005 -0.1754  0.0682
 4603SOL    HW125445   0.968   1.624  16.971 -0.4253  0.3873 -0.5225
 4603SOL    HW225446   0.996   1.709  17.088 -0.2451  0.1783 -0.0636
 4604SOL     OW25447   3.940   3.270   4.634 -0.8494 -0.3648 -0.0731
 4604SOL    HW125448   3.997   3.344   4.654 -0.0536 -1.4820  1.7576
 4604SOL    HW225449   3.851   3.302   4.647 -1.1419 -0.7695 -1.0408
 4605SOL     OW25450   0.978   0.805   7.451  0.0150  0.1572  0.0899
 4605SOL    HW125451   0.996   0.762   7.368  0.4194 -2.5543  1.5921
 4605SOL    HW225452   0.986   0.735   7.516 -0.1696 -0.5959 -0.7011
 4606SOL     OW25453   0.034   1.901   6.854 -0.7174 -0.2507 -0.0320
 4606SOL    HW125454   4.699   1.911   6.794 -0.8107  0.5484  0.2177
 4606SOL    HW225455   0.080   1.826   6.817 -1.8740 -0.6495 -0.6504
 4607SOL     OW25456   0.850   3.574   3.089 -0.3470  1.2204 -0.2230
 4607SOL    HW125457   0.934   3.528   3.098 -0.4310  0.7700 -1.5996
 4607SOL    HW225458   0.868   3.648   3.146  2.0229 -1.4999  2.6074
 4608SOL     OW25459   1.240   2.543   2.782 -0.2539  0.3899 -0.4163
 4608SOL    HW125460   1.233   2.584   2.868  1.3999  0.5942 -0.3728
 4608SOL    HW225461   1.291   2.466   2.810 -0.1469 -0.3230 -2.5900
 4609SOL     OW25462   3.896   0.959   9.998 -0.2656  0.4268 -0.0119
 4609SOL    HW125463   3.920   0.924  10.083 -0.5147  0.0950 -0.0768
 4609SOL    HW225464   3.940   0.896   9.941 -0.1679 -0.7705  1.3911
 4610SOL     OW25465   0.506   4.666   8.125 -0.1234  0.1514  0.1384
 4610SOL    HW125466   0.586   4.702   8.088 -1.3411 -0.7936 -3.4556
 4610SOL    HW225467   0.490   4.733   8.191  0.9895  0.2251  0.3302
 4611SOL     OW25468   4.058   2.180  10.971 -0.1114 -0.0113  0.2690
 4611SOL    HW125469   3.976   2.224  10.951 -0.6049 -0.8937  0.3571
 4611SOL    HW225470   4.093   2.162  10.883 -1.2106 -1.2996  0.1025
 4612SOL     OW25471   0.153   4.021   8.941 -0.8034 -0.0897 -0.2048
 4612SOL    HW125472   0.140   3.973   9.023  1.7576 -0.4537 -0.0084
 4612SOL    HW225473   0.152   3.949   8.879 -0.1008 -2.9698  3.1174
 4613SOL     OW25474   4.031   2.071  12.483  0.3356 -0.2029 -0.1252
 4613SOL    HW125475   4.078   2.014  12.545 -0.7463 -2.9917 -1.8701
 4613SOL    HW225476   4.005   2.142  12.541 -0.2676 -1.2468  0.8978
 4614SOL     OW25477   3.761   0.459   4.808 -0.4177 -0.0687 -0.0789
 4614SOL    HW125478   3.776   0.518   4.734 -0.9039  0.0727 -0.0657
 4614SOL    HW225479   3.731   0.520   4.875  2.4986 -0.3157  1.4259
 4615SOL     OW25480   0.929   2.625   4.237  0.6746 -0.5387 -0.1480
 4615SOL    HW125481   0.952   2.541   4.277  0.7957  0.3520  1.6536
 4615SOL    HW225482   0.855   2.596   4.183  0.5839 -0.3283 -0.1374
 4616SOL     OW25483   2.211   4.568  12.224  0.2379  0.3433 -0.2702
 4616SOL    HW125484   2.116   4.575  12.234  0.2477  0.6417 -0.3981
 4616SOL    HW225485   2.241   4.601  12.308 -1.7121  0.7522  0.2546
 4617SOL     OW25486   4.734   0.273   6.934 -0.4406  0.2859 -0.0874
 4617SOL    HW125487   0.008   0.359   6.894 -2.2858 -0.5397 -2.4163
 4617SOL    HW225488   4.649   0.242   6.903 -0.0074  1.2219 -2.2250
 4618SOL     OW25489   4.085   1.135   9.745  0.4218  0.4385 -0.6661
 4618SOL    HW125490   4.066   1.054   9.697 -0.6220  1.1519 -1.4439
 4618SOL    HW225491   4.152   1.094   9.801 -2.1468 -2.3532  0.3666
 4619SOL     OW25492   1.016   3.771   5.631  0.2122  0.1698 -0.2238
 4619SOL    HW125493   1.112   3.769   5.639  0.2597  2.1713 -0.3400
 4619SOL    HW225494   0.997   3.706   5.698  0.4451  0.0153 -0.3071
 4620SOL     OW25495   3.565   1.454   6.884 -0.3674 -0.0559 -0.4537
 4620SOL    HW125496   3.604   1.534   6.920 -1.6888  0.5129 -0.2985
 4620SOL    HW225497   3.541   1.410   6.965 -0.9375 -0.0065 -0.5975
 4621SOL     OW25498   0.099   3.455  12.174  0.2105 -0.5428  0.1681
 4621SOL    HW125499   0.091   3.536  12.225  0.1364 -0.7115  0.4256
 4621SOL    HW225500   0.189   3.455  12.141  0.7536  0.9305  1.5966
 4622SOL     OW25501   4.082   2.643   4.703 -0.2738 -0.1523  0.9054
 4622SOL    HW125502   4.157   2.664   4.759 -0.2343  2.0622  0.0364
 4622SOL    HW225503   4.076   2.548   4.715 -0.7918 -0.2239  0.0686
 4623SOL     OW25504   3.160   1.642   3.603  0.6780  0.0244  0.5777
 4623SOL    HW125505   3.160   1.612   3.694  0.7929 -0.1727  0.5144
 4623SOL    HW225506   3.068   1.661   3.585  0.4253 -0.0456  1.7799
 4624SOL     OW25507   4.029   3.297   6.146  0.1121  0.2743 -0.5489
 4624SOL    HW125508   4.119   3.295   6.178  0.1871 -1.4132 -0.8430
 4624SOL    HW225509   4.052   3.323   6.057  2.7525 -0.6256 -0.1433
 4625SOL     OW25510   0.713   2.080   5.324  0.2942 -0.9946 -0.2743
 4625SOL    HW125511   0.667   2.132   5.390  1.4219 -1.4467  0.8670
 4625SOL    HW225512   0.785   2.059   5.384 -0.5557  0.8575  1.3914
 4626SOL     OW25513   2.634   3.492   6.432 -0.1648  0.0496  0.0072
 4626SOL    HW125514   2.597   3.450   6.510  0.0328  0.0459  0.0982
 4626SOL    HW225515   2.602   3.581   6.444  0.9515  0.6887 -1.7559
 4627SOL     OW25516   3.789   0.509   2.839 -0.2359 -0.6034 -0.3614
 4627SOL    HW125517   3.869   0.485   2.886 -0.6408  1.8097  1.5156
 4627SOL    HW225518   3.819   0.505   2.748 -3.4557 -0.5256 -1.4033
 4628SOL     OW25519   4.646   2.173   7.170  0.0291  0.7556 -0.0796
 4628SOL    HW125520   4.639   2.188   7.075  0.6080 -0.8655 -0.3841
 4628SOL    HW225521   4.729   2.212   7.197 -0.1680  1.3500 -0.3261
 4629SOL     OW25522   4.147   1.369   6.726  0.2496 -0.1677  0.4235
 4629SOL    HW125523   4.109   1.424   6.658 -1.2720 -0.5035  0.9991
 4629SOL    HW225524   4.240   1.376   6.703  0.6651 -1.3408  1.7106
 4630SOL     OW25525   2.738   3.363   9.595  0.5222  0.3828 -0.3320
 4630SOL    HW125526   2.726   3.432   9.660  0.2345 -0.6508  0.7084
 4630SOL    HW225527   2.701   3.287   9.638  1.2017 -0.1693 -0.7219
 4631SOL     OW25528   2.314   2.549   7.227  0.6089 -0.0078  0.4658
 4631SOL    HW125529   2.289   2.530   7.317 -1.2876 -0.2381 -0.1113
 4631SOL    HW225530   2.345   2.639   7.234  0.6047  0.1531 -1.5101
 4632SOL     OW25531   1.330   0.061   0.463  0.4196  0.0999  0.7026
 4632SOL    HW125532   1.375   0.015   0.392 -0.5753  0.1892  0.0233
 4632SOL    HW225533   1.383   0.140   0.474  1.1581 -0.4777  1.3613
 4633SOL     OW25534   2.040   2.097   6.399  0.0698  0.1186  0.4247
 4633SOL    HW125535   2.096   2.173   6.416  1.8976 -1.5827  2.0372
 4633SOL    HW225536   1.961   2.128   6.442  0.2193 -0.5266  1.1701
 4634SOL     OW25537   0.957   4.714   1.735  0.2532  0.3846  0.1005
 4634SOL    HW125538   0.874   4.734   1.779  0.1140 -0.9968  0.4599
 4634SOL    HW225539   0.990   0.065   1.732 -0.2782  0.6198  1.2089
 4635SOL     OW25540   0.148   3.949   7.405  0.1518  0.3254  0.2489
 4635SOL    HW125541   0.194   3.865   7.403  0.1972  0.3274  1.3585
 4635SOL    HW225542   0.058   3.924   7.423  0.4102 -0.0037  1.0620
 4636SOL     OW25543   0.690   1.107  12.179  0.4040  0.0374 -0.0028
 4636SOL    HW125544   0.691   1.060  12.262 -1.2824  0.5569  0.3050
 4636SOL    HW225545   0.773   1.153  12.190  0.8263 -0.4172 -1.2450
 4637SOL     OW25546   2.351   4.569   5.558  0.4688  0.1258 -0.6565
 4637SOL    HW125547   2.323   4.515   5.631  2.0449 -0.4803 -0.4882
 4637SOL    HW225548   2.446   4.566   5.574  0.1413  0.3329  1.2641
 4638SOL     OW25549   2.502   1.168   5.521 -0.1809 -0.1578  0.2366
 4638SOL    HW125550   2.506   1.115   5.601  0.0184  0.6826  0.7816
 4638SOL    HW225551   2.542   1.111   5.455  0.3456 -0.7232  1.0373
 4639SOL     OW25552   3.435   0.721  16.400  0.7292 -0.1618  0.1339
 4639SOL    HW125553   3.501   0.776  16.441  1.2439 -0.1814 -0.6659
 4639SOL    HW225554   3.410   0.663  16.472 -1.8017  0.4629 -0.2354
 4640SOL     OW25555   0.798   2.979   3.866  0.3620 -0.1796 -0.5593
 4640SOL    HW125556   0.739   3.032   3.812  0.8312  0.3835 -0.5200
 4640SOL    HW225557   0.799   3.023   3.951  0.9459  1.2741 -1.3178
 4641SOL     OW25558   1.531   3.919  13.611 -0.0744  0.3355 -0.4410
 4641SOL    HW125559   1.439   3.893  13.614 -0.1605  0.7404  0.2422
 4641SOL    HW225560   1.565   3.875  13.689  0.8827 -0.2950 -1.2060
 4642SOL     OW25561   1.332   1.158   5.647 -0.0312  0.5613  1.0750
 4642SOL    HW125562   1.380   1.216   5.588 -0.7967 -1.2761 -1.3474
 4642SOL    HW225563   1.391   1.084   5.660  0.9167  1.3164  1.0665
 4643SOL     OW25564   2.414   0.526   7.818 -0.3297  0.4335 -0.1017
 4643SOL    HW125565   2.467   0.522   7.898 -1.2273  2.3710  0.5802
 4643SOL    HW225566   2.331   0.559   7.853 -0.0034  2.6891 -1.4611
 4644SOL     OW25567   2.770   4.549  13.306  0.5750  0.4423  0.7831
 4644SOL    HW125568   2.800   4.508  13.387  2.1908  0.2022  0.0528
 4644SOL    HW225569   2.851   4.551  13.256 -0.7539 -0.0292 -1.3919
 4645SOL     OW25570   3.165   2.518   9.349 -0.0649 -0.1430  0.1398
 4645SOL    HW125571   3.252   2.508   9.312 -0.5746 -1.4860 -0.7282
 4645SOL    HW225572   3.188   2.558   9.433  0.4375 -0.7683  0.2974
 4646SOL     OW25573   0.072   4.490  14.234  0.5103 -0.4035 -0.9521
 4646SOL    HW125574   4.738   4.445  14.277  1.9587 -0.2505  1.6575
 4646SOL    HW225575   0.095   4.425  14.168  1.6839  0.5051 -1.4303
 4647SOL     OW25576   3.910   1.430   3.167  0.1654  0.3969  0.0897
 4647SOL    HW125577   3.878   1.492   3.101 -1.8979 -0.0008  0.7159
 4647SOL    HW225578   3.940   1.495   3.230  1.4941  0.7744 -0.9183
 4648SOL     OW25579   2.596   2.101   4.919 -0.2703 -0.1192 -0.5453
 4648SOL    HW125580   2.585   2.006   4.930 -1.8014  0.0198 -0.8602
 4648SOL    HW225581   2.623   2.125   5.007 -0.3698 -1.0765 -0.2500
 4649SOL     OW25582   2.054   1.441   0.744  0.0492 -0.9207 -0.1481
 4649SOL    HW125583   2.082   1.408   0.658  0.2326  1.8841 -1.1728
 4649SOL    HW225584   1.959   1.437   0.741 -0.0665  1.0853  0.5079
 4650SOL     OW25585   4.635   0.732   8.032 -0.6418  0.2273 -0.0685
 4650SOL    HW125586   4.574   0.695   7.969 -1.8870  0.6239  0.8945
 4650SOL    HW225587   4.580   0.730   8.110 -0.4202 -0.1144  0.0768
 4651SOL     OW25588   3.055   0.808   2.943 -0.0197  0.0377  0.1109
 4651SOL    HW125589   3.101   0.824   3.025  1.6132 -0.9141 -0.6172
 4651SOL    HW225590   3.103   0.868   2.885  0.0357 -1.8838 -1.8514
 4652SOL     OW25591   3.521   0.730   4.564  0.1278 -0.2076 -0.5364
 4652SOL    HW125592   3.471   0.665   4.612 -1.4745  1.7021  0.3803
 4652SOL    HW225593   3.481   0.809   4.601 -0.9026 -0.2249 -1.6162
 4653SOL     OW25594   1.043   3.506  12.091  0.0026  0.1092  0.5416
 4653SOL    HW125595   1.045   3.485  12.185 -0.5699 -3.1641 -0.2025
 4653SOL    HW225596   1.001   3.592  12.104  1.3162  0.9521 -0.7396
 4654SOL     OW25597   0.245   4.140   2.004 -0.2260  0.0014  0.4274
 4654SOL    HW125598   0.197   4.069   2.047 -0.1987  0.5557  1.3788
 4654SOL    HW225599   0.326   4.145   2.055 -0.1088 -3.2478  0.5725
 4655SOL     OW25600   3.944   3.155   9.142 -0.3099  0.0949  0.4102
 4655SOL    HW125601   3.905   3.097   9.076  1.4071 -1.2242  0.5387
 4655SOL    HW225602   3.948   3.101   9.221 -1.6022 -1.1408 -0.3712
 4656SOL     OW25603   4.144   4.354   3.071  0.1833 -0.2560  0.1143
 4656SOL    HW125604   4.202   4.388   3.003  0.2161 -1.7360 -0.5994
 4656SOL    HW225605   4.125   4.439   3.112 -1.5523 -0.7863  0.3856
 4657SOL     OW25606   0.672   0.632  10.902  0.6739 -0.0669 -0.3660
 4657SOL    HW125607   0.754   0.673  10.874  1.2629 -0.7583  0.3469
 4657SOL    HW225608   0.667   0.564  10.835  1.4457  0.6321 -1.1311
 4658SOL     OW25609   2.272   0.299   6.603 -0.3584 -0.6088  0.1122
 4658SOL    HW125610   2.356   0.323   6.563 -0.4097  0.4436  0.6373
 4658SOL    HW225611   2.234   0.381   6.636 -0.1656 -0.4970  0.0544
 4659SOL     OW25612   1.412   2.946   5.577  0.0595 -0.0010 -0.0941
 4659SOL    HW125613   1.344   2.939   5.510  0.8086 -0.9209 -0.7484
 4659SOL    HW225614   1.488   2.944   5.520  0.2543  0.2260  0.1599
 4660SOL     OW25615   2.540   2.816   5.703 -0.0678 -0.1578 -0.5274
 4660SOL    HW125616   2.614   2.773   5.660  0.6238 -1.2285  1.7514
 4660SOL    HW225617   2.589   2.890   5.738  0.1020  1.2608 -3.7639
 4661SOL     OW25618   2.401   4.533  14.230  0.8264 -0.4721  0.5277
 4661SOL    HW125619   2.400   4.588  14.308 -0.0803 -0.6118  0.6093
 4661SOL    HW225620   2.373   4.597  14.164  0.9439  0.5373  1.4529
 4662SOL     OW25621   4.550   2.451   5.432  0.0323  0.9982  0.7133
 4662SOL    HW125622   4.633   2.491   5.406 -1.5998  3.4497 -0.7724
 4662SOL    HW225623   4.574   2.369   5.475 -0.4790  1.4449  1.8659
 4663SOL     OW25624   4.620   4.433   5.770 -0.5666  1.0734  0.5466
 4663SOL    HW125625   4.620   4.498   5.700  2.7099 -1.4503 -1.8226
 4663SOL    HW225626   4.618   4.483   5.851  0.8577 -1.6129  2.2154
 4664SOL     OW25627   1.511   4.151   3.148 -0.5261  0.6051  0.7288
 4664SOL    HW125628   1.455   4.229   3.146 -1.7392 -0.2989 -1.1362
 4664SOL    HW225629   1.449   4.080   3.167 -1.7562  1.3909 -0.2895
 4665SOL     OW25630   0.595   2.588  14.784 -0.0914  0.3773 -0.2401
 4665SOL    HW125631   0.622   2.529  14.714 -1.0679 -0.6803  0.2631
 4665SOL    HW225632   0.666   2.651  14.796  1.8039 -1.9482  0.9430
 4666SOL     OW25633   3.271   1.061   7.382  0.6779  0.5598  0.1067
 4666SOL    HW125634   3.308   1.150   7.381 -0.1529  0.9114  0.4126
 4666SOL    HW225635   3.191   1.076   7.332 -0.1964  1.7056  1.8759
 4667SOL     OW25636   0.005   3.773   5.364 -0.0326  0.0588  0.0424
 4667SOL    HW125637   0.099   3.785   5.355  0.1680 -1.5427 -0.1185
 4667SOL    HW225638   0.001   3.736   5.452  0.7043 -0.5999 -0.1981
 4668SOL     OW25639   0.053   3.226  13.561  0.3805  0.0405  0.2122
 4668SOL    HW125640   4.725   3.183  13.509 -1.2103  1.4164  1.1541
 4668SOL    HW225641   0.119   3.156  13.566 -1.5606 -1.7480  0.6167
 4669SOL     OW25642   0.597   3.584   1.496 -0.2716  0.3070  0.5588
 4669SOL    HW125643   0.539   3.654   1.467  0.4630 -0.0065 -1.6608
 4669SOL    HW225644   0.618   3.559   1.406  1.5909  0.3377  0.9709
 4670SOL     OW25645   1.155   1.168   1.602  0.1513 -0.3512  0.2152
 4670SOL    HW125646   1.083   1.221   1.568 -0.5249 -1.2020  0.3280
 4670SOL    HW225647   1.120   1.079   1.598  0.6158 -0.5311  0.1622
 4671SOL     OW25648   3.893   1.574   2.938  0.2415  0.1434 -1.2164
 4671SOL    HW125649   3.949   1.646   2.908 -0.1702  2.3734  3.4839
 4671SOL    HW225650   3.919   1.497   2.887 -1.3524 -1.1400 -0.0844
 4672SOL     OW25651   1.911   1.054   7.253  0.0301 -0.1104 -0.6145
 4672SOL    HW125652   1.988   1.028   7.202  2.6079  2.1848  2.1808
 4672SOL    HW225653   1.949   1.069   7.339 -3.9877  0.3151  1.1066
 4673SOL     OW25654   0.024   2.111   0.057 -0.5606  0.3767 -0.4480
 4673SOL    HW125655   4.674   2.087   0.082 -0.0476 -1.0149  0.0094
 4673SOL    HW225656   0.056   2.163   0.131  0.6968 -1.6267  0.4101
 4674SOL     OW25657   1.998   4.348  15.805  0.3166  0.0354 -0.3761
 4674SOL    HW125658   2.032   4.315  15.888 -1.2559  0.5965  0.4919
 4674SOL    HW225659   2.059   4.308  15.742  0.2160  1.5107 -1.3995
 4675SOL     OW25660   1.987   3.054   4.296  0.1406  0.5339  0.5733
 4675SOL    HW125661   2.056   3.091   4.240 -0.6009 -0.0999 -0.7714
 4675SOL    HW225662   2.006   3.090   4.382  2.4074 -0.6723  0.5652
 4676SOL     OW25663   1.176   1.063   1.950  0.0481  0.5737 -0.3475
 4676SOL    HW125664   1.220   1.014   1.880 -1.7313 -2.5999  0.7877
 4676SOL    HW225665   1.134   0.986   1.987  0.8431 -0.3951 -1.4258
 4677SOL     OW25666   0.833   2.968   2.202  0.1441  0.6586 -0.5738
 4677SOL    HW125667   0.791   2.892   2.240 -2.0804  2.3371  0.3327
 4677SOL    HW225668   0.759   2.992   2.146 -0.1646  0.5483 -0.2117
 4678SOL     OW25669   1.480   3.074  17.174 -0.6045  0.4970  0.0154
 4678SOL    HW125670   1.486   3.150  17.232  1.5569  0.8433 -0.6561
 4678SOL    HW225671   1.548   3.090  17.109  0.7311 -1.1056  1.0057
 4679SOL     OW25672   1.345   4.487   7.865 -0.0788 -0.0833 -0.1127
 4679SOL    HW125673   1.401   4.487   7.788 -1.0571 -1.5062 -0.8252
 4679SOL    HW225674   1.323   4.579   7.878 -0.2566 -0.0665 -0.5231
 4680SOL     OW25675   1.625   1.543   8.757  0.3123  0.0498  0.3215
 4680SOL    HW125676   1.627   1.503   8.844  1.0651 -0.2220  0.1793
 4680SOL    HW225677   1.571   1.473   8.720 -0.2167 -0.5323  2.2040
 4681SOL     OW25678   0.531   4.057   8.899 -0.0986  0.0872  0.4196
 4681SOL    HW125679   0.551   3.970   8.935 -2.7120 -1.1296 -1.0944
 4681SOL    HW225680   0.521   4.042   8.805 -1.7115 -1.6299  0.8553
 4682SOL     OW25681   4.127   1.004   8.007  0.0494  0.3370 -0.4523
 4682SOL    HW125682   4.094   1.041   8.089  0.5005 -2.6241  1.0569
 4682SOL    HW225683   4.068   1.043   7.943 -1.2246  3.0839  2.3602
 4683SOL     OW25684   3.490   1.682  17.230  0.7993 -0.1362 -0.0077
 4683SOL    HW125685   3.489   1.712  17.139  0.3903  1.7810  0.6239
 4683SOL    HW225686   3.551   1.608  17.232 -0.0533 -0.8346  0.1861
 4684SOL     OW25687   2.334   4.039   2.993  0.0917  0.1165 -0.1450
 4684SOL    HW125688   2.297   4.111   3.044 -3.0363 -0.5851 -1.4125
 4684SOL    HW225689   2.345   4.081   2.908  2.5152 -0.0093  0.1205
 4685SOL     OW25690   0.329   3.728   7.353 -0.1235 -0.4489  0.1511
 4685SOL    HW125691   0.414   3.746   7.394 -1.1509 -1.1143  2.5433
 4685SOL    HW225692   0.329   3.632   7.354 -1.7170 -0.4463 -0.3366
 4686SOL     OW25693   1.130   0.935   3.297  0.0370  0.0363  0.0830
 4686SOL    HW125694   1.159   0.887   3.220  1.3584  0.0040  0.6072
 4686SOL    HW225695   1.037   0.945   3.276 -0.0680  1.3225  1.1689
 4687SOL     OW25696   1.048   4.425  13.524 -0.1108  0.2378 -0.1993
 4687SOL    HW125697   1.071   4.358  13.460 -2.6434 -2.0729  1.3222
 4687SOL    HW225698   0.976   4.461  13.472  0.2498  0.6738 -0.4006
 4688SOL     OW25699   4.528   2.631   3.416 -0.2378  0.6720 -0.2609
 4688SOL    HW125700   4.582   2.695   3.463  0.3111  0.2298 -0.2935
 4688SOL    HW225701   4.452   2.627   3.475  2.4749 -2.1713  2.9890
 4689SOL     OW25702   3.359   4.231   2.550  0.2459 -0.5363  0.7195
 4689SOL    HW125703   3.399   4.169   2.489  0.0418 -0.4112  0.4590
 4689SOL    HW225704   3.436   4.257   2.601 -1.1793 -1.3033  3.2318
 4690SOL     OW25705   0.638   2.034  13.710  0.1499 -0.5605  0.3582
 4690SOL    HW125706   0.577   1.999  13.775 -0.2157 -0.3596  0.1279
 4690SOL    HW225707   0.604   2.122  13.694 -0.8509 -1.3124 -1.7856
 4691SOL     OW25708   3.181   3.981   9.524 -0.3707 -0.8622 -0.9180
 4691SOL    HW125709   3.267   3.960   9.560  0.6369  0.7306 -2.3960
 4691SOL    HW225710   3.175   4.072   9.554  0.9279 -1.0518 -0.0820
 4692SOL     OW25711   2.106   1.957   9.018  0.1337 -0.5035 -0.4699
 4692SOL    HW125712   2.015   1.928   9.018 -0.0230 -0.0172  3.6251
 4692SOL    HW225713   2.152   1.879   9.048  0.6377  0.1162  0.3924
 4693SOL     OW25714   0.693   0.606   2.048 -0.1638  0.3094 -0.4548
 4693SOL    HW125715   0.630   0.588   1.979 -1.2083  1.4925  0.1815
 4693SOL    HW225716   0.709   0.699   2.030  0.5735  0.6297  1.7714
 4694SOL     OW25717   1.360   1.381   1.680 -0.0835 -0.2724 -0.0190
 4694SOL    HW125718   1.329   1.295   1.708  0.2310 -1.1703 -2.4062
 4694SOL    HW225719   1.281   1.435   1.686  0.4450  0.3904  0.8598
 4695SOL     OW25720   4.496   3.309   3.150 -0.1299  0.2573  0.5175
 4695SOL    HW125721   4.568   3.300   3.087 -0.7042 -0.0991 -0.0815
 4695SOL    HW225722   4.495   3.220   3.184 -2.8433  0.4769  0.9503
 4696SOL     OW25723   4.152   4.097   8.571  0.1385  0.6163 -0.7092
 4696SOL    HW125724   4.135   4.146   8.491  2.6225  1.0611 -0.9767
 4696SOL    HW225725   4.201   4.169   8.612  2.4458 -0.4781 -1.5952
 4697SOL     OW25726   3.874   4.557   5.290  0.3888  0.3517  0.1066
 4697SOL    HW125727   3.864   4.606   5.209  0.3519  1.1758  0.6055
 4697SOL    HW225728   3.818   4.480   5.293 -0.0980  0.8012  2.3558
 4698SOL     OW25729   2.508   1.458   0.563 -0.5439  0.4555  0.1580
 4698SOL    HW125730   2.575   1.439   0.629  0.5991 -0.0902 -1.1502
 4698SOL    HW225731   2.484   1.549   0.581  1.6073  0.8028  1.3211
 4699SOL     OW25732   2.537   3.614  10.537 -0.2520 -0.2615  0.5037
 4699SOL    HW125733   2.497   3.561  10.605 -0.3834 -0.3407  0.3659
 4699SOL    HW225734   2.603   3.667  10.582  0.8603 -0.7839 -0.5062
 4700SOL     OW25735   2.138   3.448   5.599  0.0962  0.3902 -0.2902
 4700SOL    HW125736   2.114   3.540   5.612  2.0282  0.6932  1.0525
 4700SOL    HW225737   2.227   3.452   5.633  0.2411  3.4408 -1.0558
 4701SOL     OW25738   1.591   3.610   7.659 -0.0046  0.2422 -0.3779
 4701SOL    HW125739   1.655   3.680   7.674  0.4086 -0.1660 -0.2363
 4701SOL    HW225740   1.543   3.650   7.587 -0.1985  0.1024 -0.3275
 4702SOL     OW25741   3.362   2.213  13.614  0.1923 -0.2182 -0.1945
 4702SOL    HW125742   3.340   2.274  13.543 -0.0097  0.2033  0.2357
 4702SOL    HW225743   3.448   2.183  13.584  0.8379  0.5642  0.8763
 4703SOL     OW25744   4.024   3.123   8.591  0.5213  0.0429  0.6628
 4703SOL    HW125745   4.116   3.142   8.610  1.5127 -3.3297 -0.7583
 4703SOL    HW225746   3.971   3.176   8.651 -1.2378 -0.2624 -0.6203
 4704SOL     OW25747   0.866   0.446   6.478  0.1140 -0.3744  0.5573
 4704SOL    HW125748   0.874   0.466   6.571 -0.2719  2.0403  0.0721
 4704SOL    HW225749   0.954   0.418   6.454  0.3512 -0.1406  1.1593
 4705SOL     OW25750   4.718   2.832   5.968  0.0429 -0.5211 -0.7221
 4705SOL    HW125751   4.654   2.862   6.033  0.9278 -0.4617  0.1290
 4705SOL    HW225752   4.677   2.866   5.889 -0.6173 -0.8581 -0.5211
 4706SOL     OW25753   1.066   3.646   4.875 -0.0992 -0.1302  0.5111
 4706SOL    HW125754   1.108   3.697   4.944  0.0240 -0.6450  0.8155
 4706SOL    HW225755   1.025   3.577   4.926  1.8967 -1.8504 -0.2154
 4707SOL     OW25756   2.490   2.637  13.364 -0.1683  0.0610 -0.2456
 4707SOL    HW125757   2.560   2.673  13.418  0.3071 -0.1901 -0.6995
 4707SOL    HW225758   2.430   2.711  13.356 -0.5065 -0.0693  0.9641
 4708SOL     OW25759   3.899   2.144   1.460 -0.4032 -0.0445 -0.0490
 4708SOL    HW125760   3.925   2.080   1.526 -0.6431 -0.0778  0.0135
 4708SOL    HW225761   3.855   2.206   1.519  0.3498 -0.3342  0.8223
 4709SOL     OW25762   1.573   0.208   7.818 -0.1898  0.3083 -0.0442
 4709SOL    HW125763   1.527   0.211   7.902 -2.6764  0.2193 -1.4340
 4709SOL    HW225764   1.660   0.246   7.837  0.0217  0.9727 -2.3864
 4710SOL     OW25765   0.811   3.036   4.158  0.0557  0.0603  0.7153
 4710SOL    HW125766   0.788   3.104   4.221 -2.1967  0.5196 -0.6062
 4710SOL    HW225767   0.905   3.049   4.146 -0.1461  0.5411 -0.3751
 4711SOL     OW25768   1.464   4.386   8.315  0.6681  0.4105 -0.3961
 4711SOL    HW125769   1.470   4.470   8.270 -3.4362  1.2253  0.5974
 4711SOL    HW225770   1.396   4.346   8.261 -0.0530  2.4117 -0.9547
 4712SOL     OW25771   0.056   3.425   5.605 -0.1580  0.3244  0.0082
 4712SOL    HW125772   0.125   3.364   5.632 -1.2838 -0.8164  0.3058
 4712SOL    HW225773   0.033   3.468   5.687  0.4284  1.2828 -0.3374
 4713SOL     OW25774   1.635   2.073   4.799 -0.1079 -0.1063  0.1341
 4713SOL    HW125775   1.582   2.038   4.726  1.6899  0.1824 -1.3028
 4713SOL    HW225776   1.722   2.036   4.782  0.7960  2.0711  0.0842
 4714SOL     OW25777   2.294   2.285  17.735  0.1226  0.1252 -0.0921
 4714SOL    HW125778   2.204   2.269   0.009 -0.1541  0.6062 -0.6842
 4714SOL    HW225779   2.289   2.364  17.681  1.5295  0.0099 -0.4026
 4715SOL     OW25780   4.308   0.455   3.613 -0.1075 -0.2474 -0.3115
 4715SOL    HW125781   4.270   0.522   3.557  0.7405  0.9366  0.5341
 4715SOL    HW225782   4.255   0.379   3.589  2.9619 -2.9140  1.2655
 4716SOL     OW25783   0.445   0.603   9.291  0.3872 -0.2239  0.3753
 4716SOL    HW125784   0.363   0.600   9.341  1.8190  1.2760  2.8078
 4716SOL    HW225785   0.440   0.687   9.246 -1.1173 -0.4441  0.1268
 4717SOL     OW25786   1.678   2.603   8.084 -0.2499 -0.4231  0.6617
 4717SOL    HW125787   1.589   2.580   8.058 -0.2385 -0.0081  0.2559
 4717SOL    HW225788   1.673   2.681   8.139  1.3179  0.9458 -1.1421
 4718SOL     OW25789   3.576   0.927   9.463 -0.2915 -0.1012  0.4592
 4718SOL    HW125790   3.489   0.897   9.438 -0.6890  0.5519  1.0343
 4718SOL    HW225791   3.607   0.992   9.400 -1.1279  1.0259  1.2074
 4719SOL     OW25792   2.836   0.002   8.222  0.3998 -0.4585  0.0309
 4719SOL    HW125793   2.755   4.733   8.170  1.0252 -1.0248 -0.8462
 4719SOL    HW225794   2.863   4.650   8.227  0.4664 -0.4371  0.0622
 4720SOL     OW25795   3.096   2.096   2.520  0.6505  0.3599 -0.1546
 4720SOL    HW125796   3.151   2.060   2.590 -0.5059 -0.5907  0.2442
 4720SOL    HW225797   3.158   2.149   2.469  0.3697 -0.3539 -1.2229
 4721SOL     OW25798   1.130   3.843   7.300 -0.7306 -0.4794 -0.2614
 4721SOL    HW125799   1.099   3.891   7.377  2.3964 -0.1770  0.8111
 4721SOL    HW225800   1.078   3.886   7.232 -1.0918 -1.1765 -0.4227
 4722SOL     OW25801   0.976   3.166   6.911  0.0225  0.2261 -0.0392
 4722SOL    HW125802   0.895   3.156   6.860  0.2189 -2.6254  0.1674
 4722SOL    HW225803   1.019   3.225   6.850 -0.5375 -0.7223 -1.3494
 4723SOL     OW25804   3.862   2.104   5.976 -0.3586  0.3605  0.8487
 4723SOL    HW125805   3.858   2.055   6.059  2.2637 -1.1028  0.1065
 4723SOL    HW225806   3.775   2.143   5.968 -0.2779  0.0288 -1.7466
 4724SOL     OW25807   1.889   3.913   1.666 -0.5043  0.3090 -0.2549
 4724SOL    HW125808   1.970   3.941   1.623  0.0102 -1.6451 -0.5193
 4724SOL    HW225809   1.821   3.973   1.633  1.0804  1.3801 -1.5760
 4725SOL     OW25810   2.028   1.090   3.614  0.0545  0.3523  0.3727
 4725SOL    HW125811   1.989   1.059   3.695 -2.3769  2.4013 -0.0255
 4725SOL    HW225812   2.118   1.104   3.645  0.0937 -0.6273  0.6814
 4726SOL     OW25813   3.929   0.722   4.847  1.1753 -0.0360 -0.5146
 4726SOL    HW125814   4.023   0.709   4.859  1.3778  0.2173 -1.8926
 4726SOL    HW225815   3.905   0.718   4.940 -0.3569 -0.1380 -0.9200
 4727SOL     OW25816   1.005   1.348   2.128  0.6768 -0.0256  0.0410
 4727SOL    HW125817   1.028   1.440   2.144  1.8267 -0.4759  1.0021
 4727SOL    HW225818   1.065   1.319   2.058 -0.4974  2.3871 -1.9658
 4728SOL     OW25819   1.647   4.006   8.623  0.4944  0.3187 -0.3937
 4728SOL    HW125820   1.710   3.943   8.658 -1.6113 -1.2744  0.5304
 4728SOL    HW225821   1.568   3.953   8.624  0.9859 -0.4026  0.8473
 4729SOL     OW25822   3.781   2.944   8.605 -0.5644  1.2147  0.3538
 4729SOL    HW125823   3.785   2.994   8.687 -0.5935  0.4037  0.8562
 4729SOL    HW225824   3.873   2.924   8.589 -0.2440  1.9711  1.2607
 4730SOL     OW25825   2.592   0.329   3.827  0.1533  0.2929  0.3669
 4730SOL    HW125826   2.536   0.299   3.898  0.6258 -0.7033  0.3181
 4730SOL    HW225827   2.557   0.280   3.752  1.1417  0.7714 -0.4002
 4731SOL     OW25828   1.465   2.661   4.315 -0.5640 -0.0170 -0.2580
 4731SOL    HW125829   1.501   2.728   4.258 -0.7645  1.9467  1.9486
 4731SOL    HW225830   1.545   2.619   4.345 -0.3696 -0.9283 -2.0276
 4732SOL     OW25831   0.571   3.668  16.018  0.5160  0.1452  0.1184
 4732SOL    HW125832   0.516   3.663  16.096  0.2254 -1.5724 -0.2010
 4732SOL    HW225833   0.614   3.754  16.020  0.4566  0.2103 -1.0430
 4733SOL     OW25834   4.084   2.895  11.084  0.0381 -0.3058 -0.2180
 4733SOL    HW125835   4.102   2.804  11.109 -1.0195  0.4228  3.1438
 4733SOL    HW225836   4.082   2.940  11.168 -0.6382  2.1841 -1.5582
 4734SOL     OW25837   2.173   1.083   3.174  0.0863  0.0672  0.2510
 4734SOL    HW125838   2.256   1.102   3.219  0.1890 -1.6199  0.7740
 4734SOL    HW225839   2.192   1.022   3.102  0.3310  0.7576 -0.2696
 4735SOL     OW25840   0.514   1.618   5.262 -0.3766  0.0090 -0.2207
 4735SOL    HW125841   0.532   1.673   5.186  2.5175 -0.8403 -0.1462
 4735SOL    HW225842   0.570   1.654   5.331  0.8818 -0.7196 -0.8651
 4736SOL     OW25843   1.801   0.586  16.082 -0.1220 -0.2858  0.4023
 4736SOL    HW125844   1.734   0.543  16.029 -0.2899 -0.3658  0.6825
 4736SOL    HW225845   1.884   0.566  16.039  0.1882 -0.1812  0.9479
 4737SOL     OW25846   1.551   0.829   1.648 -0.0191  0.6694 -0.0221
 4737SOL    HW125847   1.614   0.775   1.695 -0.4707 -0.3116 -0.5451
 4737SOL    HW225848   1.589   0.821   1.560  0.4563  1.7334  0.0892
 4738SOL     OW25849   0.415   2.290   0.734  0.4852 -0.4720  0.6757
 4738SOL    HW125850   0.462   2.339   0.802  2.0366  1.8062 -2.0342
 4738SOL    HW225851   0.465   2.209   0.742  1.6179  0.0173 -1.4865
 4739SOL     OW25852   1.128   2.140   9.887 -0.4985  0.5532 -0.3496
 4739SOL    HW125853   1.097   2.055   9.855  1.3888 -0.8121  1.4632
 4739SOL    HW225854   1.055   2.161   9.944 -1.3235  2.6455 -2.1469
 4740SOL     OW25855   0.441   0.749  10.970  0.3198  0.2212 -0.1068
 4740SOL    HW125856   0.507   0.680  10.974  1.7622  1.4379 -2.5673
 4740SOL    HW225857   0.496   0.801  10.910  0.2964 -0.7536 -0.9765
 4741SOL     OW25858   0.628   1.885   9.263  0.0010  0.3869 -0.4339
 4741SOL    HW125859   0.599   1.867   9.353  0.8893 -2.8127 -0.7955
 4741SOL    HW225860   0.700   1.823   9.254 -0.6376 -0.5686  0.9746
 4742SOL     OW25861   3.418   1.040   1.747 -0.2945  0.4090 -0.1547
 4742SOL    HW125862   3.333   1.047   1.704  0.4491 -0.4566 -1.7826
 4742SOL    HW225863   3.423   1.123   1.793 -0.3863 -0.6032  1.6857
 4743SOL     OW25864   2.805   1.822   1.280 -0.6711  0.0044  0.3445
 4743SOL    HW125865   2.758   1.873   1.346 -1.0278  1.5200 -1.0779
 4743SOL    HW225866   2.824   1.739   1.323  0.3088 -0.0425 -0.1784
 4744SOL     OW25867   2.929   4.662   7.763 -0.4013  0.1776  0.1061
 4744SOL    HW125868   3.005   4.720   7.770 -0.6968  0.9830 -3.0725
 4744SOL    HW225869   2.978   4.599   7.710 -3.7240 -2.3973  0.1085
 4745SOL     OW25870   0.079   3.670   2.494 -0.3552 -0.1318 -0.1427
 4745SOL    HW125871   0.008   3.672   2.557 -0.1552  0.2598  0.0698
 4745SOL    HW225872   0.151   3.705   2.547 -0.2348 -0.4363 -0.1067
 4746SOL     OW25873   2.893   0.293   6.748 -0.3630  1.2062  0.7945
 4746SOL    HW125874   2.825   0.235   6.785 -0.5584  1.5036  0.9066
 4746SOL    HW225875   2.921   0.236   6.677 -2.2217 -0.5288  1.4505
 4747SOL     OW25876   1.563   4.550  15.028 -0.1620  0.7695  0.0481
 4747SOL    HW125877   1.639   4.604  15.003 -0.0659  0.6184  0.0160
 4747SOL    HW225878   1.567   4.536  15.123 -0.4864  4.2854  0.5920
 4748SOL     OW25879   1.995   2.081   2.210 -0.5622 -0.1645 -0.1245
 4748SOL    HW125880   1.913   2.128   2.194 -0.4120  0.1212 -0.0564
 4748SOL    HW225881   1.988   2.012   2.145  0.5779 -1.8387  1.5388
 4749SOL     OW25882   3.046   1.185  12.046  0.2426 -0.2945  0.2332
 4749SOL    HW125883   3.018   1.258  11.992 -3.6775 -3.0001 -1.3934
 4749SOL    HW225884   3.058   1.224  12.132  0.1709  2.0479 -0.8181
 4750SOL     OW25885   1.868   1.525  16.361 -0.4217 -0.2087  0.0035
 4750SOL    HW125886   1.858   1.515  16.456 -0.1973 -2.5770 -0.2396
 4750SOL    HW225887   1.920   1.445  16.349  0.0802 -0.2443  2.2753
 4751SOL     OW25888   4.445   0.120  12.417  0.3641 -0.5919 -0.1741
 4751SOL    HW125889   4.527   0.167  12.400  0.2492 -0.7359 -1.1129
 4751SOL    HW225890   4.453   0.041  12.365  1.7332 -1.1841  0.9213
 4752SOL     OW25891   2.369   1.387  11.049 -0.0541 -0.1099  0.0830
 4752SOL    HW125892   2.304   1.341  10.995 -1.2017  1.4315  0.1654
 4752SOL    HW225893   2.367   1.480  11.027  0.3491  0.4004  2.2034
 4753SOL     OW25894   1.088   0.336   7.842 -0.0516  0.2498  0.1212
 4753SOL    HW125895   1.179   0.345   7.811  0.3475  2.2994  1.8561
 4753SOL    HW225896   1.057   0.408   7.786 -0.4565  1.0156  1.3315
 4754SOL     OW25897   0.555   0.741   0.869  0.5169 -0.0476 -0.1206
 4754SOL    HW125898   0.558   0.793   0.789 -0.7447  1.5887  0.9040
 4754SOL    HW225899   0.648   0.745   0.894 -0.2574 -1.0917  2.9896
 4755SOL     OW25900   3.876   4.154   6.748  0.0984 -0.7989  0.0922
 4755SOL    HW125901   3.925   4.196   6.818 -0.8503 -0.0996  0.3305
 4755SOL    HW225902   3.940   4.150   6.676  0.3152  1.3274  0.1859
 4756SOL     OW25903   4.398   1.065   3.534 -0.1470  0.8263 -0.2036
 4756SOL    HW125904   4.417   1.130   3.602 -0.2420  0.3507  0.2774
 4756SOL    HW225905   4.443   0.987   3.565  0.8061  3.1534  4.2760
 4757SOL     OW25906   2.337   1.769  14.236  0.0848 -0.9175  0.0744
 4757SOL    HW125907   2.297   1.747  14.321  0.8082  2.5798  1.3450
 4757SOL    HW225908   2.424   1.802  14.257  0.4460 -0.7340 -1.7260
 4758SOL     OW25909   3.384   4.380   6.359  0.3426 -0.6809  0.4295
 4758SOL    HW125910   3.436   4.343   6.288  2.9749  1.9237  1.0167
 4758SOL    HW225911   3.327   4.306   6.377  1.8667 -2.5322 -2.4224
 4759SOL     OW25912   0.568   0.852   0.618  0.4829  0.0344  0.0410
 4759SOL    HW125913   0.619   0.828   0.541  2.7722  0.1870  1.5300
 4759SOL    HW225914   0.481   0.842   0.580  0.7329  2.3633 -1.1615
 4760SOL     OW25915   1.695   0.627   6.605 -0.1757  0.2721  0.3439
 4760SOL    HW125916   1.702   0.683   6.682  0.8500  2.3324 -1.2663
 4760SOL    HW225917   1.661   0.545   6.642  2.3409 -0.5447  0.8721
 4761SOL     OW25918   3.867   0.467   4.071  0.0380  0.0853 -0.3759
 4761SOL    HW125919   3.896   0.378   4.053  1.3380  0.3295  0.5154
 4761SOL    HW225920   3.772   0.461   4.062  0.1424 -0.9871 -0.7441
 4762SOL     OW25921   0.781   3.944  15.743  0.6725  0.5081  0.1699
 4762SOL    HW125922   0.821   3.869  15.699 -0.6167 -1.1293  1.7523
 4762SOL    HW225923   0.824   4.016  15.698  3.0098  0.1376  1.8153
 4763SOL     OW25924   3.075   3.045  11.853 -0.0360  0.1575 -0.2935
 4763SOL    HW125925   3.087   3.026  11.760 -1.6651 -0.2451 -0.4174
 4763SOL    HW225926   3.157   3.006  11.883 -0.7284 -0.9263  0.1606
 4764SOL     OW25927   1.719   2.922  11.995 -0.5722 -0.0403  0.1321
 4764SOL    HW125928   1.760   2.978  11.929  0.5123 -3.2172 -1.9115
 4764SOL    HW225929   1.714   2.977  12.073  0.9518 -0.7994  0.7615
 4765SOL     OW25930   1.512   2.580  17.462  0.3791 -0.2632 -0.2726
 4765SOL    HW125931   1.504   2.622  17.376 -0.6354 -0.7054 -0.3946
 4765SOL    HW225932   1.430   2.531  17.467 -0.2625  0.9418  0.8651
 4766SOL     OW25933   3.922   3.347   4.250  0.9262 -0.0578 -0.3284
 4766SOL    HW125934   3.915   3.308   4.337  2.5139  2.1519  0.7970
 4766SOL    HW225935   4.017   3.344   4.236  0.8357 -0.6147 -0.8573
 4767SOL     OW25936   0.479   1.947   5.847 -0.0860 -0.1812  0.1038
 4767SOL    HW125937   0.459   2.022   5.903  2.5833  0.3253  0.3649
 4767SOL    HW225938   0.502   1.881   5.912 -0.0072 -0.7485 -0.5022
 4768SOL     OW25939   3.293   1.361   7.363 -0.0116 -0.1674 -0.2002
 4768SOL    HW125940   3.381   1.364   7.326  0.6933  2.3971  1.6088
 4768SOL    HW225941   3.296   1.446   7.407  0.4225 -0.5015  0.4208
 4769SOL     OW25942   3.400   1.944   7.290  0.1788 -0.6316  0.0633
 4769SOL    HW125943   3.366   1.896   7.365 -0.1056  1.5097  1.3036
 4769SOL    HW225944   3.484   1.975   7.322 -0.5406  1.7463 -0.3232
 4770SOL     OW25945   3.287   2.126   3.197  0.3171  0.3646 -0.1436
 4770SOL    HW125946   3.248   2.038   3.202 -0.3609  0.6539 -0.3303
 4770SOL    HW225947   3.241   2.173   3.127  2.1688  0.8060 -1.0497
 4771SOL     OW25948   3.208   0.330   7.550 -0.4382 -0.0135 -0.0675
 4771SOL    HW125949   3.157   0.405   7.580 -0.2376  0.8271 -1.8189
 4771SOL    HW225950   3.123   0.287   7.547  0.3389 -1.7666  2.9222
 4772SOL     OW25951   2.984   2.741   5.655 -0.3855 -0.5685  0.0231
 4772SOL    HW125952   2.988   2.743   5.751 -1.9053  0.2659  0.0654
 4772SOL    HW225953   2.930   2.661   5.656 -0.7949 -0.3126 -1.2890
 4773SOL     OW25954   1.239   3.869   4.267 -0.2012 -0.5747 -0.0813
 4773SOL    HW125955   1.164   3.878   4.209 -1.6046 -0.1344  1.8359
 4773SOL    HW225956   1.209   3.791   4.314  2.3804 -1.4607  0.0957
 4774SOL     OW25957   1.219   3.442   3.295 -0.3828 -0.3519 -0.0725
 4774SOL    HW125958   1.283   3.490   3.347  0.1052 -2.3072  1.1506
 4774SOL    HW225959   1.213   3.359   3.344 -1.7939  0.6828  1.5240
 4775SOL     OW25960   2.496   0.518   8.438 -0.1138 -0.1706  0.1071
 4775SOL    HW125961   2.570   0.545   8.492  0.4788  0.7587 -1.1654
 4775SOL    HW225962   2.467   0.598   8.394 -1.9740 -0.3437  1.0211
 4776SOL     OW25963   1.678   2.903   7.032  0.1154  0.7484 -0.3633
 4776SOL    HW125964   1.728   2.939   6.959  1.6484  0.4125  0.5245
 4776SOL    HW225965   1.614   2.974   7.035 -1.3956 -0.6056 -0.5438
 4777SOL     OW25966   1.305   0.092   3.231 -0.0667  0.0516 -0.3219
 4777SOL    HW125967   1.292   0.181   3.264  0.2248  0.5298 -1.4647
 4777SOL    HW225968   1.336   0.115   3.143 -2.4898  0.6141 -1.0379
 4778SOL     OW25969   0.557   3.372  12.577 -0.0279 -0.7855  0.0089
 4778SOL    HW125970   0.487   3.313  12.603  0.3020  0.4012  3.6432
 4778SOL    HW225971   0.617   3.354  12.650 -0.6812  1.8733  1.2042
 4779SOL     OW25972   3.086   4.256   9.506 -0.2343  0.4719 -0.1276
 4779SOL    HW125973   3.169   4.284   9.468  0.6048  0.5886  1.7663
 4779SOL    HW225974   3.039   4.339   9.500  0.7219  1.2362  3.0686
 4780SOL     OW25975   4.198   3.043   5.756 -0.0767 -0.0395 -0.1236
 4780SOL    HW125976   4.182   2.950   5.774 -1.3913  0.4582  1.1821
 4780SOL    HW225977   4.146   3.069   5.680  1.9842 -0.1035 -1.5772
 4781SOL     OW25978   2.095   4.072  14.699 -0.5852  0.1300  0.1497
 4781SOL    HW125979   2.131   4.141  14.643  1.4824  1.2722  2.8623
 4781SOL    HW225980   2.042   4.127  14.757  1.7475  1.4559  1.0375
 4782SOL     OW25981   3.824   0.529   1.833  0.3014  0.1505  0.1174
 4782SOL    HW125982   3.796   0.475   1.759  0.7397  0.1927 -0.0848
 4782SOL    HW225983   3.902   0.481   1.861 -0.1221 -0.9114 -0.5018
 4783SOL     OW25984   2.896   3.504  13.788 -1.0513  0.2770  0.2382
 4783SOL    HW125985   2.991   3.497  13.796 -0.9123  0.6362 -1.0673
 4783SOL    HW225986   2.871   3.484  13.878 -0.0205  0.5010  0.5700
 4784SOL     OW25987   0.860   0.573   9.039 -0.0792  0.4027 -0.1164
 4784SOL    HW125988   0.774   0.536   9.061 -0.6382  1.5449 -0.3711
 4784SOL    HW225989   0.855   0.572   8.943  3.4894 -0.0707 -0.3011
 4785SOL     OW25990   4.117   4.489   2.321  0.0246  0.4602  0.7525
 4785SOL    HW125991   4.197   4.458   2.278 -1.0826  0.7718 -1.5346
 4785SOL    HW225992   4.150   4.567   2.367 -0.8193 -0.2999  2.6236
 4786SOL     OW25993   0.702   1.702   0.132 -0.0852  0.4943 -0.3369
 4786SOL    HW125994   0.781   1.721   0.184 -0.8440  1.2923  0.5272
 4786SOL    HW225995   0.629   1.693   0.194  0.9243  0.9422  0.9363
 4787SOL     OW25996   1.859   1.874   0.363 -0.4066  0.3005 -0.3389
 4787SOL    HW125997   1.896   1.805   0.417  1.8341  1.5583 -0.2382
 4787SOL    HW225998   1.853   1.821   0.284 -2.4130 -0.5848  0.4002
 4788SOL     OW25999   3.734   2.193  16.906  0.5662  0.5702  0.0970
 4788SOL    HW126000   3.682   2.134  16.961  0.1770  0.9776  0.1574
 4788SOL    HW226001   3.723   2.153  16.820  0.7349 -1.2178  0.8951
 4789SOL     OW26002   3.144   1.986   9.280 -0.4295  0.1092 -0.1127
 4789SOL    HW126003   3.133   2.018   9.370  2.5751 -1.6173  0.8771
 4789SOL    HW226004   3.213   1.922   9.298 -1.1492 -0.4465  0.7170
 4790SOL     OW26005   3.342   4.122   4.129 -0.0214 -0.6608 -0.4614
 4790SOL    HW126006   3.434   4.149   4.132 -1.0135  2.4549  1.1773
 4790SOL    HW226007   3.350   4.040   4.080 -1.2895  0.5979 -2.8283
 4791SOL     OW26008   0.956   3.087  13.664 -0.1311 -0.6212 -0.3414
 4791SOL    HW126009   0.959   3.001  13.621  0.5398 -1.7032  1.8681
 4791SOL    HW226010   1.022   3.079  13.732 -0.9766 -2.0863  0.3029
 4792SOL     OW26011   3.218   2.404   7.452 -0.0869  0.0376  0.5781
 4792SOL    HW126012   3.170   2.351   7.516 -1.4605 -0.4123 -0.8294
 4792SOL    HW226013   3.285   2.341   7.425 -2.1355 -2.0217  0.3327
 4793SOL     OW26014   2.452   1.017   2.361 -0.1861  0.0112  0.7543
 4793SOL    HW126015   2.360   1.006   2.385 -0.3963  3.4786  1.5222
 4793SOL    HW226016   2.485   0.934   2.327  1.4329  1.4695 -1.2910
 4794SOL     OW26017   0.831   3.645   8.630  0.5171  0.2157  0.0885
 4794SOL    HW126018   0.924   3.646   8.654 -0.3217  0.3946  3.2801
 4794SOL    HW226019   0.831   3.718   8.569 -0.8658  0.1157 -0.0137
 4795SOL     OW26020   1.025   4.094   5.919 -0.1385 -0.1209 -0.4575
 4795SOL    HW126021   1.059   4.118   5.832  0.9054 -0.6715 -0.1979
 4795SOL    HW226022   1.109   4.058   5.946  0.0926  1.1405  0.5203
 4796SOL     OW26023   0.462   0.805  16.371 -0.0805  0.9319 -0.7753
 4796SOL    HW126024   0.385   0.798  16.427 -0.2203 -2.1587 -1.3539
 4796SOL    HW226025   0.427   0.784  16.284 -0.3482  0.4553 -0.5493
 4797SOL     OW26026   1.089   2.742   4.460  0.2740  0.0611 -0.3693
 4797SOL    HW126027   1.144   2.804   4.411 -1.4075  2.1225  0.3583
 4797SOL    HW226028   1.029   2.718   4.389  1.7094 -1.7789 -0.9767
 4798SOL     OW26029   3.168   0.317   2.299  0.0335  0.0318  0.3811
 4798SOL    HW126030   3.140   0.341   2.211 -1.7940 -0.0091  0.9368
 4798SOL    HW226031   3.088   0.323   2.352 -0.6710  1.3568 -0.8258
 4799SOL     OW26032   4.304   2.274   5.702 -0.0440  0.5254  0.6534
 4799SOL    HW126033   4.293   2.354   5.754  1.0727  1.4431 -0.5065
 4799SOL    HW226034   4.248   2.301   5.629  0.4710 -0.5234 -0.1174
 4800SOL     OW26035   2.988   1.137   4.745 -0.2214 -0.4487 -0.0545
 4800SOL    HW126036   2.910   1.098   4.784  0.1926  1.3734  2.6402
 4800SOL    HW226037   2.957   1.222   4.714 -1.2605 -0.3938  1.1506
 4801SOL     OW26038   0.310   1.577   2.008 -0.5873 -0.1956  0.1831
 4801SOL    HW126039   0.245   1.637   2.045 -0.6740  0.3885 -0.9175
 4801SOL    HW226040   0.295   1.590   1.914  0.6013 -1.6037 -0.1862
 4802SOL     OW26041   0.812   1.414   1.725  0.3363  0.0073  0.5300
 4802SOL    HW126042   0.759   1.425   1.804  2.4243 -0.4676  1.9890
 4802SOL    HW226043   0.873   1.345   1.752  0.4649 -1.0433 -2.4348
 4803SOL     OW26044   1.931   0.652   7.902 -0.0107 -0.0594 -0.6197
 4803SOL    HW126045   1.913   0.592   7.974  0.2072 -0.5577 -0.9800
 4803SOL    HW226046   1.863   0.628   7.839  0.9689 -2.2387 -0.8520
 4804SOL     OW26047   0.024   0.546  16.634  0.3381 -0.1776 -0.5503
 4804SOL    HW126048   0.003   0.541  16.727 -0.3899  1.2606 -0.6409
 4804SOL    HW226049   4.733   0.635  16.612 -0.9066 -0.0987  1.4889
 4805SOL     OW26050   1.590   0.443   0.275 -0.2210  0.0063  0.8141
 4805SOL    HW126051   1.632   0.449   0.189 -1.0001  0.8416  0.4884
 4805SOL    HW226052   1.659   0.399   0.324  0.6805 -1.1617 -1.4890
 4806SOL     OW26053   4.668   1.039   6.482  0.6150  0.1756  0.4009
 4806SOL    HW126054   4.652   1.120   6.530  2.0287  1.9411 -2.0937
 4806SOL    HW226055   0.025   1.039   6.487  0.7035 -1.7176 -1.1377
 4807SOL     OW26056   0.442   1.391  11.246 -0.1798  0.5249  0.6425
 4807SOL    HW126057   0.438   1.370  11.153 -0.1544  0.5361  0.6390
 4807SOL    HW226058   0.498   1.469  11.246  0.1135  0.3198 -1.1205
 4808SOL     OW26059   4.143   4.530   2.796  0.2238  0.5829  0.4274
 4808SOL    HW126060   4.215   4.593   2.788 -1.4943  2.6258  0.8924
 4808SOL    HW226061   4.167   4.473   2.724 -1.5208  2.0597 -1.3037
 4809SOL     OW26062   2.693   1.956   6.891 -0.0914 -0.5122  0.3779
 4809SOL    HW126063   2.689   2.044   6.929  2.1359  0.1583 -0.9526
 4809SOL    HW226064   2.771   1.976   6.839 -0.0037  1.6163  1.2876
 4810SOL     OW26065   3.106   3.077   9.131 -0.0249 -0.2636  0.2023
 4810SOL    HW126066   3.147   3.114   9.053 -0.1676  0.6751  0.5738
 4810SOL    HW226067   3.054   3.150   9.165  1.2221  1.1986 -1.0594
 4811SOL     OW26068   0.061   0.366  14.282  0.0987  0.7972  0.1372
 4811SOL    HW126069   0.117   0.306  14.233 -0.2527  0.6199 -0.0462
 4811SOL    HW226070   0.101   0.367  14.369 -1.2998  2.5542  0.7665
 4812SOL     OW26071   1.667   1.826  17.145 -0.2349  0.0627  0.2445
 4812SOL    HW126072   1.699   1.862  17.062 -0.1686 -1.5558 -0.4228
 4812SOL    HW226073   1.661   1.735  17.116  0.7682  0.1285 -0.1618
 4813SOL     OW26074   1.155   3.136   7.233  0.2900  0.2783  0.0891
 4813SOL    HW126075   1.066   3.115   7.207  0.0464  0.0456  1.0886
 4813SOL    HW226076   1.144   3.153   7.327  0.8266 -0.2748  0.2582
 4814SOL     OW26077   2.620   2.423   8.926  0.3425 -0.0554 -0.2212
 4814SOL    HW126078   2.711   2.401   8.906 -0.1919 -2.4559 -0.0211
 4814SOL    HW226079   2.607   2.382   9.012 -1.4091  2.6537  0.7735
 4815SOL     OW26080   4.168   0.171   2.135 -0.0003 -0.0309 -0.0393
 4815SOL    HW126081   4.084   0.126   2.134 -0.9030  1.6606  0.6113
 4815SOL    HW226082   4.219   0.090   2.125  1.7011  0.9650  0.5623
 4816SOL     OW26083   1.272   0.427   7.033 -0.6691 -0.9028 -0.1724
 4816SOL    HW126084   1.333   0.458   7.100 -0.2231  0.1486 -1.0646
 4816SOL    HW226085   1.267   0.511   6.987 -0.5516 -0.7644  0.0682
 4817SOL     OW26086   2.310   1.282   8.993  0.5120 -0.3353  0.9632
 4817SOL    HW126087   2.222   1.318   9.006  0.1285 -0.8364 -0.1848
 4817SOL    HW226088   2.287   1.190   8.994  1.6784 -0.6222  1.5109
 4818SOL     OW26089   3.751   2.154  14.336 -0.0695  0.1316 -0.3696
 4818SOL    HW126090   3.730   2.236  14.381  0.8066 -0.4656  1.1178
 4818SOL    HW226091   3.741   2.181  14.244 -0.7232 -2.0443 -0.9388
 4819SOL     OW26092   1.204   0.402  10.065  0.6639 -0.0562 -1.0768
 4819SOL    HW126093   1.124   0.372  10.021 -0.7880  1.2309  0.7323
 4819SOL    HW226094   1.181   0.494  10.074 -0.8892 -0.7022  1.3320
 4820SOL     OW26095   1.446   0.044   5.218  0.3551 -0.3110  0.2293
 4820SOL    HW126096   1.399   4.704   5.245 -0.7428 -0.2941 -1.6469
 4820SOL    HW226097   1.431   0.099   5.295 -0.6767  1.0951 -0.9770
 4821SOL     OW26098   4.381   1.578  15.279  0.3013  0.5450 -0.4216
 4821SOL    HW126099   4.440   1.581  15.204 -0.1756 -0.2745 -0.8261
 4821SOL    HW226100   4.339   1.663  15.292  0.6490  0.4012  1.6739
 4822SOL     OW26101   1.403   3.165   5.764 -0.2616  0.3581 -0.3581
 4822SOL    HW126102   1.415   3.094   5.702 -2.0186  0.1606 -0.4875
 4822SOL    HW226103   1.478   3.224   5.761  0.8098 -0.9827  0.0364
 4823SOL     OW26104   0.713   1.594   7.628  0.2914 -0.0880 -0.0015
 4823SOL    HW126105   0.621   1.578   7.610 -0.1066  1.7371  0.5218
 4823SOL    HW226106   0.734   1.526   7.692  0.6202  0.5044  0.5226
 4824SOL     OW26107   2.269   3.379   6.865 -0.5027  0.0734  0.3396
 4824SOL    HW126108   2.260   3.297   6.818  1.9061  1.0253 -1.7789
 4824SOL    HW226109   2.186   3.423   6.849 -0.0022  1.4320  1.3993
 4825SOL     OW26110   4.492   3.593   4.928  0.0208 -0.5717  0.3156
 4825SOL    HW126111   4.568   3.578   4.985  0.5093  0.5034 -0.0525
 4825SOL    HW226112   4.447   3.666   4.971  1.5312  1.5345 -1.6931
 4826SOL     OW26113   3.442   3.400   2.951 -0.4719  0.1147  0.7054
 4826SOL    HW126114   3.384   3.413   2.875 -0.5247  0.3241  0.7808
 4826SOL    HW226115   3.527   3.404   2.907  0.1068 -3.1010  1.5419
 4827SOL     OW26116   3.616   2.677   3.753  0.3883  0.0628 -0.1820
 4827SOL    HW126117   3.687   2.697   3.693 -0.6621  1.6736 -0.8823
 4827SOL    HW226118   3.651   2.705   3.838 -0.7268  1.0039 -0.0336
 4828SOL     OW26119   2.659   1.298  11.552 -0.2523  0.3589 -0.0684
 4828SOL    HW126120   2.573   1.318  11.589 -0.5058  0.7023 -0.8410
 4828SOL    HW226121   2.643   1.216  11.506  0.9126 -0.4405  0.9246
 4829SOL     OW26122   0.084   4.621   1.631 -0.6243  0.6653  0.2874
 4829SOL    HW126123   0.049   4.533   1.644 -1.4512  0.9650  0.0712
 4829SOL    HW226124   0.147   4.612   1.559  0.2031 -3.3524  1.4820
 4830SOL     OW26125   1.009   1.771   9.722  0.0580  0.2273 -0.1291
 4830SOL    HW126126   1.102   1.787   9.736  0.2868 -1.9079  0.8387
 4830SOL    HW226127   0.993   1.694   9.777  0.5791 -0.0872 -0.4210
 4831SOL     OW26128   2.888   2.426   8.952  0.1721 -0.1262 -0.4330
 4831SOL    HW126129   2.973   2.383   8.944  1.4755  2.3821 -0.0833
 4831SOL    HW226130   2.920   2.492   9.014 -2.4773  0.7409  0.0311
 4832SOL     OW26131   0.488   2.522  10.518 -0.5868 -0.3248 -0.3551
 4832SOL    HW126132   0.524   2.434  10.518 -0.3040 -0.2081 -1.4231
 4832SOL    HW226133   0.476   2.537  10.612  0.9763 -0.9860 -0.0462
 4833SOL     OW26134   1.227   0.867   3.602 -0.1398  0.5291 -0.1424
 4833SOL    HW126135   1.275   0.832   3.527  0.6506  0.3414  0.4566
 4833SOL    HW226136   1.212   0.956   3.571 -0.9402 -0.0899 -1.5188
 4834SOL     OW26137   1.643   3.633   3.543 -0.5468 -0.5941 -0.2296
 4834SOL    HW126138   1.676   3.686   3.470 -3.3167  1.9065  0.3621
 4834SOL    HW226139   1.654   3.690   3.620  0.3042 -0.7725 -0.2209
 4835SOL     OW26140   3.191   2.636   4.043  0.0217 -0.2196 -0.2601
 4835SOL    HW126141   3.147   2.554   4.064 -2.7293  1.4385  0.5761
 4835SOL    HW226142   3.237   2.600   3.968  0.6940 -2.9359  1.4602
 4836SOL     OW26143   3.988   2.682   0.497  0.2200  0.1123 -0.2280
 4836SOL    HW126144   3.942   2.736   0.433  1.1805 -0.8279 -1.7080
 4836SOL    HW226145   3.990   2.737   0.576 -1.7719  0.4147 -0.3802
 4837SOL     OW26146   3.897   3.370   8.506  0.0329 -0.2562 -0.4151
 4837SOL    HW126147   3.939   3.285   8.505 -1.4093 -0.9483 -2.8133
 4837SOL    HW226148   3.956   3.417   8.447  0.5840 -0.2722  0.1224
 4838SOL     OW26149   0.245   4.273   4.798  0.3759  0.1073 -0.1255
 4838SOL    HW126150   0.321   4.314   4.756 -0.3508  1.9007  0.3291
 4838SOL    HW226151   0.208   4.223   4.725  0.3370 -1.5538  1.0267
 4839SOL     OW26152   2.777   1.622   8.145 -0.2842  0.0952 -0.3315
 4839SOL    HW126153   2.858   1.670   8.131 -1.3642  2.1289  0.4025
 4839SOL    HW226154   2.736   1.634   8.060 -0.2066  0.4989 -0.3096
 4840SOL     OW26155   1.264   1.547   5.587  0.3018  0.4794  0.0679
 4840SOL    HW126156   1.237   1.487   5.518 -0.5599 -1.0258  1.7282
 4840SOL    HW226157   1.190   1.607   5.588 -0.4375 -0.4294 -0.4399
 4841SOL     OW26158   1.240   3.208   3.424  0.0949 -0.4006 -0.0485
 4841SOL    HW126159   1.191   3.195   3.505  0.0052 -0.2640 -0.0808
 4841SOL    HW226160   1.204   3.138   3.370  0.3644 -1.5677  1.2801
 4842SOL     OW26161   4.528   3.713  14.213  0.8460  0.2451 -0.0048
 4842SOL    HW126162   4.439   3.685  14.191  0.9485 -0.3656  0.3688
 4842SOL    HW226163   4.587   3.646  14.180  0.8641  0.1507  0.2178
 4843SOL     OW26164   4.082   0.310   1.099 -0.8800 -0.2360  0.4726
 4843SOL    HW126165   4.175   0.328   1.085 -1.5853  0.3257 -3.4546
 4843SOL    HW226166   4.074   0.329   1.192 -1.5967  3.1413 -0.2892
 4844SOL     OW26167   3.053   1.953   7.938  0.6336  0.8120 -0.9049
 4844SOL    HW126168   2.971   1.996   7.961  1.3310  1.6186  0.0863
 4844SOL    HW226169   3.043   1.909   7.854  0.3576  0.5838 -0.7539
 4845SOL     OW26170   0.495   4.722   6.720 -0.8522  0.3450 -0.1879
 4845SOL    HW126171   0.427   0.024   6.773  1.8643  3.8042  0.5971
 4845SOL    HW226172   0.431   4.688   6.657 -1.1825 -0.4134  0.5520
 4846SOL     OW26173   4.190   1.750   3.033 -0.0840  0.4817 -0.0006
 4846SOL    HW126174   4.134   1.816   2.991 -0.4661  0.6162  0.7092
 4846SOL    HW226175   4.139   1.722   3.110  1.7566 -2.8624  0.0162
 4847SOL     OW26176   1.911   0.870  13.534 -0.0446  0.1101 -1.2337
 4847SOL    HW126177   1.995   0.916  13.536  0.9514 -1.6644 -1.9678
 4847SOL    HW226178   1.872   0.897  13.617 -2.0309  1.8649 -2.7423
 4848SOL     OW26179   3.771   0.518  11.117 -0.2762  0.2003  0.0934
 4848SOL    HW126180   3.701   0.578  11.090 -0.1100  1.1016  1.6728
 4848SOL    HW226181   3.728   0.433  11.111 -1.5821  0.9117 -0.7329
 4849SOL     OW26182   3.413   1.599  13.219 -0.5708  0.3172  0.0602
 4849SOL    HW126183   3.426   1.632  13.307  0.2060  1.3582 -0.4439
 4849SOL    HW226184   3.496   1.573  13.178 -0.7265  0.9957 -0.6912
 4850SOL     OW26185   2.892   2.752   2.936  0.4705 -0.0582  0.0704
 4850SOL    HW126186   2.877   2.688   3.005  3.5901  0.3407  1.1482
 4850SOL    HW226187   2.811   2.803   2.933 -0.0012 -0.7480  1.6218
 4851SOL     OW26188   0.179   1.423  12.464 -0.0114  0.3846 -0.3365
 4851SOL    HW126189   0.203   1.430  12.556 -1.3049 -1.8219  0.1655
 4851SOL    HW226190   0.113   1.490  12.445 -1.1048 -0.7169 -0.4504
 4852SOL     OW26191   1.249   1.265  13.252 -0.1188 -0.2658  0.5956
 4852SOL    HW126192   1.266   1.273  13.158 -2.9446 -0.2811  0.0920
 4852SOL    HW226193   1.282   1.183  13.289  0.1532 -0.6612 -0.5230
 4853SOL     OW26194   2.966   1.297   8.061 -0.0676  0.3329  0.0075
 4853SOL    HW126195   2.977   1.310   7.967 -1.1217 -2.5795 -0.5344
 4853SOL    HW226196   2.960   1.201   8.058 -0.8387  0.3909 -0.2208
 4854SOL     OW26197   2.137   0.410   4.199 -0.1199 -0.3156 -0.3545
 4854SOL    HW126198   2.155   0.451   4.114 -1.0096 -1.7675 -1.2344
 4854SOL    HW226199   2.206   0.343   4.191 -0.3479 -0.6629  0.6004
 4855SOL     OW26200   2.903   2.205   7.565  0.2335 -0.0612 -0.2104
 4855SOL    HW126201   2.942   2.259   7.634  0.0377 -1.2167  0.8104
 4855SOL    HW226202   2.823   2.186   7.613 -0.6712 -0.1038 -1.7425
 4856SOL     OW26203   0.762   2.247   5.092 -0.0651 -0.3184  0.8879
 4856SOL    HW126204   0.787   2.160   5.121 -2.2542 -1.5448 -0.9315
 4856SOL    HW226205   0.668   2.259   5.111 -0.1892 -1.8898  1.2112
 4857SOL     OW26206   2.667   1.410  12.005  0.4838 -0.3036  0.0468
 4857SOL    HW126207   2.705   1.352  11.938  2.8014 -1.0951  2.0523
 4857SOL    HW226208   2.605   1.464  11.955 -0.0769 -1.9365 -0.9996
 4858SOL     OW26209   1.178   2.445  11.126 -0.7662  0.3167 -0.3315
 4858SOL    HW126210   1.158   2.356  11.097 -0.1918 -0.0718  0.4626
 4858SOL    HW226211   1.274   2.448  11.130 -0.5219 -3.0714 -3.7724
 4859SOL     OW26212   0.187   0.719   2.545  0.1152 -0.1709 -0.3692
 4859SOL    HW126213   0.182   0.696   2.452 -0.5083  0.2851 -0.4479
 4859SOL    HW226214   0.279   0.705   2.568 -0.4155 -0.3101  1.6614
 4860SOL     OW26215   4.554   2.116   6.286 -0.4184  0.2998 -0.3021
 4860SOL    HW126216   4.463   2.090   6.302  0.0836 -1.3569 -0.1166
 4860SOL    HW226217   4.554   2.211   6.300  1.8516  0.0559  1.3426
 4861SOL     OW26218   0.013   0.160   8.930 -0.4796 -0.4687  0.5040
 4861SOL    HW126219   0.003   0.065   8.926  0.3813 -0.4139 -2.6102
 4861SOL    HW226220   0.106   0.180   8.921 -0.7817 -0.4432 -2.4039
 4862SOL     OW26221   2.810   2.443   3.751  0.0385  0.5930  0.1829
 4862SOL    HW126222   2.864   2.482   3.683 -0.5355 -1.1789 -1.2796
 4862SOL    HW226223   2.725   2.428   3.709 -0.3359 -1.5018  1.7024
 4863SOL     OW26224   1.030   2.670   2.229  0.2066  0.0202 -0.0120
 4863SOL    HW126225   1.094   2.600   2.220 -0.7173 -0.9815  1.1120
 4863SOL    HW226226   0.986   2.641   2.310  3.4330 -1.8430  1.0583
 4864SOL     OW26227   1.190   1.281   6.494 -0.0584  0.4205 -0.0014
 4864SOL    HW126228   1.270   1.326   6.469  0.9364 -1.0109  0.6171
 4864SOL    HW226229   1.227   1.218   6.556  0.3903  2.8125  2.1267
 4865SOL     OW26230   3.175   0.708   5.332  0.0729 -0.8065 -0.2827
 4865SOL    HW126231   3.086   0.736   5.312 -0.9897 -2.5259  2.0435
 4865SOL    HW226232   3.154   0.615   5.334  1.2908 -1.0860 -0.4787
 4866SOL     OW26233   1.108   2.342  17.652 -0.1088  0.4266  0.2672
 4866SOL    HW126234   1.128   2.385  17.735  1.3406 -0.3303  0.3080
 4866SOL    HW226235   1.026   2.382  17.624 -0.2256  0.4349  0.6105
 4867SOL     OW26236   2.935   0.392  11.059 -0.1274  0.4523 -0.0588
 4867SOL    HW126237   2.946   0.346  10.975 -0.5681  0.6572 -0.2276
 4867SOL    HW226238   2.875   0.338  11.110  0.8527  0.7311  1.3806
 4868SOL     OW26239   0.469   2.886   7.139 -0.1050 -0.0126 -0.0665
 4868SOL    HW126240   0.533   2.848   7.199  1.7735  1.0446 -1.3616
 4868SOL    HW226241   0.437   2.803   7.104  1.3001 -0.8580  0.6579
 4869SOL     OW26242   3.833   3.921  13.099 -0.0805  0.3021 -0.1432
 4869SOL    HW126243   3.856   4.013  13.085  0.2524  0.0628 -1.1243
 4869SOL    HW226244   3.919   3.881  13.087 -0.1585  0.3758 -0.9445
 4870SOL     OW26245   1.915   4.289  14.465 -0.0409  0.0778 -0.0551
 4870SOL    HW126246   2.005   4.274  14.436 -1.0137 -2.7902 -1.6026
 4870SOL    HW226247   1.928   4.363  14.524  0.7051  1.6554 -2.1962
 4871SOL     OW26248   4.216   1.358   5.810 -0.0546 -0.4454 -0.3252
 4871SOL    HW126249   4.192   1.353   5.717 -0.3669 -1.0961 -0.2050
 4871SOL    HW226250   4.158   1.432   5.831 -0.2723  0.1014 -2.8287
 4872SOL     OW26251   4.443   2.731   4.094 -0.2689  0.0524 -0.0414
 4872SOL    HW126252   4.449   2.639   4.069 -3.4767  0.2473 -1.5309
 4872SOL    HW226253   4.409   2.770   4.013 -1.0221 -0.2055  0.1493
 4873SOL     OW26254   0.217   1.012   4.310  0.0355  0.2530 -0.9184
 4873SOL    HW126255   0.258   0.969   4.385 -3.0696  0.0494  0.6504
 4873SOL    HW226256   0.230   1.105   4.328 -0.3917 -0.1247  1.3037
 4874SOL     OW26257   4.489   1.340  14.985  0.4368 -0.1463  0.0710
 4874SOL    HW126258   4.394   1.339  14.973  0.2203  0.6061  1.8382
 4874SOL    HW226259   4.517   1.429  14.967  0.4481 -0.4751 -1.6153
 4875SOL     OW26260   1.540   0.785   0.648  0.1638  0.4399  0.2244
 4875SOL    HW126261   1.550   0.773   0.553  0.8285 -1.9214  0.5772
 4875SOL    HW226262   1.596   0.719   0.690 -0.7745  0.2754  1.2023
 4876SOL     OW26263   2.031   4.402  16.243 -0.1780  0.0909 -0.6710
 4876SOL    HW126264   1.967   4.470  16.220  1.1231  1.4015 -0.3644
 4876SOL    HW226265   2.029   4.391  16.338  0.7363  0.7510 -0.5761
 4877SOL     OW26266   2.625   2.721   4.920  0.1831  0.1294 -0.4465
 4877SOL    HW126267   2.619   2.785   4.850 -0.1777  2.2062  1.4630
 4877SOL    HW226268   2.621   2.635   4.878  1.6068 -0.5311  0.7395
 4878SOL     OW26269   2.139   2.869  10.243 -0.2452 -0.6732  0.2624
 4878SOL    HW126270   2.178   2.782  10.255 -1.7428 -0.9292  3.1605
 4878SOL    HW226271   2.134   2.901  10.333 -0.6656  2.9542 -1.0506
 4879SOL     OW26272   1.438   0.030  10.054  0.7096 -0.0282 -0.3134
 4879SOL    HW126273   1.481   0.076   9.981 -0.4689 -2.1061 -2.2862
 4879SOL    HW226274   1.420   0.109  10.106 -0.2680 -1.2584  1.1997
 4880SOL     OW26275   4.117   1.050   2.295 -0.1132 -1.0217  0.2435
 4880SOL    HW126276   4.194   0.997   2.272 -0.5863 -1.6777  0.1829
 4880SOL    HW226277   4.129   1.120   2.231  2.0971 -0.2501  1.4876
 4881SOL     OW26278   4.105   1.202   1.742  0.8127  0.4432 -0.0504
 4881SOL    HW126279   4.029   1.259   1.730  0.5339  0.4686  1.7607
 4881SOL    HW226280   4.170   1.259   1.781  1.7709 -0.3602 -0.4801
 4882SOL     OW26281   4.682   1.363  15.365 -0.0622 -0.9129 -0.2493
 4882SOL    HW126282   0.008   1.303  15.401  1.6345  1.5707  0.8818
 4882SOL    HW226283   4.705   1.437  15.423  0.5807 -1.3065  0.0003
 4883SOL     OW26284   3.831   0.264  12.952 -0.3428  0.0939 -0.0483
 4883SOL    HW126285   3.853   0.344  13.000  0.8323 -0.2316 -0.0520
 4883SOL    HW226286   3.877   0.286  12.872 -0.7292  1.4407  0.1062
 4884SOL     OW26287   4.100   2.971   3.177  0.1572 -0.1525 -0.3667
 4884SOL    HW126288   4.110   3.014   3.092 -2.0181  0.1738 -0.4543
 4884SOL    HW226289   4.094   2.883   3.138  0.1460 -0.1702 -0.3250
 4885SOL     OW26290   1.090   0.540  10.690  0.1366  0.2865 -0.1668
 4885SOL    HW126291   1.021   0.606  10.695 -1.1799 -1.2125  1.7639
 4885SOL    HW226292   1.030   0.467  10.673  0.6999  0.2801 -2.1121
 4886SOL     OW26293   0.683   1.190   5.642  0.3128  0.2302 -0.0090
 4886SOL    HW126294   0.691   1.275   5.684  0.6968  0.9339 -1.4939
 4886SOL    HW226295   0.591   1.197   5.615  0.2219 -0.5661  0.0909
 4887SOL     OW26296   2.316   4.333   3.084  0.1833  0.2464 -0.0958
 4887SOL    HW126297   2.337   4.411   3.031  1.4739 -0.3536 -0.4821
 4887SOL    HW226298   2.229   4.319   3.048 -0.7112 -1.8362  2.9299
 4888SOL     OW26299   0.952   0.563   8.524  0.4763 -0.2249  0.2727
 4888SOL    HW126300   1.040   0.599   8.509  0.7120 -0.7707  0.3571
 4888SOL    HW226301   0.914   0.571   8.437  0.3383  0.1117  0.3637
 4889SOL     OW26302   2.328   2.396   2.299 -0.2545  0.1385  0.4486
 4889SOL    HW126303   2.391   2.423   2.365  1.6073  0.6898 -1.5493
 4889SOL    HW226304   2.256   2.457   2.315  0.5757  0.4006  3.1467
 4890SOL     OW26305   0.131   3.059  16.926  0.1338 -0.6245 -0.2936
 4890SOL    HW126306   0.186   3.120  16.878  1.4719 -0.3935  1.5570
 4890SOL    HW226307   0.171   3.062  17.012 -3.5384 -1.2186  1.4531
 4891SOL     OW26308   2.765   1.031   3.719 -0.3023 -0.0106 -0.5023
 4891SOL    HW126309   2.832   1.044   3.652  0.2296  0.9054  0.1988
 4891SOL    HW226310   2.816   1.027   3.800  1.5035 -1.3676 -1.7021
 4892SOL     OW26311   1.440   0.911   5.206 -0.4094 -0.0353  0.6346
 4892SOL    HW126312   1.529   0.884   5.184 -0.9741 -0.1495 -1.4541
 4892SOL    HW226313   1.454   0.972   5.279  1.3960 -1.6613  1.6786
 4893SOL     OW26314   3.875   0.853  14.908 -0.0836  0.1454  0.4359
 4893SOL    HW126315   3.905   0.776  14.956 -0.0682  0.7000  1.3199
 4893SOL    HW226316   3.811   0.815  14.847 -1.9633  3.4198  0.3622
 4894SOL     OW26317   3.457   2.532  17.633 -0.1646 -0.0034 -0.2512
 4894SOL    HW126318   3.523   2.497  17.572  1.3015 -1.8779  2.3888
 4894SOL    HW226319   3.516   2.573  17.696  0.8756 -0.1859 -1.1079
 4895SOL     OW26320   3.689   3.892   7.858 -0.0983  0.7103 -0.1229
 4895SOL    HW126321   3.744   3.932   7.791  0.1114  0.9898  0.2189
 4895SOL    HW226322   3.718   3.924   7.943 -2.7849 -0.4445  1.2233
 4896SOL     OW26323   4.081   2.683   6.159  1.2542  0.4338 -0.7750
 4896SOL    HW126324   4.134   2.702   6.237  0.5204 -0.3825 -0.0854
 4896SOL    HW226325   4.115   2.760   6.113 -1.3166  2.4828  0.7769
 4897SOL     OW26326   1.279   2.077  16.742  0.0970  0.0524  0.0367
 4897SOL    HW126327   1.323   2.011  16.690 -3.0005 -2.3667  0.4511
 4897SOL    HW226328   1.202   2.027  16.771 -1.3177  1.5011 -1.1952
 4898SOL     OW26329   3.106   0.509   2.025  0.6126 -0.3898  0.4394
 4898SOL    HW126330   3.200   0.515   2.004  0.0018  0.0267 -2.2334
 4898SOL    HW226331   3.091   0.594   2.067  3.0665  0.8882 -1.2379
 4899SOL     OW26332   1.636   2.456   7.079  0.0695  0.0397  0.3000
 4899SOL    HW126333   1.706   2.393   7.095  0.1409  0.1936  0.5785
 4899SOL    HW226334   1.637   2.503   7.162  2.2183 -0.3258  0.4891
 4900SOL     OW26335   2.114   3.615   2.643  0.3719  0.1222 -0.4112
 4900SOL    HW126336   2.023   3.630   2.618  1.1764  1.7098 -2.3306
 4900SOL    HW226337   2.148   3.672   2.574  0.4822  1.6191  0.8992
 4901SOL     OW26338   0.909   2.070   7.423  0.2636 -0.0378 -0.5470
 4901SOL    HW126339   0.839   2.023   7.467  0.3247 -0.1163 -0.5352
 4901SOL    HW226340   0.983   2.029   7.467  2.5273  2.1616 -2.2861
 4902SOL     OW26341   0.061   2.856   9.407 -0.4575 -0.6514 -0.1443
 4902SOL    HW126342   0.067   2.924   9.340 -2.6996  0.3645  0.6962
 4902SOL    HW226343   4.707   2.865   9.426 -0.0280 -0.5421  1.8344
 4903SOL     OW26344   2.376   1.656  10.471  0.1585 -0.1768  0.2038
 4903SOL    HW126345   2.291   1.689  10.501  0.0986  0.4294 -0.6313
 4903SOL    HW226346   2.407   1.724  10.412  0.8011 -1.6337 -1.1342
 4904SOL     OW26347   0.820   2.868  10.500 -0.9751 -0.3518  0.0909
 4904SOL    HW126348   0.809   2.963  10.506  0.6834 -0.1392 -0.3256
 4904SOL    HW226349   0.738   2.833  10.465  0.2349 -1.3539 -1.7117
 4905SOL     OW26350   0.319   2.081   5.274  0.7062 -0.3044 -0.0688
 4905SOL    HW126351   0.380   2.155   5.267  0.5981 -0.4600 -2.4309
 4905SOL    HW226352   0.356   2.035   5.350 -3.4472  0.0199  2.1691
 4906SOL     OW26353   0.445   1.732  15.273  0.0622 -0.3000 -0.6217
 4906SOL    HW126354   0.485   1.776  15.198  1.5661 -0.9498 -0.2053
 4906SOL    HW226355   0.466   1.798  15.340 -2.3442 -1.0829  0.9021
 4907SOL     OW26356   0.012   2.680   1.895  0.4997 -0.1579 -0.2538
 4907SOL    HW126357   4.686   2.633   1.844 -0.9150  0.5432  0.8992
 4907SOL    HW226358   4.699   2.753   1.928  1.8744  0.4942  0.5308
 4908SOL     OW26359   0.637   1.412   7.065  0.0747  0.2990  0.0491
 4908SOL    HW126360   0.598   1.324   7.059  1.4244 -0.3086  0.1342
 4908SOL    HW226361   0.671   1.415   7.154  1.9436  1.9363 -0.7392
 4909SOL     OW26362   1.965   1.045   1.389 -0.4968  0.2023 -0.3023
 4909SOL    HW126363   1.910   1.108   1.436  0.2739  1.1340 -0.6464
 4909SOL    HW226364   1.960   1.083   1.302  2.4204  3.5233  0.9885
 4910SOL     OW26365   0.363   4.044   6.444 -0.3089 -0.2033 -0.1021
 4910SOL    HW126366   0.322   3.993   6.514  2.5635 -3.5748 -0.9107
 4910SOL    HW226367   0.291   4.098   6.409  0.4874 -0.7665 -2.5902
 4911SOL     OW26368   3.554   3.633   1.456 -0.1327  0.0754 -0.4070
 4911SOL    HW126369   3.514   3.718   1.443  0.5196  0.4764  0.1438
 4911SOL    HW226370   3.482   3.570   1.457 -0.0239 -0.0454  2.5021
 4912SOL     OW26371   0.716   1.114  10.138  0.0976 -0.1946 -0.4551
 4912SOL    HW126372   0.800   1.143  10.173 -1.0145  2.0835  0.3018
 4912SOL    HW226373   0.687   1.054  10.207 -0.1202  0.3817 -0.0502
 4913SOL     OW26374   1.782   0.412   1.073 -0.3743  0.4555  0.7731
 4913SOL    HW126375   1.784   0.455   1.159 -0.3002 -1.3934  1.6808
 4913SOL    HW226376   1.822   0.331   1.103  0.6476  0.9671  0.7785
 4914SOL     OW26377   2.668   4.002   5.270  0.2790  0.1662  0.3772
 4914SOL    HW126378   2.659   3.915   5.307 -2.7117 -0.3807 -1.6486
 4914SOL    HW226379   2.574   4.016   5.256 -0.0501 -1.7093  0.8107
 4915SOL     OW26380   4.245   2.742   3.545  0.1153 -0.2009  0.3095
 4915SOL    HW126381   4.155   2.734   3.576  1.0241 -0.2896  2.9764
 4915SOL    HW226382   4.281   2.660   3.580  1.4385  0.2496  0.0287
 4916SOL     OW26383   0.816   2.037   0.234 -0.3414  0.2347 -0.4281
 4916SOL    HW126384   0.874   1.968   0.202 -0.4845 -2.1075  4.3684
 4916SOL    HW226385   0.824   2.102   0.165  0.3665  0.7906  0.1835
 4917SOL     OW26386   1.063   4.472  13.024  0.5366  0.7491  0.2891
 4917SOL    HW126387   1.042   4.398  12.967 -1.9805  1.3899  0.3719
 4917SOL    HW226388   1.144   4.435  13.059  0.4534 -0.1595 -0.4859
 4918SOL     OW26389   1.882   0.004   6.236  0.0856 -0.2090  0.0376
 4918SOL    HW126390   1.898   0.098   6.231  0.8758 -0.3734 -0.5252
 4918SOL    HW226391   1.788   0.011   6.248  0.0368 -1.2238  0.2420
 4919SOL     OW26392   2.334   0.083   0.949 -0.4579 -0.1997  0.3020
 4919SOL    HW126393   2.267   0.147   0.973 -0.9352 -1.7427  3.0425
 4919SOL    HW226394   2.397   0.135   0.899 -2.1865  0.2863 -1.3378
 4920SOL     OW26395   4.404   3.369   9.212  0.0707 -0.4309 -0.1378
 4920SOL    HW126396   4.398   3.446   9.268 -2.0246 -1.6837  1.3299
 4920SOL    HW226397   4.497   3.351   9.230  0.1586  0.2869  0.1287
 4921SOL     OW26398   1.651   1.927   6.970  0.2180 -0.6489 -0.1478
 4921SOL    HW126399   1.617   1.910   6.882  1.7519 -1.6972 -0.5532
 4921SOL    HW226400   1.604   2.006   6.995  0.5828 -0.7011  0.7096
 4922SOL     OW26401   3.592   1.733  16.973 -0.2537 -0.5038 -1.1537
 4922SOL    HW126402   3.670   1.679  16.961  1.1100  0.9152  1.1081
 4922SOL    HW226403   3.578   1.766  16.885  1.1319  0.8678 -0.8771
 4923SOL     OW26404   2.637   3.808   9.014  0.1352  0.3521  0.1354
 4923SOL    HW126405   2.700   3.769   9.075 -0.1997 -1.2119 -0.5446
 4923SOL    HW226406   2.602   3.883   9.063 -2.7423 -1.4841  0.8546
 4924SOL     OW26407   4.488   4.175   2.398 -0.4747 -0.0274  0.7686
 4924SOL    HW126408   4.430   4.103   2.373  1.5104 -1.4439  0.2593
 4924SOL    HW226409   4.426   4.244   2.421 -1.7425 -0.6207 -0.8577
 4925SOL     OW26410   4.549   1.343   0.155  0.4781  0.3434  0.0340
 4925SOL    HW126411   4.489   1.418   0.153  1.8441  1.3885 -1.8073
 4925SOL    HW226412   4.574   1.346   0.063  0.4778 -1.5020 -0.0294
 4926SOL     OW26413   2.076   2.759  15.061 -0.4599 -0.1157 -0.4861
 4926SOL    HW126414   2.006   2.738  15.122  0.4163  0.8674  0.8600
 4926SOL    HW226415   2.147   2.768  15.125 -1.7190 -1.3589  1.0716
 4927SOL     OW26416   4.362   0.370   5.125  0.1417 -0.8021 -0.7826
 4927SOL    HW126417   4.412   0.379   5.206  3.1475  0.2825 -2.7539
 4927SOL    HW226418   4.403   0.447   5.085 -3.1299  1.3252  0.0151
 4928SOL     OW26419   1.581   3.820  11.538  0.0298  0.3589  0.8292
 4928SOL    HW126420   1.505   3.771  11.569  1.1611 -2.5159 -0.9271
 4928SOL    HW226421   1.602   3.743  11.485 -2.3718  0.3485 -0.1069
 4929SOL     OW26422   2.373   4.241   2.329 -0.0403  0.0938  0.1927
 4929SOL    HW126423   2.466   4.253   2.350 -0.2297  1.7163  0.0592
 4929SOL    HW226424   2.370   4.146   2.345 -0.1925 -0.1041 -1.0065
 4930SOL     OW26425   0.196   1.884  10.117  0.2846  0.2922  0.0880
 4930SOL    HW126426   0.180   1.895  10.024  1.4669  0.5804 -0.0816
 4930SOL    HW226427   0.256   1.810  10.110 -1.1766 -1.0925  2.1847
 4931SOL     OW26428   4.384   2.199   5.425 -0.4641  0.0057 -0.2469
 4931SOL    HW126429   4.363   2.235   5.512 -1.0506  1.3035 -0.9297
 4931SOL    HW226430   4.471   2.160   5.438 -2.2355 -4.1186 -1.0126
 4932SOL     OW26431   1.427   4.582   9.012 -0.2946  0.6772  0.2579
 4932SOL    HW126432   1.448   4.594   8.920  0.3223  1.8539  0.5516
 4932SOL    HW226433   1.385   4.496   9.008  1.3568 -0.1253  0.3952
 4933SOL     OW26434   0.137   0.651   5.687  0.2710  0.1654  0.4082
 4933SOL    HW126435   0.201   0.681   5.622  0.8231  1.4537  1.5384
 4933SOL    HW226436   0.138   0.729   5.743 -0.7190  0.6402 -0.2164
 4934SOL     OW26437   1.010   3.093   8.442  0.2404  0.2118 -0.2669
 4934SOL    HW126438   1.070   3.031   8.484  1.2762  2.0112  0.9569
 4934SOL    HW226439   1.046   3.094   8.354 -0.0859  0.5741 -0.3978
 4935SOL     OW26440   1.755   1.497   7.810  0.6196 -0.1050  0.2375
 4935SOL    HW126441   1.822   1.509   7.742 -0.5402 -3.4543 -1.4905
 4935SOL    HW226442   1.678   1.457   7.769  1.5224 -0.6724 -0.9108
 4936SOL     OW26443   3.131   4.151   9.223 -0.4163 -0.5632 -0.7279
 4936SOL    HW126444   3.092   4.136   9.309 -0.1505  2.4954 -0.0741
 4936SOL    HW226445   3.050   4.158   9.173 -0.2857  0.4722 -0.8004
 4937SOL     OW26446   3.131   1.600   7.005 -0.0688  0.8333 -0.3073
 4937SOL    HW126447   3.182   1.526   6.974 -1.9028 -0.2486 -0.7331
 4937SOL    HW226448   3.048   1.565   7.035 -1.0633  3.0658 -0.4286
 4938SOL     OW26449   4.094   4.732  15.491  0.5685  0.0373 -0.2259
 4938SOL    HW126450   4.074   4.661  15.430  0.6909  0.6836 -1.0181
 4938SOL    HW226451   4.183   4.710  15.520  1.0469  0.3099 -1.5056
 4939SOL     OW26452   1.869   1.881   8.838 -0.2152  0.0598 -0.2245
 4939SOL    HW126453   1.846   1.899   8.929 -0.6940  1.7777 -0.6735
 4939SOL    HW226454   1.785   1.878   8.792  0.3238 -1.0988 -1.1266
 4940SOL     OW26455   1.355   1.801  10.112  0.3648 -0.1362  0.4284
 4940SOL    HW126456   1.275   1.754  10.137  0.9995 -1.8036 -0.7390
 4940SOL    HW226457   1.339   1.817  10.019 -1.0650  0.3773  0.7536
 4941SOL     OW26458   3.400   4.240  16.626  0.0121 -0.0061  0.5615
 4941SOL    HW126459   3.494   4.252  16.638  0.2322  0.1223 -1.2755
 4941SOL    HW226460   3.372   4.331  16.640  1.8658  0.5415  0.6980
 4942SOL     OW26461   4.579   2.355  16.532 -0.5343 -0.1885 -0.0620
 4942SOL    HW126462   4.593   2.415  16.459  1.6792 -1.0528 -0.3664
 4942SOL    HW226463   4.585   2.413  16.608 -3.0007 -1.3581  1.0189
 4943SOL     OW26464   2.020   3.605   7.684 -0.6730  0.2393  0.0905
 4943SOL    HW126465   1.985   3.562   7.762 -0.4609 -2.1998 -1.1625
 4943SOL    HW226466   1.968   3.683   7.666 -2.4561 -0.7938  0.7535
 4944SOL     OW26467   2.558   0.803   5.052 -0.0691  0.1286 -0.3038
 4944SOL    HW126468   2.483   0.765   5.005 -1.5596 -0.0142  2.1872
 4944SOL    HW226469   2.575   0.726   5.106  1.4361  0.0832 -0.8666
 4945SOL     OW26470   0.189   1.408   8.702  0.0575  0.1402  0.0794
 4945SOL    HW126471   0.250   1.338   8.679 -1.2536 -1.0561  0.2449
 4945SOL    HW226472   0.238   1.469   8.757  1.1902 -2.8283  2.3221
 4946SOL     OW26473   1.602   1.858   4.097 -0.6912 -0.5816 -0.0295
 4946SOL    HW126474   1.621   1.923   4.166 -1.6081 -2.0470  1.6087
 4946SOL    HW226475   1.642   1.904   4.024 -0.5817  0.4622  0.6764
 4947SOL     OW26476   2.115   2.672  16.188  0.1151  0.0106  0.0788
 4947SOL    HW126477   2.101   2.716  16.104 -2.7756 -1.0878 -0.0148
 4947SOL    HW226478   2.026   2.639  16.202 -0.3966  1.7924  1.0585
 4948SOL     OW26479   3.354   1.412   4.019  0.7176  0.3013 -0.0254
 4948SOL    HW126480   3.416   1.347   3.985  2.2876  1.4222  0.6740
 4948SOL    HW226481   3.329   1.383   4.106 -1.1813  2.4112  0.1380
 4949SOL     OW26482   4.271   4.364   9.008 -1.0046  0.2942 -0.0506
 4949SOL    HW126483   4.215   4.435   9.042 -0.3084  0.2725  1.1301
 4949SOL    HW226484   4.353   4.378   9.055 -2.0106 -0.8346  2.0262
 4950SOL     OW26485   3.297   2.124  16.495 -0.1597 -0.5875  0.8289
 4950SOL    HW126486   3.202   2.116  16.485 -0.0257 -1.7944  0.4639
 4950SOL    HW226487   3.295   2.204  16.547  1.0569 -0.0714  0.0911
 4951SOL     OW26488   2.350   2.232   5.204 -0.1985 -0.2259 -0.0199
 4951SOL    HW126489   2.271   2.235   5.151  0.7542 -0.9183 -1.4999
 4951SOL    HW226490   2.327   2.261   5.291  0.6407 -3.2158  1.2072
 4952SOL     OW26491   0.946   0.779   2.402  0.5477  0.1232 -0.2234
 4952SOL    HW126492   0.957   0.755   2.494  2.9969  0.9939 -0.2877
 4952SOL    HW226493   0.861   0.744   2.377  0.7985  0.4883 -1.5963
 4953SOL     OW26494   2.230   4.667  12.862  0.4420 -0.0440 -0.0614
 4953SOL    HW126495   2.306   4.722  12.878 -0.7841  1.3752  0.8884
 4953SOL    HW226496   2.269   4.589  12.902 -0.3919 -0.1748  0.5112
 4954SOL     OW26497   0.898   2.197   6.257  0.0224  0.5137 -0.0430
 4954SOL    HW126498   0.889   2.245   6.175 -1.6953 -0.9784 -0.7148
 4954SOL    HW226499   0.954   2.258   6.305 -0.4501  1.2953 -0.4838
 4955SOL     OW26500   2.091   1.722   5.222  0.3530 -0.2542  0.1365
 4955SOL    HW126501   2.102   1.647   5.280  0.8693 -1.9879 -2.1789
 4955SOL    HW226502   2.046   1.785   5.278 -0.5998  0.2534 -1.1995
 4956SOL     OW26503   3.415   3.748  11.704 -0.3453  0.3389  0.4538
 4956SOL    HW126504   3.373   3.799  11.634  0.1892  0.7379  0.4230
 4956SOL    HW226505   3.494   3.713  11.664  0.3536 -1.9386  3.9340
 4957SOL     OW26506   2.543   2.731   2.610  0.1198 -0.3962  0.4064
 4957SOL    HW126507   2.527   2.655   2.553  1.7882  0.9270 -1.7952
 4957SOL    HW226508   2.576   2.804   2.558 -1.2988 -0.4886 -0.6185
 4958SOL     OW26509   0.589   0.033   6.113 -0.1098  0.3354  0.1322
 4958SOL    HW126510   0.582   4.695   6.057 -1.7589 -0.7652  1.8898
 4958SOL    HW226511   0.644   0.006   6.186 -0.7069 -1.3522 -0.0530
 4959SOL     OW26512   1.240   1.928  10.985 -0.0278 -0.5484  0.7082
 4959SOL    HW126513   1.209   2.017  11.001 -0.3149 -0.4107 -0.6899
 4959SOL    HW226514   1.186   1.898  10.912  0.4447  2.1604 -0.7277
 4960SOL     OW26515   1.274   1.622   6.515  0.2904  0.0250  0.4607
 4960SOL    HW126516   1.198   1.613   6.573  1.3380 -0.7590  1.6829
 4960SOL    HW226517   1.254   1.703   6.467  1.5842 -0.7691 -1.3956
 4961SOL     OW26518   3.039   2.322   5.053  0.3742 -0.6831  0.6473
 4961SOL    HW126519   3.068   2.368   4.974 -0.5345  1.6414  1.6836
 4961SOL    HW226520   3.069   2.231   5.046 -1.0550 -1.2542  1.9801
 4962SOL     OW26521   1.231   3.070  10.678  0.0904 -0.0543  0.4155
 4962SOL    HW126522   1.210   3.089  10.586  0.7789 -0.6599  0.1346
 4962SOL    HW226523   1.324   3.051  10.667  0.2512  1.0511 -0.0919
 4963SOL     OW26524   2.191   3.728   4.784 -0.0706 -0.1625  0.0308
 4963SOL    HW126525   2.096   3.720   4.775 -0.0607 -1.0372  0.6877
 4963SOL    HW226526   2.217   3.643   4.820 -0.1733  0.7596  2.3261
 4964SOL     OW26527   3.194   2.099   0.921  0.3153 -0.8807  0.1702
 4964SOL    HW126528   3.283   2.131   0.905 -0.1898  1.3179  1.6608
 4964SOL    HW226529   3.220   2.068   1.008  0.4180 -0.1067  0.4213
 4965SOL     OW26530   2.921   1.533   0.131 -0.3001 -0.4500 -0.0422
 4965SOL    HW126531   2.860   1.480   0.080  0.5698 -0.5373 -0.9985
 4965SOL    HW226532   2.974   1.573   0.062  0.9671 -1.7942  0.1512
 4966SOL     OW26533   0.835   2.198  12.513  0.0642  0.2664 -0.2184
 4966SOL    HW126534   0.805   2.124  12.460 -0.9346  0.9854 -0.6497
 4966SOL    HW226535   0.890   2.147  12.573  1.4682  0.8629 -0.9916
 4967SOL     OW26536   0.526   1.102  14.648 -0.3832  0.3514 -0.2371
 4967SOL    HW126537   0.588   1.051  14.595 -1.8692 -3.6819  1.9469
 4967SOL    HW226538   0.581   1.179  14.664  0.1480 -0.1166  0.1790
 4968SOL     OW26539   4.211   3.289   2.511 -0.0214  0.2296 -0.2342
 4968SOL    HW126540   4.306   3.278   2.505  0.1783  1.0346  1.4917
 4968SOL    HW226541   4.191   3.269   2.420  1.1106 -1.4324 -0.1135
 4969SOL     OW26542   3.621   3.388   6.892 -0.1360 -0.5771 -0.0613
 4969SOL    HW126543   3.596   3.317   6.950  0.1584 -0.9421 -0.3792
 4969SOL    HW226544   3.685   3.338   6.841 -1.0975 -2.1750  0.2923
 4970SOL     OW26545   1.103   3.806   3.294 -0.1996 -0.1520  0.4368
 4970SOL    HW126546   1.056   3.723   3.284 -2.3505  0.9367  1.6145
 4970SOL    HW226547   1.145   3.780   3.376 -2.4505 -1.4446  1.1849
 4971SOL     OW26548   2.746   2.461   2.398 -0.1748  0.1382  0.5059
 4971SOL    HW126549   2.801   2.514   2.457  1.8701 -1.4082 -0.0066
 4971SOL    HW226550   2.736   2.514   2.319 -2.4940 -1.4165 -0.2165
 4972SOL     OW26551   2.401   0.066  16.879  0.1471 -0.3284  0.6967
 4972SOL    HW126552   2.403   4.710  16.873  0.7628 -0.2289 -0.6099
 4972SOL    HW226553   2.380   0.097  16.791 -1.2300 -1.9643  0.4507
 4973SOL     OW26554   2.741   1.352   5.878  0.0080 -0.6209  0.3228
 4973SOL    HW126555   2.725   1.365   5.972  1.1049 -1.4803  0.6309
 4973SOL    HW226556   2.725   1.442   5.850  0.7296 -0.0114  1.8342
 4974SOL     OW26557   0.973   3.812  10.927  0.1443 -0.1753 -0.5191
 4974SOL    HW126558   0.911   3.861  10.874 -0.6619 -1.0372 -0.3836
 4974SOL    HW226559   1.045   3.875  10.924 -0.4605  0.5068 -0.6615
 4975SOL     OW26560   4.221   3.242  13.976  0.6380  0.4524  0.5216
 4975SOL    HW126561   4.286   3.188  13.931  0.6428  0.8827  0.0120
 4975SOL    HW226562   4.233   3.203  14.063 -0.3931 -4.8557 -1.7694
 4976SOL     OW26563   3.000   1.434  14.966  0.4698  0.2182 -0.6595
 4976SOL    HW126564   2.924   1.437  14.908 -1.0682  0.2577  1.3579
 4976SOL    HW226565   2.984   1.479  15.049 -0.5137 -2.0422  0.3903
 4977SOL     OW26566   1.547   3.276  15.442 -0.0670 -0.4761  0.1080
 4977SOL    HW126567   1.504   3.360  15.422  1.1614 -0.1007 -0.9448
 4977SOL    HW226568   1.480   3.234  15.497 -0.6270  1.1374  0.6675
 4978SOL     OW26569   1.379   3.304   1.472  0.5516  0.0065  0.5533
 4978SOL    HW126570   1.332   3.223   1.455  0.3169  0.6663 -1.9716
 4978SOL    HW226571   1.431   3.313   1.392  1.4447 -3.0283  0.7983
 4979SOL     OW26572   1.445   2.248   4.492 -0.4726  0.0632  0.2025
 4979SOL    HW126573   1.527   2.208   4.520 -0.4902 -0.1821 -0.0980
 4979SOL    HW226574   1.466   2.341   4.502 -1.8736  0.5064 -0.9102
 4980SOL     OW26575   0.681   2.229   6.449  0.0869 -0.7149  0.6749
 4980SOL    HW126576   0.624   2.293   6.405 -1.3440 -1.7413  1.0545
 4980SOL    HW226577   0.753   2.221   6.386  1.0748  2.7228  1.3814
 4981SOL     OW26578   0.249   3.517   7.954  0.0281  0.1414 -0.1918
 4981SOL    HW126579   0.255   3.566   7.872  0.8900 -0.5938 -0.5745
 4981SOL    HW226580   0.284   3.429   7.937 -1.4508 -0.2902 -1.0631
 4982SOL     OW26581   1.564   1.370   3.991 -0.5206 -0.1967 -0.5919
 4982SOL    HW126582   1.503   1.311   4.036  0.7116 -0.2132  1.0723
 4982SOL    HW226583   1.538   1.449   4.039  3.3056  0.7005  0.0203
 4983SOL     OW26584   3.112   4.277   5.510  0.2344  0.0015 -0.0390
 4983SOL    HW126585   3.078   4.293   5.598  2.4358 -0.9697  0.9984
 4983SOL    HW226586   3.031   4.248   5.467 -0.6674  1.0359  0.9659
 4984SOL     OW26587   4.097   2.299  11.447  0.3974  0.1021  0.1775
 4984SOL    HW126588   4.117   2.282  11.355  0.1933  1.4354 -0.1215
 4984SOL    HW226589   4.170   2.360  11.460  1.5432 -0.7779 -2.0852
 4985SOL     OW26590   2.564   2.979   9.263 -0.7883  0.5331  0.7323
 4985SOL    HW126591   2.474   2.950   9.248 -0.5342 -0.4218  1.0553
 4985SOL    HW226592   2.595   3.007   9.177 -0.6196  0.7848  0.8767
 4986SOL     OW26593   1.945   3.738   1.875 -0.9733  0.0839 -0.5375
 4986SOL    HW126594   1.937   3.788   1.793 -1.0399  0.9507 -0.0004
 4986SOL    HW226595   2.007   3.791   1.924 -0.3825 -1.0137 -0.1144
 4987SOL     OW26596   3.405   4.731   2.844 -0.7852  0.1648 -0.4655
 4987SOL    HW126597   3.413   0.042   2.763 -0.5798  0.4566 -0.2598
 4987SOL    HW226598   3.335   4.671   2.816  0.3408 -1.4506  0.1380
 4988SOL     OW26599   4.003   2.200   6.563 -0.0125 -0.2842 -0.4987
 4988SOL    HW126600   3.982   2.181   6.654  1.3236  1.7369  0.2359
 4988SOL    HW226601   3.942   2.154   6.505  1.6253 -0.3481 -2.1739
 4989SOL     OW26602   3.988   0.321   5.572  0.2315 -0.4368 -0.3231
 4989SOL    HW126603   4.007   0.408   5.537 -4.3740  0.2189 -1.1753
 4989SOL    HW226604   4.076   0.284   5.565 -0.3217 -2.0575  1.3840
 4990SOL     OW26605   3.855   3.878  12.278  0.0083 -0.3008 -0.1196
 4990SOL    HW126606   3.773   3.849  12.318  1.3417 -0.9842  2.1183
 4990SOL    HW226607   3.876   3.796  12.236 -0.6971  0.2557 -1.5494
 4991SOL     OW26608   1.329   2.017   4.325 -0.6081 -0.4632  0.2862
 4991SOL    HW126609   1.388   1.977   4.388  0.5064  0.4310 -0.1937
 4991SOL    HW226610   1.316   2.103   4.363 -0.4063 -0.2067 -0.2214
 4992SOL     OW26611   0.753   2.908   8.505 -0.1518 -0.3999 -0.0795
 4992SOL    HW126612   0.731   2.981   8.447 -0.1059 -0.4425 -0.1499
 4992SOL    HW226613   0.789   2.939   8.588  1.5963  1.2719 -1.4810
 4993SOL     OW26614   2.582   4.503   5.102 -0.0801 -0.1589 -0.0007
 4993SOL    HW126615   2.561   4.594   5.119  1.2711  0.5204 -1.9019
 4993SOL    HW226616   2.508   4.484   5.044  0.2865  2.2506 -1.2642
 4994SOL     OW26617   1.959   0.337  10.000  0.0690 -0.1656  0.2870
 4994SOL    HW126618   1.865   0.335  10.019  0.4606  1.3966  2.4397
 4994SOL    HW226619   1.994   0.362  10.086 -2.8567  0.7594  1.2245
 4995SOL     OW26620   2.373   0.088   6.400 -0.8441 -0.5432 -0.2751
 4995SOL    HW126621   2.360   0.095   6.494  0.3395  0.6898 -0.2020
 4995SOL    HW226622   2.286   0.064   6.368 -0.3685 -1.2165 -1.0821
 4996SOL     OW26623   0.488   3.114  11.029 -0.0517  0.1029 -0.1937
 4996SOL    HW126624   0.475   3.131  11.122  2.4906 -0.8161  0.3190
 4996SOL    HW226625   0.399   3.089  11.003  0.7656 -2.2224 -0.8252
 4997SOL     OW26626   2.434   3.118   8.671  0.4583 -0.2605  0.4873
 4997SOL    HW126627   2.360   3.072   8.634  1.1838 -0.8092 -0.2772
 4997SOL    HW226628   2.406   3.121   8.762 -1.1317  2.4104 -0.1065
 4998SOL     OW26629   4.447   3.375  11.911 -0.4451 -0.0747  0.0277
 4998SOL    HW126630   4.422   3.375  12.003  0.8261  1.1371  0.3743
 4998SOL    HW226631   4.473   3.284  11.896  0.9732  0.0880  1.5618
 4999SOL     OW26632   4.116   4.678   8.253  0.0542  0.7039 -0.0387
 4999SOL    HW126633   4.044   0.002   8.248 -1.1861 -0.7302 -0.3539
 4999SOL    HW226634   4.125   4.649   8.162  2.1027 -0.8863  0.6735
 5000SOL     OW26635   1.515   2.227   7.276  0.3128 -0.0322  0.1289
 5000SOL    HW126636   1.519   2.228   7.181 -4.2942  1.0877 -0.0777
 5000SOL    HW226637   1.587   2.169   7.298  0.4815 -0.1385 -0.7255
 5001SOL     OW26638   4.736   1.906   0.319 -0.0779  0.0884  0.1320
 5001SOL    HW126639   4.735   2.002   0.315  0.4278  0.0918  0.1134
 5001SOL    HW226640   0.063   1.898   0.388 -1.8571 -0.5808  1.7482
 5002SOL     OW26641   0.880   4.142   8.389 -0.2290  0.1376 -0.8243
 5002SOL    HW126642   0.864   4.206   8.458  3.2850 -1.7927  1.7758
 5002SOL    HW226643   0.814   4.163   8.323 -1.2306 -0.7199 -0.0933
 5003SOL     OW26644   2.217   2.038   4.932  0.4048  0.5979 -0.2425
 5003SOL    HW126645   2.146   2.079   4.981  0.3940  0.5169 -0.1905
 5003SOL    HW226646   2.295   2.079   4.971  1.2881 -0.6035 -0.7472
 5004SOL     OW26647   3.043   4.259   8.868 -0.1500  0.2080 -0.4890
 5004SOL    HW126648   3.031   4.166   8.888  0.4321  0.5019  1.2486
 5004SOL    HW226649   2.997   4.279   8.787  0.6498 -2.5521 -1.6218
 5005SOL     OW26650   0.543   4.225  16.170  0.0113  0.8340  0.3416
 5005SOL    HW126651   0.499   4.310  16.174 -0.9087  0.3279  1.1867
 5005SOL    HW226652   0.600   4.222  16.247  0.0431 -1.8547  0.2214
 5006SOL     OW26653   3.557   2.353   0.117  0.1646  0.2757  0.3356
 5006SOL    HW126654   3.517   2.267   0.106  0.4793 -0.2277  3.1887
 5006SOL    HW226655   3.480   2.408   0.130 -0.5809 -0.4397 -1.0917
 5007SOL     OW26656   2.422   4.725  14.421  0.5917  0.2188  0.6962
 5007SOL    HW126657   2.424   0.077  14.449 -0.1898  0.5256 -0.2506
 5007SOL    HW226658   2.362   4.687  14.485 -1.1231  0.1564 -0.9768
 5008SOL     OW26659   4.369   0.037   7.470  0.1472 -0.1037  0.0949
 5008SOL    HW126660   4.370   0.077   7.557  1.1626  1.0568 -0.4399
 5008SOL    HW226661   4.347   4.685   7.489 -1.8090  0.3362 -0.1321
 5009SOL     OW26662   2.329   2.686  11.462  0.1359 -0.4525  0.1896
 5009SOL    HW126663   2.248   2.718  11.502 -0.2984  1.5187 -2.2777
 5009SOL    HW226664   2.306   2.682  11.369  2.3110  1.6738 -0.4280
 5010SOL     OW26665   0.283   2.767   2.901  1.1700 -0.5736  0.4359
 5010SOL    HW126666   0.332   2.837   2.858 -0.9178  0.5786 -0.0872
 5010SOL    HW226667   0.330   2.747   2.982  1.3516  0.3859  0.5628
 5011SOL     OW26668   0.107   2.316   4.692 -0.4176 -0.0394  0.2595
 5011SOL    HW126669   0.116   2.226   4.722 -0.2178 -0.3710 -0.7842
 5011SOL    HW226670   0.025   2.310   4.643  0.6444 -0.9146 -1.4089
 5012SOL     OW26671   0.522   0.226   3.345  0.0287 -0.5004 -0.0781
 5012SOL    HW126672   0.539   0.316   3.372  0.2771 -0.8010  0.7913
 5012SOL    HW226673   0.588   0.166   3.381  0.7005  0.5371  0.4087
 5013SOL     OW26674   3.173   1.153   9.181  0.4896  0.1767 -0.5490
 5013SOL    HW126675   3.267   1.140   9.179  0.4913  0.4822 -1.8833
 5013SOL    HW226676   3.171   1.218   9.252  0.8887 -0.8032  0.3626
 5014SOL     OW26677   2.193   3.738   4.008  0.2419  0.2176  0.3348
 5014SOL    HW126678   2.145   3.736   3.926  0.4137  1.8926  0.1955
 5014SOL    HW226679   2.184   3.646   4.034  0.1167  1.0992  3.4185
 5015SOL     OW26680   3.598   1.685   4.421  0.4859 -0.1926 -0.1106
 5015SOL    HW126681   3.557   1.702   4.506  1.5563  2.3070 -0.0883
 5015SOL    HW226682   3.531   1.666   4.355 -1.8880 -1.7055  2.7493
 5016SOL     OW26683   0.340   0.980   7.551 -0.2223 -0.5724  0.3403
 5016SOL    HW126684   0.260   0.978   7.604  0.9901 -1.1761  2.1463
 5016SOL    HW226685   0.313   0.923   7.479 -1.0196 -0.2135  0.3531
 5017SOL     OW26686   1.942   1.319   8.735  0.1319  0.0843 -0.3800
 5017SOL    HW126687   1.926   1.229   8.763 -1.1364  0.0659 -1.1703
 5017SOL    HW226688   2.035   1.324   8.710  0.1908 -0.3449 -0.2349
 5018SOL     OW26689   1.162   4.011  15.444  0.2361 -0.1904 -0.0262
 5018SOL    HW126690   1.121   4.036  15.527 -0.5979 -1.2881 -0.0975
 5018SOL    HW226691   1.089   3.969  15.398 -0.0085  1.1187 -0.8391
 5019SOL     OW26692   4.007   3.108   8.265  0.1280  0.3534 -0.1006
 5019SOL    HW126693   4.058   3.034   8.230  1.7474  1.4369 -0.0342
 5019SOL    HW226694   3.957   3.060   8.331  0.9502 -0.9187 -0.4054
 5020SOL     OW26695   2.903   1.506   6.787  0.3380  0.1468 -0.4319
 5020SOL    HW126696   2.887   1.598   6.764 -1.7832  0.0528  0.6566
 5020SOL    HW226697   2.998   1.495   6.797  0.2471 -0.5222 -0.3059
 5021SOL     OW26698   1.985   1.607   3.603  0.4326 -0.3059 -0.2481
 5021SOL    HW126699   2.080   1.595   3.615  0.2426  0.1532  1.8082
 5021SOL    HW226700   1.955   1.521   3.633 -1.2052 -0.0910 -1.3168
 5022SOL     OW26701   0.312   3.636  12.584  0.2944  0.1744 -0.3828
 5022SOL    HW126702   0.259   3.580  12.641  0.5630  1.3374  1.0166
 5022SOL    HW226703   0.286   3.601  12.499 -0.4096  1.7389 -0.8211
 5023SOL     OW26704   0.158   3.975  10.257  0.1378 -0.0645  0.4072
 5023SOL    HW126705   0.191   4.062  10.280  0.2641  0.3353 -1.2621
 5023SOL    HW226706   0.136   3.945  10.344  1.8493  1.6323  1.4273
 5024SOL     OW26707   4.662   0.085   3.425 -0.2096  0.3206 -0.6749
 5024SOL    HW126708   0.004   0.067   3.378 -0.4892  2.5191 -1.9824
 5024SOL    HW226709   4.614   0.003   3.410  1.2447 -0.1564 -2.6818
 5025SOL     OW26710   3.208   0.048   5.360 -0.1659 -0.2602  0.4183
 5025SOL    HW126711   3.241   0.004   5.438  0.2710  0.5221  0.6709
 5025SOL    HW226712   3.286   0.053   5.305 -1.3355 -1.1281 -1.3425
 5026SOL     OW26713   0.859   0.384   2.540  0.2483  0.1986  0.1616
 5026SOL    HW126714   0.806   0.398   2.462 -1.3184 -0.3369  1.1185
 5026SOL    HW226715   0.811   0.316   2.588  1.2331 -0.5271  0.1114
 5027SOL     OW26716   2.393   0.793  10.785  0.1215 -0.4909 -0.4358
 5027SOL    HW126717   2.344   0.719  10.750  0.6126 -0.5369 -1.0268
 5027SOL    HW226718   2.467   0.744  10.822 -1.2802 -2.3864 -0.1639
 5028SOL     OW26719   0.356   2.071   2.559  0.1615 -0.4546  0.8188
 5028SOL    HW126720   0.432   2.118   2.525 -0.5838  0.8666  0.9877
 5028SOL    HW226721   0.399   2.017   2.626  0.8881  0.7167  1.3044
 5029SOL     OW26722   3.070   4.378   7.253 -0.4716 -0.1992 -0.0985
 5029SOL    HW126723   3.124   4.326   7.312 -0.2181  0.8588  0.6192
 5029SOL    HW226724   2.982   4.359   7.286  0.1181 -1.3864  0.7716
 5030SOL     OW26725   2.705   0.025   4.616 -0.4190 -0.1489  0.3407
 5030SOL    HW126726   2.633   4.731   4.670  0.0596 -1.6207  0.0730
 5030SOL    HW226727   2.709   4.699   4.546  1.4422 -0.1515  0.4292
 5031SOL     OW26728   1.580   0.681  10.114  0.1441  0.0874 -0.6129
 5031SOL    HW126729   1.506   0.704  10.170  0.9910 -1.0851  0.9758
 5031SOL    HW226730   1.534   0.613  10.065 -0.4972 -0.0612  0.2033
 5032SOL     OW26731   3.952   1.453  12.691  0.0901 -0.7188 -0.0385
 5032SOL    HW126732   3.988   1.475  12.776  2.0082 -0.0772 -1.0297
 5032SOL    HW226733   4.001   1.503  12.625  0.1049 -1.0099 -0.2516
 5033SOL     OW26734   4.395   3.113   7.579 -0.2264 -0.3243 -0.2073
 5033SOL    HW126735   4.388   3.038   7.520  0.8600 -1.6684  1.3638
 5033SOL    HW226736   4.477   3.093   7.625  0.7824  0.1808 -1.7821
 5034SOL     OW26737   4.561   1.974   6.655  0.1174 -0.4772  0.0835
 5034SOL    HW126738   4.589   1.952   6.566  0.4903  2.5174 -0.5414
 5034SOL    HW226739   4.468   1.951   6.660 -0.3902  1.2888 -1.3141
 5035SOL     OW26740   0.925   2.472  12.288 -0.3470  0.2539 -0.0878
 5035SOL    HW126741   0.840   2.515  12.298 -0.9008 -1.4141  2.3094
 5035SOL    HW226742   0.960   2.533  12.223  1.6477 -0.2335  0.5483
 5036SOL     OW26743   2.213   1.880   7.622  0.1611  0.2371 -0.4866
 5036SOL    HW126744   2.228   1.874   7.528 -0.9554 -0.0120 -0.6529
 5036SOL    HW226745   2.179   1.970   7.624 -1.5635 -0.4845  2.5494
 5037SOL     OW26746   1.932   3.651  17.631 -0.3823 -0.0226  0.0926
 5037SOL    HW126747   1.956   3.586  17.698  2.7958 -1.0215 -2.0441
 5037SOL    HW226748   1.837   3.640  17.623 -0.1244 -0.8413 -1.6769
 5038SOL     OW26749   3.164   2.713  16.622  0.4605 -0.3847 -0.5471
 5038SOL    HW126750   3.096   2.710  16.554 -0.0855 -0.2420 -0.0140
 5038SOL    HW226751   3.234   2.773  16.598 -0.8398  0.0643 -3.2652
 5039SOL     OW26752   4.031   0.531   7.685 -0.2683 -0.0256  0.5493
 5039SOL    HW126753   4.057   0.548   7.594 -1.5305  0.4097  0.2684
 5039SOL    HW226754   4.077   0.604   7.726  0.4899  0.0328 -0.4071
 5040SOL     OW26755   1.911   1.338   3.637  0.5714 -0.3972  0.9210
 5040SOL    HW126756   1.894   1.283   3.713  0.3172 -0.5048  0.7850
 5040SOL    HW226757   1.951   1.271   3.581  0.7553  0.5026 -0.0254
 5041SOL     OW26758   1.226   0.200  16.240 -0.6663 -0.1776 -0.1750
 5041SOL    HW126759   1.175   0.188  16.160 -1.0039 -1.7357  0.2782
 5041SOL    HW226760   1.184   0.271  16.289  2.3203 -0.4129  2.7256
 5042SOL     OW26761   0.796   2.367   3.586  0.4674 -0.2699  0.1257
 5042SOL    HW126762   0.823   2.275   3.592 -0.5757 -0.5479  0.6647
 5042SOL    HW226763   0.834   2.390   3.671  0.7098  0.1153 -0.0909
 5043SOL     OW26764   1.787   3.483   6.317 -0.3336 -0.3058  0.1050
 5043SOL    HW126765   1.841   3.460   6.242 -2.1697 -0.0053 -1.2938
 5043SOL    HW226766   1.747   3.562   6.283 -0.1713 -0.0794  0.4410
 5044SOL     OW26767   0.275   4.230   5.070 -0.3955  0.5968 -0.6855
 5044SOL    HW126768   0.271   4.236   4.974 -1.9178  1.1455 -0.5801
 5044SOL    HW226769   0.362   4.197   5.093 -1.1870 -1.2653 -0.4202
 5045SOL     OW26770   1.752   1.682   6.669  0.6436 -0.4081  0.0650
 5045SOL    HW126771   1.821   1.710   6.728 -0.0242 -0.0433  0.6679
 5045SOL    HW226772   1.671   1.726   6.696  0.9881 -1.8816  3.4064
 5046SOL     OW26773   1.824   0.878   2.477  0.1427 -0.0088 -0.2442
 5046SOL    HW126774   1.868   0.963   2.466  0.0602  0.0265 -0.2963
 5046SOL    HW226775   1.845   0.840   2.391 -1.5096 -3.4199  0.8914
 5047SOL     OW26776   1.522   2.061  11.187  0.3997  0.2480 -0.2222
 5047SOL    HW126777   1.539   1.966  11.187  0.2217  0.2170  1.4464
 5047SOL    HW226778   1.489   2.076  11.276  2.9332 -0.4965  0.8770
 5048SOL     OW26779   1.814   2.354   6.221  0.2868  0.0791 -0.1370
 5048SOL    HW126780   1.813   2.317   6.133  1.7514 -0.9221  0.2474
 5048SOL    HW226781   1.730   2.399   6.231  0.9482  0.5317  3.5308
 5049SOL     OW26782   2.334   0.453   5.724 -0.2641 -0.1918 -0.0773
 5049SOL    HW126783   2.423   0.487   5.711 -0.7863  0.6693 -1.4224
 5049SOL    HW226784   2.280   0.529   5.746  0.2120  0.6630 -1.8099
 5050SOL     OW26785   3.427   0.612   4.344 -0.1329 -0.5475 -0.4026
 5050SOL    HW126786   3.361   0.583   4.407 -1.7636  1.8513 -1.0227
 5050SOL    HW226787   3.482   0.665   4.401 -2.0553 -0.4358  1.3473
 5051SOL     OW26788   4.147   0.854   5.989 -0.1027  0.0087 -0.2917
 5051SOL    HW126789   4.095   0.809   5.922  1.5471  0.4150 -1.8484
 5051SOL    HW226790   4.150   0.940   5.948  0.0796 -0.4440 -1.2180
 5052SOL     OW26791   2.399   3.210   4.730  0.3034  0.1894 -0.2972
 5052SOL    HW126792   2.405   3.289   4.677 -0.6757 -0.4693 -1.4102
 5052SOL    HW226793   2.319   3.239   4.773  0.0244  0.1266 -0.7688
 5053SOL     OW26794   0.482   0.986   5.345 -0.0836  0.1486 -0.0978
 5053SOL    HW126795   0.570   0.999   5.380  0.0619  1.6958 -1.0729
 5053SOL    HW226796   0.446   0.920   5.405 -0.2241  0.1896 -0.1360
 5054SOL     OW26797   3.203   3.192   2.931 -0.5101  0.1031 -0.7393
 5054SOL    HW126798   3.295   3.174   2.950 -0.4742  1.9780  0.8928
 5054SOL    HW226799   3.162   3.156   3.010 -2.0203  0.4042 -1.3881
 5055SOL     OW26800   1.952   3.767   9.196 -0.2655 -0.1728 -0.0897
 5055SOL    HW126801   2.013   3.841   9.194 -0.1394 -0.2856 -0.6566
 5055SOL    HW226802   1.873   3.796   9.150  0.7684  0.6296 -1.3605
 5056SOL     OW26803   3.288   0.949  11.149 -0.6224  0.5854 -0.0579
 5056SOL    HW126804   3.356   0.894  11.187  0.5402  1.1098 -1.4001
 5056SOL    HW226805   3.295   1.019  11.215 -0.2415  1.3791 -0.9419
 5057SOL     OW26806   1.974   2.743   8.312  0.0214  0.3973  0.9307
 5057SOL    HW126807   2.065   2.747   8.281 -1.2444  1.9190 -2.6105
 5057SOL    HW226808   1.992   2.748   8.406  1.5104 -1.8107  0.7685
 5058SOL     OW26809   4.578   1.563   2.628 -0.8490 -0.2019  0.3928
 5058SOL    HW126810   4.577   1.640   2.685  0.1162 -0.2016  0.4011
 5058SOL    HW226811   4.485   1.560   2.605 -0.4418  0.9543 -1.4239
 5059SOL     OW26812   4.083   0.474   2.510 -0.1613 -0.4109  0.6344
 5059SOL    HW126813   4.060   0.393   2.464  0.9680  0.9755 -2.3993
 5059SOL    HW226814   4.001   0.522   2.520 -0.3949 -0.1150 -2.6592
 5060SOL     OW26815   2.320   0.927  14.560  0.5003 -0.2829  0.4159
 5060SOL    HW126816   2.267   1.005  14.579  0.5760  0.0328 -0.6592
 5060SOL    HW226817   2.310   0.869  14.635  0.4836 -0.2426  0.4449
 5061SOL     OW26818   2.052   0.053   8.293  0.2142 -0.1850  0.0608
 5061SOL    HW126819   1.957   0.044   8.281  0.2294 -0.7896  0.3781
 5061SOL    HW226820   2.063   0.147   8.309 -0.3153  0.1234 -1.3932
 5062SOL     OW26821   2.385   4.514  16.836  0.2321 -0.6283  0.2888
 5062SOL    HW126822   2.379   4.455  16.911 -1.8834  1.4549  1.7841
 5062SOL    HW226823   2.448   4.462  16.787 -0.5354 -0.6722 -0.6550
 5063SOL     OW26824   4.555   3.624   7.697 -0.4122  0.1095 -0.3825
 5063SOL    HW126825   4.479   3.590   7.743 -0.1537 -0.0671 -0.0821
 5063SOL    HW226826   4.616   3.649   7.767  0.4121  1.0322 -1.4343
 5064SOL     OW26827   0.067   1.069   0.020  0.7387  0.1355 -0.3552
 5064SOL    HW126828   0.056   1.092  17.682 -0.9721  0.8249  0.0322
 5064SOL    HW226829   0.058   1.156   0.059 -0.4031  0.7288 -1.9365
 5065SOL     OW26830   2.312   3.554   7.696  0.1651  0.4567 -0.9258
 5065SOL    HW126831   2.235   3.587   7.650  0.3569 -1.2991 -2.5071
 5065SOL    HW226832   2.346   3.504   7.622 -0.6227 -1.7075  0.1681
 5066SOL     OW26833   1.950   3.617   6.004  0.3010  0.2358 -0.0288
 5066SOL    HW126834   1.961   3.699   6.053  1.3206 -0.6347  1.2106
 5066SOL    HW226835   2.029   3.627   5.951  1.4234 -3.1408  1.0226
 5067SOL     OW26836   1.680   0.415  13.919  0.1869  0.0431  0.5778
 5067SOL    HW126837   1.682   0.478  13.847  1.5021 -0.8724 -0.2011
 5067SOL    HW226838   1.636   0.459  13.991 -0.5979  1.4545 -0.7783
 5068SOL     OW26839   3.497   0.303   1.473  0.1494  0.3823  0.4112
 5068SOL    HW126840   3.541   0.334   1.394 -2.7190 -1.2732 -1.8250
 5068SOL    HW226841   3.430   0.371   1.484 -0.8095 -0.3517 -0.8258
 5069SOL     OW26842   4.729   3.296  11.738 -0.0808 -0.0997 -0.0714
 5069SOL    HW126843   4.682   3.318  11.657  0.2650  0.8863 -0.0020
 5069SOL    HW226844   0.019   3.382  11.769 -0.0630  0.0147 -0.3985
 5070SOL     OW26845   4.145   4.385  16.289  0.1119 -0.0303 -0.1276
 5070SOL    HW126846   4.236   4.361  16.271 -0.3754 -3.0192  1.4292
 5070SOL    HW226847   4.108   4.333  16.218 -0.7662  1.4222 -0.7339
 5071SOL     OW26848   3.973   0.411   6.949 -0.0989  0.0044  0.6913
 5071SOL    HW126849   3.976   0.318   6.928  0.2721  0.1884 -0.0366
 5071SOL    HW226850   4.066   0.420   6.970  0.6961 -2.5097 -1.8032
 5072SOL     OW26851   3.069   3.571   1.907 -0.2644 -0.3504 -0.4877
 5072SOL    HW126852   3.102   3.500   1.963 -0.9513 -0.0057  0.3544
 5072SOL    HW226853   3.152   3.618   1.895  0.5965 -2.3455 -2.2009
 5073SOL     OW26854   3.604   4.608   8.599 -0.2521  0.2518 -0.3511
 5073SOL    HW126855   3.668   4.677   8.577  1.8473 -1.8231 -0.7345
 5073SOL    HW226856   3.536   4.670   8.626  0.6158  1.1490 -0.1832
 5074SOL     OW26857   0.162   0.981   9.285 -0.1676 -0.2135 -0.4277
 5074SOL    HW126858   0.100   0.908   9.279  0.8994 -1.2042  0.5446
 5074SOL    HW226859   0.230   0.922   9.251  0.1361  0.5513 -1.1337
 5075SOL     OW26860   2.595   4.016   8.422 -0.4183 -0.7649  0.3421
 5075SOL    HW126861   2.633   4.037   8.508  1.8697  2.7112 -1.4908
 5075SOL    HW226862   2.680   4.008   8.377 -0.3627 -2.6942  0.8105
 5076SOL     OW26863   0.248   4.348  12.615 -0.0877 -0.6681 -0.3441
 5076SOL    HW126864   0.248   4.444  12.613  2.0878 -0.6353  1.3525
 5076SOL    HW226865   0.219   4.333  12.704 -0.0836  3.0984  0.3045
 5077SOL     OW26866   4.583   1.449  12.006  0.1903  0.7479  0.1616
 5077SOL    HW126867   4.653   1.426  12.067  0.3781 -1.5165 -0.8879
 5077SOL    HW226868   4.603   1.402  11.925 -0.7092 -1.3951  1.1908
 5078SOL     OW26869   2.832   4.621   5.402  0.3664  0.5297  0.1089
 5078SOL    HW126870   2.839   4.627   5.306 -0.7229 -0.5980 -0.0390
 5078SOL    HW226871   2.880   4.702   5.420 -0.2567  0.6881  1.0280
 5079SOL     OW26872   1.311   4.207   7.144  0.3161 -0.0370  0.2603
 5079SOL    HW126873   1.333   4.294   7.110  0.4491 -0.6080 -1.1263
 5079SOL    HW226874   1.286   4.240   7.230  2.6898  1.6239  0.3173
 5080SOL     OW26875   3.019   2.840  16.015 -0.3086  0.7116 -0.1296
 5080SOL    HW126876   3.050   2.841  16.106  2.3506  1.0192 -1.0393
 5080SOL    HW226877   2.927   2.867  16.007  0.0019  1.9482  0.6050
 5081SOL     OW26878   3.203   2.422  10.883  0.5768  0.2556 -0.0661
 5081SOL    HW126879   3.258   2.355  10.843  0.6105 -0.1350  0.6296
 5081SOL    HW226880   3.271   2.473  10.928 -0.3522  1.1746  0.2891
 5082SOL     OW26881   2.658   3.012   5.143 -0.2745 -0.2339 -0.6668
 5082SOL    HW126882   2.631   3.098   5.111  1.5838  0.4489 -0.4529
 5082SOL    HW226883   2.617   3.005   5.229  0.3777  2.4131 -0.1237
 5083SOL     OW26884   2.688   3.566   4.772  0.1679 -0.5983 -0.0259
 5083SOL    HW126885   2.761   3.556   4.833 -0.0101  1.2172  0.5101
 5083SOL    HW226886   2.732   3.576   4.688  0.8806 -0.8383  0.3271
 5084SOL     OW26887   4.665   0.795  16.535  0.1908  0.5114  0.2260
 5084SOL    HW126888   4.646   0.888  16.551 -0.4261  0.4795 -0.3140
 5084SOL    HW226889   4.584   0.744  16.538  2.0675 -2.5553 -1.5630
 5085SOL     OW26890   2.328   3.058   2.640 -0.2026  0.3511 -0.2458
 5085SOL    HW126891   2.291   3.019   2.719  1.2904  1.6506  1.1097
 5085SOL    HW226892   2.374   3.133   2.679  0.2100 -1.3477  2.5846
 5086SOL     OW26893   3.486   1.094   8.042  0.6919  0.4066  0.1874
 5086SOL    HW126894   3.417   1.154   8.071  0.1230  0.1124 -0.5546
 5086SOL    HW226895   3.530   1.072   8.124 -0.3946  0.1238  0.7057
 5087SOL     OW26896   2.196   4.381   8.843  0.0928 -0.0150 -0.0145
 5087SOL    HW126897   2.270   4.443   8.838 -1.5954  2.3122  3.5541
 5087SOL    HW226898   2.223   4.325   8.916  0.1903  0.1512  0.0787
 5088SOL     OW26899   2.087   3.005   2.448 -0.1748  0.1716 -0.2068
 5088SOL    HW126900   2.118   3.094   2.463 -0.9752  0.3362  0.4545
 5088SOL    HW226901   2.083   3.000   2.352 -0.6489 -2.0594 -0.0782
 5089SOL     OW26902   3.265   0.502   7.022 -0.1597  0.5753  0.6735
 5089SOL    HW126903   3.187   0.508   6.967 -0.3753  1.0260  1.0269
 5089SOL    HW226904   3.332   0.535   6.963 -0.5818 -0.3986 -0.3382
 5090SOL     OW26905   2.244   2.208   1.857 -0.2126  0.0880 -0.0715
 5090SOL    HW126906   2.300   2.150   1.806 -1.6311  0.0081 -1.5585
 5090SOL    HW226907   2.307   2.265   1.900 -0.0426 -0.1202 -0.0435
 5091SOL     OW26908   2.232   3.551  14.515  0.3106  0.1200  0.1720
 5091SOL    HW126909   2.303   3.488  14.533  1.2504  1.1747  0.1368
 5091SOL    HW226910   2.175   3.494  14.463 -0.5615  0.1750  1.0676
 5092SOL     OW26911   1.808   2.261   2.832  0.4186  0.3733  0.2739
 5092SOL    HW126912   1.735   2.222   2.784  0.6257  1.6638 -1.0924
 5092SOL    HW226913   1.774   2.267   2.922  0.1645 -1.3983  0.2912
 5093SOL     OW26914   3.546   2.469  12.866 -1.2374  0.1220  0.4786
 5093SOL    HW126915   3.555   2.375  12.852  0.7781  0.5132 -0.9276
 5093SOL    HW226916   3.503   2.495  12.785 -1.2350 -2.6104 -0.4001
 5094SOL     OW26917   3.516   3.371   9.318 -0.0835 -0.0214 -0.1453
 5094SOL    HW126918   3.454   3.308   9.281 -1.7174  0.6018  1.5282
 5094SOL    HW226919   3.598   3.358   9.270  1.1543  1.0018  1.7146
 5095SOL     OW26920   3.548   4.045   4.623  0.3524  0.0655  0.3221
 5095SOL    HW126921   3.504   3.960   4.624  1.3806 -0.4617  0.1673
 5095SOL    HW226922   3.625   4.018   4.573 -0.2985  3.2053 -2.3389
 5096SOL     OW26923   0.980   3.415   5.264  0.3438  0.2389 -0.1658
 5096SOL    HW126924   0.907   3.354   5.274 -1.2559  2.3332  1.0223
 5096SOL    HW226925   1.037   3.376   5.330 -0.0646  0.7059  0.4649
 5097SOL     OW26926   2.809   1.220  16.367 -0.5304  0.3916  0.0913
 5097SOL    HW126927   2.851   1.270  16.297  1.1544 -4.0124 -2.0575
 5097SOL    HW226928   2.830   1.274  16.443  0.8014 -1.4103  1.0127
 5098SOL     OW26929   2.208   4.453  10.870  0.0999 -0.7137  0.0066
 5098SOL    HW126930   2.285   4.491  10.912 -1.0345 -0.1597  1.6207
 5098SOL    HW226931   2.207   4.363  10.904  0.4560  0.0585  2.0716
 5099SOL     OW26932   0.606   1.491  15.114  0.3312  0.0390 -0.5823
 5099SOL    HW126933   0.578   1.494  15.206  0.9785  0.0273 -0.3895
 5099SOL    HW226934   0.696   1.522  15.114  0.6000 -0.8055 -4.2228
 5100SOL     OW26935   0.002   4.317   3.323 -0.3701 -0.0399  0.3133
 5100SOL    HW126936   4.715   4.248   3.262 -1.5620  2.1053 -1.6253
 5100SOL    HW226937   4.733   4.263   3.401 -0.8854 -1.6805 -0.8803
 5101SOL     OW26938   1.056   1.396   0.942  0.3055  0.0507  0.0432
 5101SOL    HW126939   1.085   1.329   1.004 -0.1189  0.5295  0.7573
 5101SOL    HW226940   0.974   1.366   0.902  0.4516 -0.9387  0.4908
 5102SOL     OW26941   3.494   4.120   7.276 -0.2126 -0.0711  0.1850
 5102SOL    HW126942   3.540   4.082   7.201 -0.0599 -3.4786  1.9831
 5102SOL    HW226943   3.540   4.203   7.287  1.1264 -0.8223  0.3372
 5103SOL     OW26944   2.694   4.697   2.906  0.2530 -0.3315  0.7302
 5103SOL    HW126945   2.606   4.734   2.917 -0.9173 -1.7338 -4.0270
 5103SOL    HW226946   2.718   4.691   2.999  0.7747 -0.6986  0.5714
 5104SOL     OW26947   0.348   3.912   5.789 -0.3017  0.0602  0.3878
 5104SOL    HW126948   0.271   3.866   5.823 -1.2575  2.9071  2.0599
 5104SOL    HW226949   0.347   3.988   5.848  0.0798  0.6005 -0.3098
 5105SOL     OW26950   2.012   0.979   4.843 -0.1576  0.8304  0.3081
 5105SOL    HW126951   2.074   0.931   4.898 -1.2196 -1.4266 -0.4446
 5105SOL    HW226952   1.933   0.946   4.888  0.7749 -0.8266  0.7444
 5106SOL     OW26953   1.916   1.565  17.181 -0.5480  0.1097 -0.3234
 5106SOL    HW126954   1.967   1.624  17.126  0.5159 -1.3096 -0.8556
 5106SOL    HW226955   1.837   1.548  17.128 -1.5614  2.4417  0.4397
 5107SOL     OW26956   3.047   4.644   2.542  0.0159 -0.2040 -0.1034
 5107SOL    HW126957   2.966   4.650   2.593  1.3828  0.1929  2.0340
 5107SOL    HW226958   3.111   4.608   2.603 -1.1144 -1.4892  0.3448
 5108SOL     OW26959   4.046   1.147   8.237 -0.4452  0.4897 -0.4726
 5108SOL    HW126960   3.967   1.157   8.183 -1.6635  2.0005  1.5866
 5108SOL    HW226961   4.001   1.156   8.321  0.4526  0.0887  0.0487
 5109SOL     OW26962   0.778   0.738   5.419 -0.3976  0.1130 -0.6976
 5109SOL    HW126963   0.734   0.816   5.455  0.6790  0.1050  0.6468
 5109SOL    HW226964   0.842   0.772   5.357 -0.5936 -1.5659 -1.8204
 5110SOL     OW26965   1.458   4.074  17.280  0.5972  0.8269  0.5272
 5110SOL    HW126966   1.377   4.091  17.328  0.0776 -0.9781  0.2678
 5110SOL    HW226967   1.442   4.113  17.194 -1.8331  0.8025  0.9670
 5111SOL     OW26968   4.612   3.887   4.134 -0.1693  0.6735  0.2702
 5111SOL    HW126969   4.548   3.958   4.131 -0.9782 -0.0170  1.0314
 5111SOL    HW226970   4.638   3.862   4.045 -0.3686 -0.2654  0.4693
 5112SOL     OW26971   3.093   2.345   7.737 -0.4473  0.2245  0.1750
 5112SOL    HW126972   3.115   2.432   7.703  1.0672 -0.7925 -1.4487
 5112SOL    HW226973   3.022   2.349   7.801  1.6336 -0.8514  2.5729
 5113SOL     OW26974   1.153   4.019   2.250 -0.1375  0.2700  1.0843
 5113SOL    HW126975   1.162   3.923   2.247 -1.8417  0.1344  0.2381
 5113SOL    HW226976   1.095   4.033   2.175  1.0734  1.2662  0.3342
 5114SOL     OW26977   3.877   3.118   4.862 -0.1156  0.1518  0.1135
 5114SOL    HW126978   3.885   3.156   4.774 -1.0579  1.5848  0.6549
 5114SOL    HW226979   3.964   3.090   4.891  0.5428  0.0562 -1.9530
 5115SOL     OW26980   3.380   3.766   8.676 -0.7201 -0.1090 -0.1897
 5115SOL    HW126981   3.422   3.828   8.617  1.4757 -0.4941  0.9833
 5115SOL    HW226982   3.328   3.826   8.729 -1.6997  0.1359 -1.4340
 5116SOL     OW26983   0.672   2.909   5.976 -0.6216 -0.0887  0.2084
 5116SOL    HW126984   0.604   2.973   5.996  1.7985  2.8163 -0.9168
 5116SOL    HW226985   0.736   2.949   5.917 -2.4510  1.6021 -0.6199
 5117SOL     OW26986   3.090   1.178   8.935 -0.1646  0.3559 -0.2225
 5117SOL    HW126987   2.996   1.169   8.951  0.0163 -0.5059  0.3623
 5117SOL    HW226988   3.122   1.130   9.011 -2.3392  0.7943  0.9524
 5118SOL     OW26989   0.437   1.536  13.427 -0.1511  0.0336  0.3898
 5118SOL    HW126990   0.499   1.588  13.477 -0.7161 -0.6915  1.8409
 5118SOL    HW226991   0.456   1.552  13.335 -2.8772 -1.7374 -0.4848
 5119SOL     OW26992   1.010   1.320  10.002  0.1780  0.0763 -0.2007
 5119SOL    HW126993   1.081   1.331  10.065  0.1676  0.6691 -0.2972
 5119SOL    HW226994   0.964   1.244  10.038  0.3210  0.5626  1.0067
 5120SOL     OW26995   0.263   1.824   5.694 -0.0539  0.0722  0.0154
 5120SOL    HW126996   0.277   1.787   5.781  0.1783 -0.7728 -0.3814
 5120SOL    HW226997   0.176   1.784   5.682 -0.1206  0.1682  0.1728
 5121SOL     OW26998   0.224   3.905   3.845  0.1135  1.0659 -0.1282
 5121SOL    HW126999   0.170   3.925   3.769 -1.5879  1.6089  1.2395
 5121SOL    HW227000   0.158   3.937   3.906  1.3245  0.4476  1.5064
 5122SOL     OW27001   3.409   0.834   2.082  0.1052 -1.2352  0.1382
 5122SOL    HW127002   3.381   0.924   2.068  0.9151 -0.8407  1.0978
 5122SOL    HW227003   3.378   0.813   2.171  0.1346 -0.4217  0.3402
 5123SOL     OW27004   0.549   1.119   3.377 -0.3387  0.1589 -0.0287
 5123SOL    HW127005   0.474   1.138   3.321  1.5765  0.9224 -2.3102
 5123SOL    HW227006   0.616   1.087   3.316  0.7179  0.4120  0.9914
 5124SOL     OW27007   0.552   1.013   8.196 -0.3747 -0.0012 -0.8892
 5124SOL    HW127008   0.627   1.005   8.255 -1.0245 -0.5497 -0.1379
 5124SOL    HW227009   0.568   1.101   8.163  1.4473 -0.3319 -0.8793
 5125SOL     OW27010   1.412   3.486   7.828 -0.3971 -0.4095  0.1810
 5125SOL    HW127011   1.469   3.530   7.764 -0.5855 -0.0802  0.2403
 5125SOL    HW227012   1.372   3.559   7.876 -0.2911  1.1317 -2.0683
 5126SOL     OW27013   1.649   1.659   3.860 -0.3278 -0.0197 -0.3235
 5126SOL    HW127014   1.677   1.684   3.948  1.0041 -1.4860 -0.3283
 5126SOL    HW227015   1.642   1.563   3.866 -2.0087  0.0576 -0.7759
 5127SOL     OW27016   1.703   1.405   4.516 -0.4344  0.5659 -0.3984
 5127SOL    HW127017   1.771   1.395   4.583 -1.3264  0.4156  0.4753
 5127SOL    HW227018   1.737   1.333   4.462 -0.6621 -0.6691  1.1086
 5128SOL     OW27019   2.478   1.003  10.640  0.2381 -0.3591  0.4286
 5128SOL    HW127020   2.560   0.967  10.675  0.0031 -0.4670  0.8607
 5128SOL    HW227021   2.422   0.939  10.684  0.1158 -0.4060  0.2034
 5129SOL     OW27022   3.040   1.061   7.217  0.8738  0.4263 -0.2187
 5129SOL    HW127023   3.031   0.999   7.144 -2.8233  1.0404 -0.2860
 5129SOL    HW227024   2.967   1.119   7.197  0.3590 -1.0329 -2.6250
 5130SOL     OW27025   1.419   3.346   5.304 -0.3099  0.6257 -0.5408
 5130SOL    HW127026   1.475   3.348   5.227  0.2619  0.1531 -0.1410
 5130SOL    HW227027   1.489   3.350   5.369 -0.6158 -1.1138 -0.1013
 5131SOL     OW27028   2.801   1.173   7.177  0.5541  0.4361 -0.1627
 5131SOL    HW127029   2.716   1.181   7.220  1.4706 -1.2236  1.9786
 5131SOL    HW227030   2.776   1.180   7.085 -0.1125 -3.0991 -0.2558
 5132SOL     OW27031   4.241   0.945   9.876  0.1418 -0.0799  0.7555
 5132SOL    HW127032   4.166   0.887   9.892  1.6518 -1.6006  2.4149
 5132SOL    HW227033   4.290   0.939   9.958  2.1611 -3.8698 -0.7454
 5133SOL     OW27034   3.904   2.749  13.013  0.3971 -0.3515  0.5521
 5133SOL    HW127035   3.967   2.812  12.978  0.3930  0.1088  1.3911
 5133SOL    HW227036   3.827   2.780  12.964 -0.1015 -3.5705 -0.7035
 5134SOL     OW27037   3.755   4.557   3.055 -0.8667 -0.6816  0.0931
 5134SOL    HW127038   3.680   4.499   3.061 -3.4640  2.3405 -3.2043
 5134SOL    HW227039   3.711   4.638   3.082  2.8072  0.7638  1.8876
 5135SOL     OW27040   4.474   0.631   5.018 -0.0536  0.1963 -0.0170
 5135SOL    HW127041   4.492   0.674   5.101 -0.5706  1.3992 -0.5329
 5135SOL    HW227042   4.550   0.662   4.968  0.4601 -0.8119  0.1388
 5136SOL     OW27043   3.681   1.562   1.656 -0.0747 -0.0373  0.3240
 5136SOL    HW127044   3.770   1.530   1.670 -0.4090  0.6156  3.9849
 5136SOL    HW227045   3.700   1.656   1.654 -1.4575  0.2144 -0.5521
 5137SOL     OW27046   3.826   1.417   5.404 -0.5377 -0.3092 -0.2371
 5137SOL    HW127047   3.750   1.359   5.406  0.3023 -1.3794  0.3551
 5137SOL    HW227048   3.862   1.393   5.319 -0.7390 -1.6178  0.0504
 5138SOL     OW27049   3.964   3.417   7.500  0.0156 -0.0897  0.4082
 5138SOL    HW127050   3.873   3.428   7.471  0.3366 -1.1372 -1.0302
 5138SOL    HW227051   4.006   3.492   7.459 -0.2288  0.0344  0.3804
 5139SOL     OW27052   3.650   4.396   9.416 -0.1922 -0.3486 -0.2741
 5139SOL    HW127053   3.719   4.330   9.418  1.7772  1.7563  1.1699
 5139SOL    HW227054   3.578   4.350   9.373 -0.4249  1.5754 -1.9324
 5140SOL     OW27055   1.651   3.490  13.541  0.1128  0.6516 -0.2627
 5140SOL    HW127056   1.570   3.506  13.589 -0.0935  0.6285 -0.6016
 5140SOL    HW227057   1.630   3.407  13.498  0.4786  1.1342 -1.3791
 5141SOL     OW27058   0.376   2.212   6.865  0.4179  0.0358 -0.1867
 5141SOL    HW127059   0.447   2.229   6.927  0.2561 -0.4631  0.1343
 5141SOL    HW227060   0.299   2.191   6.919  0.0530  1.7383 -0.0155
 5142SOL     OW27061   1.583   1.931   5.745  0.4180 -0.1682 -0.0649
 5142SOL    HW127062   1.545   1.885   5.670  0.2535 -1.1722  0.6230
 5142SOL    HW227063   1.508   1.967   5.793  0.7408 -0.0615  0.3584
 5143SOL     OW27064   4.413   3.853   6.624 -0.5874 -0.5719 -0.0485
 5143SOL    HW127065   4.465   3.899   6.690  0.1527 -0.3746 -0.7616
 5143SOL    HW227066   4.439   3.895   6.541  0.4744  0.9101  1.0256
 5144SOL     OW27067   3.738   4.241  12.203  0.0270  0.1539  0.4163
 5144SOL    HW127068   3.757   4.283  12.287  0.6273 -1.5717  1.1386
 5144SOL    HW227069   3.646   4.219  12.218  0.3498 -1.6059 -0.1822
 5145SOL     OW27070   0.386   4.157  10.758  0.0365  0.1742  0.4225
 5145SOL    HW127071   0.434   4.118  10.685  1.6745  0.4718  1.3438
 5145SOL    HW227072   0.378   4.247  10.725  0.7925  0.0619 -0.0789
 5146SOL     OW27073   1.469   0.380  13.725 -0.0468 -0.2481 -0.1524
 5146SOL    HW127074   1.407   0.338  13.786  0.2604 -0.3622  0.0818
 5146SOL    HW227075   1.544   0.397  13.782 -0.8736 -2.9846  1.7586
 5147SOL     OW27076   0.687   3.420   8.876  0.6703  0.1682  0.6896
 5147SOL    HW127077   0.698   3.382   8.789 -0.0359  1.0715  0.2049
 5147SOL    HW227078   0.609   3.471   8.855 -0.2481 -1.3846  0.3464
 5148SOL     OW27079   3.066   0.486   3.602  0.1481 -0.2830  0.8039
 5148SOL    HW127080   2.985   0.451   3.564 -0.1871  2.2484 -0.8085
 5148SOL    HW227081   3.081   0.565   3.551 -1.4586 -0.0312  0.7127
 5149SOL     OW27082   2.501   1.279  14.354  0.1878  0.2527 -0.1488
 5149SOL    HW127083   2.416   1.317  14.377 -0.4814 -0.6930 -1.1055
 5149SOL    HW227084   2.464   1.224  14.285 -0.5230  1.1507 -0.4942
 5150SOL     OW27085   4.151   2.312  11.180  0.3705 -0.3222  0.4651
 5150SOL    HW127086   4.123   2.265  11.101  3.9743 -0.4573 -0.7463
 5150SOL    HW227087   4.184   2.394  11.144  0.1149  0.1844  1.3887
 5151SOL     OW27088   1.676   4.350   7.806  0.2758 -0.4330 -0.5459
 5151SOL    HW127089   1.754   4.332   7.753  1.6344  0.1823  1.2454
 5151SOL    HW227090   1.631   4.411   7.748  3.4576  0.9860 -1.5327
 5152SOL     OW27091   4.706   0.420   6.620 -0.1778 -0.2704  0.6356
 5152SOL    HW127092   4.621   0.386   6.647 -1.4154 -0.6719 -3.7381
 5152SOL    HW227093   4.678   0.482   6.553 -0.5876 -3.3506 -2.0239
 5153SOL     OW27094   3.708   2.312   2.381  0.4127 -0.1370 -0.1719
 5153SOL    HW127095   3.766   2.238   2.398  2.0267  1.2108  0.1997
 5153SOL    HW227096   3.627   2.261   2.375  0.2926  0.1750 -1.1634
 5154SOL     OW27097   1.300   2.916   3.631  0.3319 -0.1074  0.1617
 5154SOL    HW127098   1.242   2.913   3.555  1.4937 -3.5001 -0.5965
 5154SOL    HW227099   1.380   2.888   3.587  1.1771 -0.0266  1.6560
 5155SOL     OW27100   4.519   4.226   7.618 -0.4793 -0.0932  0.6002
 5155SOL    HW127101   4.490   4.245   7.528 -1.7976  3.2453  1.7250
 5155SOL    HW227102   4.458   4.162   7.653 -0.9492 -0.4182 -0.8162
 5156SOL     OW27103   0.365   4.570  16.495  0.2642  0.6048 -0.3438
 5156SOL    HW127104   0.412   4.602  16.572  1.1377 -1.1709 -0.1249
 5156SOL    HW227105   0.287   4.534  16.537  0.4473  1.0411  0.3637
 5157SOL     OW27106   0.431   3.728   4.959 -0.2508 -0.4123 -0.5979
 5157SOL    HW127107   0.436   3.775   5.042  1.3950  0.5490 -1.2537
 5157SOL    HW227108   0.345   3.684   4.958 -0.2639 -0.4489  2.2669
 5158SOL     OW27109   4.318   3.552  17.414  0.4151  0.4860 -0.3764
 5158SOL    HW127110   4.357   3.539  17.500  0.1376 -0.7715 -0.4476
 5158SOL    HW227111   4.266   3.473  17.404 -1.9760  2.2437 -1.9840
 5159SOL     OW27112   3.465   2.648   8.590  0.1926 -0.2628  0.0538
 5159SOL    HW127113   3.533   2.652   8.657 -0.5190  0.9311  0.6898
 5159SOL    HW227114   3.516   2.602   8.523  2.4549  0.1647  1.4813
 5160SOL     OW27115   0.426   2.262   3.949 -0.4616 -0.1513 -0.1972
 5160SOL    HW127116   0.494   2.197   3.932  0.7433  0.8135  0.9612
 5160SOL    HW227117   0.383   2.217   4.022  3.3742  1.7376  3.2180
 5161SOL     OW27118   1.654   3.333  16.144  0.0490  0.2044 -0.4278
 5161SOL    HW127119   1.717   3.262  16.130 -1.6934 -1.2293 -1.0145
 5161SOL    HW227120   1.669   3.385  16.065 -1.2052  1.7876  0.3921
 5162SOL     OW27121   3.644   3.902   7.491 -0.4956  0.2977  0.3267
 5162SOL    HW127122   3.654   3.980   7.546  0.7059 -0.0284  0.5751
 5162SOL    HW227123   3.718   3.920   7.433 -2.4598 -1.7389 -2.7871
 5163SOL     OW27124   0.579   1.760   5.676  0.1283  0.3953 -0.1943
 5163SOL    HW127125   0.546   1.831   5.731 -0.2059  0.3177 -0.2935
 5163SOL    HW227126   0.495   1.722   5.650  0.7968 -1.5373  0.4918
 5164SOL     OW27127   4.461   0.256   8.004 -0.3542  0.1515 -0.5224
 5164SOL    HW127128   4.489   0.320   8.070  3.5382 -1.9772 -0.1463
 5164SOL    HW227129   4.535   0.276   7.946 -0.8616 -0.1780 -1.2866
 5165SOL     OW27130   0.747   1.916   1.859 -0.0854  0.3734 -0.0969
 5165SOL    HW127131   0.746   1.998   1.909 -0.2576  1.9901 -2.7432
 5165SOL    HW227132   0.833   1.917   1.815  0.5902  1.3003  1.2542
 5166SOL     OW27133   2.323   0.334   6.022  0.4807 -0.0981  0.0395
 5166SOL    HW127134   2.402   0.367   5.981  0.8490  0.3208  1.0836
 5166SOL    HW227135   2.339   0.349   6.115 -1.6233  1.6938  0.1023
 5167SOL     OW27136   4.354   3.382   7.469  0.2531  0.0284 -0.6837
 5167SOL    HW127137   4.333   3.418   7.556 -0.3712 -0.2733 -0.7082
 5167SOL    HW227138   4.375   3.296   7.504  0.2945  0.0606 -0.6288
 5168SOL     OW27139   1.136   4.640   0.607  0.4684 -0.2589  0.4281
 5168SOL    HW127140   1.225   4.674   0.605  1.3037 -2.5973 -2.6200
 5168SOL    HW227141   1.085   4.719   0.588 -1.7322 -2.3095 -2.2019
 5169SOL     OW27142   0.402   2.182  13.074 -0.2264  0.0419  0.3196
 5169SOL    HW127143   0.329   2.223  13.121  0.5438  1.7558  0.0366
 5169SOL    HW227144   0.464   2.252  13.093 -0.7606  0.3846  0.8124
 5170SOL     OW27145   3.972   2.140   8.283 -0.1736  0.2372 -0.2822
 5170SOL    HW127146   4.027   2.100   8.215 -0.8697 -0.7312 -0.2896
 5170SOL    HW227147   4.030   2.142   8.359 -1.0548 -1.4509  0.4399
 5171SOL     OW27148   0.052   4.186   5.186 -0.0999 -0.4312  0.7543
 5171SOL    HW127149   0.124   4.206   5.126 -1.0140  0.7314  0.0548
 5171SOL    HW227150   0.107   4.164   5.262 -0.0293  1.2930  1.1859
 5172SOL     OW27151   0.660   0.347   7.663  0.6760 -0.0280 -0.2582
 5172SOL    HW127152   0.564   0.354   7.660  0.4801 -2.4424  0.4096
 5172SOL    HW227153   0.679   0.435   7.697 -1.3416 -0.2065  1.3482
 5173SOL     OW27154   1.866   0.728   5.636 -0.3561 -0.3949  0.9747
 5173SOL    HW127155   1.932   0.665   5.663  0.6955  0.4001  0.2320
 5173SOL    HW227156   1.851   0.701   5.546  1.8376 -0.2906  0.5757
 5174SOL     OW27157   2.237   3.731   9.044  0.0798  0.1073  0.0361
 5174SOL    HW127158   2.240   3.813   9.092  1.8046  1.8138 -2.9651
 5174SOL    HW227159   2.274   3.664   9.102  3.0509  1.5447 -0.1699
 5175SOL     OW27160   4.022   3.382   6.990  0.4060 -0.6621 -0.0700
 5175SOL    HW127161   4.032   3.470   6.954  1.5290 -1.2076 -1.1039
 5175SOL    HW227162   4.020   3.410   7.081 -2.2879  0.0416 -0.3370
 5176SOL     OW27163   0.775   0.710   3.431  0.0574 -0.4393 -0.1460
 5176SOL    HW127164   0.707   0.760   3.478  2.0497  3.1181 -1.0050
 5176SOL    HW227165   0.852   0.731   3.483 -0.3550  0.1137  0.2442
 5177SOL     OW27166   2.435   4.178   5.388  0.0686 -0.3227 -0.0538
 5177SOL    HW127167   2.371   4.202   5.455 -0.7339  2.1297 -1.6638
 5177SOL    HW227168   2.492   4.255   5.382 -0.4095  0.0418  0.0613
 5178SOL     OW27169   1.098   4.489  10.847 -0.1814 -0.4068 -0.0002
 5178SOL    HW127170   1.019   4.508  10.797  0.6725 -0.0406 -1.2090
 5178SOL    HW227171   1.071   4.486  10.939 -2.8491  1.9245 -0.6929
 5179SOL     OW27172   0.173   1.365   0.000 -0.3703 -0.1336 -0.0977
 5179SOL    HW127173   0.154   1.333   0.089 -0.5730 -0.5586 -0.2920
 5179SOL    HW227174   0.141   1.455  17.753 -2.4344 -0.8613 -0.0860
 5180SOL     OW27175   3.149   2.261   6.874  0.0632  0.0812  0.2853
 5180SOL    HW127176   3.108   2.348   6.874  0.5708  0.3335  3.6991
 5180SOL    HW227177   3.149   2.248   6.969 -2.0982 -0.6602  0.1873
 5181SOL     OW27178   2.325   1.855   7.884 -0.2464  0.2259 -0.1853
 5181SOL    HW127179   2.315   1.859   7.789 -0.5446  2.1899 -0.0594
 5181SOL    HW227180   2.231   1.861   7.899 -0.1387 -1.1362  1.0877
 5182SOL     OW27181   0.786   3.553  10.437  0.2914 -0.4943  0.0271
 5182SOL    HW127182   0.832   3.496  10.498 -0.8033 -1.0849  0.3032
 5182SOL    HW227183   0.740   3.486  10.387 -0.7538 -0.0884  0.4375
 5183SOL     OW27184   2.578   3.598   8.112  0.6027  0.1021  0.0876
 5183SOL    HW127185   2.557   3.690   8.123  1.9974  0.7383 -2.5231
 5183SOL    HW227186   2.561   3.568   8.201 -0.2692 -0.0788 -0.1452
 5184SOL     OW27187   3.209   1.642   4.316  0.1880 -0.0657 -0.3883
 5184SOL    HW127188   3.130   1.589   4.324  0.8806 -0.8512  1.2985
 5184SOL    HW227189   3.185   1.712   4.377  2.0656 -0.3501  0.6706
 5185SOL     OW27190   1.785   3.558   4.987  0.1370  0.4505  0.0552
 5185SOL    HW127191   1.815   3.489   4.928 -1.5193  0.5032 -0.8538
 5185SOL    HW227192   1.690   3.546   4.989  0.3731 -1.3600  0.6539
 5186SOL     OW27193   3.724   2.692   4.977 -0.3074  0.1204  0.4491
 5186SOL    HW127194   3.743   2.785   4.994  1.2013 -0.4283  1.7346
 5186SOL    HW227195   3.810   2.651   4.989 -1.5631 -2.9954 -1.1893
 5187SOL     OW27196   1.457   0.139  15.549 -0.3091  0.0846 -0.1918
 5187SOL    HW127197   1.529   0.095  15.595 -0.2949  0.0892 -0.2093
 5187SOL    HW227198   1.477   0.109  15.460  0.4464  0.4206 -0.1342
 5188SOL     OW27199   1.994   3.331   8.525  0.0101 -0.0161 -0.2429
 5188SOL    HW127200   1.981   3.426   8.530 -1.1766 -0.0165 -3.3627
 5188SOL    HW227201   2.089   3.329   8.529 -0.0292  0.5639  1.3521
 5189SOL     OW27202   2.665   4.146   5.041  0.1380  0.2355  0.4860
 5189SOL    HW127203   2.717   4.079   4.996 -0.3095  1.3219 -1.6351
 5189SOL    HW227204   2.650   4.094   5.120 -1.2997 -1.0490 -0.6227
 5190SOL     OW27205   3.811   1.183   2.759 -0.1540 -0.2917  0.2075
 5190SOL    HW127206   3.745   1.235   2.712  2.0481  1.3301 -1.0608
 5190SOL    HW227207   3.884   1.244   2.762 -0.9097  0.6222 -0.0519
 5191SOL     OW27208   3.105   3.300   7.285  0.1903  0.1796  0.0937
 5191SOL    HW127209   3.149   3.348   7.355  2.8323 -2.5665  0.3369
 5191SOL    HW227210   3.014   3.324   7.296  0.0446  0.2245 -1.2292
 5192SOL     OW27211   0.336   1.204  17.116  0.2381  0.1028  0.2914
 5192SOL    HW127212   0.334   1.286  17.067 -0.5286 -0.1142 -0.0385
 5192SOL    HW227213   0.424   1.199  17.153  0.9636  1.1537 -1.3162
 5193SOL     OW27214   3.805   0.058   1.829  0.3485 -0.0366  0.8887
 5193SOL    HW127215   3.790   0.105   1.911 -1.4344  3.4984 -1.4579
 5193SOL    HW227216   3.717   0.061   1.791 -0.0036 -1.5847  1.5824
 5194SOL     OW27217   3.636   3.839  14.253  0.4233  0.6011  0.4560
 5194SOL    HW127218   3.564   3.806  14.198 -0.0375  1.5419  0.4896
 5194SOL    HW227219   3.704   3.787  14.212 -2.5799 -1.0256 -2.4769
 5195SOL     OW27220   3.853   3.159   8.824 -0.2988 -0.0431 -0.0841
 5195SOL    HW127221   3.778   3.209   8.857 -1.9398  0.2799 -4.2853
 5195SOL    HW227222   3.928   3.209   8.856  0.0255  0.1727 -1.1959
 5196SOL     OW27223   4.001   1.104  12.877  0.1130 -0.1216  0.2586
 5196SOL    HW127224   4.036   1.113  12.788  2.7915 -3.4992  1.0045
 5196SOL    HW227225   3.998   1.008  12.872 -0.1491 -0.1023  0.0360
 5197SOL     OW27226   0.264   0.427   6.617  0.7320  0.2597  0.1347
 5197SOL    HW127227   0.268   0.510   6.570 -1.3435  0.8729  1.0669
 5197SOL    HW227228   0.172   0.431   6.643  0.1128 -0.8911 -1.8840
 5198SOL     OW27229   0.771   3.463   4.179 -0.2932  0.2816 -0.0773
 5198SOL    HW127230   0.824   3.507   4.245  0.9082 -0.7607 -0.3561
 5198SOL    HW227231   0.709   3.413   4.232  0.6537  0.2684  1.0153
 5199SOL     OW27232   0.114   1.205   9.471  0.1919  1.0119 -0.2088
 5199SOL    HW127233   0.130   1.160   9.389 -1.2618 -1.2369  0.7553
 5199SOL    HW227234   0.089   1.130   9.525 -2.2269  2.3198  0.5300
 5200SOL     OW27235   3.271   4.423   1.550  0.4022  0.0825 -0.1808
 5200SOL    HW127236   3.319   4.505   1.537  1.2600 -0.1104  1.7497
 5200SOL    HW227237   3.340   4.368   1.588 -0.0958 -1.0032 -0.8415
 5201SOL     OW27238   0.550   3.244   4.964  0.7436 -0.0286 -0.1181
 5201SOL    HW127239   0.563   3.337   4.944 -0.0205  1.0824  4.4065
 5201SOL    HW227240   0.523   3.209   4.879  0.3886  2.2358 -0.9516
 5202SOL     OW27241   3.106   3.601   5.353 -0.2493  0.4779 -0.0979
 5202SOL    HW127242   3.179   3.569   5.406  0.4077  2.4247  0.1888
 5202SOL    HW227243   3.153   3.667   5.301 -2.6380  0.9267 -1.6818
 5203SOL     OW27244   3.657   3.195   7.317 -0.1943  0.0354  0.0054
 5203SOL    HW127245   3.598   3.244   7.375 -0.4601 -1.3145  0.8965
 5203SOL    HW227246   3.691   3.136   7.385 -1.3073  1.2502  1.6254
 5204SOL     OW27247   4.560   2.330  13.293  0.3110  0.1570 -0.3215
 5204SOL    HW127248   4.591   2.420  13.285 -0.4594  0.5420  1.0641
 5204SOL    HW227249   4.615   2.292  13.224  2.7089  1.8511  0.6673
 5205SOL     OW27250   1.795   4.628   2.376  0.2454  0.6479  0.5109
 5205SOL    HW127251   1.831   4.615   2.288  0.1008 -2.2817  0.8932
 5205SOL    HW227252   1.712   4.670   2.354 -1.0831  0.0263  4.3132
 5206SOL     OW27253   0.025   3.867   4.670 -0.7986  0.3179 -0.0960
 5206SOL    HW127254   0.032   3.878   4.765  0.1476  0.1053 -0.1410
 5206SOL    HW227255   4.692   3.806   4.660 -0.7766  0.3080 -0.1910
 5207SOL     OW27256   0.674   4.582  15.533 -0.3311  0.3516  0.4969
 5207SOL    HW127257   0.686   4.545  15.445 -0.6100 -0.9374  0.9968
 5207SOL    HW227258   0.639   4.670  15.520  0.8157  0.7450  0.0458
 5208SOL     OW27259   2.325   3.498   3.146 -0.3063 -0.1299 -0.3983
 5208SOL    HW127260   2.356   3.445   3.220 -3.3070 -0.6827  0.4553
 5208SOL    HW227261   2.239   3.462   3.124 -0.1973 -0.3595 -0.4507
 5209SOL     OW27262   0.814   2.935  17.563  0.1458 -0.1485  0.5341
 5209SOL    HW127263   0.832   3.027  17.545  0.6329 -0.4660 -0.5685
 5209SOL    HW227264   0.789   2.941  17.655  0.4203  2.4079  0.4256
 5210SOL     OW27265   2.685   1.555  14.985  0.4284  0.2018 -0.0398
 5210SOL    HW127266   2.645   1.614  15.049 -0.5922  0.7670 -1.2024
 5210SOL    HW227267   2.695   1.620  14.916 -1.9875 -0.2956 -0.8648
 5211SOL     OW27268   1.744   0.406   1.773  0.4001 -0.5107  0.0131
 5211SOL    HW127269   1.840   0.409   1.776  0.4076  1.1487 -2.3362
 5211SOL    HW227270   1.736   0.311   1.767  1.1680 -0.6120  0.4611
 5212SOL     OW27271   4.391   2.792   8.358 -0.3115 -0.4209 -0.4477
 5212SOL    HW127272   4.482   2.783   8.387 -0.3879  0.0990 -0.0522
 5212SOL    HW227273   4.350   2.717   8.401 -0.7401 -0.0717 -0.2495
 5213SOL     OW27274   2.268   0.480   9.395 -0.4444 -0.5792 -0.1166
 5213SOL    HW127275   2.301   0.399   9.356 -0.2020 -0.7216  0.3801
 5213SOL    HW227276   2.232   0.526   9.319 -1.1551 -2.1356 -0.7121
 5214SOL     OW27277   2.545   1.154   7.246 -0.1898  0.2140 -0.2516
 5214SOL    HW127278   2.492   1.079   7.272  0.9886 -1.4120 -2.4810
 5214SOL    HW227279   2.491   1.228   7.273  1.2045  0.6519  1.3365
 5215SOL     OW27280   2.016   2.819   5.360 -0.5994 -0.8056  0.4525
 5215SOL    HW127281   2.019   2.732   5.319 -2.6465  0.1568 -1.7412
 5215SOL    HW227282   1.970   2.871   5.295 -0.0396 -0.0349  0.6772
 5216SOL     OW27283   0.110   4.502   8.112 -0.1671  0.4198 -0.0721
 5216SOL    HW127284   0.067   4.584   8.088 -3.9823 -1.9004 -1.1397
 5216SOL    HW227285   0.161   4.484   8.033  0.1737 -1.1406  0.5047
 5217SOL     OW27286   4.623   3.259   5.223 -0.1760  0.0061  0.6576
 5217SOL    HW127287   4.582   3.308   5.294  0.9372 -0.4725  1.6232
 5217SOL    HW227288   4.565   3.296   5.156  0.1423 -1.8154 -0.6346
 5218SOL     OW27289   3.045   4.605   3.361 -0.6777 -0.1858  0.2794
 5218SOL    HW127290   2.991   4.527   3.352 -1.5717  0.5294 -0.6338
 5218SOL    HW227291   3.017   4.632   3.449 -0.8233 -0.6577  0.3734
 5219SOL     OW27292   1.159   2.092   6.353 -0.0099  0.0227 -0.0236
 5219SOL    HW127293   1.129   2.045   6.275  1.7935 -0.0776 -0.6599
 5219SOL    HW227294   1.236   2.039   6.373  0.1980  0.9262  1.4986
 5220SOL     OW27295   0.611   0.902   8.852 -0.6374  0.1779  0.1019
 5220SOL    HW127296   0.684   0.963   8.859 -1.1418  0.4721  3.0246
 5220SOL    HW227297   0.615   0.873   8.943 -0.9362  2.2402  0.7788
 5221SOL     OW27298   1.800   1.649   3.113  0.0299  0.1910  0.1797
 5221SOL    HW127299   1.853   1.603   3.179  0.4829  2.3458  1.3303
 5221SOL    HW227300   1.874   1.664   3.053 -0.9695 -1.4547 -1.4289
 5222SOL     OW27301   2.574   3.637  11.595  0.4429 -0.4919  0.1140
 5222SOL    HW127302   2.618   3.715  11.562  3.0562 -1.2654  1.7136
 5222SOL    HW227303   2.556   3.583  11.518  2.3034  0.7925 -1.2303
 5223SOL     OW27304   0.277   2.721   9.104 -0.1437 -0.0392  0.4626
 5223SOL    HW127305   0.251   2.634   9.136  2.3164 -0.0572  2.4164
 5223SOL    HW227306   0.329   2.751   9.179 -0.8891  0.7761  0.6576
 5224SOL     OW27307   3.177   2.852   9.448  0.0615 -0.3841  0.0591
 5224SOL    HW127308   3.263   2.874   9.412 -0.1561  2.1015  1.1114
 5224SOL    HW227309   3.114   2.877   9.381 -0.7527  1.2113  1.4240
 5225SOL     OW27310   3.490   3.024   1.329 -0.3073 -0.6364  0.3006
 5225SOL    HW127311   3.559   3.042   1.266 -0.8472 -0.8342 -0.3550
 5225SOL    HW227312   3.516   3.082   1.400  0.6129  1.2286 -1.5688
 5226SOL     OW27313   0.643   2.678   3.228 -0.2077  0.3765  0.5864
 5226SOL    HW127314   0.606   2.723   3.305  1.7224 -1.1802  2.3939
 5226SOL    HW227315   0.561   2.664   3.180 -0.4223 -0.4153  1.1860
 5227SOL     OW27316   4.343   1.194   4.119 -0.3193  0.5978  0.3524
 5227SOL    HW127317   4.299   1.128   4.172  1.9264 -1.0841  0.1354
 5227SOL    HW227318   4.325   1.271   4.172  0.7385  0.0076  1.5693
 5228SOL     OW27319   0.611   0.412  11.868  0.2944 -0.3539  0.0477
 5228SOL    HW127320   0.615   0.491  11.923  0.2752 -0.8844  0.8045
 5228SOL    HW227321   0.617   0.340  11.931 -1.8532 -0.6106 -0.0401
 5229SOL     OW27322   4.158   0.926   9.330 -0.1785 -0.3132 -0.3423
 5229SOL    HW127323   4.220   0.987   9.291 -1.5746 -0.4366 -2.7447
 5229SOL    HW227324   4.199   0.847   9.295 -0.2918 -0.9099  0.8710
 5230SOL     OW27325   1.316   3.795   0.030  0.5421  0.2268  0.1441
 5230SOL    HW127326   1.396   3.809  17.734  0.5769  1.6483  0.5844
 5230SOL    HW227327   1.304   3.873   0.084 -1.2117  0.3150 -0.3627
 5231SOL     OW27328   0.580   2.553   1.276 -0.1909  0.1206 -0.0561
 5231SOL    HW127329   0.606   2.537   1.367 -3.9758 -0.5329  0.9216
 5231SOL    HW227330   0.520   2.481   1.262  0.6850 -0.5630 -0.2650
 5232SOL     OW27331   0.866   2.866   6.196 -0.0870 -0.0437 -0.2480
 5232SOL    HW127332   0.821   2.849   6.114  0.1911  0.2990 -0.4724
 5232SOL    HW227333   0.809   2.833   6.266  1.3863 -1.4279  0.3206
 5233SOL     OW27334   0.330   2.870   6.275  0.2677  0.6558  0.3722
 5233SOL    HW127335   0.400   2.932   6.257 -0.1346  0.5108 -1.7071
 5233SOL    HW227336   0.326   2.880   6.371  1.6762  3.4977  0.1059
 5234SOL     OW27337   2.189   1.401   9.918 -0.1639 -0.0090 -0.1113
 5234SOL    HW127338   2.140   1.336   9.967  2.0812 -0.6886  1.2229
 5234SOL    HW227339   2.216   1.463   9.985 -1.4909  0.4652 -0.0226
 5235SOL     OW27340   1.340   0.863   7.494 -0.0093  0.0403  0.2677
 5235SOL    HW127341   1.299   0.781   7.521 -0.4145  0.3399  0.5567
 5235SOL    HW227342   1.301   0.916   7.563 -1.8449 -0.2351 -0.5598
 5236SOL     OW27343   0.501   4.460  15.923  0.0092 -0.2664  0.2583
 5236SOL    HW127344   0.437   4.419  15.982  0.2599 -1.1602 -0.0891
 5236SOL    HW227345   0.520   4.544  15.964 -5.1971  0.4997  1.1079
 5237SOL     OW27346   3.261   0.571   9.305 -0.1183  0.2977  0.0575
 5237SOL    HW127347   3.304   0.488   9.283  1.9424  1.6625 -0.9593
 5237SOL    HW227348   3.255   0.575   9.400 -2.2968  1.8367 -0.1454
 5238SOL     OW27349   2.582   4.654   3.674  0.0591 -0.1218  0.3631
 5238SOL    HW127350   2.499   4.617   3.704  0.8316 -0.4417  2.1130
 5238SOL    HW227351   2.636   4.646   3.753  0.9366  0.9375 -0.1284
 5239SOL     OW27352   3.135   1.417   2.504  0.3419  0.5656  0.2770
 5239SOL    HW127353   3.175   1.426   2.417  1.0883  0.0352  0.5602
 5239SOL    HW227354   3.165   1.497   2.546  1.5769 -0.1786  0.8250
 5240SOL     OW27355   0.817   0.888   4.623 -0.1175 -0.1333  0.5525
 5240SOL    HW127356   0.827   0.793   4.631 -1.5199 -0.5519 -2.7849
 5240SOL    HW227357   0.909   0.895   4.601  0.1963 -0.3665  1.7746
 5241SOL     OW27358   3.836   3.809  12.780  0.6334 -0.4744 -0.7606
 5241SOL    HW127359   3.856   3.891  12.735 -1.9443  0.3178 -0.5053
 5241SOL    HW227360   3.745   3.796  12.751  0.4667 -1.0556  0.0088
 5242SOL     OW27361   0.647   2.164   5.639  0.0850 -0.0083 -0.2214
 5242SOL    HW127362   0.642   2.260   5.640  0.4238 -0.0240  3.0458
 5242SOL    HW227363   0.585   2.149   5.711  2.2285 -0.6761  1.4662
 5243SOL     OW27364   2.853   3.259   6.312 -0.3401  0.4489  0.6438
 5243SOL    HW127365   2.776   3.271   6.368  0.4184  0.9691  1.5651
 5243SOL    HW227366   2.924   3.248   6.375  1.2457 -0.2090 -1.2581
 5244SOL     OW27367   2.298   3.270  10.087  0.0248 -0.0383 -0.6560
 5244SOL    HW127368   2.239   3.195  10.074  0.8645 -0.8609  0.3385
 5244SOL    HW227369   2.362   3.221  10.138  0.6408 -0.3191 -1.7089
 5245SOL     OW27370   0.819   4.117  12.819  0.4104  0.6359 -0.8308
 5245SOL    HW127371   0.823   4.114  12.914 -0.6848  2.9292 -0.6990
 5245SOL    HW227372   0.729   4.095  12.793  0.0394  2.6794 -1.3038
 5246SOL     OW27373   4.040   4.269  12.946 -0.0429 -0.1381 -0.1697
 5246SOL    HW127374   3.979   4.290  12.875 -1.8627 -0.8202  1.2043
 5246SOL    HW227375   3.971   4.266  13.012  0.4204 -1.2013  0.2701
 5247SOL     OW27376   4.290   0.555   1.662  0.0290 -0.0778 -0.0909
 5247SOL    HW127377   4.256   0.469   1.638 -0.1114 -0.2131  0.5977
 5247SOL    HW227378   4.373   0.576   1.620 -0.2926  0.0614 -0.6629
 5248SOL     OW27379   0.995   3.937  17.649  0.3129 -0.0050  0.9015
 5248SOL    HW127380   0.984   3.864  17.588 -1.2913  0.5245  0.5655
 5248SOL    HW227381   1.051   3.900  17.718  0.3463 -3.2362 -0.8653
 5249SOL     OW27382   3.438   3.391   2.249  0.3394 -0.0738 -0.3798
 5249SOL    HW127383   3.515   3.382   2.304  0.0039  3.6029  0.6342
 5249SOL    HW227384   3.415   3.472   2.293 -1.1100  0.5163 -2.2280
 5250SOL     OW27385   0.497   1.716   6.031 -0.7769  0.1586  0.3641
 5250SOL    HW127386   0.491   1.622   6.017 -0.6792  0.3784 -1.1500
 5250SOL    HW227387   0.513   1.714   6.126 -0.2955  0.3478  0.2851
 5251SOL     OW27388   4.459   2.192   9.099 -0.0556 -0.5165  0.3019
 5251SOL    HW127389   4.401   2.187   9.023 -0.4380  2.9127  0.3322
 5251SOL    HW227390   4.440   2.281   9.128 -0.1243 -0.7136  0.8496
 5252SOL     OW27391   0.032   0.054   0.075 -0.2465  0.1718 -0.3760
 5252SOL    HW127392   0.113   0.066   0.025  0.7824 -2.0527  0.7743
 5252SOL    HW227393   0.003   0.145   0.077 -0.3375  0.1035  1.4966
 5253SOL     OW27394   1.404   1.085   1.728 -0.0676 -0.0293  0.5325
 5253SOL    HW127395   1.466   1.013   1.723 -1.2411 -1.0601  0.6974
 5253SOL    HW227396   1.331   1.046   1.680 -0.2053  1.3313 -0.3550
 5254SOL     OW27397   0.447   0.124   1.332  0.1267 -0.1228 -0.0564
 5254SOL    HW127398   0.395   0.055   1.292 -1.0969  0.0691  1.2115
 5254SOL    HW227399   0.394   0.202   1.315  0.7641  0.2708 -0.2327
 5255SOL     OW27400   3.219   1.032   4.884 -0.1898 -0.6582 -0.7658
 5255SOL    HW127401   3.162   1.072   4.818 -0.3414 -0.5656 -0.5788
 5255SOL    HW227402   3.150   0.989   4.935 -0.1957  0.9504  0.5875
 5256SOL     OW27403   1.609   0.015   5.000  0.1182 -0.2106 -0.1404
 5256SOL    HW127404   1.601   0.036   5.094 -0.0973  0.2830 -0.2704
 5256SOL    HW227405   1.519   4.729   4.980  0.7388 -1.6724 -1.0958
 5257SOL     OW27406   1.611   3.609  16.635 -0.1721 -0.2674 -0.1887
 5257SOL    HW127407   1.639   3.646  16.552  1.0989 -0.9945 -0.0774
 5257SOL    HW227408   1.526   3.644  16.662 -0.2777 -0.2609 -0.5326
 5258SOL     OW27409   4.364   4.622  13.269  0.7793 -0.1465  0.1293
 5258SOL    HW127410   4.324   4.540  13.239  2.0068 -0.7538  0.1672
 5258SOL    HW227411   4.294   4.665  13.319  2.6696  0.1102  2.5371
 5259SOL     OW27412   2.879   2.000  13.033  0.3808 -0.1669 -0.1017
 5259SOL    HW127413   2.914   1.947  12.961  0.6160  0.1351 -0.2100
 5259SOL    HW227414   2.826   1.939  13.084 -0.1108  0.0113 -0.3932
 5260SOL     OW27415   1.004   3.216   2.796  0.4504  0.0336 -0.5978
 5260SOL    HW127416   0.989   3.132   2.754  0.7801 -0.8930  1.1178
 5260SOL    HW227417   0.913   3.236   2.815  0.5407 -0.9881  0.9584
 5261SOL     OW27418   4.489   3.581   6.614  0.2528 -0.1383  0.2289
 5261SOL    HW127419   4.480   3.562   6.707  0.0038  1.0242  0.4456
 5261SOL    HW227420   4.485   3.676   6.624 -0.0754 -0.0921 -0.2723
 5262SOL     OW27421   1.600   2.270   2.649 -0.3932 -0.0208  0.2624
 5262SOL    HW127422   1.610   2.360   2.618  1.2870  0.0522  0.9959
 5262SOL    HW227423   1.609   2.218   2.569 -2.7066  0.6550 -0.4346
 5263SOL     OW27424   0.861   1.048   6.364 -0.2976  0.3112  0.5417
 5263SOL    HW127425   0.787   1.049   6.303  1.1571 -0.0525 -1.2323
 5263SOL    HW227426   0.886   1.139   6.379  0.2717  0.0757  1.0185
 5264SOL     OW27427   2.579   3.030   4.541  0.6935  0.0672 -0.8579
 5264SOL    HW127428   2.520   3.092   4.583 -0.6706 -1.1162 -1.0186
 5264SOL    HW227429   2.662   3.052   4.583  0.1923 -3.6258  2.0388
 5265SOL     OW27430   3.652   2.307   8.301  0.6184  0.1326  0.3725
 5265SOL    HW127431   3.717   2.326   8.368  1.0300 -0.8525  0.2525
 5265SOL    HW227432   3.589   2.378   8.312 -1.0543 -0.9116 -2.5301
 5266SOL     OW27433   4.097   0.573   2.146 -0.3333  0.9135  0.0439
 5266SOL    HW127434   4.116   0.659   2.108  0.0241  2.0106  2.7057
 5266SOL    HW227435   4.158   0.576   2.219  0.0640 -2.1483 -0.1645
 5267SOL     OW27436   2.351   3.526   2.726 -0.1760  0.7046 -0.1645
 5267SOL    HW127437   2.370   3.581   2.802 -0.8650 -0.3895  0.8073
 5267SOL    HW227438   2.271   3.572   2.701 -1.1840 -1.0949 -0.2458
 5268SOL     OW27439   2.929   1.047   9.323  0.7859 -0.1636  0.6078
 5268SOL    HW127440   2.966   1.070   9.238  1.3497 -1.8028  0.3925
 5268SOL    HW227441   2.917   1.129   9.370  1.6781  0.4907 -0.3090
 5269SOL     OW27442   1.120   2.953   3.429 -0.0299 -0.2050 -0.0805
 5269SOL    HW127443   1.062   2.901   3.373 -0.8992  1.9788 -1.2369
 5269SOL    HW227444   1.061   2.967   3.503 -3.5632  2.3257 -3.3309
 5270SOL     OW27445   0.721   1.928  15.261  0.5896 -0.0494 -0.0554
 5270SOL    HW127446   0.682   1.996  15.205 -0.1363 -0.0951  0.3953
 5270SOL    HW227447   0.644   1.918  15.317  0.9208 -0.0065  0.4032
 5271SOL     OW27448   3.683   3.208   2.096 -0.1200 -0.7976 -0.1272
 5271SOL    HW127449   3.709   3.255   2.017 -1.0382 -0.2968 -0.1269
 5271SOL    HW227450   3.720   3.254   2.171  0.1443  0.5514 -1.0789
 5272SOL     OW27451   1.565   1.539   1.588  1.0503  0.4534  0.5962
 5272SOL    HW127452   1.526   1.613   1.635  0.3206  0.0411  0.6310
 5272SOL    HW227453   1.501   1.475   1.619  0.7949  1.1597  1.5269
 5273SOL     OW27454   4.419   3.409  16.856 -0.5459 -0.5913  0.8020
 5273SOL    HW127455   4.490   3.355  16.823  0.4635  0.2866  1.5436
 5273SOL    HW227456   4.347   3.348  16.839 -1.3176 -0.1638  2.5382
 5274SOL     OW27457   3.410   0.527  11.478 -0.5626  0.4612 -0.6960
 5274SOL    HW127458   3.429   0.621  11.480  1.5801  0.0809 -2.8763
 5274SOL    HW227459   3.327   0.529  11.430  1.7256  0.1880 -4.6459
 5275SOL     OW27460   0.293   3.445   3.452  0.2824  0.3207  0.2825
 5275SOL    HW127461   0.336   3.450   3.538 -0.4736  3.1006  0.5078
 5275SOL    HW227462   0.319   3.527   3.412  0.3485  0.4081  0.5024
 5276SOL     OW27463   4.598   1.939  17.472 -0.1567 -0.6537  0.3561
 5276SOL    HW127464   4.648   1.861  17.447  0.8972 -0.5752  2.2199
 5276SOL    HW227465   4.666   1.999  17.503 -1.0497  0.9136 -0.7430
 5277SOL     OW27466   0.047   2.506   4.864 -0.3098 -0.6363 -0.2836
 5277SOL    HW127467   0.081   2.437   4.808  0.3603  0.1770 -0.8661
 5277SOL    HW227468   4.704   2.508   4.815  0.6467 -2.3793 -1.9442
 5278SOL     OW27469   1.015   1.142  13.933  0.4497 -0.1139  0.6187
 5278SOL    HW127470   1.097   1.149  13.982  0.9854  2.9361 -0.7125
 5278SOL    HW227471   0.984   1.233  13.932 -0.4213 -0.3949  1.6733
 5279SOL     OW27472   2.352   3.296   3.571  0.6966  0.2656 -0.1200
 5279SOL    HW127473   2.387   3.378   3.539  1.0000 -0.9222 -2.8510
 5279SOL    HW227474   2.267   3.286   3.529  0.5770  0.6316  0.0389
 5280SOL     OW27475   0.172   1.146   8.114 -0.2296  0.7319  0.5849
 5280SOL    HW127476   0.080   1.169   8.106  0.0359  1.3311 -0.7447
 5280SOL    HW227477   0.172   1.054   8.140 -1.7202  0.6958  0.4361
 5281SOL     OW27478   0.972   0.138   8.284 -0.1825 -0.0662 -0.1481
 5281SOL    HW127479   1.041   0.203   8.289 -1.6507  1.5116 -0.6092
 5281SOL    HW227480   1.015   0.055   8.306 -0.6677  0.3096  2.2481
 5282SOL     OW27481   4.210   3.298  17.494  0.1656 -0.0411  0.1728
 5282SOL    HW127482   4.277   3.231  17.508  0.0107 -0.5245 -1.4358
 5282SOL    HW227483   4.182   3.317  17.584 -1.3518 -0.0567 -0.2875
 5283SOL     OW27484   2.888   3.282   3.305 -0.7286  0.2344  0.2193
 5283SOL    HW127485   2.966   3.327   3.337 -0.0939 -1.0704  0.5490
 5283SOL    HW227486   2.854   3.243   3.386  1.1165 -1.4003  0.2291
 5284SOL     OW27487   0.376   1.885   9.688  0.3001 -0.0183  0.6498
 5284SOL    HW127488   0.301   1.825   9.687 -0.4814  0.9369  1.3971
 5284SOL    HW227489   0.386   1.908   9.781 -0.3472 -0.5135  0.8481
 5285SOL     OW27490   4.612   4.561   3.315  0.3315  0.4002 -0.3741
 5285SOL    HW127491   4.529   4.526   3.349  0.6497 -1.5657 -1.6036
 5285SOL    HW227492   4.669   4.484   3.320 -0.6474 -0.1762  1.9530
 5286SOL     OW27493   2.214   2.484   1.737 -0.4582  0.0839 -0.2929
 5286SOL    HW127494   2.209   2.395   1.772  3.1205  0.7570  1.8715
 5286SOL    HW227495   2.253   2.478   1.650  2.1181  2.0249  0.7412
 5287SOL     OW27496   3.241   3.171   4.271  0.1185  0.2745  0.2092
 5287SOL    HW127497   3.333   3.144   4.266  0.5161  1.6928  0.0226
 5287SOL    HW227498   3.241   3.220   4.354  0.1041 -0.3577  0.5882
 5288SOL     OW27499   2.721   3.768  11.237  0.4578  0.0807  0.1777
 5288SOL    HW127500   2.782   3.698  11.261  0.1039 -0.8363 -1.6302
 5288SOL    HW227501   2.734   3.761  11.143  0.1368  0.0819  0.1339
 5289SOL     OW27502   1.827   3.975   7.329 -0.1011 -0.0218  0.0193
 5289SOL    HW127503   1.837   4.060   7.371 -2.3447 -0.6803  1.8626
 5289SOL    HW227504   1.736   3.982   7.299 -0.2709 -1.0456  0.2945
 5290SOL     OW27505   0.048   1.740   6.563  0.3348 -0.1585 -0.0046
 5290SOL    HW127506   0.125   1.795   6.560  0.1033  0.2404  1.4027
 5290SOL    HW227507   0.008   1.778   6.485 -0.6416 -0.0663  0.5353
 5291SOL     OW27508   0.384   0.710   4.670  0.5032 -0.4738  0.5343
 5291SOL    HW127509   0.352   0.754   4.750 -0.0837 -3.8163  2.1374
 5291SOL    HW227510   0.392   0.620   4.703 -1.7337 -0.2902  1.6124
 5292SOL     OW27511   0.800   1.425   4.437  0.0763  0.7639  0.1542
 5292SOL    HW127512   0.718   1.473   4.450 -0.7401 -0.5001 -0.3941
 5292SOL    HW227513   0.845   1.419   4.521 -1.5507  4.4086  1.2954
 5293SOL     OW27514   0.242   3.318   9.414  0.2521 -0.0036 -0.0055
 5293SOL    HW127515   0.278   3.232   9.435  1.9665  0.8820  0.7243
 5293SOL    HW227516   0.212   3.344   9.501 -0.1232  0.9794 -0.4336
 5294SOL     OW27517   1.749   1.583  16.769 -0.3095  0.0983  0.2455
 5294SOL    HW127518   1.749   1.523  16.843  1.2872 -0.0108  0.1488
 5294SOL    HW227519   1.789   1.526  16.704 -2.6730  0.4528 -1.5449
 5295SOL     OW27520   4.550   1.167   6.927 -0.1279 -0.3061 -0.1752
 5295SOL    HW127521   4.561   1.177   6.832 -1.2233  1.6318 -0.1220
 5295SOL    HW227522   4.466   1.212   6.942  0.1459  0.1082  0.1109
 5296SOL     OW27523   3.212   0.264   8.748 -0.0430 -0.5178  0.0760
 5296SOL    HW127524   3.225   0.265   8.843 -0.2002 -1.5038  0.1109
 5296SOL    HW227525   3.129   0.218   8.739  0.7151 -1.2351 -3.3781
 5297SOL     OW27526   2.578   1.470   8.298  0.5197  0.5497  0.2471
 5297SOL    HW127527   2.607   1.478   8.389  0.9366 -2.6101  0.3777
 5297SOL    HW227528   2.651   1.493   8.241  0.9989 -0.9937  0.2505
 5298SOL     OW27529   0.118   0.470   4.832 -0.3306 -0.3478  0.4171
 5298SOL    HW127530   0.185   0.481   4.900  1.1006  0.3719 -1.1088
 5298SOL    HW227531   0.166   0.426   4.762  2.7729  0.0636  2.2529
 5299SOL     OW27532   3.776   2.397   6.752 -0.2393  0.0829  0.3899
 5299SOL    HW127533   3.834   2.323   6.771 -0.4749 -0.1055  0.3782
 5299SOL    HW227534   3.836   2.471   6.760 -0.4186  0.2211  0.4640
 5300SOL     OW27535   2.726   3.984   3.883  0.1360 -0.1497  0.3682
 5300SOL    HW127536   2.636   3.996   3.853  0.3961 -1.2372 -0.8614
 5300SOL    HW227537   2.784   4.034   3.826 -0.0897  1.2815  1.4109
 5301SOL     OW27538   3.094   0.253   9.873  0.1412  0.1738  0.4681
 5301SOL    HW127539   3.023   0.301   9.915  1.3555  0.7602  1.8416
 5301SOL    HW227540   3.072   0.272   9.782 -0.6862 -0.7918  0.4623
 5302SOL     OW27541   0.173   0.583   5.100 -0.0312  1.0062  0.4579
 5302SOL    HW127542   0.109   0.611   5.166  0.9491  0.3123  1.7003
 5302SOL    HW227543   0.232   0.535   5.158 -1.9578 -1.5266  0.3345
 5303SOL     OW27544   3.599   3.784   8.289 -0.1522  0.4079  0.9268
 5303SOL    HW127545   3.626   3.695   8.311 -1.9802 -0.4680 -0.2965
 5303SOL    HW227546   3.507   3.783   8.314 -0.8217  0.3002 -1.4657
 5304SOL     OW27547   1.807   4.343   4.627 -0.6035  0.6878  0.4825
 5304SOL    HW127548   1.878   4.321   4.567 -0.0418  1.2178  0.9579
 5304SOL    HW227549   1.761   4.409   4.576  0.3572  0.1230 -1.0941
 5305SOL     OW27550   0.669   0.343   4.666  0.0314 -0.1786  0.6743
 5305SOL    HW127551   0.761   0.353   4.640 -0.5118 -0.2677 -1.3224
 5305SOL    HW227552   0.633   0.374   4.583 -0.5549  0.1371  1.0497
 5306SOL     OW27553   0.410   2.338   2.031  0.0838 -0.0156  0.3234
 5306SOL    HW127554   0.330   2.388   2.048 -0.8813 -0.8259 -1.8630
 5306SOL    HW227555   0.458   2.362   2.111 -1.1853 -2.5064  1.8392
 5307SOL     OW27556   1.994   4.687   2.137  0.4858 -0.1406 -0.5153
 5307SOL    HW127557   1.973   4.618   2.073 -0.0186  0.7123 -1.2658
 5307SOL    HW227558   2.054   4.644   2.198  0.1126 -1.4917 -1.0966
 5308SOL     OW27559   1.479   1.110   6.254  0.9953 -0.2246  0.4509
 5308SOL    HW127560   1.458   1.191   6.299  0.1785  0.0411 -0.3940
 5308SOL    HW227561   1.501   1.055   6.329  1.1016  1.3726  1.5683
 5309SOL     OW27562   3.800   0.558   6.786 -0.2868  0.0875 -0.2705
 5309SOL    HW127563   3.864   0.515   6.843 -0.5725 -1.9775 -1.4798
 5309SOL    HW227564   3.719   0.554   6.837  0.3800 -0.5934  0.7341
 5310SOL     OW27565   3.880   1.532   7.274 -0.2310 -0.3491  0.1465
 5310SOL    HW127566   3.830   1.500   7.350 -0.3840 -1.3060 -0.3580
 5310SOL    HW227567   3.945   1.586   7.320 -0.8697  1.3343 -0.9369
 5311SOL     OW27568   3.770   4.661   2.274  0.1028  0.1907  0.7226
 5311SOL    HW127569   3.711   4.605   2.324  0.2293  0.1203  0.7906
 5311SOL    HW227570   3.728   0.007   2.290 -1.6357 -1.2010  3.5752
 5312SOL     OW27571   0.631   3.306   3.006  0.0541 -0.2735  0.0398
 5312SOL    HW127572   0.632   3.398   2.979  0.0836 -0.1259  0.5430
 5312SOL    HW227573   0.658   3.312   3.097 -0.1281 -0.4123  0.1020
 5313SOL     OW27574   1.461   4.386  17.192  0.1261 -0.0296  0.2110
 5313SOL    HW127575   1.380   4.410  17.148 -0.3058  0.4637  1.2538
 5313SOL    HW227576   1.444   4.380  17.286 -0.8670 -1.1658 -0.0331
 5314SOL     OW27577   3.837   0.061   4.386 -0.0125  0.6299  0.1689
 5314SOL    HW127578   3.903   0.014   4.335  0.7055  3.1109 -1.1412
 5314SOL    HW227579   3.884   0.079   4.467  0.8262 -1.4941  0.1654
 5315SOL     OW27580   4.460   3.257   1.383 -0.2722  0.6633 -0.1651
 5315SOL    HW127581   4.471   3.346   1.416  3.2922 -0.7053  2.3351
 5315SOL    HW227582   4.539   3.213   1.414 -0.8925 -0.2165  0.1772
 5316SOL     OW27583   2.921   3.273   7.507 -0.6207  0.4425 -0.3141
 5316SOL    HW127584   2.873   3.347   7.470 -2.3981 -1.7589 -2.3564
 5316SOL    HW227585   2.873   3.201   7.467 -0.1516  0.7682 -1.4636
 5317SOL     OW27586   1.861   1.551  10.536  0.0889 -0.1487 -0.1067
 5317SOL    HW127587   1.767   1.535  10.532 -0.0690  1.1033 -1.0745
 5317SOL    HW227588   1.887   1.481  10.476 -0.2077  1.1013 -1.6799
 5318SOL     OW27589   0.972   0.116   3.552 -0.5954  0.2324 -0.0934
 5318SOL    HW127590   1.053   0.078   3.518  1.2320  0.5505  4.0218
 5318SOL    HW227591   0.925   0.043   3.592  0.9498 -0.7154 -0.0231
 5319SOL     OW27592   3.419   2.459   8.348 -0.0799  0.4297  0.5385
 5319SOL    HW127593   3.374   2.474   8.265 -1.8969 -0.2325  1.4016
 5319SOL    HW227594   3.349   2.454   8.413 -0.5222  3.5132  0.3077
 5320SOL     OW27595   4.402   1.233  10.110  0.2417  0.4123 -0.3849
 5320SOL    HW127596   4.397   1.143  10.143 -0.3673  0.8437  0.7090
 5320SOL    HW227597   4.410   1.219  10.016  4.2681 -0.6556  0.1056
 5321SOL     OW27598   3.017   2.503   3.283 -0.3775 -0.6600 -0.1496
 5321SOL    HW127599   3.104   2.531   3.255 -0.3789  0.5154  0.9870
 5321SOL    HW227600   2.963   2.496   3.205 -1.6338  1.1153  0.5640
 5322SOL     OW27601   1.568   0.531   1.964 -0.4880 -0.3375 -0.6091
 5322SOL    HW127602   1.627   0.474   1.915  0.7433  0.4424 -0.0167
 5322SOL    HW227603   1.497   0.469   1.978  1.2762 -2.3931 -0.7965
 5323SOL     OW27604   1.556   0.007   9.191 -0.3593  0.3653 -0.1509
 5323SOL    HW127605   1.515   4.732   9.277  1.1592  0.0986  0.5310
 5323SOL    HW227606   1.519   4.688   9.125 -3.2132  2.5307 -0.4776
 5324SOL     OW27607   4.280   0.967   5.622 -0.2397 -0.0889 -0.0691
 5324SOL    HW127608   4.203   0.921   5.588  0.4470 -1.3368  0.0621
 5324SOL    HW227609   4.344   0.965   5.551 -1.4147 -3.2662 -1.0715
 5325SOL     OW27610   0.243   1.446   0.832 -0.0517  0.4470  0.0837
 5325SOL    HW127611   0.226   1.395   0.753 -1.4774  0.4819  0.3742
 5325SOL    HW227612   0.172   1.426   0.893 -0.8376 -1.2626 -1.4139
 5326SOL     OW27613   3.159   4.336   3.618 -0.4199 -0.8807  0.5328
 5326SOL    HW127614   3.182   4.304   3.705  0.4391 -0.1905  0.5602
 5326SOL    HW227615   3.111   4.415   3.641  0.6107 -0.1172  0.0786
 5327SOL     OW27616   3.891   0.101   8.288 -0.4386  0.2298 -0.8310
 5327SOL    HW127617   3.898   0.122   8.195 -0.6301  1.1742 -0.6321
 5327SOL    HW227618   3.796   0.102   8.297 -0.4529  0.3884 -0.9866
 5328SOL     OW27619   4.476   2.215   3.631  0.4321  0.2426  0.1368
 5328SOL    HW127620   4.536   2.153   3.673 -0.5541  0.7371  2.2591
 5328SOL    HW227621   4.538   2.261   3.575 -0.6964  1.5280 -0.0428
 5329SOL     OW27622   0.082   3.997   5.698  0.2840 -0.4535 -0.6783
 5329SOL    HW127623   0.085   4.092   5.710  0.3964 -0.3475 -1.5581
 5329SOL    HW227624   0.121   3.960   5.777 -1.3633  0.7627  0.7168
 5330SOL     OW27625   2.791   4.273  16.498 -0.4913 -0.2141 -0.4264
 5330SOL    HW127626   2.821   4.262  16.588 -2.0302  1.9479  0.3529
 5330SOL    HW227627   2.783   4.368  16.507  0.2069 -0.0814 -1.2508
 5331SOL     OW27628   3.261   1.629  14.991  0.1545  0.5619 -0.3117
 5331SOL    HW127629   3.212   1.549  14.970  1.9486 -1.2492  2.6128
 5331SOL    HW227630   3.186   1.689  14.996 -1.2859 -1.5251  2.5782
 5332SOL     OW27631   1.351   3.623   5.359  0.0542 -0.2054 -0.1939
 5332SOL    HW127632   1.373   3.546   5.307 -1.8019 -2.2202  1.9803
 5332SOL    HW227633   1.336   3.580   5.443 -3.0880  2.3613  0.5601
 5333SOL     OW27634   4.111   1.338   8.653 -0.5219 -0.1113 -0.4833
 5333SOL    HW127635   4.179   1.349   8.587  0.2399 -1.6052  0.0325
 5333SOL    HW227636   4.095   1.429   8.680  0.3836  0.4343 -1.7974
 5334SOL     OW27637   3.510   2.562   3.459 -0.2862 -0.1483 -0.1256
 5334SOL    HW127638   3.584   2.588   3.404 -0.1378  0.5312  0.4030
 5334SOL    HW227639   3.471   2.649   3.458 -0.6866 -0.2805  4.0308
 5335SOL     OW27640   2.796   0.526  12.622  0.3267  0.1123 -0.1153
 5335SOL    HW127641   2.847   0.446  12.608 -0.2468 -0.2749  0.0357
 5335SOL    HW227642   2.842   0.562  12.698 -1.2769 -2.1619  1.9596
 5336SOL     OW27643   1.009   2.602   4.687 -0.1439 -0.6916  0.0837
 5336SOL    HW127644   0.999   2.655   4.608  0.2330 -1.0483 -0.2032
 5336SOL    HW227645   1.072   2.537   4.655  1.7659  0.5494  1.2697
 5337SOL     OW27646   2.601   2.701  14.183  0.2588  0.0515  0.1901
 5337SOL    HW127647   2.508   2.726  14.183 -0.1634 -1.5322 -0.0168
 5337SOL    HW227648   2.607   2.669  14.273  0.0280 -0.3212  0.0716
 5338SOL     OW27649   0.284   3.418   8.258  0.6585  0.2509 -0.2319
 5338SOL    HW127650   0.298   3.488   8.195  2.2141  0.0276 -0.1143
 5338SOL    HW227651   0.315   3.466   8.335 -2.1319  0.2986  0.8808
 5339SOL     OW27652   0.152   2.718   3.804 -0.0033 -0.0359  0.1924
 5339SOL    HW127653   0.198   2.637   3.827  1.2431  1.5058  3.1465
 5339SOL    HW227654   0.201   2.730   3.723  2.5939  1.7522  2.0418
 5340SOL     OW27655   2.511   2.532   0.115  0.3001  0.0926 -0.5263
 5340SOL    HW127656   2.471   2.478   0.184 -0.0944 -0.9093 -1.5380
 5340SOL    HW227657   2.441   2.557   0.055 -0.3307 -0.2014  0.0902
 5341SOL     OW27658   3.649   0.999   7.865  0.2637 -0.3095 -0.1080
 5341SOL    HW127659   3.667   1.065   7.799  0.2608  0.7372  0.9445
 5341SOL    HW227660   3.600   1.050   7.929 -1.0061 -0.2062 -1.1343
 5342SOL     OW27661   3.864   0.718   5.518 -0.6492  0.6044 -0.6024
 5342SOL    HW127662   3.849   0.625   5.504 -0.3101  0.8173 -2.3762
 5342SOL    HW227663   3.797   0.744   5.455 -1.3479  2.5233  0.9396
 5343SOL     OW27664   2.454   2.869  11.674  0.2891 -0.0058 -0.1818
 5343SOL    HW127665   2.431   2.798  11.615  3.1520 -1.4972  0.5303
 5343SOL    HW227666   2.537   2.899  11.637  0.4699 -0.2807  0.0045
 5344SOL     OW27667   1.093   1.658   5.993  0.7371 -0.6075  0.2074
 5344SOL    HW127668   1.160   1.646   5.926 -0.1081 -2.0294 -0.3964
 5344SOL    HW227669   1.128   1.619   6.073  2.1370 -0.4420 -0.3331
 5345SOL     OW27670   1.639   0.311   2.747  0.3852 -0.6440 -0.0939
 5345SOL    HW127671   1.582   0.382   2.777  2.3845  0.9228 -0.0122
 5345SOL    HW227672   1.611   0.300   2.656 -1.6400  0.3282  0.4137
 5346SOL     OW27673   0.220   0.965   3.098  0.1132 -0.0719  0.1603
 5346SOL    HW127674   0.248   1.028   3.164 -0.5430 -0.1839  0.5449
 5346SOL    HW227675   0.140   0.926   3.133  0.3785 -2.0817 -1.4668
 5347SOL     OW27676   4.640   2.581  13.236  0.8896  0.0750  0.1156
 5347SOL    HW127677   4.645   2.556  13.144  1.5340  0.8363 -0.0491
 5347SOL    HW227678   4.613   2.672  13.234  0.6222  0.0167  0.8914
 5348SOL     OW27679   0.975   0.527   2.741 -0.1203  0.5095  0.1374
 5348SOL    HW127680   0.936   0.460   2.684  0.9289  0.2508 -0.2648
 5348SOL    HW227681   1.064   0.510   2.711 -0.2445  0.2334 -0.0858
 5349SOL     OW27682   1.315   0.074  10.529 -0.2824  0.6552  0.1624
 5349SOL    HW127683   1.405   0.049  10.549 -0.1412  1.3929  0.4238
 5349SOL    HW227684   1.278   4.727  10.550 -1.5464  0.7155 -1.7834
 5350SOL     OW27685   2.078   2.223   5.748 -0.3207  0.1778 -0.0336
 5350SOL    HW127686   2.134   2.146   5.754 -0.3929  0.1364  0.1349
 5350SOL    HW227687   2.090   2.261   5.835  1.8230 -0.2090 -0.1528
 5351SOL     OW27688   0.107   4.695   4.557 -0.1639  0.5658 -0.0141
 5351SOL    HW127689   0.058   4.613   4.560 -0.7074  0.8730 -0.4499
 5351SOL    HW227690   0.077   4.730   4.473  2.5564 -1.8456 -1.9720
 5352SOL     OW27691   2.665   4.392   7.068  0.0690 -0.3063 -0.4129
 5352SOL    HW127692   2.712   4.351   6.995  2.7257  0.3408  0.9507
 5352SOL    HW227693   2.606   4.452   7.021 -0.9876  1.0832  2.6629
 5353SOL     OW27694   3.892   4.237   0.819 -0.3420 -0.4806  0.2836
 5353SOL    HW127695   3.815   4.240   0.875 -0.9906 -2.0401 -0.5311
 5353SOL    HW227696   3.959   4.223   0.886 -0.8851  0.4192  1.0222
 5354SOL     OW27697   2.322   0.378  12.600  0.2991  0.6752  0.7428
 5354SOL    HW127698   2.322   0.433  12.678  0.3346  1.7081  0.0053
 5354SOL    HW227699   2.261   0.310  12.628  0.9101  0.0131  0.4574
 5355SOL     OW27700   4.215   3.404   1.529 -0.0050 -0.2565  0.4873
 5355SOL    HW127701   4.286   3.367   1.581 -1.5488 -0.3929  2.4823
 5355SOL    HW227702   4.229   3.498   1.525  1.2508 -0.4349  0.5642
 5356SOL     OW27703   4.250   2.582   0.607  0.3175  0.8012  0.1688
 5356SOL    HW127704   4.279   2.667   0.573  0.9991  0.4980 -0.0121
 5356SOL    HW227705   4.156   2.594   0.609 -0.0890 -1.9410 -2.9178
 5357SOL     OW27706   0.771   4.607   7.861 -0.0989  0.1496 -0.1529
 5357SOL    HW127707   0.757   4.669   7.933  0.2162 -0.4767  0.4449
 5357SOL    HW227708   0.789   4.525   7.907  1.1870  0.9520  0.7852
 5358SOL     OW27709   2.142   2.321  16.976  0.3747  0.0271 -0.3414
 5358SOL    HW127710   2.069   2.317  17.038 -1.1115 -1.2230 -2.1714
 5358SOL    HW227711   2.103   2.385  16.915 -0.4470 -0.4490 -0.3063
 5359SOL     OW27712   4.583   4.737  13.184 -0.0625 -0.1372  0.1002
 5359SOL    HW127713   4.502   4.691  13.208 -0.2345  0.0935 -0.0430
 5359SOL    HW227714   4.622   0.001  13.271 -1.7351 -0.3888  0.8580
 5360SOL     OW27715   4.243   4.171   5.218  0.0433 -0.2774 -0.2408
 5360SOL    HW127716   4.159   4.126   5.224 -0.0886 -0.2197 -1.6110
 5360SOL    HW227717   4.293   4.119   5.156  1.5040  0.1585  0.5822
 5361SOL     OW27718   3.593   0.976   8.585 -0.0959 -0.7341 -0.0001
 5361SOL    HW127719   3.684   1.005   8.587 -0.2953  0.0106 -1.6467
 5361SOL    HW227720   3.564   1.027   8.661  1.4990 -1.7357  1.2947
 5362SOL     OW27721   3.246   2.340   2.703 -0.1637 -0.1197  0.2397
 5362SOL    HW127722   3.341   2.344   2.697 -0.1731 -1.7135 -0.8424
 5362SOL    HW227723   3.218   2.350   2.612  1.2577 -0.8441 -0.2722
 5363SOL     OW27724   4.532   4.638   6.842 -0.6123  0.4825  0.1773
 5363SOL    HW127725   4.512   4.731   6.850  0.7820  1.0567 -3.1950
 5363SOL    HW227726   4.455   4.593   6.877  0.8996 -0.6761  2.0255
 5364SOL     OW27727   3.253   0.348  16.510  0.1684 -0.2119 -0.6373
 5364SOL    HW127728   3.297   0.427  16.543  0.5079 -1.3286  1.5637
 5364SOL    HW227729   3.185   0.330  16.574 -0.0786 -0.5933 -1.0089
 5365SOL     OW27730   1.620   1.449  10.116  0.2404 -0.1629  0.4709
 5365SOL    HW127731   1.559   1.490  10.178  0.7303  0.1192  0.7612
 5365SOL    HW227732   1.662   1.383  10.171 -0.6022 -1.2108 -0.1356
 5366SOL     OW27733   2.388   0.525   9.634  0.3813 -0.1384  0.0207
 5366SOL    HW127734   2.358   0.518   9.543 -3.0643 -2.0037  1.2983
 5366SOL    HW227735   2.478   0.504   9.612  0.6904 -1.4046  2.5317
 5367SOL     OW27736   1.706   0.142   3.015  0.0620  0.0802  0.2489
 5367SOL    HW127737   1.623   0.126   2.970  1.4084 -2.6337 -1.2603
 5367SOL    HW227738   1.772   0.145   2.946 -0.3375  3.2564 -0.0144
 5368SOL     OW27739   0.587   2.792  10.379 -0.3128  0.2335 -0.0012
 5368SOL    HW127740   0.556   2.806  10.290 -0.8172 -2.0926 -0.1962
 5368SOL    HW227741   0.561   2.702  10.401  1.0031 -0.3560 -0.8273
 5369SOL     OW27742   0.806   3.490  15.974  0.3460 -0.9238  0.3765
 5369SOL    HW127743   0.735   3.553  15.969  1.6652  0.4551 -1.1362
 5369SOL    HW227744   0.811   3.460  15.883  1.9395 -1.6038  0.6726
 5370SOL     OW27745   2.785   1.254   2.757  0.0015 -0.0673  0.0958
 5370SOL    HW127746   2.737   1.193   2.701  0.5827  0.7958 -1.3430
 5370SOL    HW227747   2.844   1.293   2.693  2.7134 -2.6868  0.9817
 5371SOL     OW27748   3.384   0.074   2.078  0.1060  0.5397  0.7832
 5371SOL    HW127749   3.453   0.015   2.047 -0.3130  0.1203  0.6576
 5371SOL    HW227750   3.402   0.156   2.030  1.9457 -1.1122 -1.3608
 5372SOL     OW27751   1.854   1.950   9.108  0.1730 -0.8791  0.2635
 5372SOL    HW127752   1.895   2.019   9.161 -0.8305  0.7965 -1.1597
 5372SOL    HW227753   1.771   1.935   9.154  0.3372  0.7022  1.0909
 5373SOL     OW27754   2.481   3.528   6.745 -0.4630 -0.4299  0.4484
 5373SOL    HW127755   2.495   3.435   6.762 -0.2271 -0.5336 -0.3009
 5373SOL    HW227756   2.390   3.520   6.772 -1.0864 -0.9094 -1.7972
 5374SOL     OW27757   0.990   1.939  12.662  0.2498  0.2210  0.7080
 5374SOL    HW127758   0.962   1.859  12.617  1.2031  0.6563 -0.6864
 5374SOL    HW227759   1.063   1.960  12.603  2.2162  1.0231  3.4433
 5375SOL     OW27760   0.402   3.374   6.091  0.3411 -0.2008  0.0426
 5375SOL    HW127761   0.401   3.382   6.187 -1.0617  1.5223 -0.1180
 5375SOL    HW227762   0.424   3.459   6.053 -0.6995  0.5979  1.2154
 5376SOL     OW27763   1.764   3.115   6.224 -0.6321  0.1999 -0.3614
 5376SOL    HW127764   1.669   3.123   6.213 -0.6193  0.7506 -0.0521
 5376SOL    HW227765   1.770   3.131   6.318  1.0314 -1.7407 -0.1429
 5377SOL     OW27766   1.926   3.452  11.364  0.0333  0.1431  0.6894
 5377SOL    HW127767   1.925   3.458  11.460 -2.8639 -0.6215  0.7180
 5377SOL    HW227768   1.884   3.368  11.345 -2.0396  1.2427  0.4784
 5378SOL     OW27769   4.143   0.484   8.432 -0.1574 -0.2327 -0.4195
 5378SOL    HW127770   4.116   0.575   8.418 -1.6195 -0.6756 -0.4493
 5378SOL    HW227771   4.109   0.437   8.356  0.7404 -0.3893 -0.7228
 5379SOL     OW27772   2.397   3.006   8.322  0.4148 -0.5496 -0.2650
 5379SOL    HW127773   2.385   3.000   8.417  0.2275 -0.5415 -0.2896
 5379SOL    HW227774   2.366   3.089   8.287  0.8692 -0.9012 -1.5230
 5380SOL     OW27775   1.302   0.402   7.386  0.5389  0.1439 -0.0320
 5380SOL    HW127776   1.340   0.456   7.318 -0.6036  1.3195  0.2676
 5380SOL    HW227777   1.282   0.317   7.347 -0.6320 -1.3821  3.8841
 5381SOL     OW27778   1.691   4.443   7.334  0.5616 -0.1538 -0.0964
 5381SOL    HW127779   1.720   4.496   7.260  2.5046 -0.0209  0.7541
 5381SOL    HW227780   1.727   4.489   7.410  0.5594 -0.6356  0.2015
 5382SOL     OW27781   3.397   0.397   3.415  0.8513 -0.4582 -0.5596
 5382SOL    HW127782   3.415   0.303   3.412  0.2214 -0.5716 -0.9612
 5382SOL    HW227783   3.303   0.379   3.414  0.2263  2.6233  1.2275
 5383SOL     OW27784   3.442   1.157   5.037  0.1809  0.2176 -0.6366
 5383SOL    HW127785   3.361   1.129   4.994 -0.7600  0.3781  1.0486
 5383SOL    HW227786   3.479   1.194   4.957  0.5171 -1.3293 -1.2047
 5384SOL     OW27787   3.214   1.041   2.856 -0.5908  0.4315 -0.2708
 5384SOL    HW127788   3.191   1.089   2.777 -1.3308  3.5170  1.8023
 5384SOL    HW227789   3.309   1.034   2.856 -0.6145  0.1002  3.0358
 5385SOL     OW27790   4.436   4.061   8.806  0.6019  0.5901 -0.1562
 5385SOL    HW127791   4.504   4.098   8.862  0.6911  0.4441 -0.1688
 5385SOL    HW227792   4.445   3.966   8.817 -1.5129  0.7691  3.1114
 5386SOL     OW27793   2.274   2.778  12.457  0.0854  0.0019 -0.1184
 5386SOL    HW127794   2.329   2.829  12.516 -0.8975  0.2208  0.6111
 5386SOL    HW227795   2.321   2.793  12.375 -0.4440 -1.4829 -0.7043
 5387SOL     OW27796   2.349   2.289  13.527 -0.1582  0.5479 -0.0968
 5387SOL    HW127797   2.303   2.337  13.596  1.1384  0.2862  0.9523
 5387SOL    HW227798   2.287   2.291  13.454  0.2283 -1.0619 -0.4606
 5388SOL     OW27799   3.480   4.240   5.130 -0.1704 -0.8161  0.1272
 5388SOL    HW127800   3.413   4.240   5.062  1.2609  0.3454 -1.2978
 5388SOL    HW227801   3.464   4.157   5.173 -1.3030 -0.0756  1.1313
 5389SOL     OW27802   2.481   1.019   2.944  0.4320  0.3187 -0.0780
 5389SOL    HW127803   2.551   1.059   2.892 -0.1632 -1.0332 -1.8946
 5389SOL    HW227804   2.423   0.985   2.876  1.5040 -0.8680 -0.3898
 5390SOL     OW27805   0.252   0.811   4.900  0.3447 -0.0280  0.3805
 5390SOL    HW127806   0.290   0.881   4.953  2.7855  0.0390 -1.5020
 5390SOL    HW227807   0.225   0.751   4.969  1.2587 -0.8510  0.0118
 5391SOL     OW27808   0.440   3.212   1.095  0.1380  0.8807  0.2972
 5391SOL    HW127809   0.527   3.177   1.075 -0.8049 -0.5889 -1.2521
 5391SOL    HW227810   0.438   3.276   1.024 -2.1020 -0.1430 -0.5477
 5392SOL     OW27811   4.449   4.309  10.788 -0.0352 -0.6538  0.0664
 5392SOL    HW127812   4.459   4.243  10.856  1.9501 -1.9486 -1.4806
 5392SOL    HW227813   4.390   4.272  10.722  0.3267  1.0958 -1.2390
 5393SOL     OW27814   4.147   1.259  16.496  0.4453 -0.3424  0.0556
 5393SOL    HW127815   4.134   1.186  16.436 -1.0189 -0.0536  0.0163
 5393SOL    HW227816   4.220   1.231  16.551 -0.9239 -2.8643  0.6172
 5394SOL     OW27817   1.467   1.286   1.453  0.0876  0.3693 -0.4347
 5394SOL    HW127818   1.438   1.298   1.544  0.9604 -2.2057  0.1635
 5394SOL    HW227819   1.388   1.267   1.402  0.2809 -0.4370 -0.4207
 5395SOL     OW27820   1.790   0.261   0.394 -0.0162 -0.4048 -0.2519
 5395SOL    HW127821   1.765   0.241   0.485 -0.3046  0.1020 -0.2243
 5395SOL    HW227822   1.842   0.335   0.424 -1.2724  0.4058 -0.0777
 5396SOL     OW27823   2.098   2.321   6.865 -0.4452  0.4106 -0.2723
 5396SOL    HW127824   2.143   2.376   6.801 -0.0949  1.4765  0.9015
 5396SOL    HW227825   2.017   2.371   6.879 -1.9179 -2.3024  0.9072
 5397SOL     OW27826   3.118   0.866  11.678 -0.1537 -0.2115 -0.6181
 5397SOL    HW127827   3.084   0.781  11.706  0.4316  0.1799  1.2992
 5397SOL    HW227828   3.203   0.835  11.648  0.1448  0.1458 -0.1386
 5398SOL     OW27829   1.903   0.937   5.919  0.2166 -0.3805 -0.2082
 5398SOL    HW127830   1.816   0.961   5.886 -0.2252 -1.3798  0.2231
 5398SOL    HW227831   1.894   0.852   5.961 -2.0531 -0.0447  0.0027
 5399SOL     OW27832   4.030   2.425   6.098  0.1265 -0.2604 -0.0926
 5399SOL    HW127833   4.036   2.519   6.114 -0.3918 -0.2827  0.2448
 5399SOL    HW227834   4.025   2.424   6.003 -0.2668  1.9647 -0.1096
 5400SOL     OW27835   3.722   2.941   8.132  0.0897 -0.2150  0.2635
 5400SOL    HW127836   3.770   2.879   8.187 -1.5864 -0.2982  1.6246
 5400SOL    HW227837   3.709   2.891   8.051 -1.4796 -0.1469  0.4705
 5401SOL     OW27838   0.525   2.800  15.995  0.4155  0.1755  0.0287
 5401SOL    HW127839   0.483   2.866  16.049  0.0570 -0.4926  0.5575
 5401SOL    HW227840   0.556   2.743  16.065 -0.8898  0.4125  0.7894
 5402SOL     OW27841   4.139   1.087   3.417 -0.0299  0.4894  0.0736
 5402SOL    HW127842   4.163   1.003   3.378  0.6398  1.1424 -0.9007
 5402SOL    HW227843   4.218   1.109   3.466  0.2278 -0.7511  0.2087
 5403SOL     OW27844   1.936   0.937   9.020 -0.2023 -0.3816 -0.2498
 5403SOL    HW127845   1.922   0.852   8.979 -3.1544  0.8776 -1.8320
 5403SOL    HW227846   1.884   0.926   9.100  2.0037 -2.5904  0.9174
 5404SOL     OW27847   1.225   2.875   3.913  0.1687  0.1625 -0.3372
 5404SOL    HW127848   1.234   2.916   3.827 -0.1607  0.0483 -0.4287
 5404SOL    HW227849   1.315   2.846   3.925 -0.8781 -2.1673  1.9604
 5405SOL     OW27850   2.951   3.015   1.919  0.2733 -0.4198  0.3986
 5405SOL    HW127851   3.028   2.961   1.897  0.0979 -0.6732  0.4117
 5405SOL    HW227852   2.925   2.974   2.001 -1.5468 -0.8078 -0.3839
 5406SOL     OW27853   3.598   4.382  14.560  0.3581 -0.0351  0.8802
 5406SOL    HW127854   3.585   4.323  14.634 -0.0798 -2.7362 -1.3672
 5406SOL    HW227855   3.544   4.454  14.594  0.3160 -0.0207  0.7816
 5407SOL     OW27856   0.290   2.497   6.762 -0.3818 -0.5312 -0.2502
 5407SOL    HW127857   0.249   2.488   6.677 -3.1655 -0.2781  1.0715
 5407SOL    HW227858   0.293   2.408   6.798 -2.6871 -1.3544 -2.1715
 5408SOL     OW27859   0.534   1.507  17.272  0.2040 -0.0189 -0.3791
 5408SOL    HW127860   0.615   1.493  17.223  1.7519  1.4841  1.7737
 5408SOL    HW227861   0.570   1.566  17.337 -0.7852  0.7280 -0.5057
 5409SOL     OW27862   3.688   1.552   9.240  0.2151 -0.1002  0.4133
 5409SOL    HW127863   3.595   1.577   9.244  0.5177  1.2773 -1.1292
 5409SOL    HW227864   3.700   1.555   9.145 -0.1584  1.3621  0.4162
 5410SOL     OW27865   2.390   2.691   8.062  0.3192  0.4456 -0.2283
 5410SOL    HW127866   2.448   2.615   8.069 -0.8390 -0.3840  0.2008
 5410SOL    HW227867   2.443   2.758   8.106 -0.8713 -0.3283  2.3583
 5411SOL     OW27868   3.565   1.265   3.867 -0.2964  0.1701 -0.3398
 5411SOL    HW127869   3.646   1.316   3.868 -0.8711  1.0375  1.4918
 5411SOL    HW227870   3.602   1.178   3.847  1.8088  0.6599  1.3652
 5412SOL     OW27871   1.046   1.947  16.862  0.6176 -0.0790 -0.3738
 5412SOL    HW127872   1.015   1.992  16.941 -0.1358  0.3198 -0.8939
 5412SOL    HW227873   1.036   1.857  16.895  3.1921 -0.4800 -0.7354
 5413SOL     OW27874   2.114   3.418   4.507 -0.1303  0.2118  0.3781
 5413SOL    HW127875   2.162   3.438   4.427  2.2287 -0.4259  1.6621
 5413SOL    HW227876   2.113   3.509   4.536  1.9443  0.4203 -0.2453
 5414SOL     OW27877   3.516   2.729   9.058  0.0696  0.6997 -0.7704
 5414SOL    HW127878   3.540   2.780   9.136 -0.6699  0.1283 -0.1681
 5414SOL    HW227879   3.465   2.659   9.099  2.1528 -0.2515  0.2238
 5415SOL     OW27880   2.118   3.772   2.397 -0.1594 -0.1746  0.2093
 5415SOL    HW127881   2.192   3.762   2.337  0.2067 -2.3402  0.9960
 5415SOL    HW227882   2.065   3.698   2.369  0.6014 -0.2160 -1.1242
 5416SOL     OW27883   2.996   1.772   6.835  0.1085  0.5418  0.1690
 5416SOL    HW127884   3.014   1.850   6.887  0.2654 -0.3017  1.4038
 5416SOL    HW227885   3.034   1.710   6.899 -1.2964 -0.1844  0.2910
 5417SOL     OW27886   1.682   3.574   4.689 -0.4582 -0.5140 -0.3192
 5417SOL    HW127887   1.642   3.657   4.713 -0.7092 -0.5851 -0.4878
 5417SOL    HW227888   1.661   3.572   4.595 -2.1312 -0.6422  0.0486
 5418SOL     OW27889   3.023   2.099  17.625 -0.2445 -1.1333  0.0785
 5418SOL    HW127890   3.053   2.181  17.665 -2.3268 -0.6633  0.6436
 5418SOL    HW227891   2.960   2.137  17.565  2.0758  0.2226 -1.5057
 5419SOL     OW27892   0.625   1.229  10.565  0.0933 -0.1715  0.5336
 5419SOL    HW127893   0.544   1.246  10.612  1.7875  0.8595  3.0900
 5419SOL    HW227894   0.646   1.314  10.527 -2.6740  0.0157 -0.5799
 5420SOL     OW27895   0.503   3.925   2.141  0.3622 -0.6271  0.1095
 5420SOL    HW127896   0.524   3.837   2.108  0.0624 -0.8910  0.6201
 5420SOL    HW227897   0.460   3.902   2.223 -2.2747  2.8810 -0.2819
 5421SOL     OW27898   0.085   1.016   5.168 -0.2749  0.0437  0.0150
 5421SOL    HW127899   0.098   0.943   5.229  0.3290  0.8325  0.8263
 5421SOL    HW227900   0.061   1.089   5.225 -0.7593  0.2330 -0.4219
 5422SOL     OW27901   1.901   0.285  11.637 -0.6618 -0.4953 -0.3423
 5422SOL    HW127902   1.850   0.215  11.596 -1.1103 -0.2874 -0.1369
 5422SOL    HW227903   1.969   0.291  11.570  0.5584 -1.5124  0.8149
 5423SOL     OW27904   4.139   2.941   8.951 -0.0878 -0.1798 -0.1997
 5423SOL    HW127905   4.229   2.972   8.940 -0.3536  0.3411 -0.9022
 5423SOL    HW227906   4.105   3.023   8.988  0.6049 -0.4527  1.0370
 5424SOL     OW27907   0.885   3.576  10.852 -0.3427  0.2954  0.1015
 5424SOL    HW127908   0.899   3.670  10.856 -0.6903  0.4304 -1.6697
 5424SOL    HW227909   0.870   3.563  10.945 -0.8336  0.7688  0.0896
 5425SOL     OW27910   1.970   0.521   5.485 -0.2067  0.3206 -0.0087
 5425SOL    HW127911   1.909   0.449   5.472 -0.3857  0.8209 -1.9545
 5425SOL    HW227912   2.041   0.494   5.426  0.6897  0.8293  0.8184
 5426SOL     OW27913   2.689   2.736   3.249 -0.0814 -0.2225  0.0168
 5426SOL    HW127914   2.654   2.649   3.266  1.0905 -0.4027  1.5131
 5426SOL    HW227915   2.611   2.788   3.229  0.0757 -1.1728 -2.9382
 5427SOL     OW27916   2.146   3.036  17.735 -0.1662  0.6283  1.2628
 5427SOL    HW127917   2.201   2.958  17.738  2.4837  2.4827  0.2786
 5427SOL    HW227918   2.073   3.006  17.682  2.3553 -0.4849 -1.5180
 5428SOL     OW27919   0.518   1.330  12.081  0.1909  0.4350 -0.1088
 5428SOL    HW127920   0.519   1.235  12.089  2.0986  0.5064  0.6112
 5428SOL    HW227921   0.431   1.336  12.122  0.5467  1.4813  0.4828
 5429SOL     OW27922   3.072   3.822   2.815  0.1042 -0.0644 -0.6667
 5429SOL    HW127923   3.061   3.863   2.900  0.2859 -0.1029 -0.6243
 5429SOL    HW227924   3.155   3.859   2.782  1.5549 -2.5162  0.2271
 5430SOL     OW27925   2.827   3.828   7.009  0.1118 -0.7683 -0.2385
 5430SOL    HW127926   2.733   3.819   6.993  0.3595 -3.2343 -0.2641
 5430SOL    HW227927   2.822   3.769   7.083  0.8521  0.3057  0.6712
 5431SOL     OW27928   0.512   2.146  14.878  0.3795  0.2347 -0.6050
 5431SOL    HW127929   0.600   2.132  14.843 -0.4100 -0.2412 -2.4103
 5431SOL    HW227930   0.471   2.192  14.805 -2.0087 -0.8645  0.0685
 5432SOL     OW27931   4.004   1.611  15.992  0.3368  0.1539 -0.7060
 5432SOL    HW127932   4.015   1.615  15.897  0.5243 -0.6418 -0.7181
 5432SOL    HW227933   4.086   1.569  16.018  0.0665  0.6895  0.9950
 5433SOL     OW27934   1.762   2.720   2.515  0.1091 -0.0330  0.0276
 5433SOL    HW127935   1.801   2.742   2.431  1.0466 -1.9192 -0.0092
 5433SOL    HW227936   1.838   2.717   2.573  0.0819 -1.4589 -0.0252
 5434SOL     OW27937   0.331   4.650   2.518 -0.2646 -0.5486 -0.3641
 5434SOL    HW127938   0.310   4.730   2.469  0.0380  1.2265  2.4220
 5434SOL    HW227939   0.425   4.651   2.499  0.0590  0.6155  1.3511
 5435SOL     OW27940   4.429   1.487   5.590  0.1937 -0.2614 -0.1676
 5435SOL    HW127941   4.397   1.560   5.537  1.3670 -0.8156 -1.6244
 5435SOL    HW227942   4.427   1.419   5.523  0.7071 -1.2213  0.7952
 5436SOL     OW27943   2.022   0.426   6.997  0.6320 -0.1255  0.1218
 5436SOL    HW127944   2.106   0.448   6.958 -0.9646  1.7681 -2.2183
 5436SOL    HW227945   2.016   0.490   7.068 -0.5771 -0.1390  0.0335
 5437SOL     OW27946   0.662   3.791   5.892  0.0613  0.2082 -0.8781
 5437SOL    HW127947   0.668   3.886   5.882  1.9915  0.2491  0.8095
 5437SOL    HW227948   0.746   3.782   5.936  0.4634 -2.3933 -2.1401
 5438SOL     OW27949   1.301   3.132   8.592 -0.4647  0.5602  0.1346
 5438SOL    HW127950   1.255   3.049   8.584 -0.0631  0.3606 -0.0817
 5438SOL    HW227951   1.376   3.122   8.534 -0.6415  2.2542 -0.4053
 5439SOL     OW27952   0.051   0.127   1.731 -0.2133  0.6219 -0.1009
 5439SOL    HW127953   0.138   0.135   1.692 -0.3757  1.1384 -0.3546
 5439SOL    HW227954   0.026   0.036   1.713  1.4234  0.5131 -1.7575
 5440SOL     OW27955   2.853   2.444  13.250  0.0451 -0.1426 -0.0233
 5440SOL    HW127956   2.825   2.406  13.167  0.8572  2.1816 -1.3611
 5440SOL    HW227957   2.800   2.403  13.318  1.0884 -0.7162  0.4455
 5441SOL     OW27958   4.306   1.010   8.365 -0.0558  0.0790  0.0745
 5441SOL    HW127959   4.214   1.034   8.351 -0.8373 -2.2542  1.3216
 5441SOL    HW227960   4.349   1.094   8.348  2.3772 -0.7358  2.3353
 5442SOL     OW27961   1.088   3.626  16.844 -0.2033  0.1169  0.0606
 5442SOL    HW127962   1.168   3.607  16.893 -0.4697 -2.1057 -0.3723
 5442SOL    HW227963   1.049   3.539  16.853  1.2261 -0.5272  0.0134
 5443SOL     OW27964   0.645   1.299   8.197 -0.0205 -0.5552  0.0402
 5443SOL    HW127965   0.583   1.293   8.270  1.7465 -0.9111  1.5108
 5443SOL    HW227966   0.587   1.339   8.132 -1.7697 -2.3453  0.4619
 5444SOL     OW27967   1.024   1.743   2.845 -0.3033 -0.3696  0.0429
 5444SOL    HW127968   0.973   1.670   2.812  0.3569 -2.1983  3.0945
 5444SOL    HW227969   1.063   1.700   2.921  0.1697  0.4484  0.2689
 5445SOL     OW27970   3.992   1.374   2.785  0.1380  0.4117  0.7708
 5445SOL    HW127971   4.073   1.376   2.836  1.0930 -0.1970 -0.7222
 5445SOL    HW227972   4.022   1.369   2.694 -0.1422 -1.7391  0.8053
 5446SOL     OW27973   2.025   0.749   7.503 -0.1172  0.3034  0.0817
 5446SOL    HW127974   2.117   0.768   7.482  0.0048  1.3559  1.5915
 5446SOL    HW227975   2.020   0.802   7.582 -2.9245 -0.6004  0.5070
 5447SOL     OW27976   4.598   3.489   7.342 -0.0533  0.0055 -0.5229
 5447SOL    HW127977   4.605   3.484   7.247 -0.4787 -0.0934 -0.5501
 5447SOL    HW227978   4.522   3.432   7.355  0.4495 -0.4636  0.3407
 5448SOL     OW27979   2.877   0.180   9.999  0.4682  0.1601 -0.2479
 5448SOL    HW127980   2.801   0.237   9.991  0.6025  0.5323  1.2372
 5448SOL    HW227981   2.907   0.188  10.090 -1.0694  0.1177  0.2511
 5449SOL     OW27982   4.239   1.490   2.957  0.0164  0.4268 -0.0934
 5449SOL    HW127983   4.202   1.573   2.985 -2.8954 -0.3388 -1.6368
 5449SOL    HW227984   4.306   1.470   3.022  0.0446  1.5707  0.2322
 5450SOL     OW27985   3.026   2.272   0.822 -0.0197  0.0219 -0.8391
 5450SOL    HW127986   3.091   2.220   0.870 -1.2404 -0.6428  0.1275
 5450SOL    HW227987   2.943   2.240   0.859  0.4975 -1.7777 -1.2093
 5451SOL     OW27988   1.658   0.965   1.965  0.4183 -0.0859 -0.1016
 5451SOL    HW127989   1.723   0.932   2.027 -0.8748  0.1672  1.3921
 5451SOL    HW227990   1.709   1.009   1.897  1.0131 -0.0190  0.3972
 5452SOL     OW27991   1.611   0.022   6.210  0.3746 -0.6378  0.2316
 5452SOL    HW127992   1.554   0.094   6.182  2.1023  0.3844 -0.6743
 5452SOL    HW227993   1.605   4.703   6.134  0.4194 -2.5092  1.6663
 5453SOL     OW27994   0.909   0.222   1.587 -0.2253  0.3495  0.1243
 5453SOL    HW127995   0.843   0.180   1.532 -0.6066  1.1749 -0.0382
 5453SOL    HW227996   0.856   0.279   1.643 -0.8441 -0.6154  0.5224
 5454SOL     OW27997   0.742   1.221   6.052 -0.1640 -0.0963 -0.4343
 5454SOL    HW127998   0.654   1.190   6.030 -0.3897 -0.4274  0.9472
 5454SOL    HW227999   0.723   1.243   6.143  0.0151  1.4480 -0.7806
 5455SOL     OW28000   3.194   3.564   3.834  0.2435  0.0409  0.5055
 5455SOL    HW128001   3.186   3.605   3.748 -0.2297  1.8341  1.3981
 5455SOL    HW228002   3.264   3.499   3.826  0.8200  0.8291 -0.9195
 5456SOL     OW28003   3.835   3.304   2.779 -0.2465  0.0278 -0.6179
 5456SOL    HW128004   3.930   3.318   2.787 -0.5558  1.8778 -0.0688
 5456SOL    HW228005   3.808   3.280   2.868  1.7773  0.1699  0.0387
 5457SOL     OW28006   3.494   1.477   2.411  0.3010  0.0672  0.4934
 5457SOL    HW128007   3.403   1.482   2.382 -0.2121  2.7759  2.5526
 5457SOL    HW228008   3.538   1.520   2.338 -1.0510  0.0997 -0.3171
 5458SOL     OW28009   4.486   4.645   3.748  0.0953  0.5019  0.5209
 5458SOL    HW128010   4.481   4.722   3.805  2.6098  0.6629  0.5597
 5458SOL    HW228011   4.423   4.676   3.684  0.0161  1.4605  1.0633
 5459SOL     OW28012   0.761   3.752  13.262  0.0964 -0.0725  0.0122
 5459SOL    HW128013   0.736   3.680  13.320 -0.0340  0.1912  0.2816
 5459SOL    HW228014   0.837   3.790  13.306  0.8830  0.7134 -1.9794
 5460SOL     OW28015   0.164   0.630  12.730  0.2910 -0.5173 -0.1282
 5460SOL    HW128016   0.135   0.580  12.654 -1.1004  0.4251 -0.2068
 5460SOL    HW228017   0.258   0.611  12.733  0.7473  1.3889 -1.7184
 5461SOL     OW28018   0.739   2.748   6.853  0.0159 -0.0479 -0.0856
 5461SOL    HW128019   0.831   2.732   6.834 -0.3264 -2.4525  0.3190
 5461SOL    HW228020   0.729   2.695   6.932  1.7045 -1.8823 -1.1178
 5462SOL     OW28021   3.792   4.004   3.783  0.0416  0.3805 -0.4680
 5462SOL    HW128022   3.851   3.957   3.843 -1.2542 -1.0455 -0.3184
 5462SOL    HW228023   3.745   4.060   3.845 -0.8077 -0.3661 -0.4445
 5463SOL     OW28024   4.574   0.876  14.134  0.2277 -0.8293  0.1074
 5463SOL    HW128025   4.503   0.845  14.189 -0.9667  1.4177 -0.1443
 5463SOL    HW228026   4.635   0.812  14.170  0.5106 -0.8209 -0.3676
 5464SOL     OW28027   0.406   0.053   8.792 -0.2625 -0.1088  0.0717
 5464SOL    HW128028   0.480   4.731   8.793  0.6324  0.9323 -2.0062
 5464SOL    HW228029   0.436   0.115   8.726 -1.5287 -0.7790 -1.1347
 5465SOL     OW28030   0.135   2.496   9.167 -0.1078  0.1533 -0.0050
 5465SOL    HW128031   0.114   2.406   9.141 -4.1033  1.0261  0.1716
 5465SOL    HW228032   0.091   2.513   9.250  2.6017  1.1470  1.2013
 5466SOL     OW28033   4.167   1.077   5.826  0.6091 -0.5034  0.0226
 5466SOL    HW128034   4.210   1.053   5.744  2.6350 -0.8546  1.1935
 5466SOL    HW228035   4.203   1.164   5.843  0.3976  0.1932 -3.1089
 5467SOL     OW28036   1.435   0.401   1.351  0.0373 -0.4546  0.3999
 5467SOL    HW128037   1.528   0.378   1.342  0.0540 -1.9318  4.0558
 5467SOL    HW228038   1.433   0.403   1.447  1.9236  1.5363  0.3953
 5468SOL     OW28039   4.170   3.943   6.724 -0.6651  0.4929 -0.5648
 5468SOL    HW128040   4.256   3.907   6.703 -0.7433  0.7380 -1.3138
 5468SOL    HW228041   4.169   3.924   6.818  0.8945  0.4553 -0.5666
 5469SOL     OW28042   3.696   0.762   4.201  0.2048 -0.2659 -0.3507
 5469SOL    HW128043   3.680   0.767   4.107 -2.8829  0.2085  0.2053
 5469SOL    HW228044   3.622   0.710   4.233  1.2064 -1.5308 -0.1213
 5470SOL     OW28045   2.429   2.956   4.809  0.1934  0.2245  0.0623
 5470SOL    HW128046   2.355   2.976   4.867  2.3249  2.3183  2.0132
 5470SOL    HW228047   2.455   3.043   4.777  0.0262 -0.0435 -0.8059
 5471SOL     OW28048   0.916   3.253   3.637  0.6932 -1.0309 -0.0107
 5471SOL    HW128049   0.945   3.162   3.630  0.1007 -1.3075  1.0808
 5471SOL    HW228050   0.823   3.240   3.619  0.9156 -1.9377 -0.4848
 5472SOL     OW28051   4.403   0.942   2.489  0.5306  0.0049  0.3440
 5472SOL    HW128052   4.342   0.983   2.550  1.4863  1.9243  0.0150
 5472SOL    HW228053   4.422   0.854   2.521  2.8390  0.7951  1.1774
 5473SOL     OW28054   3.564   4.550   3.460  0.1045 -0.3074 -0.2673
 5473SOL    HW128055   3.523   4.621   3.410 -2.4334 -0.1701  1.9817
 5473SOL    HW228056   3.531   4.473   3.415  1.0976 -0.3529 -0.9181
 5474SOL     OW28057   2.490   1.060   4.760 -0.1834 -0.1341  0.0906
 5474SOL    HW128058   2.478   1.016   4.676  0.3543 -0.7638  0.3520
 5474SOL    HW228059   2.568   1.018   4.793  0.0666  0.2803  0.0322
 5475SOL     OW28060   2.167   0.204   7.960  0.5290 -0.2681  0.3087
 5475SOL    HW128061   2.118   0.269   8.010  0.6070 -0.2789  0.3997
 5475SOL    HW228062   2.240   0.176   8.015  0.0734 -0.2623  0.9134
 5476SOL     OW28063   2.708   0.180   8.944 -0.3855 -0.7360  0.3639
 5476SOL    HW128064   2.691   0.207   9.035  1.8242  0.5990  0.3989
 5476SOL    HW228065   2.680   0.089   8.941  1.0183 -1.0995 -1.3234
 5477SOL     OW28066   2.576   3.260   6.804  0.0696 -0.0977  0.2234
 5477SOL    HW128067   2.530   3.179   6.826 -0.4892 -0.0319 -0.7129
 5477SOL    HW228068   2.668   3.234   6.808 -0.0592 -0.3710  1.3541
 5478SOL     OW28069   1.386   1.880  16.572 -0.2451 -0.2871 -0.1292
 5478SOL    HW128070   1.372   1.918  16.486  0.9115 -0.0296 -0.1971
 5478SOL    HW228071   1.458   1.819  16.557  2.0826  2.4725 -0.1021
 5479SOL     OW28072   2.104   4.660   4.849 -0.7646 -0.8313  0.1409
 5479SOL    HW128073   2.102   4.725   4.779  2.8098 -2.0512 -1.1368
 5479SOL    HW228074   2.039   4.594   4.826 -0.0675 -1.0282 -1.2860
 5480SOL     OW28075   3.331   0.422  11.729  0.5813 -0.2703 -0.3399
 5480SOL    HW128076   3.362   0.454  11.644 -0.9025 -0.5449 -0.9903
 5480SOL    HW228077   3.361   0.332  11.732  1.9475  0.1014 -2.7717
 5481SOL     OW28078   1.002   1.574   7.802  0.3610 -0.0362  0.3820
 5481SOL    HW128079   1.050   1.657   7.801 -0.5035  0.4508 -1.3190
 5481SOL    HW228080   1.062   1.515   7.756 -0.0252  1.6929 -2.3343
 5482SOL     OW28081   1.745   4.137   1.084  0.0020 -0.2280  0.2208
 5482SOL    HW128082   1.828   4.143   1.038  1.2251  0.0885  2.4744
 5482SOL    HW228083   1.704   4.078   1.022 -2.0705  0.1444  1.2289
 5483SOL     OW28084   1.292   4.211   7.805 -0.2332 -0.3255  0.1809
 5483SOL    HW128085   1.279   4.305   7.818  0.6360 -0.3867  1.4893
 5483SOL    HW228086   1.298   4.203   7.710  1.1427 -2.7153  0.4792
 5484SOL     OW28087   0.988   1.568   6.673  0.2798  0.5856  0.3722
 5484SOL    HW128088   0.940   1.632   6.619 -0.5755 -1.0641 -0.8178
 5484SOL    HW228089   0.924   1.509   6.711 -0.3863  1.6457  0.8895
 5485SOL     OW28090   2.677   1.774  15.173  0.0023  0.1424  0.0513
 5485SOL    HW128091   2.633   1.842  15.225 -0.8270  0.4903 -1.1112
 5485SOL    HW228092   2.661   1.699  15.231  0.6925 -1.8818 -2.3538
 5486SOL     OW28093   0.484   3.106   4.645 -0.5430 -1.2099 -0.1384
 5486SOL    HW128094   0.430   3.148   4.577  2.0622  2.2381 -0.0797
 5486SOL    HW228095   0.571   3.137   4.620  0.0547 -2.3415  0.5469
 5487SOL     OW28096   2.419   1.720   0.556  0.3373  0.4284  0.3949
 5487SOL    HW128097   2.429   1.737   0.463  2.7615 -1.2200  0.3446
 5487SOL    HW228098   2.501   1.759   0.584 -0.4420  1.9509  0.5458
 5488SOL     OW28099   4.378   0.409   0.144 -0.0500 -0.3595 -0.1247
 5488SOL    HW128100   4.295   0.457   0.149 -0.3507 -1.2205  2.7225
 5488SOL    HW228101   4.380   0.374   0.232  0.8269  0.0878  0.0351
 5489SOL     OW28102   3.053   4.411   9.857  0.1640  0.1815  0.0562
 5489SOL    HW128103   2.997   4.488   9.845 -0.1046 -0.3955 -2.3945
 5489SOL    HW228104   3.134   4.452   9.827  0.3206 -0.2345 -0.0892
 5490SOL     OW28105   1.253   0.080   1.900 -0.1269  0.0422 -0.1245
 5490SOL    HW128106   1.224   0.002   1.948  0.1893 -1.2197 -1.9794
 5490SOL    HW228107   1.177   0.135   1.919 -1.4434 -1.8907  0.1588
 5491SOL     OW28108   3.482   4.421   3.019  0.0636 -0.0057 -0.3992
 5491SOL    HW128109   3.411   4.453   3.074  0.6688 -2.2821  1.7138
 5491SOL    HW228110   3.452   4.449   2.933  0.0866  1.6623  0.1362
 5492SOL     OW28111   3.889   0.884  17.693  0.9703 -0.1688  0.2157
 5492SOL    HW128112   3.796   0.906  17.686  1.0531  0.2087  0.2828
 5492SOL    HW228113   3.932   0.961  17.656 -0.3186  0.2359 -0.4655
 5493SOL     OW28114   4.706   2.532  16.745  0.2903  0.5213 -0.1946
 5493SOL    HW128115   4.685   2.598  16.679  1.0417  0.8801 -0.0746
 5493SOL    HW228116   4.737   2.589  16.816  0.6065 -1.3075  1.1389
 5494SOL     OW28117   3.523   1.910   3.385  0.2252  0.0878  0.0042
 5494SOL    HW128118   3.600   1.860   3.412  0.2451  0.3121  0.3641
 5494SOL    HW228119   3.471   1.932   3.462  0.2118  1.3122 -0.3480
 5495SOL     OW28120   0.648   3.451   3.913  0.1546  0.0379  0.4450
 5495SOL    HW128121   0.718   3.442   3.978  0.4038  1.2427  0.3440
 5495SOL    HW228122   0.586   3.511   3.956  0.2669  1.2900 -1.1532
 5496SOL     OW28123   1.678   2.865   4.564 -0.1832  0.4387  0.4158
 5496SOL    HW128124   1.617   2.901   4.499 -0.9152 -0.8076  0.4156
 5496SOL    HW228125   1.615   2.875   4.636 -1.8770  1.5898 -1.2066
 5497SOL     OW28126   3.980   2.375  10.003 -0.1199  0.3807  0.0652
 5497SOL    HW128127   4.054   2.379   9.943 -1.8632 -0.6441 -2.1242
 5497SOL    HW228128   4.012   2.395  10.091  1.6441 -1.6686 -0.0910
 5498SOL     OW28129   3.855   1.011   1.406  0.4480  0.4542  1.0226
 5498SOL    HW128130   3.901   1.013   1.491 -0.9056 -2.2230  1.8216
 5498SOL    HW228131   3.766   0.980   1.419  0.3653  0.1529 -0.2547
 5499SOL     OW28132   1.084   3.643  11.605 -0.1335 -0.1465 -0.3548
 5499SOL    HW128133   1.004   3.641  11.551 -1.5312 -0.1497  1.7133
 5499SOL    HW228134   1.056   3.574  11.665  1.5527 -1.3531 -0.9779
 5500SOL     OW28135   0.103   2.324   8.117  0.2919 -0.2485 -0.1396
 5500SOL    HW128136   0.144   2.270   8.184  0.9564 -1.3906 -1.4632
 5500SOL    HW228137   0.079   2.250   8.062 -1.6910 -0.4150  0.9656
 5501SOL     OW28138   3.881   2.665   2.742 -0.3204 -0.5264  0.3761
 5501SOL    HW128139   3.794   2.654   2.781  0.2596 -0.4714  1.6734
 5501SOL    HW228140   3.902   2.756   2.761  1.4638 -1.5145  3.1088
 5502SOL     OW28141   0.671   2.327   2.207 -0.7890 -0.0777  0.6249
 5502SOL    HW128142   0.597   2.317   2.266 -0.8482 -1.9328  0.2341
 5502SOL    HW228143   0.745   2.314   2.265  0.4794  1.7648 -0.5892
 5503SOL     OW28144   3.563   2.775   3.191  0.1656 -0.2192 -0.7324
 5503SOL    HW128145   3.506   2.799   3.263  0.7313  1.6018 -0.8769
 5503SOL    HW228146   3.632   2.734   3.244  0.1651 -1.1639 -1.4539
 5504SOL     OW28147   0.262   1.955   3.010  0.7991  0.4316  0.8474
 5504SOL    HW128148   0.221   2.042   3.008  1.7612  0.9104  2.4610
 5504SOL    HW228149   0.254   1.940   3.104  0.5603  0.7510  0.8795
 5505SOL     OW28150   2.109   3.808   3.715 -0.4298 -0.5222 -0.0657
 5505SOL    HW128151   2.020   3.781   3.696 -1.8937  2.2181  2.9089
 5505SOL    HW228152   2.095   3.903   3.714  0.5097 -0.3835 -0.5814
 5506SOL     OW28153   2.101   1.721   0.084 -0.0237 -0.5868 -0.5684
 5506SOL    HW128154   2.090   1.682   0.171  0.3335 -3.1549 -1.6516
 5506SOL    HW228155   2.029   1.682   0.034 -0.3587  0.4536 -0.8808
 5507SOL     OW28156   4.251   1.025   6.490  0.3332 -0.0144 -0.2844
 5507SOL    HW128157   4.224   1.003   6.579  0.2296 -1.7795 -0.7603
 5507SOL    HW228158   4.197   1.102   6.472 -0.5386 -0.5761 -0.1017
 5508SOL     OW28159   2.536   3.285   9.085  0.4869 -0.1458 -0.5623
 5508SOL    HW128160   2.537   3.365   9.034 -0.9330 -0.6448 -1.3638
 5508SOL    HW228161   2.626   3.254   9.073  0.6783  0.0530  0.3479
 5509SOL     OW28162   3.173   2.249  17.325  0.1602  0.0995  0.7101
 5509SOL    HW128163   3.228   2.261  17.402  0.7144 -1.9701  0.6187
 5509SOL    HW228164   3.084   2.276  17.348  0.3496 -0.5042  2.1095
 5510SOL     OW28165   2.378   1.020  14.904 -0.0214  0.4060 -0.4735
 5510SOL    HW128166   2.349   1.088  14.843  1.4208  0.4338 -1.1211
 5510SOL    HW228167   2.302   0.963  14.908 -0.6332  1.2332 -0.3007
 5511SOL     OW28168   3.554   0.422   2.334  0.6387 -0.4353 -0.5424
 5511SOL    HW128169   3.469   0.455   2.363  0.6276 -0.0218 -1.0695
 5511SOL    HW228170   3.548   0.422   2.239 -1.3879 -0.1589 -0.4122
 5512SOL     OW28171   3.836   3.870   4.813 -0.3271  0.1593  0.3185
 5512SOL    HW128172   3.787   3.923   4.750 -1.7418 -0.5592  0.8100
 5512SOL    HW228173   3.810   3.779   4.796  1.8212 -0.0770 -1.6541
 5513SOL     OW28174   1.895   3.013   5.189 -0.2261  0.1832 -0.2072
 5513SOL    HW128175   1.970   3.039   5.134 -0.3826  1.3738  0.1384
 5513SOL    HW228176   1.862   2.940   5.137  0.4759  0.2727 -0.7824
 5514SOL     OW28177   1.021   0.669   3.551 -0.0243  0.1766 -0.0397
 5514SOL    HW128178   1.065   0.639   3.471  0.7415 -0.3732  0.5881
 5514SOL    HW228179   1.086   0.727   3.591  0.1391  1.1393 -1.6787
 5515SOL     OW28180   3.009   0.904   5.599 -0.6383  0.0472 -0.2970
 5515SOL    HW128181   3.006   0.999   5.584 -0.6243 -0.2618 -2.2140
 5515SOL    HW228182   2.994   0.866   5.512 -1.7718  1.0991 -0.5632
 5516SOL     OW28183   3.985   3.577  16.754 -0.1779  0.3008  0.5456
 5516SOL    HW128184   4.068   3.554  16.712 -0.6375  1.6545 -1.0832
 5516SOL    HW228185   3.989   3.662  16.799  2.1121  0.9736 -0.9222
 5517SOL     OW28186   1.990   4.122   7.879  0.0460  0.7680  0.2882
 5517SOL    HW128187   2.072   4.076   7.862 -1.0533 -0.4399 -1.6956
 5517SOL    HW228188   2.010   4.137   7.971  0.6529  0.7765  0.1551
 5518SOL     OW28189   1.153   1.551   7.268  0.2669 -0.2038  0.3845
 5518SOL    HW128190   1.124   1.481   7.210  2.1027  0.5351 -1.4287
 5518SOL    HW228191   1.068   1.579   7.302 -0.1786 -1.8369  0.6024
 5519SOL     OW28192   3.569   4.028   6.407  0.4573  0.0006  0.3002
 5519SOL    HW128193   3.561   3.963   6.338 -0.6398 -0.1593  0.5660
 5519SOL    HW228194   3.475   4.047   6.420  0.5600  1.6962 -1.4229
 5520SOL     OW28195   1.508   1.547  14.897  0.3314  0.3022  0.0870
 5520SOL    HW128196   1.527   1.518  14.807  2.1014  1.3972  0.1326
 5520SOL    HW228197   1.569   1.619  14.909  0.1380  0.3330  0.8655
 5521SOL     OW28198   3.486   2.384   1.158  0.2607  0.7709 -0.0570
 5521SOL    HW128199   3.399   2.348   1.142 -0.0993  2.7362 -2.5249
 5521SOL    HW228200   3.474   2.433   1.239 -1.5417  0.3863 -0.0931
 5522SOL     OW28201   1.842   0.129   4.847 -0.1351  0.2760 -0.4835
 5522SOL    HW128202   1.877   0.063   4.789 -1.9448 -1.6430  0.6038
 5522SOL    HW228203   1.781   0.078   4.900  0.5647 -1.2717 -1.1707
 5523SOL     OW28204   1.156   2.787   2.681  0.6177 -0.0285  0.4728
 5523SOL    HW128205   1.207   2.711   2.712 -1.1693 -0.2412  2.8794
 5523SOL    HW228206   1.135   2.751   2.595 -0.9042 -0.2445  0.9277
 5524SOL     OW28207   0.047   3.885  16.185  0.5956 -0.4327 -0.1121
 5524SOL    HW128208   4.735   3.831  16.124 -0.3018  0.1376  0.1390
 5524SOL    HW228209   4.732   3.886  16.263 -1.2625 -1.3024 -1.3773
 5525SOL     OW28210   4.100   2.092   3.271  0.4798  0.2870 -0.1184
 5525SOL    HW128211   4.016   2.132   3.291  0.6664  1.1817 -1.1635
 5525SOL    HW228212   4.126   2.136   3.190 -1.3157  1.8440  0.1685
 5526SOL     OW28213   0.546   4.135   9.430  0.1955  0.4752  0.3012
 5526SOL    HW128214   0.525   4.176   9.513  0.3023  1.4225 -0.1340
 5526SOL    HW228215   0.531   4.210   9.372  1.6044  2.2219  2.2250
 5527SOL     OW28216   0.878   4.145  13.094 -0.5845 -0.0234  0.0465
 5527SOL    HW128217   0.879   4.188  13.180 -0.9477  0.7740 -0.3443
 5527SOL    HW228218   0.950   4.082  13.099  0.3024  1.0159  0.6276
 5528SOL     OW28219   2.084   4.187   4.886 -0.6920 -0.0461 -0.8849
 5528SOL    HW128220   2.100   4.157   4.975 -3.4800 -1.0223 -0.6964
 5528SOL    HW228221   2.127   4.115   4.839  1.3698  1.9863 -2.0807
 5529SOL     OW28222   1.743   0.580   5.838  0.1276 -0.7996 -0.5075
 5529SOL    HW128223   1.779   0.600   5.924 -2.4591  2.5361 -0.2096
 5529SOL    HW228224   1.792   0.639   5.782 -1.7335  0.9402 -0.3028
 5530SOL     OW28225   0.969   2.436   7.820  0.3312  0.3003 -0.2842
 5530SOL    HW128226   0.914   2.376   7.770  2.4854 -1.9779  0.0678
 5530SOL    HW228227   1.045   2.461   7.768 -1.5338 -0.0860 -3.2354
 5531SOL     OW28228   3.008   0.098   8.579  0.4834 -0.2494  0.4454
 5531SOL    HW128229   2.957   0.165   8.624 -0.0836 -0.5477  0.2521
 5531SOL    HW228230   3.001   0.131   8.489  0.0481 -0.1577  0.5107
 5532SOL     OW28231   3.163   1.335   9.411  0.0379  0.2042 -0.3884
 5532SOL    HW128232   3.069   1.332   9.425  0.0705  0.4422 -0.1132
 5532SOL    HW228233   3.191   1.302   9.496  0.5905 -1.7861 -1.3355
 5533SOL     OW28234   2.096   4.474   9.673  0.1838 -0.3925  0.1304
 5533SOL    HW128235   2.101   4.456   9.766  0.9534 -0.2170  0.1230
 5533SOL    HW228236   2.063   4.564   9.674 -0.2097 -0.5530  0.9862
 5534SOL     OW28237   1.977   0.795   8.323  0.5527 -0.3454  0.4908
 5534SOL    HW128238   1.890   0.755   8.321  0.4783 -0.2158  1.1888
 5534SOL    HW228239   1.997   0.774   8.414  1.9235 -0.2644  0.2162
 5535SOL     OW28240   1.345   1.917   4.778  0.3780  0.5936  0.4689
 5535SOL    HW128241   1.373   1.916   4.686  0.0440  1.7648  0.3618
 5535SOL    HW228242   1.392   1.843   4.817  0.9977  0.9443  0.3963
 5536SOL     OW28243   1.775   3.309  10.519  0.4753 -0.5882 -0.3293
 5536SOL    HW128244   1.759   3.379  10.582 -2.7455 -0.0390 -1.7986
 5536SOL    HW228245   1.848   3.337  10.463  0.4522 -3.0685 -1.5820
 5537SOL     OW28246   2.393   0.585   4.390  0.1010 -0.0938 -0.1400
 5537SOL    HW128247   2.465   0.592   4.453 -1.7090  0.4952  1.8847
 5537SOL    HW228248   2.422   0.505   4.347 -1.1377 -0.4757 -0.2678
 5538SOL     OW28249   1.674   3.670  17.558 -0.4380 -0.0917  0.0662
 5538SOL    HW128250   1.598   3.619  17.586 -1.5171  0.5212 -1.7576
 5538SOL    HW228251   1.620   3.732  17.509  2.0484  1.2868 -0.9273
 5539SOL     OW28252   1.960   4.120   6.415  0.1373 -0.0649  0.2905
 5539SOL    HW128253   1.964   4.197   6.471 -1.4547  0.5699 -0.4617
 5539SOL    HW228254   1.908   4.150   6.340 -2.6463  0.1987  2.3102
 5540SOL     OW28255   2.072   2.668   4.875 -0.3300 -0.4680 -0.1254
 5540SOL    HW128256   2.116   2.590   4.910  0.8866 -0.7023 -2.1826
 5540SOL    HW228257   2.128   2.744   4.889 -0.3141 -0.3912 -0.5932
 5541SOL     OW28258   3.635   0.113  11.585  0.1284  0.1258  0.0448
 5541SOL    HW128259   3.676   0.027  11.577  0.5667  0.3645 -0.2445
 5541SOL    HW228260   3.697   0.151  11.646 -1.0842 -1.0626  2.0388
 5542SOL     OW28261   2.597   1.574  15.310  0.3528  0.2730 -0.8284
 5542SOL    HW128262   2.609   1.582  15.405 -1.0016  1.6624 -0.7637
 5542SOL    HW228263   2.565   1.485  15.301  0.0175  0.1366  1.6441
 5543SOL     OW28264   4.372   2.980  10.493 -0.4132  0.1837  0.4566
 5543SOL    HW128265   4.340   3.033  10.565  0.8475  1.4566  0.0754
 5543SOL    HW228266   4.413   2.903  10.532  0.7681  1.4824  1.7610
 5544SOL     OW28267   2.066   1.635   7.717  0.1565 -0.4122 -0.2206
 5544SOL    HW128268   2.106   1.716   7.684 -1.6307 -0.3958 -2.3592
 5544SOL    HW228269   2.054   1.642   7.811 -0.1671  0.6378 -0.3453
 5545SOL     OW28270   1.350   4.627   2.269  0.5966  0.2580  0.2501
 5545SOL    HW128271   1.413   4.694   2.295 -0.4584  1.1733  0.4615
 5545SOL    HW228272   1.405   4.579   2.207  1.1850  0.5311  0.5687
 5546SOL     OW28273   2.145   2.680   1.920  0.2171 -0.9383 -0.7333
 5546SOL    HW128274   2.197   2.654   1.997  0.2884 -1.1675 -0.8593
 5546SOL    HW228275   2.202   2.653   1.848 -0.0423 -1.0477 -0.8971
 5547SOL     OW28276   3.763   1.269   5.969  0.2332  0.4108 -0.1427
 5547SOL    HW128277   3.794   1.180   5.990 -1.5363  0.1864  1.5753
 5547SOL    HW228278   3.674   1.272   6.004  0.8477 -0.4232  1.4796
 5548SOL     OW28279   0.204   3.006   4.786 -0.4455  0.0426  0.0248
 5548SOL    HW128280   0.214   2.957   4.705 -1.2466 -0.6472  0.3578
 5548SOL    HW228281   0.286   2.980   4.829  0.5573  1.8079 -0.7970
 5549SOL     OW28282   0.918   2.770  10.870  0.6426  0.6574 -0.2776
 5549SOL    HW128283   0.977   2.719  10.814  0.6450  0.9821 -0.5672
 5549SOL    HW228284   0.981   2.826  10.915 -1.7228  1.5610  1.8949
 5550SOL     OW28285   0.775   3.363   8.088 -0.7137  0.2655 -0.3594
 5550SOL    HW128286   0.734   3.302   8.027 -0.6506 -1.0959  0.9909
 5550SOL    HW228287   0.791   3.444   8.038  1.5219 -0.2792 -0.4927
 5551SOL     OW28288   0.667   1.881   3.374 -0.3548 -0.8258 -0.2234
 5551SOL    HW128289   0.647   1.800   3.327 -1.8910 -0.1645 -0.6752
 5551SOL    HW228290   0.723   1.911   3.302 -0.7998  0.8882  0.1519
 5552SOL     OW28291   0.142   2.111   2.199 -0.5362 -0.1176 -0.0903
 5552SOL    HW128292   0.117   2.054   2.272 -0.6051  1.6142  1.2281
 5552SOL    HW228293   0.187   2.051   2.139  1.4960 -0.4889  1.8292
 5553SOL     OW28294   0.657   0.644  12.369  0.1680  0.4143 -0.3744
 5553SOL    HW128295   0.692   0.616  12.454 -0.4053 -0.1877 -0.3333
 5553SOL    HW228296   0.724   0.692  12.321  0.5503 -0.8419 -1.0864
 5554SOL     OW28297   0.204   3.866  15.436  0.4567 -0.4771  0.2667
 5554SOL    HW128298   0.297   3.883  15.451  0.2804  1.6710 -1.2046
 5554SOL    HW228299   0.188   3.940  15.379  0.8509 -1.1386 -0.6948
 5555SOL     OW28300   2.344   1.651   6.896 -0.1586 -0.1760 -0.5743
 5555SOL    HW128301   2.269   1.678   6.950  2.0651  0.6727  2.1029
 5555SOL    HW228302   2.386   1.735   6.877  0.6349 -0.7229 -1.2240
 5556SOL     OW28303   3.758   1.283  12.347 -0.2474 -0.0403  0.1222
 5556SOL    HW128304   3.797   1.368  12.328  1.9717 -1.0083  0.2989
 5556SOL    HW228305   3.799   1.237  12.274 -0.3798  1.5557 -0.9468
 5557SOL     OW28306   0.579   0.042   7.394  0.4808  0.1802 -0.0966
 5557SOL    HW128307   0.551   4.704   7.345 -0.0804  1.6765 -2.1409
 5557SOL    HW228308   0.595   0.012   7.484  1.3793  2.6128  0.5596
 5558SOL     OW28309   2.584   2.383   6.296 -0.3492  0.0782  0.4601
 5558SOL    HW128310   2.603   2.289   6.297 -0.3999  0.0414 -1.9752
 5558SOL    HW228311   2.510   2.390   6.236 -0.1738 -3.3356 -0.1476
 5559SOL     OW28312   3.773   2.127   4.375 -0.0578  0.6899  0.1969
 5559SOL    HW128313   3.812   2.203   4.418 -0.9930 -0.1708  2.5689
 5559SOL    HW228314   3.856   2.081   4.389 -0.3220  1.0090  2.8492
 5560SOL     OW28315   1.628   0.258  15.100 -0.4046  0.0060 -0.3727
 5560SOL    HW128316   1.567   0.331  15.092  1.4271  1.3785 -1.8813
 5560SOL    HW228317   1.706   0.312  15.113 -0.2098  0.0337 -1.6801
 5561SOL     OW28318   4.329   0.399   5.788  0.1488 -0.0480 -0.1906
 5561SOL    HW128319   4.353   0.485   5.822  0.4209 -0.9081  1.7732
 5561SOL    HW228320   4.285   0.354   5.861  1.2421  0.2434  0.6381
 5562SOL     OW28321   2.944   2.104   8.860  0.3915 -0.2710  0.0815
 5562SOL    HW128322   3.018   2.164   8.868  0.6786 -0.6288  0.1389
 5562SOL    HW228323   2.954   2.035   8.926 -0.2282 -0.1057  0.3488
 5563SOL     OW28324   0.481   4.173   1.639  0.2770 -0.0158  0.4881
 5563SOL    HW128325   0.546   4.229   1.682  1.0394 -0.4720 -0.0564
 5563SOL    HW228326   0.493   4.098   1.696 -1.3473 -0.9622 -0.4281
 5564SOL     OW28327   1.813   2.514  14.918  0.0295  0.4941  0.0824
 5564SOL    HW128328   1.877   2.477  14.979 -1.2911 -0.2186  1.0431
 5564SOL    HW228329   1.758   2.438  14.901  0.4138 -0.0134  1.0610
 5565SOL     OW28330   2.706   3.036   5.795  0.5751 -0.0855 -0.1903
 5565SOL    HW128331   2.657   3.095   5.736 -0.0549  0.6116  1.0263
 5565SOL    HW228332   2.685   3.073   5.881 -0.3014 -0.5267 -0.2079
 5566SOL     OW28333   2.774   2.311   0.217  0.0397  0.1550 -0.3174
 5566SOL    HW128334   2.852   2.357   0.185 -1.2760  0.6680 -2.7352
 5566SOL    HW228335   2.711   2.309   0.145  1.7041  1.0497 -1.8087
 5567SOL     OW28336   0.057   3.279   4.251  0.3177  0.3066  0.3696
 5567SOL    HW128337   4.704   3.269   4.229 -0.0678 -0.0236  2.0741
 5567SOL    HW228338   0.072   3.210   4.316  0.0053  0.5790  0.7323
 5568SOL     OW28339   1.924   2.604  17.269 -0.0050 -0.5172  0.1926
 5568SOL    HW128340   1.842   2.600  17.221  0.0587 -1.0238  0.1216
 5568SOL    HW228341   1.972   2.523  17.248  0.5398  0.7902 -3.5595
 5569SOL     OW28342   1.528   2.372   3.543  0.3254 -0.2455  0.2579
 5569SOL    HW128343   1.439   2.344   3.563  0.0229  1.0555  0.7185
 5569SOL    HW228344   1.527   2.467   3.545  2.3144 -0.2033 -0.2022
 5570SOL     OW28345   1.916   1.653  11.934  0.0356  0.8949 -0.4704
 5570SOL    HW128346   1.936   1.737  11.975  1.0882  0.2041  0.4445
 5570SOL    HW228347   1.953   1.602  12.007  1.6446  2.0270 -0.5051
 5571SOL     OW28348   3.561   0.402   3.077  0.6175  0.2147 -0.0147
 5571SOL    HW128349   3.517   0.484   3.054  0.7272  0.8054  1.8291
 5571SOL    HW228350   3.506   0.333   3.043  0.7094  0.5285 -0.7878
 5572SOL     OW28351   0.442   2.307   7.827  0.0334 -0.1436 -0.5751
 5572SOL    HW128352   0.373   2.252   7.863  0.0525  0.9583  1.1419
 5572SOL    HW228353   0.508   2.305   7.896 -0.5097  0.1748 -0.0497
 5573SOL     OW28354   3.895   4.700   6.010  0.2208 -0.0704  0.2079
 5573SOL    HW128355   3.931   4.631   5.954 -1.1317  0.2476 -1.0252
 5573SOL    HW228356   3.856   4.650   6.082  0.1224  0.5948  0.6243
 5574SOL     OW28357   2.441   0.947  12.869 -0.2073 -0.0366  0.1526
 5574SOL    HW128358   2.482   1.033  12.881 -1.8595  0.9908 -1.5054
 5574SOL    HW228359   2.429   0.938  12.774 -0.3240  3.1580 -0.1223
 5575SOL     OW28360   3.486   0.357   3.958  0.1520 -0.3600 -0.3486
 5575SOL    HW128361   3.400   0.315   3.967 -0.2538  0.4736 -0.3045
 5575SOL    HW228362   3.479   0.393   3.869 -0.8962 -0.2676 -0.2376
 5576SOL     OW28363   4.274   0.095  17.609  0.2963 -0.3203 -0.6798
 5576SOL    HW128364   4.182   0.082  17.633  0.2662  0.4847 -0.3504
 5576SOL    HW228365   4.318   0.130  17.687  1.7993 -0.6244 -1.3961
 5577SOL     OW28366   0.602   0.484   5.342  0.2499 -0.5677 -0.3524
 5577SOL    HW128367   0.660   0.558   5.358 -0.4494 -0.0590 -0.1544
 5577SOL    HW228368   0.609   0.432   5.421 -2.2181  0.1752  0.3736
 5578SOL     OW28369   2.446   1.948  11.091 -0.1587 -0.2099 -0.5096
 5578SOL    HW128370   2.360   1.962  11.051 -1.1871  1.4301  2.2505
 5578SOL    HW228371   2.498   1.923  11.015 -0.8811 -0.4562 -0.9197
 5579SOL     OW28372   3.730   2.317  12.395  0.0752 -0.0729 -0.3793
 5579SOL    HW128373   3.736   2.320  12.299 -1.0278 -1.2160 -0.4828
 5579SOL    HW228374   3.793   2.249  12.418  0.7762  0.4634 -0.7034
 5580SOL     OW28375   2.048   2.734   3.896 -0.5529 -0.4737  0.3604
 5580SOL    HW128376   2.072   2.751   3.805  1.3591  0.7807  1.0929
 5580SOL    HW228377   2.051   2.638   3.893 -3.7979 -0.5607 -0.0860
 5581SOL     OW28378   4.142   3.737  14.454  0.6423 -0.4526 -0.8908
 5581SOL    HW128379   4.127   3.759  14.363  0.0670 -0.3273 -0.7648
 5581SOL    HW228380   4.149   3.818  14.504 -1.6056 -1.7795  1.6201
 5582SOL     OW28381   2.150   0.677   3.270 -0.8708 -0.3955 -0.0991
 5582SOL    HW128382   2.145   0.631   3.186  0.0337  1.5108 -1.2022
 5582SOL    HW228383   2.242   0.663   3.292 -1.2796 -0.0284  1.8123
 5583SOL     OW28384   2.687   2.000   2.962  0.1031 -0.6101 -0.3423
 5583SOL    HW128385   2.616   1.936   2.959 -1.2746  1.0284 -2.4569
 5583SOL    HW228386   2.714   1.992   2.871  0.8450  0.9416 -0.2620
 5584SOL     OW28387   1.095   1.625  10.121 -0.4317 -0.2868 -0.1748
 5584SOL    HW128388   1.037   1.592  10.053 -0.9979  1.9600 -0.8056
 5584SOL    HW228389   1.135   1.547  10.159 -1.8778 -0.7551  0.4046
 5585SOL     OW28390   1.749   4.443   2.618 -0.4382 -0.1494  0.4170
 5585SOL    HW128391   1.731   4.506   2.548  1.3233  1.3530  1.3306
 5585SOL    HW228392   1.688   4.375   2.589  0.7577 -0.3633 -1.5826
 5586SOL     OW28393   2.537   4.253   3.563  0.1052 -0.8177 -1.0986
 5586SOL    HW128394   2.489   4.175   3.589 -2.3712  1.0947  0.0788
 5586SOL    HW228395   2.521   4.255   3.469  0.6425 -1.7398 -1.2057
 5587SOL     OW28396   1.351   4.129  15.313  0.1481 -0.1122  0.3519
 5587SOL    HW128397   1.354   4.199  15.379  2.5893 -0.2561  0.4078
 5587SOL    HW228398   1.282   4.072  15.347 -0.7622 -0.0818 -1.4553
 5588SOL     OW28399   2.201   3.038  17.358  0.5982  0.1392 -0.1262
 5588SOL    HW128400   2.120   2.994  17.334 -0.0985  0.2683  2.0102
 5588SOL    HW228401   2.171   3.129  17.361 -0.1853 -0.1427  0.7822
 5589SOL     OW28402   0.203   0.094   5.521  0.2695 -0.0373 -0.1270
 5589SOL    HW128403   0.154   0.050   5.451  2.9561 -0.5430 -1.6709
 5589SOL    HW228404   0.227   0.032   5.589  0.6548  0.2900  0.0329
 5590SOL     OW28405   2.124   2.259  10.786  0.5911  0.3351  0.4954
 5590SOL    HW128406   2.197   2.225  10.837 -1.5325 -2.0913  1.8850
 5590SOL    HW228407   2.050   2.258  10.847 -0.5563  2.2538 -0.8534
 5591SOL     OW28408   4.080   4.723   7.370 -0.1029 -0.5498 -0.1765
 5591SOL    HW128409   4.009   4.732   7.433  0.4180 -2.7584  0.7081
 5591SOL    HW228410   4.137   4.660   7.414  0.1553  0.6214  1.1542
 5592SOL     OW28411   2.871   2.798   9.815 -0.2314  0.4801 -0.0783
 5592SOL    HW128412   2.933   2.831   9.751 -1.3086  2.8729  0.1387
 5592SOL    HW228413   2.901   2.708   9.829  1.6301  0.7456 -2.4240
 5593SOL     OW28414   1.104   3.384  15.502  0.7615 -0.2412  0.8165
 5593SOL    HW128415   1.026   3.430  15.532  1.6044  1.9995 -0.3944
 5593SOL    HW228416   1.177   3.438  15.535  0.4654  0.1242  0.8769
 5594SOL     OW28417   1.933   0.867   3.428  0.0332 -0.1068 -0.3426
 5594SOL    HW128418   2.015   0.886   3.383 -1.0136  2.9107 -0.9894
 5594SOL    HW228419   1.935   0.929   3.501 -0.5585 -0.9086  0.3681
 5595SOL     OW28420   1.054   1.245  11.127  0.5025 -0.0267  0.2799
 5595SOL    HW128421   1.143   1.279  11.124  0.3595  0.1588 -1.8306
 5595SOL    HW228422   1.010   1.310  11.182 -0.8341  0.0053 -0.8159
 5596SOL     OW28423   2.432   0.180   9.870 -0.4231 -0.5144  0.4424
 5596SOL    HW128424   2.341   0.203   9.852 -0.2019  0.4397  0.5457
 5596SOL    HW228425   2.461   0.191   9.779  0.6083 -1.7134  0.6177
 5597SOL     OW28426   3.976   3.933   4.356  0.0523 -0.3353  0.2128
 5597SOL    HW128427   4.056   3.881   4.351  0.7189  0.7510 -0.5558
 5597SOL    HW228428   3.996   4.020   4.322 -0.2862 -0.5306 -0.4835
 5598SOL     OW28429   1.969   0.452  10.281  0.0458  0.3004 -0.4228
 5598SOL    HW128430   1.902   0.450  10.349  0.3049 -0.5605 -0.1967
 5598SOL    HW228431   2.044   0.448  10.340 -0.0830  0.0135 -0.2750
 5599SOL     OW28432   3.374   0.771   8.523 -0.1081 -0.7473  0.2803
 5599SOL    HW128433   3.413   0.752   8.438 -0.4325  2.3125 -0.5527
 5599SOL    HW228434   3.439   0.815   8.577 -0.5061  1.2587 -0.8800
 5600SOL     OW28435   0.316   3.289   3.212  0.2068  0.4292 -0.0725
 5600SOL    HW128436   0.330   3.365   3.156  0.2471  0.3262 -0.2010
 5600SOL    HW228437   0.306   3.327   3.300  1.1327  0.4165  0.0301
 5601SOL     OW28438   2.568   1.367   6.528 -0.4044 -0.0189  0.4913
 5601SOL    HW128439   2.500   1.346   6.593  0.0120 -0.3813  0.8087
 5601SOL    HW228440   2.533   1.307   6.462  0.3441  1.4501 -1.2188
 5602SOL     OW28441   0.816   4.375   7.990  1.0106  0.0053 -0.1062
 5602SOL    HW128442   0.762   4.324   8.051  0.7532  1.1150  0.6003
 5602SOL    HW228443   0.861   4.306   7.940  1.6859  1.1068 -1.0185
 5603SOL     OW28444   1.424   4.275  14.125 -0.0969 -0.8059 -0.4609
 5603SOL    HW128445   1.459   4.227  14.199 -0.5930 -1.1875 -0.4741
 5603SOL    HW228446   1.335   4.300  14.151  0.8571 -1.1690  3.1373
 5604SOL     OW28447   3.829   1.274  13.234 -0.3483 -0.2956 -0.0361
 5604SOL    HW128448   3.913   1.265  13.278 -0.3022  0.7256  0.0920
 5604SOL    HW228449   3.776   1.256  13.311 -0.5826  0.6072  0.0229
 5605SOL     OW28450   0.463   0.481   0.844 -0.0433 -0.3729  0.1873
 5605SOL    HW128451   0.499   0.564   0.814  0.5803 -0.2004  1.4344
 5605SOL    HW228452   0.480   0.483   0.938 -1.2348 -0.1531  0.4023
 5606SOL     OW28453   1.766   3.973   7.740 -0.3578  0.2631 -0.5179
 5606SOL    HW128454   1.693   4.018   7.784 -0.7330 -1.5986  0.7800
 5606SOL    HW228455   1.842   4.010   7.784 -0.5079 -0.3397  0.2508
 5607SOL     OW28456   0.413   1.251   1.919 -0.5529 -0.5660  0.2327
 5607SOL    HW128457   0.320   1.230   1.923 -0.9276  0.7278 -1.7580
 5607SOL    HW228458   0.412   1.284   2.009 -0.5955 -1.7894  0.6820
 5608SOL     OW28459   0.452   3.129   5.995 -0.3045 -0.2159 -0.2914
 5608SOL    HW128460   0.461   3.097   6.084  2.1921  0.6760 -0.2410
 5608SOL    HW228461   0.421   3.216   6.018 -0.0855 -0.2096 -0.0267
 5609SOL     OW28462   1.577   2.533   2.593 -0.1691 -0.0436  0.8410
 5609SOL    HW128463   1.488   2.550   2.563 -0.3963 -0.3895  1.3314
 5609SOL    HW228464   1.633   2.605   2.565  1.2439 -1.7098 -0.7097
 5610SOL     OW28465   3.105   2.385   0.076 -0.2524  0.3605  0.0851
 5610SOL    HW128466   3.177   2.428   0.123  1.8383 -1.0337 -1.9087
 5610SOL    HW228467   3.116   2.432  17.748  0.4850  0.8583  0.4653
 5611SOL     OW28468   0.283   2.179  14.476 -0.1495  0.4171 -0.0918
 5611SOL    HW128469   0.261   2.094  14.438 -2.2081  1.2804 -0.8671
 5611SOL    HW228470   0.232   2.234  14.417  0.0022 -0.2644 -0.8602
 5612SOL     OW28471   4.214   1.126   5.164 -0.3633 -0.1890 -0.0449
 5612SOL    HW128472   4.217   1.043   5.117 -1.5150 -0.6317  0.6657
 5612SOL    HW228473   4.155   1.106   5.236 -0.8245 -0.3604 -0.4732
 5613SOL     OW28474   3.476   1.165   6.837  0.3846 -0.3725 -0.1297
 5613SOL    HW128475   3.440   1.243   6.794  1.0012 -0.4172 -0.7255
 5613SOL    HW228476   3.470   1.106   6.761 -2.6648 -1.0980  0.6669
 5614SOL     OW28477   3.849   1.756   4.515 -0.4630  0.1543  0.0223
 5614SOL    HW128478   3.871   1.783   4.426 -0.6916  2.8694  0.7882
 5614SOL    HW228479   3.774   1.699   4.501  0.8955 -1.1736 -1.9058
 5615SOL     OW28480   2.912   1.864   3.979 -0.7237  0.3242 -0.7806
 5615SOL    HW128481   2.949   1.936   3.928 -1.6787  1.3131 -0.1097
 5615SOL    HW228482   2.981   1.799   3.973 -1.3779 -0.2439 -2.0134
 5616SOL     OW28483   1.858   2.175   7.998  0.3833 -0.3081 -0.0438
 5616SOL    HW128484   1.780   2.145   7.950 -0.4123 -1.1753  1.8060
 5616SOL    HW228485   1.865   2.105   8.063  0.8817  0.7438  1.0340
 5617SOL     OW28486   0.858   2.709   7.547  0.1083  0.4128  0.4329
 5617SOL    HW128487   0.939   2.754   7.521  0.1528 -0.6273 -1.2237
 5617SOL    HW228488   0.787   2.755   7.503  0.2157 -0.2279 -0.4244
 5618SOL     OW28489   0.858   4.009   8.758  0.0348 -0.1859 -0.4829
 5618SOL    HW128490   0.843   3.919   8.730 -2.3816 -0.4549  1.6538
 5618SOL    HW228491   0.768   4.036   8.738 -0.5665 -1.0246  1.0886
 5619SOL     OW28492   2.335   0.582   4.880 -0.1487 -0.4809  0.7652
 5619SOL    HW128493   2.251   0.541   4.859 -1.0533  1.5530  0.5115
 5619SOL    HW228494   2.382   0.506   4.914  1.3678  0.6835  1.2240
 5620SOL     OW28495   3.539   2.013   2.672 -0.3055  0.1482 -0.1219
 5620SOL    HW128496   3.445   1.995   2.667 -0.3351 -0.0439  0.9464
 5620SOL    HW228497   3.582   1.962   2.604 -1.6191  0.0958 -0.9011
 5621SOL     OW28498   2.317   4.073   8.517 -0.7163 -0.4343  0.2858
 5621SOL    HW128499   2.289   4.007   8.454  0.2602 -0.4711 -0.1007
 5621SOL    HW228500   2.412   4.074   8.503 -1.0582  0.1602 -1.9954
 5622SOL     OW28501   2.770   3.386  11.346  0.0083 -0.0359  0.3215
 5622SOL    HW128502   2.677   3.373  11.366 -0.7930  1.2451 -2.5642
 5622SOL    HW228503   2.820   3.333  11.408  0.7126  1.9791  1.4462
 5623SOL     OW28504   1.746   0.389   4.869  0.2200  0.2314 -0.0863
 5623SOL    HW128505   1.782   0.310   4.831  2.8053  0.2084  2.4163
 5623SOL    HW228506   1.817   0.408   4.931 -1.0988  3.3945  0.4716
 5624SOL     OW28507   0.566   2.618   8.322 -0.3775  0.1426 -0.0488
 5624SOL    HW128508   0.599   2.689   8.377  0.0085 -0.9707  1.1634
 5624SOL    HW228509   0.567   2.545   8.384 -0.0169  0.9361  0.8834
 5625SOL     OW28510   2.607   1.672  13.452  0.1581  0.1451 -0.3763
 5625SOL    HW128511   2.659   1.749  13.427  1.0587 -0.9396 -1.8042
 5625SOL    HW228512   2.622   1.673  13.547  1.0419 -1.1503 -0.5111
 5626SOL     OW28513   1.011   3.258   7.484 -0.3175 -0.3929  0.0646
 5626SOL    HW128514   1.104   3.269   7.506 -0.3679  0.8284 -0.3663
 5626SOL    HW228515   0.984   3.222   7.568  0.6002 -0.0821  0.5026
 5627SOL     OW28516   3.667   0.201   7.722 -0.5859  0.0006  0.6954
 5627SOL    HW128517   3.704   0.286   7.698  0.5001 -0.7319 -0.2133
 5627SOL    HW228518   3.592   0.205   7.662 -0.3418 -0.5915  0.3489
 5628SOL     OW28519   0.291   2.371   3.332  0.3119  0.1220  0.0458
 5628SOL    HW128520   0.240   2.416   3.265  0.1795 -1.5545 -0.9829
 5628SOL    HW228521   0.357   2.438   3.352  0.7738 -0.3948  0.2480
 5629SOL     OW28522   1.124   2.941   5.816 -0.1485 -0.2852 -0.2149
 5629SOL    HW128523   1.217   2.917   5.823  0.0889  0.4985 -0.7188
 5629SOL    HW228524   1.077   2.875   5.867 -0.2682  0.2355  0.3386
 5630SOL     OW28525   2.748   1.072  12.231 -0.0829 -0.3309 -0.3111
 5630SOL    HW128526   2.737   1.078  12.136  1.8517 -3.0631 -0.7098
 5630SOL    HW228527   2.662   1.094  12.266 -0.0821 -0.2599 -0.3528
 5631SOL     OW28528   4.296   2.271   6.560  0.2785  0.3294  0.1655
 5631SOL    HW128529   4.220   2.305   6.513 -1.7624  0.9427  3.8517
 5631SOL    HW228530   4.279   2.299   6.650 -0.6238 -1.2684  0.4848
 5632SOL     OW28531   4.480   3.235  10.048 -0.7369 -0.2093  0.7989
 5632SOL    HW128532   4.450   3.206  10.134 -1.1483 -2.5351 -0.1289
 5632SOL    HW228533   4.453   3.327  10.051 -0.1602 -0.0140  0.0432
 5633SOL     OW28534   1.801   2.210   6.869  0.5147  0.1132 -0.1442
 5633SOL    HW128535   1.825   2.197   6.961 -1.0587 -0.9720  0.1291
 5633SOL    HW228536   1.785   2.304   6.873  1.0140  0.1237  1.3699
 5634SOL     OW28537   4.428   0.119   4.218 -0.1997  0.2258 -0.4631
 5634SOL    HW128538   4.388   0.110   4.304 -0.1012 -1.7194 -0.6333
 5634SOL    HW228539   4.499   0.183   4.226  0.7656 -1.1229  1.6536
 5635SOL     OW28540   0.854   3.524  15.479 -0.6236 -0.0667  0.1860
 5635SOL    HW128541   0.817   3.545  15.393  0.8306 -0.4315 -0.5315
 5635SOL    HW228542   0.851   3.610  15.520 -1.5115 -1.0788  2.2398
 5636SOL     OW28543   1.549   0.887   9.126 -0.4014 -0.0685  0.1443
 5636SOL    HW128544   1.579   0.797   9.135 -0.7056 -0.5304 -3.5937
 5636SOL    HW228545   1.603   0.936   9.188 -1.3154  0.0926  0.8158
 5637SOL     OW28546   0.794   1.152   4.640  0.2279 -0.1221 -0.1213
 5637SOL    HW128547   0.868   1.148   4.579 -0.1584  0.3574 -0.6182
 5637SOL    HW228548   0.793   1.061   4.670 -1.4748  0.1218  0.5541
 5638SOL     OW28549   0.575   0.799   8.009 -0.1414 -0.4716 -0.2845
 5638SOL    HW128550   0.601   0.814   7.918 -1.4183 -0.3319 -0.6261
 5638SOL    HW228551   0.560   0.884   8.051  0.6941 -0.0373 -0.8690
 5639SOL     OW28552   3.050   2.266  13.736  0.1189 -0.9282  0.5167
 5639SOL    HW128553   3.053   2.350  13.691 -1.5578  0.4932  3.0375
 5639SOL    HW228554   2.955   2.263  13.748  0.0078  1.0279  0.0184
 5640SOL     OW28555   0.022   1.026  14.379 -0.2947 -0.0187 -0.0514
 5640SOL    HW128556   0.075   1.005  14.302 -0.7479 -0.1626 -0.3223
 5640SOL    HW228557   4.703   0.953  14.397 -0.3760  0.0712  0.0492
 5641SOL     OW28558   3.640   3.612   3.545 -0.2403  0.0857 -0.3221
 5641SOL    HW128559   3.667   3.539   3.600 -2.9533 -1.1965 -0.7104
 5641SOL    HW228560   3.703   3.678   3.574 -1.5415  0.9544  0.5095
 5642SOL     OW28561   2.709   3.410  10.770 -0.3827 -0.6178 -0.7618
 5642SOL    HW128562   2.749   3.351  10.707  0.6540  0.9929 -1.5934
 5642SOL    HW228563   2.783   3.448  10.818 -0.2711  1.1064 -2.3169
 5643SOL     OW28564   1.365   1.377   2.348 -0.9080  0.0429 -0.5322
 5643SOL    HW128565   1.339   1.294   2.309  1.7950 -2.0886  2.3049
 5643SOL    HW228566   1.454   1.350   2.371 -0.7208  0.1525 -1.1313
 5644SOL     OW28567   1.140   2.945   7.746  0.1850  0.7663  0.0861
 5644SOL    HW128568   1.097   3.030   7.736 -2.7005 -0.6304  0.7215
 5644SOL    HW228569   1.206   2.961   7.813  0.0773 -1.8075  0.8009
 5645SOL     OW28570   4.326   3.844   7.156  0.3556 -0.4104 -0.2287
 5645SOL    HW128571   4.419   3.827   7.166  0.0257 -1.9616  0.2790
 5645SOL    HW228572   4.303   3.823   7.247 -1.0901  1.4947 -0.1579
 5646SOL     OW28573   0.577   2.009  17.185  0.2234 -0.2879 -0.8142
 5646SOL    HW128574   0.590   2.101  17.160  0.4917 -0.9292 -2.9979
 5646SOL    HW228575   0.511   2.032  17.251  1.9139  1.0562  0.4121
 5647SOL     OW28576   2.287   3.326  13.357  0.3664  0.4211  0.1680
 5647SOL    HW128577   2.199   3.316  13.320 -0.1062 -0.1747  1.4582
 5647SOL    HW228578   2.298   3.421  13.360 -0.2287  0.5095 -0.4304
 5648SOL     OW28579   3.011   1.590  12.950 -0.3715 -0.0123 -0.2297
 5648SOL    HW128580   3.015   1.498  12.976 -0.2399  0.2350  0.6121
 5648SOL    HW228581   3.052   1.632  13.025 -2.2353  0.6577  0.4329
 5649SOL     OW28582   4.174   2.663   7.151  0.2063  0.3399  0.4270
 5649SOL    HW128583   4.228   2.598   7.105 -0.9521  0.7751 -1.5684
 5649SOL    HW228584   4.151   2.716   7.075 -0.4726 -1.2526 -0.4986
 5650SOL     OW28585   1.156   1.332   3.159  0.2291 -0.6351 -0.2180
 5650SOL    HW128586   1.179   1.389   3.086  0.3369 -0.0334  0.2869
 5650SOL    HW228587   1.181   1.245   3.128  0.6217 -0.2945 -0.8319
 5651SOL     OW28588   0.084   2.078   3.965 -0.2145  0.2753  0.3805
 5651SOL    HW128589   0.095   2.152   3.905  3.5045 -1.3618 -0.9222
 5651SOL    HW228590   0.160   2.083   4.023  0.0181 -0.5435  0.1460
 5652SOL     OW28591   2.921   3.777   2.007 -0.5601 -0.2312  0.0515
 5652SOL    HW128592   2.981   3.825   2.064 -2.2963  0.4792  1.2723
 5652SOL    HW228593   2.973   3.700   1.982  1.1438  1.2703 -0.9756
 5653SOL     OW28594   0.433   4.291   9.612 -0.1048  0.1428 -0.6628
 5653SOL    HW128595   0.398   4.373   9.576  1.0045  1.1279  0.5326
 5653SOL    HW228596   0.361   4.229   9.612 -0.4923  0.5730 -2.3036
 5654SOL     OW28597   3.453   1.328   3.013  0.2931 -0.3459  0.3077
 5654SOL    HW128598   3.393   1.338   2.940 -1.8093 -0.7992  1.9554
 5654SOL    HW228599   3.441   1.234   3.027  0.5779 -0.0135  2.9359
 5655SOL     OW28600   2.742   0.342   2.916  0.3398  0.0382  0.1830
 5655SOL    HW128601   2.807   0.413   2.913 -0.6201  0.9390  0.8143
 5655SOL    HW228602   2.801   0.268   2.931 -0.3480 -0.4135  0.6562
 5656SOL     OW28603   0.962   2.992   2.627  0.1915  0.0730  0.0443
 5656SOL    HW128604   0.900   2.920   2.615 -0.3384  0.6257 -0.4926
 5656SOL    HW228605   1.044   2.943   2.635 -1.1272 -2.1362 -0.0263
 5657SOL     OW28606   1.294   0.852  16.506  0.0184  0.0116 -0.4644
 5657SOL    HW128607   1.366   0.835  16.446 -0.7341 -0.0076 -1.3714
 5657SOL    HW228608   1.273   0.764  16.536 -0.4597 -0.2958 -1.6890
 5658SOL     OW28609   4.308   0.131   2.818  0.3574 -0.6227 -0.0870
 5658SOL    HW128610   4.283   0.199   2.755 -1.0538  1.3301  2.5682
 5658SOL    HW228611   4.325   0.172   2.903  0.9404  0.8027 -0.8947
 5659SOL     OW28612   3.502   1.742  16.430  0.5037  0.4863  0.1939
 5659SOL    HW128613   3.457   1.675  16.379 -1.0175  1.3368  0.4016
 5659SOL    HW228614   3.587   1.702  16.447  0.6153  1.5617  2.1929
 5660SOL     OW28615   3.847   0.746   6.161 -0.4367  0.1255  0.9844
 5660SOL    HW128616   3.914   0.678   6.170 -0.6494 -0.3981 -1.3212
 5660SOL    HW228617   3.784   0.705   6.101  0.6601 -0.6990  0.3969
 5661SOL     OW28618   3.108   0.588   9.808 -0.2268  0.1158  0.3535
 5661SOL    HW128619   3.077   0.670   9.847 -1.8022  0.4397 -1.5476
 5661SOL    HW228620   3.034   0.528   9.817  0.3934 -0.3492  2.3969
 5662SOL     OW28621   1.843   4.554   7.147  0.4126  0.0333 -0.3273
 5662SOL    HW128622   1.932   4.563   7.181  0.2949  1.4116 -0.3643
 5662SOL    HW228623   1.839   4.620   7.078  1.0247 -0.8250 -1.1743
 5663SOL     OW28624   3.720   3.808   0.717  0.0673 -0.5164  0.0121
 5663SOL    HW128625   3.682   3.755   0.647 -1.8220  0.5418  0.2631
 5663SOL    HW228626   3.672   3.773   0.791 -0.5828  1.9133  0.7458
 5664SOL     OW28627   0.421   3.449   2.730 -0.4202 -0.6282  0.0332
 5664SOL    HW128628   0.513   3.450   2.702 -0.2072 -0.5276  0.7435
 5664SOL    HW228629   0.405   3.362   2.767 -1.0740 -1.0589 -1.2486
 5665SOL     OW28630   3.689   0.518   6.519 -0.1678  0.1763  0.3007
 5665SOL    HW128631   3.767   0.542   6.569 -1.1272  1.0822  1.3613
 5665SOL    HW228632   3.641   0.472   6.587  2.4522 -3.2840 -0.1804
 5666SOL     OW28633   3.260   3.311   5.142  0.2562 -0.7756  0.2906
 5666SOL    HW128634   3.260   3.255   5.064  2.0296  2.6935 -2.2442
 5666SOL    HW228635   3.354   3.315   5.155  0.2917 -0.1660 -0.1482
 5667SOL     OW28636   2.570   2.303   9.182  0.2231  0.0869 -0.0564
 5667SOL    HW128637   2.644   2.258   9.223 -0.2011  0.7625  1.4749
 5667SOL    HW228638   2.504   2.250   9.228  1.3610 -2.7130 -1.6796
 5668SOL     OW28639   4.302   4.056   7.812 -0.3610 -0.7223 -0.0165
 5668SOL    HW128640   4.219   4.022   7.844 -1.3080  0.0687 -1.6497
 5668SOL    HW228641   4.289   4.041   7.718 -2.7077 -2.3631  0.5792
 5669SOL     OW28642   2.791   1.995  17.722  0.1811 -0.1722 -0.5920
 5669SOL    HW128643   2.877   2.022  17.690  0.0205 -0.5846 -1.3828
 5669SOL    HW228644   2.800   2.013   0.062  0.3413  1.2796 -0.8753
 5670SOL     OW28645   0.173   2.334  17.227  0.0517  0.2749 -0.4194
 5670SOL    HW128646   0.241   2.333  17.160  0.2120  0.3404 -0.2596
 5670SOL    HW228647   0.108   2.391  17.187  1.5982  2.4494  0.1292
 5671SOL     OW28648   0.350   3.869   4.647  0.2211 -0.4046  0.3555
 5671SOL    HW128649   0.366   3.793   4.704  0.2097 -0.3874  0.3818
 5671SOL    HW228650   0.308   3.824   4.574  1.9318 -2.0559  0.3609
 5672SOL     OW28651   4.643   1.285   2.553 -0.3744 -0.6323  0.4291
 5672SOL    HW128652   4.651   1.377   2.578  0.7147 -0.5375 -0.2688
 5672SOL    HW228653   4.653   1.242   2.638 -0.6481  0.6996  1.1301
 5673SOL     OW28654   1.044   1.157   4.495  0.2019 -0.3554 -0.5430
 5673SOL    HW128655   1.131   1.197   4.501 -0.6537  1.5645 -0.7589
 5673SOL    HW228656   1.026   1.168   4.402  2.6843  1.1062 -0.8560
 5674SOL     OW28657   3.776   3.796   5.910  0.5542 -0.0014  0.2020
 5674SOL    HW128658   3.820   3.735   5.850 -0.8438 -1.2938  0.4759
 5674SOL    HW228659   3.748   3.735   5.978 -2.0360  1.6372  0.6210
 5675SOL     OW28660   2.223   2.338   3.542 -0.0166  0.0230  0.2304
 5675SOL    HW128661   2.270   2.364   3.622  1.5168  2.4776 -1.4452
 5675SOL    HW228662   2.252   2.248   3.551 -0.5418 -0.1072  0.6303
 5676SOL     OW28663   2.178   2.243   7.977 -0.2083 -0.1940  0.1513
 5676SOL    HW128664   2.226   2.304   8.034  0.4442 -1.3955  0.8800
 5676SOL    HW228665   2.090   2.249   8.013 -1.3684 -3.1842 -2.2047
 5677SOL     OW28666   3.606   4.145   4.868 -0.4598 -0.0757  0.3417
 5677SOL    HW128667   3.621   4.119   4.777  0.0318  2.2976 -0.2454
 5677SOL    HW228668   3.550   4.222   4.858 -1.1539 -0.5426  0.6156
 5678SOL     OW28669   0.970   3.820   4.187 -0.0265 -0.4257  0.3835
 5678SOL    HW128670   0.981   3.775   4.104 -0.7496  0.0679  0.0238
 5678SOL    HW228671   0.968   3.745   4.246  0.1948  0.7454  1.8945
 5679SOL     OW28672   3.513   3.937  10.927 -0.0734  0.1410 -0.2555
 5679SOL    HW128673   3.480   3.994  10.858  1.2037  0.6066 -0.4894
 5679SOL    HW228674   3.443   3.932  10.992 -0.5602  1.4079 -0.6911
 5680SOL     OW28675   3.636   2.518  13.701 -0.5979 -0.4084 -0.3559
 5680SOL    HW128676   3.661   2.610  13.694 -3.6006  0.5364  1.0247
 5680SOL    HW228677   3.630   2.494  13.609 -0.0192 -0.8984 -0.2660
 5681SOL     OW28678   0.509   3.316   1.898  0.3183 -0.2388  0.2475
 5681SOL    HW128679   0.571   3.379   1.861 -1.9791  1.2087 -1.1622
 5681SOL    HW228680   0.521   3.238   1.843 -1.5880 -0.6644  0.4244
 5682SOL     OW28681   0.297   2.629   1.431 -0.0557 -0.0775 -0.3005
 5682SOL    HW128682   0.287   2.681   1.510 -0.7565 -0.0331 -0.4188
 5682SOL    HW228683   0.357   2.676   1.372 -0.1084 -1.9408 -1.8577
 5683SOL     OW28684   4.360   4.365   6.457  0.4664 -0.3028 -0.1672
 5683SOL    HW128685   4.395   4.304   6.522  0.8169 -0.3439 -0.3950
 5683SOL    HW228686   4.379   4.325   6.372  0.7311  0.9028 -0.6731
 5684SOL     OW28687   3.037   0.390   4.002 -0.2421 -0.4121 -0.3922
 5684SOL    HW128688   2.971   0.426   3.943  1.6029 -0.0844 -2.2448
 5684SOL    HW228689   3.051   0.461   4.064 -0.0588 -0.3760 -0.4752
 5685SOL     OW28690   2.343   3.575   5.760  0.2773  0.1662 -0.2100
 5685SOL    HW128691   2.378   3.601   5.675 -2.0508  0.4756 -1.0758
 5685SOL    HW228692   2.263   3.624   5.778  0.1924 -0.4132  1.0053
 5686SOL     OW28693   1.283   0.476   9.463 -0.4168  0.6241 -0.2667
 5686SOL    HW128694   1.360   0.488   9.519 -0.2746  1.3327 -0.6157
 5686SOL    HW228695   1.323   0.417   9.399 -0.1770  2.2302 -1.6162
 5687SOL     OW28696   4.550   3.027   3.166 -0.3349 -0.6076 -0.2435
 5687SOL    HW128697   4.488   2.970   3.211  0.7700 -0.3185  1.6761
 5687SOL    HW228698   4.535   3.013   3.073  0.5177 -2.3410 -0.1187
 5688SOL     OW28699   3.740   3.561   1.696 -0.6495 -0.0969  0.0583
 5688SOL    HW128700   3.671   3.569   1.630 -0.1827  0.7379 -0.3216
 5688SOL    HW228701   3.728   3.645   1.740 -1.7607 -0.6292  0.7837
 5689SOL     OW28702   3.689   2.335  11.074  0.6146 -0.0170 -0.0408
 5689SOL    HW128703   3.748   2.344  10.999  0.5985 -0.0596 -0.0586
 5689SOL    HW228704   3.697   2.241  11.089  0.7472  0.2644  1.7256
 5690SOL     OW28705   2.355   4.188   2.737 -0.3088  0.1732 -0.6845
 5690SOL    HW128706   2.277   4.232   2.703 -0.0597  0.5714 -0.7444
 5690SOL    HW228707   2.417   4.262   2.741  0.3259 -0.4210  0.4870
 5691SOL     OW28708   2.017   3.792   3.049  0.2611  0.9070 -0.0108
 5691SOL    HW128709   2.079   3.747   3.106 -0.7190  1.5608  1.5540
 5691SOL    HW228710   2.002   3.721   2.986  0.6765  0.4090  0.4450
 5692SOL     OW28711   3.212   0.781   0.504 -0.4985 -0.3521 -0.3305
 5692SOL    HW128712   3.138   0.803   0.446 -2.2846  0.7528  2.3848
 5692SOL    HW228713   3.273   0.852   0.482 -0.7230 -0.0750 -0.0595
 5693SOL     OW28714   1.337   1.599   3.683 -0.8064 -0.4724 -0.2099
 5693SOL    HW128715   1.408   1.541   3.711 -0.9928 -0.8006 -0.4171
 5693SOL    HW228716   1.363   1.687   3.710 -1.9126 -0.6918  1.5814
 5694SOL     OW28717   4.661   0.858   8.994 -0.5254 -0.1730  0.2063
 5694SOL    HW128718   4.736   0.821   9.041 -1.0373 -0.4505  0.7959
 5694SOL    HW228719   4.692   0.948   8.994 -1.4562  0.1424  0.1501
 5695SOL     OW28720   2.988   1.128  12.388  0.3696 -0.1910 -0.3014
 5695SOL    HW128721   2.921   1.112  12.322  1.3960 -1.0278 -1.1342
 5695SOL    HW228722   2.970   1.219  12.411 -2.8723 -0.3496 -2.1155
 5696SOL     OW28723   4.445   0.761  17.154  0.1326  0.3436 -0.3618
 5696SOL    HW128724   4.411   0.818  17.222 -0.9693 -0.1729 -0.4918
 5696SOL    HW228725   4.458   0.683  17.207 -2.7834 -0.0679 -0.2588
 5697SOL     OW28726   4.252   2.580   6.636  0.0546  0.2203 -0.4154
 5697SOL    HW128727   4.296   2.659   6.603 -0.7961  0.7331 -0.3237
 5697SOL    HW228728   4.218   2.545   6.554  2.1903 -1.4375 -0.5857
 5698SOL     OW28729   1.739   3.804   6.942  0.0636 -0.2382  0.0708
 5698SOL    HW128730   1.772   3.806   6.852  0.3477 -0.3995  0.1735
 5698SOL    HW228731   1.742   3.892   6.980 -0.6907 -0.3380  0.3654
 5699SOL     OW28732   2.137   3.730   0.244  0.0438  0.3043  0.7238
 5699SOL    HW128733   2.193   3.754   0.170  0.9932 -0.5334  1.1732
 5699SOL    HW228734   2.068   3.796   0.240 -0.0024  0.1306 -1.0987
 5700SOL     OW28735   2.000   0.535   6.496  0.1332  0.4802  0.1697
 5700SOL    HW128736   1.998   0.621   6.540  2.8595  0.1956  0.8149
 5700SOL    HW228737   2.054   0.563   6.422  0.9571  0.1560  0.6587
 5701SOL     OW28738   4.310   3.718   7.452  0.1007 -0.1961  0.5107
 5701SOL    HW128739   4.305   3.731   7.547  0.1786 -1.4765  0.6967
 5701SOL    HW228740   4.381   3.654   7.459  0.2648 -0.2147 -1.4512
 5702SOL     OW28741   3.147   0.995   8.093 -0.2851  0.1474  0.0075
 5702SOL    HW128742   3.127   0.940   8.169 -1.1175 -2.1020 -1.8365
 5702SOL    HW228743   3.191   1.071   8.130 -0.1457 -0.6721  1.5256
 5703SOL     OW28744   2.524   0.206   0.795 -0.0052 -0.6952 -0.1235
 5703SOL    HW128745   2.471   0.262   0.738  0.6202  0.7804  0.7376
 5703SOL    HW228746   2.612   0.221   0.760 -0.2764 -1.7888 -1.2765
 5704SOL     OW28747   3.699   1.233   2.491  0.3665 -0.1577 -0.4014
 5704SOL    HW128748   3.721   1.157   2.436  0.8751  1.2020 -2.0507
 5704SOL    HW228749   3.763   1.303   2.482  0.5714 -0.1654  0.9871
 5705SOL     OW28750   1.742   2.069   6.631 -0.1040  0.0147  0.2699
 5705SOL    HW128751   1.774   2.131   6.566 -1.6947 -0.3483 -0.8785
 5705SOL    HW228752   1.772   2.105   6.714 -0.4860 -1.5037  1.0824
 5706SOL     OW28753   2.204   0.490   0.405 -0.1545  0.2007  0.0177
 5706SOL    HW128754   2.162   0.428   0.346  3.4614 -1.9960 -0.2599
 5706SOL    HW228755   2.252   0.530   0.332  0.4129 -0.8467 -0.1791
 5707SOL     OW28756   1.884   1.678   4.574  0.0960 -0.0460 -0.1797
 5707SOL    HW128757   1.942   1.622   4.626  2.1313 -0.0954 -2.5164
 5707SOL    HW228758   1.908   1.642   4.489  0.0162 -0.4462 -0.0327
 5708SOL     OW28759   2.022   1.813  14.181 -0.0983  0.2980  0.4447
 5708SOL    HW128760   2.110   1.836  14.152 -0.4979 -1.0130 -1.8519
 5708SOL    HW228761   2.007   1.883  14.244 -1.9649  1.7979 -1.6632
 5709SOL     OW28762   2.554   0.561   2.685 -0.1856  0.4362  1.0438
 5709SOL    HW128763   2.486   0.516   2.736  0.2677 -0.7767  0.5715
 5709SOL    HW228764   2.634   0.541   2.734 -0.6155 -1.5696  0.9487
 5710SOL     OW28765   0.175   4.445   2.757  0.1062  0.4798 -0.3128
 5710SOL    HW128766   0.095   4.413   2.715  0.7882 -0.8124 -0.6219
 5710SOL    HW228767   0.235   4.416   2.688  0.8044  0.7129  0.1987
 5711SOL     OW28768   0.845   1.764  17.513  0.0820 -0.2818 -0.3859
 5711SOL    HW128769   0.779   1.719  17.566  1.4964 -0.6290  1.0779
 5711SOL    HW228770   0.888   1.821  17.576 -0.0604  0.9734 -1.4099
 5712SOL     OW28771   3.165   4.409  10.798  0.0944  0.0153 -0.0997
 5712SOL    HW128772   3.141   4.481  10.740  0.5450  1.1606  1.1470
 5712SOL    HW228773   3.107   4.340  10.766  0.1027  0.4972 -1.1660
 5713SOL     OW28774   3.915   2.713   9.001 -0.3374 -0.1607  1.0068
 5713SOL    HW128775   3.957   2.631   9.029  1.4161  0.0059 -1.1534
 5713SOL    HW228776   3.990   2.750   8.955 -1.1607 -0.8372 -0.8778
 5714SOL     OW28777   1.097   2.281  13.340 -1.0708  0.1139 -0.3523
 5714SOL    HW128778   1.090   2.306  13.248  3.0294 -1.0354 -0.9711
 5714SOL    HW228779   1.096   2.186  13.328  1.8193 -0.0030  0.4558
 5715SOL     OW28780   1.749   3.399   3.504  0.3614  0.1646 -0.1889
 5715SOL    HW128781   1.664   3.356   3.492 -0.2128  1.8222 -2.2919
 5715SOL    HW228782   1.712   3.485   3.525  1.1064  0.6414 -0.8212
 5716SOL     OW28783   2.811   3.477   8.092  0.3146 -0.2822  0.0817
 5716SOL    HW128784   2.730   3.526   8.074 -0.8855 -2.1301  0.4742
 5716SOL    HW228785   2.829   3.443   8.004  0.3723  2.6241 -1.0508
 5717SOL     OW28786   0.535   0.774   7.166  0.4244  0.2332 -0.3615
 5717SOL    HW128787   0.569   0.706   7.108 -1.3138 -0.9985  0.0672
 5717SOL    HW228788   0.589   0.759   7.244  1.7242 -3.2484 -1.9052
 5718SOL     OW28789   2.740   0.019   3.167 -0.4261  0.2294  0.0852
 5718SOL    HW128790   2.770   0.106   3.191  1.1318 -0.7690  1.7247
 5718SOL    HW228791   2.815   4.706   3.193 -0.0840  0.1958 -0.9566
 5719SOL     OW28792   2.992   4.556   2.959 -0.2594 -0.2158 -0.5576
 5719SOL    HW128793   2.992   4.470   3.001 -1.5731  1.1529  2.2802
 5719SOL    HW228794   3.082   4.588   2.964 -0.5787  0.4853  0.8682
 5720SOL     OW28795   3.877   1.225   3.345 -0.1210 -0.6260 -0.0484
 5720SOL    HW128796   3.964   1.187   3.353 -0.4493 -1.0724  1.3634
 5720SOL    HW228797   3.889   1.284   3.271 -1.2459 -2.0689 -1.3782
 5721SOL     OW28798   2.751   1.001   6.894  0.1385 -0.0398  0.0797
 5721SOL    HW128799   2.677   0.991   6.955  0.4284  0.4619  0.5133
 5721SOL    HW228800   2.716   0.948   6.822  0.8649 -0.9969  0.4326
 5722SOL     OW28801   3.664   2.423   6.440 -0.1890  0.1016  0.1628
 5722SOL    HW128802   3.582   2.458   6.475 -0.0688  0.2172  0.3303
 5722SOL    HW228803   3.705   2.393   6.521 -0.6894 -1.1872 -0.0703
 5723SOL     OW28804   0.038   0.647   3.867  0.3834 -0.0346  0.3172
 5723SOL    HW128805   4.709   0.714   3.874 -0.8548 -1.4026  1.6444
 5723SOL    HW228806   0.066   0.648   3.776 -1.3039  1.1986 -0.1764
 5724SOL     OW28807   4.076   0.730   1.709  0.5583  0.2489 -0.5350
 5724SOL    HW128808   4.082   0.767   1.797  0.1978 -1.2024  0.1046
 5724SOL    HW228809   4.147   0.668   1.695  0.2287 -0.6563  1.8428
 5725SOL     OW28810   2.441   0.084   9.457 -0.2741 -0.2689 -0.5081
 5725SOL    HW128811   2.440   0.011   9.519  2.0903 -1.0850 -1.4358
 5725SOL    HW228812   2.505   0.142   9.497 -3.6050  1.4588  2.2701
 5726SOL     OW28813   4.421   3.578  11.611  0.0429 -0.0364  0.6094
 5726SOL    HW128814   4.501   3.525  11.610  0.6536  0.8755  0.7450
 5726SOL    HW228815   4.357   3.520  11.571  0.6595  0.6064 -1.3017
 5727SOL     OW28816   0.550   1.849  13.508 -0.3487  0.3723  0.2694
 5727SOL    HW128817   0.616   1.796  13.465 -1.4554 -0.2684 -0.6543
 5727SOL    HW228818   0.608   1.915  13.544  0.9338 -0.8852  0.5191
 5728SOL     OW28819   2.642   3.396   3.676 -0.5874 -0.5227 -0.5012
 5728SOL    HW128820   2.733   3.376   3.655 -0.4067  0.1226 -0.3339
 5728SOL    HW228821   2.604   3.316   3.711 -1.0885 -0.1412 -0.1763
 5729SOL     OW28822   3.236   0.540   4.137  0.0334  0.0067 -0.5209
 5729SOL    HW128823   3.308   0.479   4.122 -0.4795 -1.1383  1.6663
 5729SOL    HW228824   3.285   0.590   4.203 -0.0851 -1.4851  0.7015
 5730SOL     OW28825   2.710   2.081   7.311 -0.2892 -0.0291 -0.3073
 5730SOL    HW128826   2.699   2.045   7.399  0.5805 -1.9630 -0.9698
 5730SOL    HW228827   2.746   2.013   7.253  0.7928 -0.5820  1.0149
 5731SOL     OW28828   0.783   0.154   4.086  0.3102 -0.5209 -0.2968
 5731SOL    HW128829   0.829   0.138   4.169  1.6005 -1.6176 -1.2156
 5731SOL    HW228830   0.695   0.133   4.119  0.5243 -0.4576  0.3123
 5732SOL     OW28831   1.539   0.447   8.284 -0.3310  0.1139 -0.0431
 5732SOL    HW128832   1.605   0.516   8.290 -0.9437  0.5927  1.3591
 5732SOL    HW228833   1.542   0.415   8.375  0.6069  0.9466  0.2216
 5733SOL     OW28834   3.693   1.756   2.921  0.3081 -0.0992 -0.3339
 5733SOL    HW128835   3.718   1.803   3.000  0.7443 -1.3067  0.2438
 5733SOL    HW228836   3.759   1.686   2.923  0.0212 -0.3601 -0.0980
 5734SOL     OW28837   1.807   3.660   2.526  0.3398  0.2736 -0.3692
 5734SOL    HW128838   1.732   3.616   2.565  0.5369  0.1990 -0.0729
 5734SOL    HW228839   1.783   3.668   2.434  0.0648  1.1399 -0.2294
 5735SOL     OW28840   0.878   1.712   4.853  0.1809  0.0447 -0.1601
 5735SOL    HW128841   0.785   1.692   4.859  0.2955  0.0164  1.4459
 5735SOL    HW228842   0.866   1.802   4.823 -0.4384  0.2844  0.8068
 5736SOL     OW28843   0.078   2.856   2.619  0.0132 -0.2415  0.0292
 5736SOL    HW128844   0.161   2.845   2.665 -1.1125 -0.0670  2.0821
 5736SOL    HW228845   0.095   2.919   2.549  0.2666  0.1588  0.4561
 5737SOL     OW28846   0.760   3.893  16.032 -0.0280 -1.1007 -0.4839
 5737SOL    HW128847   0.791   3.859  15.948  1.3901  1.1588 -0.8681
 5737SOL    HW228848   0.824   3.965  16.029  0.6289 -1.6572  0.0892
 5738SOL     OW28849   4.403   4.403   8.159 -0.5253 -0.0781  0.1024
 5738SOL    HW128850   4.478   4.349   8.132  0.4390  0.8913  0.8567
 5738SOL    HW228851   4.336   4.380   8.094 -0.1916 -2.6839  0.6553
 5739SOL     OW28852   4.038   3.653   2.040 -0.1805  0.1996  0.4589
 5739SOL    HW128853   3.972   3.722   2.037 -1.0448 -0.5746  1.4317
 5739SOL    HW228854   4.006   3.590   1.976 -2.3282  1.4580  0.3181
 5740SOL     OW28855   3.637   0.976   9.157 -0.4393  0.4097  0.1890
 5740SOL    HW128856   3.717   1.028   9.155 -0.4388  0.4972  2.0838
 5740SOL    HW228857   3.674   0.895   9.192  0.3073  0.2141 -1.0442
 5741SOL     OW28858   2.252   3.336   8.531  0.1305 -0.4696  0.0406
 5741SOL    HW128859   2.322   3.275   8.557  0.9339  0.3936 -0.0877
 5741SOL    HW228860   2.261   3.395   8.605 -2.6455 -0.8021  0.6252
 5742SOL     OW28861   1.949   3.905   5.849 -0.1667  0.2421 -0.0583
 5742SOL    HW128862   1.972   3.983   5.798 -1.9367  0.9964  0.3022
 5742SOL    HW228863   1.977   3.927   5.937 -0.4375 -1.9645  0.5685
 5743SOL     OW28864   0.349   3.867   1.168  0.4785 -0.2813  0.3172
 5743SOL    HW128865   0.309   3.784   1.140 -0.4591  0.3691 -0.2707
 5743SOL    HW228866   0.413   3.881   1.098  1.7562 -1.6734  1.1952
 5744SOL     OW28867   3.131   4.660   2.028 -0.5170  0.5392  0.0269
 5744SOL    HW128868   3.119   0.007   1.987 -0.8479  0.2416 -0.5124
 5744SOL    HW228869   3.222   4.669   2.056  0.0419 -3.7352 -0.3656
 5745SOL     OW28870   3.557   3.929   2.520 -0.2004  0.0602 -0.2802
 5745SOL    HW128871   3.652   3.929   2.509 -0.1093  0.8860  0.4656
 5745SOL    HW228872   3.531   3.989   2.449  0.0679  0.7435  0.2001
 5746SOL     OW28873   4.132   1.514   4.203  0.4893  0.5041  0.0243
 5746SOL    HW128874   4.174   1.582   4.150  0.7192 -0.3770 -0.9286
 5746SOL    HW228875   4.079   1.464   4.141 -0.5937 -2.3404  3.3019
 5747SOL     OW28876   1.681   4.639   0.502 -0.1549 -0.3800  0.4775
 5747SOL    HW128877   1.650   4.720   0.543 -2.6821 -1.7731  1.3779
 5747SOL    HW228878   1.661   4.577   0.573 -0.6107 -1.3052 -0.4629
 5748SOL     OW28879   1.353   3.900   8.703 -0.2613 -0.0192  0.2232
 5748SOL    HW128880   1.273   3.909   8.651 -1.1110  1.3838  1.7682
 5748SOL    HW228881   1.320   3.895   8.793 -2.2230  2.1796 -0.3733
 5749SOL     OW28882   4.560   1.203   3.974 -0.4762  0.1378 -0.2954
 5749SOL    HW128883   4.600   1.268   4.032  0.1320 -1.7907  1.4584
 5749SOL    HW228884   4.472   1.197   4.011 -0.6842  1.1468 -0.6297
 5750SOL     OW28885   1.502   1.116   7.070  0.1040 -0.1251  0.3947
 5750SOL    HW128886   1.596   1.100   7.061 -0.0100  0.0518 -1.2304
 5750SOL    HW228887   1.490   1.150   6.981 -0.8072 -1.6210 -0.0542
 5751SOL     OW28888   1.477   1.333   0.971 -0.4455 -0.3227  0.3375
 5751SOL    HW128889   1.400   1.276   0.961  0.0530 -0.9507  0.1015
 5751SOL    HW228890   1.493   1.378   0.888 -0.8809  1.6220  1.3027
 5752SOL     OW28891   4.733   2.775   9.072  0.3750  0.2056 -0.5958
 5752SOL    HW128892   0.035   2.861   9.082 -0.4635  0.6725 -1.0957
 5752SOL    HW228893   0.064   2.711   9.077  0.3004  0.2843  1.5080
 5753SOL     OW28894   2.039   3.074   8.471  0.2070 -0.0903  0.3190
 5753SOL    HW128895   2.006   3.159   8.502 -0.5564  0.4622 -1.9880
 5753SOL    HW228896   2.049   3.089   8.377 -0.1426 -1.3765  0.0794
 5754SOL     OW28897   3.392   2.627  10.943  0.0472  0.0857  0.3517
 5754SOL    HW128898   3.350   2.683  11.008 -2.8396 -2.0953  0.3717
 5754SOL    HW228899   3.482   2.624  10.974  0.3401 -0.8594 -0.5653
 5755SOL     OW28900   4.253   3.747   7.716  0.3542  0.5438  0.0962
 5755SOL    HW128901   4.273   3.664   7.761 -0.0159  1.3727  1.7595
 5755SOL    HW228902   4.166   3.762   7.752 -0.1620 -3.2161  0.4894
 5756SOL     OW28903   3.142   3.393   4.142 -0.4403  0.6557 -0.1987
 5756SOL    HW128904   3.228   3.432   4.154  0.4980 -1.4188 -0.3419
 5756SOL    HW228905   3.163   3.302   4.163 -2.7074 -0.3358 -2.2168
 5757SOL     OW28906   3.231   1.400   5.156  0.4227 -0.1228 -0.1124
 5757SOL    HW128907   3.142   1.368   5.141  1.0063 -0.3393 -3.0475
 5757SOL    HW228908   3.255   1.435   5.070  1.7714  0.3663  0.4691
 5758SOL     OW28909   3.641   2.430   7.269  0.1736 -0.1920  0.0268
 5758SOL    HW128910   3.584   2.503   7.247  0.2745  0.1948  1.0282
 5758SOL    HW228911   3.595   2.365   7.216 -0.0198 -1.3630  1.6066
 5759SOL     OW28912   3.132   4.585  13.364  0.5701 -0.4781 -0.3856
 5759SOL    HW128913   3.124   4.672  13.402  0.2245 -0.6683 -0.0229
 5759SOL    HW228914   3.106   4.601  13.274 -1.4629  0.5409  0.4064
 5760SOL     OW28915   0.227   0.410   5.796 -0.0570 -0.4534  0.1843
 5760SOL    HW128916   0.157   0.472   5.779  2.4570  2.2477 -0.3672
 5760SOL    HW228917   0.254   0.444   5.882  0.0015  2.0914 -0.8618
 5761SOL     OW28918   1.613   1.659   2.400  0.2514 -0.2392  0.0146
 5761SOL    HW128919   1.597   1.569   2.372  0.8968 -0.1255 -0.7557
 5761SOL    HW228920   1.592   1.697   2.315  2.7068  2.6750  0.6875
 5762SOL     OW28921   3.647   4.215   6.599  0.1379 -0.2415  0.0748
 5762SOL    HW128922   3.630   4.140   6.542 -0.5110  0.3439 -0.5036
 5762SOL    HW228923   3.717   4.182   6.655  1.0757  1.2327 -0.2246
 5763SOL     OW28924   1.999   3.138   3.227  0.0661 -0.2732  0.0759
 5763SOL    HW128925   1.933   3.161   3.161 -0.6288  0.4383  1.0191
 5763SOL    HW228926   1.943   3.086   3.284  0.5617  0.3716  1.1563
 5764SOL     OW28927   0.443   3.545  15.810 -0.2874 -0.4621  0.3410
 5764SOL    HW128928   0.365   3.528  15.863 -1.3140  0.6148 -0.8124
 5764SOL    HW228929   0.498   3.602  15.864  0.3635 -1.8460  1.1361
 5765SOL     OW28930   3.924   1.724   6.060 -0.3719  0.2885 -0.0660
 5765SOL    HW128931   3.856   1.670   6.100 -1.3215 -0.0318 -2.1269
 5765SOL    HW228932   3.975   1.777   6.122  1.8624 -1.3553 -0.5449
 5766SOL     OW28933   3.062   0.018   6.970  0.8235 -0.5618 -0.0578
 5766SOL    HW128934   3.086   4.718   7.054 -0.0949 -0.8005  0.0924
 5766SOL    HW228935   2.968   0.025   6.985  0.5918  0.4003 -1.9040
 5767SOL     OW28936   1.360   3.907   2.680  0.3651  0.6131 -0.4677
 5767SOL    HW128937   1.353   3.876   2.590  0.8784  1.0174 -0.6436
 5767SOL    HW228938   1.269   3.919   2.709 -0.5781 -0.2111 -3.0852
 5768SOL     OW28939   2.590   4.661   8.062  0.5880 -0.1898 -0.4691
 5768SOL    HW128940   2.500   4.636   8.041 -0.2888  0.4617  2.5340
 5768SOL    HW228941   2.630   4.574   8.064 -1.9820 -1.3895 -0.7449
 5769SOL     OW28942   1.866   1.403  16.618 -0.2171 -0.1262 -0.0298
 5769SOL    HW128943   1.956   1.370  16.617  0.0378  0.5218  1.2095
 5769SOL    HW228944   1.817   1.321  16.626  0.9981 -1.0107 -1.8315
 5770SOL     OW28945   1.741   0.755   4.851  0.0146  0.4458 -0.1637
 5770SOL    HW128946   1.683   0.690   4.811 -0.0432 -1.0123  2.2972
 5770SOL    HW228947   1.813   0.740   4.790 -0.5884 -1.5934 -0.3661
 5771SOL     OW28948   4.125   1.706   2.035 -0.1071  0.5403  0.3406
 5771SOL    HW128949   4.126   1.647   1.960 -2.4123  2.5968 -1.3295
 5771SOL    HW228950   4.069   1.777   2.003 -0.7875 -0.3748 -0.4972
 5772SOL     OW28951   2.151   1.913   3.129 -0.2702 -0.1766  0.1146
 5772SOL    HW128952   2.108   1.994   3.156  2.5005 -0.0914  4.1900
 5772SOL    HW228953   2.218   1.919   3.197 -0.2625  0.7705  0.0200
 5773SOL     OW28954   4.019   1.782   2.455 -0.3450  0.2109  0.0342
 5773SOL    HW128955   3.992   1.851   2.395 -1.1394 -0.0006  0.1387
 5773SOL    HW228956   3.993   1.699   2.415 -0.3210 -0.3293  1.1432
 5774SOL     OW28957   0.705   2.939   0.063 -0.1206  0.5668  0.0620
 5774SOL    HW128958   0.612   2.942   0.041  0.0664  0.7980 -0.6970
 5774SOL    HW228959   0.705   3.022   0.110  2.8389  0.2898  0.5240
 5775SOL     OW28960   2.424   0.921   7.724  0.4549  0.3725  0.8949
 5775SOL    HW128961   2.491   0.923   7.792  1.4514  1.2802 -0.1329
 5775SOL    HW228962   2.433   0.999   7.669  0.5538  1.9488  3.0966
 5776SOL     OW28963   3.909   4.283   4.619  0.1181 -0.4083  0.5206
 5776SOL    HW128964   3.913   4.374   4.589  1.6561 -0.2074  1.3437
 5776SOL    HW228965   3.901   4.298   4.713  2.7527 -0.0625  0.6889
 5777SOL     OW28966   0.757   2.534   4.032  0.2451  0.1152 -0.0680
 5777SOL    HW128967   0.771   2.451   3.985 -2.0866 -0.7935  0.8773
 5777SOL    HW228968   0.759   2.596   3.959 -1.6581  2.1329  1.6338
 5778SOL     OW28969   4.047   3.084   3.629 -0.0754  0.1452 -0.6358
 5778SOL    HW128970   3.964   3.131   3.641  0.6514  0.7116  2.2418
 5778SOL    HW228971   4.092   3.161   3.594 -1.3957  1.5573  0.7611
 5779SOL     OW28972   0.033   1.343   6.393 -0.6493 -0.5237  0.1470
 5779SOL    HW128973   0.006   1.417   6.339 -0.3389  0.3443  1.1902
 5779SOL    HW228974   0.053   1.396   6.470  1.4493  1.1774 -1.5795
 5780SOL     OW28975   1.024   2.378   0.377  0.0863 -0.5771 -0.4547
 5780SOL    HW128976   0.956   2.326   0.421 -0.4093  0.9021  0.5475
 5780SOL    HW228977   0.970   2.457   0.368 -1.2087 -1.1895  1.9078
 5781SOL     OW28978   3.544   3.916   2.053  0.4329  0.4602  0.1532
 5781SOL    HW128979   3.551   3.979   1.981  0.1969 -0.0504 -0.3173
 5781SOL    HW228980   3.461   3.875   2.029  0.8459  0.5474 -1.4592
 5782SOL     OW28981   0.461   2.909   6.709  0.3735  0.6619  0.1534
 5782SOL    HW128982   0.454   2.983   6.650  0.9550  1.3871  0.9902
 5782SOL    HW228983   0.498   2.839   6.655  0.8180 -1.1516  2.7638
 5783SOL     OW28984   1.670   1.354   2.340  0.1017 -0.5524 -0.2893
 5783SOL    HW128985   1.682   1.299   2.263 -1.5368 -1.5477  0.1757
 5783SOL    HW228986   1.757   1.395   2.341 -0.3142  0.4271 -2.5238
 5784SOL     OW28987   1.920   1.237   9.333  0.6609  0.4461  0.6860
 5784SOL    HW128988   1.917   1.316   9.386 -1.6598  1.3765 -0.8410
 5784SOL    HW228989   1.967   1.186   9.399  2.0467  1.2168  0.3013
 5785SOL     OW28990   0.429   1.324  10.713  0.5110 -0.1913  0.4750
 5785SOL    HW128991   0.457   1.405  10.756  1.7203 -2.4411  3.9784
 5785SOL    HW228992   0.352   1.351  10.663  1.2124  0.3571 -0.3187
 5786SOL     OW28993   4.492   4.227   6.637 -0.5155 -0.3480 -0.0323
 5786SOL    HW128994   4.580   4.196   6.657 -0.4549  0.2153  0.5568
 5786SOL    HW228995   4.464   4.248   6.726  1.5695 -0.1659  0.5804
 5787SOL     OW28996   1.999   2.776   0.916  0.5182 -0.6074 -0.1486
 5787SOL    HW128997   2.086   2.744   0.891  1.7059  0.6712  2.4836
 5787SOL    HW228998   1.977   2.715   0.986  0.8839  0.4784  0.9044
 5788SOL     OW28999   3.160   1.643  11.488 -0.0750 -0.2725 -0.1072
 5788SOL    HW129000   3.210   1.716  11.526 -3.6405  1.5175  1.1492
 5788SOL    HW229001   3.080   1.687  11.458 -0.9351  0.5343  3.4022
 5789SOL     OW29002   2.574   3.085   7.723  0.0743 -0.2090  0.6951
 5789SOL    HW129003   2.567   3.180   7.729  0.6360 -0.0979 -0.3573
 5789SOL    HW229004   2.529   3.067   7.640  0.7826  1.0429  0.0509
 5790SOL     OW29005   0.897   2.612  14.493 -0.0425 -0.3895 -0.3553
 5790SOL    HW129006   0.834   2.640  14.427 -0.9836 -1.1355  0.2116
 5790SOL    HW229007   0.959   2.684  14.498  2.5141 -2.6994  1.3975
 5791SOL     OW29008   2.501   4.227   1.514 -0.1983  0.4869  0.5672
 5791SOL    HW129009   2.557   4.303   1.531  0.8500 -0.3962  1.0038
 5791SOL    HW229010   2.537   4.167   1.578  0.0498  0.0137 -0.0187
 5792SOL     OW29011   4.148   4.583   6.530  0.5172 -0.3208 -0.3380
 5792SOL    HW129012   4.226   4.625   6.495  0.2290  1.8064  1.5916
 5792SOL    HW229013   4.147   4.496   6.489  0.7069 -1.1019  1.3236
 5793SOL     OW29014   2.520   3.398   6.185 -0.2143  0.1443 -0.1614
 5793SOL    HW129015   2.468   3.320   6.202 -0.4584  0.8462  2.3334
 5793SOL    HW229016   2.574   3.404   6.263 -0.7511  4.1948 -0.1048
 5794SOL     OW29017   1.707   1.967  17.636  0.3880 -0.0582 -0.5909
 5794SOL    HW129018   1.704   1.970  17.540  3.1680 -0.3161 -0.6949
 5794SOL    HW229019   1.636   2.025  17.661  2.0870  1.8730 -0.2671
 5795SOL     OW29020   2.418   3.272   2.767  0.4259  0.5120  0.0701
 5795SOL    HW129021   2.399   3.272   2.861 -1.2146 -0.1495 -0.2678
 5795SOL    HW229022   2.392   3.362   2.748  1.0598  0.4167 -1.2388
 5796SOL     OW29023   2.141   0.591   2.425 -0.3159  0.0163  0.3605
 5796SOL    HW129024   2.074   0.526   2.404 -0.2766  0.4789 -1.2372
 5796SOL    HW229025   2.218   0.534   2.422 -0.9222 -0.7472 -0.5837
 5797SOL     OW29026   3.394   0.157   2.351 -0.3497  0.2542  0.1322
 5797SOL    HW129027   3.317   0.213   2.342 -0.1703  0.3821 -0.6143
 5797SOL    HW229028   3.388   0.094   2.279  1.9338 -1.0955  1.1167
 5798SOL     OW29029   0.342   2.094   1.625 -0.6228  0.3578  0.0024
 5798SOL    HW129030   0.316   2.097   1.717 -2.1497  1.0193 -0.4601
 5798SOL    HW229031   0.383   2.180   1.623  0.2998 -0.1664 -3.1924
 5799SOL     OW29032   0.074   1.981   9.826 -0.0909  0.6505 -0.7204
 5799SOL    HW129033   0.014   2.011   9.758 -0.8089 -1.0236 -0.8433
 5799SOL    HW229034   0.093   1.894   9.790  1.2737  1.0645 -1.0276
 5800SOL     OW29035   0.805   1.184  11.574  0.8662 -0.4877  0.7237
 5800SOL    HW129036   0.725   1.230  11.548  0.4733 -0.6180  1.6981
 5800SOL    HW229037   0.756   1.117  11.621 -0.6136 -0.5297 -0.9003
 5801SOL     OW29038   2.701   3.191  15.083 -0.4511  0.1544  0.4949
 5801SOL    HW129039   2.749   3.267  15.051 -1.2370  0.4779  0.0820
 5801SOL    HW229040   2.682   3.151  14.999 -0.1005 -0.9268  0.9362
 5802SOL     OW29041   1.162   2.912   2.306  0.8042 -0.0476  0.6118
 5802SOL    HW129042   1.131   2.839   2.253 -0.0593  1.0455 -0.4046
 5802SOL    HW229043   1.077   2.941   2.340  0.4984 -0.1821 -0.0436
 5803SOL     OW29044   4.047   4.309  13.775 -0.1398 -0.1506 -0.2376
 5803SOL    HW129045   3.975   4.359  13.814 -0.6207  0.6485 -2.1489
 5803SOL    HW229046   4.104   4.376  13.738  1.0461  0.4038  2.5479
 5804SOL     OW29047   1.299   4.034   5.852  0.2731  0.1893  0.1344
 5804SOL    HW129048   1.270   3.949   5.819  0.3734 -0.0096  0.5543
 5804SOL    HW229049   1.379   4.013   5.901  0.5460 -1.4759 -1.0037
 5805SOL     OW29050   1.757   3.246   5.113  0.6077 -0.7436  0.6167
 5805SOL    HW129051   1.666   3.271   5.101  1.2699  1.2992  0.0154
 5805SOL    HW229052   1.741   3.166   5.164  0.3520 -0.7932  0.4565
 5806SOL     OW29053   3.822   3.063  11.164 -0.2957 -0.8008 -0.0086
 5806SOL    HW129054   3.812   2.968  11.159 -1.8577 -0.5858 -1.2215
 5806SOL    HW229055   3.900   3.069  11.219 -0.4354 -0.4312  0.1461
 5807SOL     OW29056   3.939   1.068   3.693 -0.3679  0.0352  0.1638
 5807SOL    HW129057   3.929   1.162   3.676 -1.4934 -0.1524 -0.1789
 5807SOL    HW229058   4.029   1.077   3.726 -0.3873  0.3678  0.1259
 5808SOL     OW29059   3.726   1.257   1.311  0.5936  0.5589  0.0771
 5808SOL    HW129060   3.788   1.317   1.351 -0.4795  0.4276  1.9145
 5808SOL    HW229061   3.752   1.175   1.353 -0.4021  0.2104  0.0062
 5809SOL     OW29062   3.669   2.699   2.946 -0.0544  0.5455 -0.4915
 5809SOL    HW129063   3.595   2.683   2.887 -1.0418 -0.0818  0.9038
 5809SOL    HW229064   3.632   2.724   3.031  0.8818  0.1768  0.0241
 5810SOL     OW29065   3.485   0.012  10.106  0.0220  0.1178  0.6787
 5810SOL    HW129066   3.500   4.694  10.031 -1.7452  0.4445  0.0866
 5810SOL    HW229067   3.401   0.057  10.098 -1.9811 -4.0116 -1.6950
 5811SOL     OW29068   3.032   4.296   3.158  0.0114 -0.1070  0.1233
 5811SOL    HW129069   3.093   4.286   3.230 -0.5887  0.5646  0.7161
 5811SOL    HW229070   3.021   4.202   3.141 -2.8499 -0.2625  2.7060
 5812SOL     OW29071   2.792   2.695   1.743 -0.3201 -0.2556  0.0453
 5812SOL    HW129072   2.826   2.663   1.826  0.3563  0.2415 -0.0433
 5812SOL    HW229073   2.719   2.751   1.770 -1.6810 -1.4804 -1.0289
 5813SOL     OW29074   0.593   4.276   4.876 -0.1550 -0.2811 -0.5135
 5813SOL    HW129075   0.540   4.343   4.832  2.1032  1.1608 -1.0670
 5813SOL    HW229076   0.614   4.211   4.809 -0.8262  0.8962 -1.8809
 5814SOL     OW29077   2.216   2.677   1.096 -0.7175  0.1428  0.6108
 5814SOL    HW129078   2.292   2.648   1.146  0.1170  2.1630  0.4969
 5814SOL    HW229079   2.259   2.710   1.018 -1.6879  1.7551  0.7461
 5815SOL     OW29080   3.179   0.876   5.878  0.3656 -0.0560 -0.0019
 5815SOL    HW129081   3.267   0.894   5.911  0.1952  1.4852 -0.4067
 5815SOL    HW229082   3.144   0.964   5.888 -0.0577 -0.0785 -1.3925
 5816SOL     OW29083   3.038   4.507  14.771 -0.4397 -0.1324  0.4047
 5816SOL    HW129084   3.037   4.592  14.815 -2.9812 -0.3245  0.7328
 5816SOL    HW229085   3.129   4.487  14.752 -0.9774 -1.2111 -1.0733
 5817SOL     OW29086   0.177   4.023   7.141 -0.2072 -0.4235  0.2706
 5817SOL    HW129087   0.218   4.109   7.148 -3.0743  0.9384  0.2818
 5817SOL    HW229088   0.160   3.996   7.231 -0.5003 -2.3328 -0.3518
 5818SOL     OW29089   2.423   4.433  15.260  0.5355  0.1281  0.1069
 5818SOL    HW129090   2.385   4.424  15.172 -0.8561  0.2875  0.6784
 5818SOL    HW229091   2.459   4.521  15.253  0.6304  0.0986  0.2251
 5819SOL     OW29092   0.335   1.930   3.802  0.2882  0.4396 -0.3436
 5819SOL    HW129093   0.243   1.951   3.785 -0.1598  0.2032  1.7472
 5819SOL    HW229094   0.390   1.995   3.757 -0.6055 -0.7225 -3.1261
 5820SOL     OW29095   1.138   3.031   5.138 -0.0348 -0.0241 -0.5126
 5820SOL    HW129096   1.207   3.000   5.197 -0.1677  1.7835  0.6115
 5820SOL    HW229097   1.082   2.955   5.126 -0.8101  0.5074 -0.2807
 5821SOL     OW29098   1.066   1.888   6.748  0.5040  0.2475  0.1389
 5821SOL    HW129099   0.995   1.860   6.690  1.6682 -1.8375 -0.2585
 5821SOL    HW229100   1.077   1.980   6.723 -1.0904  0.4036 -0.0001
 5822SOL     OW29101   1.274   3.569   0.330  0.1046 -0.3993 -0.5972
 5822SOL    HW129102   1.360   3.608   0.349 -1.3110  2.2218  0.4510
 5822SOL    HW229103   1.266   3.593   0.237 -0.9570  0.1702 -0.3544
 5823SOL     OW29104   4.622   1.534  15.156 -0.4120 -0.8370 -0.6888
 5823SOL    HW129105   4.616   1.447  15.197 -1.5022 -0.3554  0.1694
 5823SOL    HW229106   4.711   1.527  15.120  0.5958  4.1340  0.8640
 5824SOL     OW29107   2.223   1.231   7.746 -0.0889 -0.2091 -0.4148
 5824SOL    HW129108   2.243   1.139   7.762  1.9419 -0.0970 -2.2008
 5824SOL    HW229109   2.165   1.243   7.820  1.3043  3.1446  0.1337
 5825SOL     OW29110   3.362   2.259   4.156 -0.4366 -0.2884 -0.0032
 5825SOL    HW129111   3.412   2.320   4.102 -0.6102  0.0668  0.2448
 5825SOL    HW229112   3.276   2.296   4.172 -0.6905 -0.7760 -0.2313
 5826SOL     OW29113   3.569   0.608   7.508 -0.0320 -0.1649 -0.2664
 5826SOL    HW129114   3.547   0.701   7.500 -1.8913 -0.5900  0.1367
 5826SOL    HW229115   3.497   0.567   7.461  1.0553 -1.5498 -0.7468
 5827SOL     OW29116   0.160   3.752   6.186  0.0382 -0.1785 -0.1753
 5827SOL    HW129117   0.247   3.745   6.226  0.1632 -2.7433 -0.9351
 5827SOL    HW229118   0.156   3.847   6.178  1.8365 -0.2746 -2.0937
 5828SOL     OW29119   2.540   3.177   1.968  0.4828 -0.1781  0.2914
 5828SOL    HW129120   2.602   3.240   2.004 -0.2660  1.3431 -1.1053
 5828SOL    HW229121   2.481   3.167   2.042 -0.3640 -2.0980 -0.6452
 5829SOL     OW29122   2.694   3.069  12.870  0.6173 -0.4184 -0.2087
 5829SOL    HW129123   2.640   3.124  12.813  1.0295 -0.3795 -0.5639
 5829SOL    HW229124   2.768   3.052  12.811  0.0397  1.4616 -1.4516
 5830SOL     OW29125   2.642   2.860   2.300  0.1674 -0.1596 -0.3577
 5830SOL    HW129126   2.593   2.934   2.265 -1.0419 -0.6788  0.2230
 5830SOL    HW229127   2.709   2.904   2.352 -0.9092  1.6389 -0.5017
 5831SOL     OW29128   2.532   3.234   0.059 -0.1548  0.1329 -0.0032
 5831SOL    HW129129   2.526   3.138   0.062 -0.2165  0.0690 -2.0582
 5831SOL    HW229130   2.562   3.248   0.149 -2.4880 -0.1389  0.8136
 5832SOL     OW29131   0.907   3.401  14.743 -0.1359 -0.0958 -0.5289
 5832SOL    HW129132   0.901   3.328  14.805 -3.8675  1.5123  1.0516
 5832SOL    HW229133   0.990   3.434  14.777 -0.2082 -1.0513  0.5962
 5833SOL     OW29134   4.375   3.034   5.062 -0.1846 -0.1180  0.6247
 5833SOL    HW129135   4.365   2.980   5.141  0.8214 -1.0366  0.1206
 5833SOL    HW229136   4.469   3.023   5.045 -0.6546 -2.7015 -0.1744
 5834SOL     OW29137   4.289   3.072   4.475  0.4360  0.2920 -0.5719
 5834SOL    HW129138   4.377   3.046   4.504  0.1600 -0.1917 -0.1692
 5834SOL    HW229139   4.230   3.033   4.540 -0.8059  0.1097 -1.8181
 5835SOL     OW29140   2.038   2.671   7.395  0.3263 -0.0368  0.1512
 5835SOL    HW129141   2.114   2.627   7.435 -1.6719 -2.6829  1.0687
 5835SOL    HW229142   2.085   2.739   7.347  0.1317 -1.6725 -2.3549
 5836SOL     OW29143   3.912   1.207  10.072 -0.4486 -0.3585  0.5568
 5836SOL    HW129144   3.896   1.121  10.034  0.6683  0.3467 -1.4866
 5836SOL    HW229145   3.891   1.265   9.999  1.2732 -1.3162 -0.6962
 5837SOL     OW29146   3.774   3.608  13.663  0.3337 -0.0642  0.1142
 5837SOL    HW129147   3.680   3.591  13.659 -0.1237  2.2057  1.3296
 5837SOL    HW229148   3.766   3.689  13.712 -0.5770 -0.4007  0.5250
 5838SOL     OW29149   3.117   4.412   7.855  0.4605  0.4667 -0.2219
 5838SOL    HW129150   3.024   4.406   7.877  0.1370  1.8996 -1.1552
 5838SOL    HW229151   3.153   4.335   7.899 -2.9099 -0.9584  0.0517
 5839SOL     OW29152   1.803   0.640  15.602 -0.7684  0.1374 -0.3515
 5839SOL    HW129153   1.857   0.714  15.577  0.4195  0.0447  2.0044
 5839SOL    HW229154   1.815   0.582  15.527  1.4920 -0.3998  0.4446
 5840SOL     OW29155   2.460   0.941  11.791 -0.2564  0.1820  0.3494
 5840SOL    HW129156   2.420   1.025  11.766  2.4144  0.5712 -2.6436
 5840SOL    HW229157   2.543   0.947  11.744 -1.5730  0.5159 -1.9418
 5841SOL     OW29158   2.884   0.763   5.370 -0.4577  0.4640 -0.3163
 5841SOL    HW129159   2.801   0.715   5.373 -0.0599 -0.2462 -0.6823
 5841SOL    HW229160   2.862   0.838   5.315 -1.6938  2.0832  2.3997
 5842SOL     OW29161   0.344   2.044   9.424  0.2183 -1.1832 -0.0833
 5842SOL    HW129162   0.301   2.119   9.465 -1.4628 -1.9568 -0.4421
 5842SOL    HW229163   0.360   1.987   9.499  1.7691  0.1605  0.6082
 5843SOL     OW29164   1.813   1.070   8.815  0.3928 -0.5315  0.1808
 5843SOL    HW129165   1.864   1.040   8.890 -0.6638  0.8387  1.4229
 5843SOL    HW229166   1.723   1.051   8.840  0.1005  0.2852 -0.2736
 5844SOL     OW29167   4.635   2.725   6.398 -0.9015 -0.1686 -0.0868
 5844SOL    HW129168   4.707   2.700   6.340 -0.7599 -0.2451  0.1231
 5844SOL    HW229169   4.639   2.662   6.469  2.0176  0.6097  0.4530
 5845SOL     OW29170   3.003   3.858   3.535  0.3415 -0.2540 -0.0462
 5845SOL    HW129171   2.958   3.836   3.617 -0.2835  3.4625  0.6366
 5845SOL    HW229172   2.922   3.877   3.488 -1.2152  1.9500  3.4935
 5846SOL     OW29173   3.560   4.299   3.327 -0.3390  0.7788  0.2840
 5846SOL    HW129174   3.544   4.229   3.264 -2.8409  2.5196 -0.9786
 5846SOL    HW229175   3.643   4.274   3.369  0.6939  0.3126 -2.0272
 5847SOL     OW29176   1.802   3.133   3.598 -0.4230  0.2276 -0.3611
 5847SOL    HW129177   1.800   3.229   3.603 -0.8054  0.1643  0.5840
 5847SOL    HW229178   1.745   3.110   3.671  2.5122 -1.8745  1.2498
 5848SOL     OW29179   4.189   0.651   6.198 -0.5289  0.8143  0.0545
 5848SOL    HW129180   4.136   0.585   6.153  1.8002 -0.5108 -0.7634
 5848SOL    HW229181   4.200   0.720   6.134  0.5547  0.9517  0.3975
 5849SOL     OW29182   4.460   2.496   8.844  0.1686  0.8949 -0.4750
 5849SOL    HW129183   4.435   2.558   8.775  3.1058  0.2103 -2.2043
 5849SOL    HW229184   4.493   2.561   8.906 -1.4092 -0.2264  1.5117
 5850SOL     OW29185   3.467   2.258  14.067  0.6142 -0.2311 -0.0551
 5850SOL    HW129186   3.422   2.331  14.023 -2.3346 -0.5626  2.3865
 5850SOL    HW229187   3.543   2.242  14.011  0.8804 -0.9568  0.5201
 5851SOL     OW29188   1.937   2.203   1.892 -0.1528  0.3179 -0.2441
 5851SOL    HW129189   1.926   2.290   1.854 -2.1533 -0.7430 -2.1048
 5851SOL    HW229190   2.032   2.197   1.881  0.1277  0.7155  1.9944
 5852SOL     OW29191   3.038   4.438   4.254  0.3900  0.0487  0.7430
 5852SOL    HW129192   3.077   4.356   4.284  0.2540 -0.5857 -0.8644
 5852SOL    HW229193   3.018   4.476   4.340 -2.9602 -2.2497  0.9687
 5853SOL     OW29194   0.909   2.474   5.616 -0.5094 -0.3299 -0.4099
 5853SOL    HW129195   0.850   2.449   5.687 -0.5513  1.7036  0.2750
 5853SOL    HW229196   0.979   2.521   5.661 -0.7517 -1.7185  1.3769
 5854SOL     OW29197   0.690   3.304   8.618 -0.2540 -0.4199  0.2289
 5854SOL    HW129198   0.612   3.260   8.586 -2.4874  2.5261  1.5516
 5854SOL    HW229199   0.709   3.354   8.539  1.8803  0.3180  1.1859
 5855SOL     OW29200   1.454   3.383   7.449 -0.3609 -1.1037  0.5497
 5855SOL    HW129201   1.506   3.313   7.408  1.7233 -0.3343  1.8637
 5855SOL    HW229202   1.470   3.455   7.387 -2.5766 -0.4494  0.7684
 5856SOL     OW29203   4.056   3.912   8.153 -0.3396  0.1710 -0.1719
 5856SOL    HW129204   3.966   3.880   8.158  0.2008 -1.2454  0.6654
 5856SOL    HW229205   4.093   3.891   8.239 -0.0030 -1.8734 -0.8172
 5857SOL     OW29206   2.876   2.106   5.196  0.0675 -0.8571 -0.1901
 5857SOL    HW129207   2.788   2.140   5.177  0.5550 -1.2349 -3.1536
 5857SOL    HW229208   2.900   2.055   5.119 -0.7617 -1.9661  0.2901
 5858SOL     OW29209   4.700   1.066   8.312 -0.3555  0.0571 -0.2086
 5858SOL    HW129210   0.017   0.992   8.334  1.2909  0.2502 -3.7480
 5858SOL    HW229211   4.718   1.131   8.380 -2.1231  1.4217 -1.0462
 5859SOL     OW29212   3.896   0.271   7.401  0.0264  0.2740  0.0832
 5859SOL    HW129213   3.893   0.336   7.332 -0.7118  1.3021  1.0797
 5859SOL    HW229214   3.839   0.312   7.466 -0.8160 -0.3532 -0.2549
 5860SOL     OW29215   4.198   2.538   1.460 -0.3385  0.0007  0.5248
 5860SOL    HW129216   4.235   2.614   1.414  1.5421 -1.1786  0.1170
 5860SOL    HW229217   4.210   2.562   1.552 -0.0764 -0.8342  0.7012
 5861SOL     OW29218   0.821   2.752  12.488 -0.2667  0.3940  0.2610
 5861SOL    HW129219   0.769   2.832  12.496  0.1946  0.7707 -0.4594
 5861SOL    HW229220   0.770   2.711  12.418  0.6818 -2.4268  1.2214
 5862SOL     OW29221   0.704   3.287   3.275  0.0146  0.3702  0.3189
 5862SOL    HW129222   0.785   3.261   3.318  0.2323 -0.6104 -0.6900
 5862SOL    HW229223   0.689   3.377   3.306 -1.7381 -0.8260  2.9549
 5863SOL     OW29224   2.005   0.887   4.381  0.3667 -0.6397 -0.2069
 5863SOL    HW129225   2.061   0.814   4.404  1.2194  0.4223  1.0739
 5863SOL    HW229226   2.047   0.961   4.425 -4.4779  0.5463  2.5011
 5864SOL     OW29227   2.191   2.286   8.530 -0.2108  0.4413  0.1036
 5864SOL    HW129228   2.285   2.284   8.511 -0.7231  1.5492 -2.4210
 5864SOL    HW229229   2.158   2.269   8.442  1.6980 -2.0975 -0.1378
 5865SOL     OW29230   1.583   1.281  16.800 -0.2574 -0.1110  0.0865
 5865SOL    HW129231   1.491   1.305  16.808 -0.2050 -0.0239  0.4336
 5865SOL    HW229232   1.596   1.261  16.708  1.1714  0.3549  0.1780
 5866SOL     OW29233   3.314   2.846   8.877 -0.2339 -0.2385 -0.2069
 5866SOL    HW129234   3.371   2.790   8.929  0.6671  0.7137 -0.1640
 5866SOL    HW229235   3.352   2.840   8.789 -3.5051  0.6431 -1.6868
 5867SOL     OW29236   2.909   3.520   6.010 -0.0533 -0.5400  0.1399
 5867SOL    HW129237   2.832   3.467   5.989  1.7767 -2.1043 -2.6155
 5867SOL    HW229238   2.876   3.556   6.092 -1.2748  0.8393 -0.9595
 5868SOL     OW29239   1.443   4.574   3.536  0.1171 -0.6773 -0.4270
 5868SOL    HW129240   1.537   4.576   3.518  0.1923 -1.0579 -0.0836
 5868SOL    HW229241   1.424   4.667   3.547  1.5541 -0.4994  0.6135
 5869SOL     OW29242   1.646   1.035   7.968 -0.0147  0.1405  0.4463
 5869SOL    HW129243   1.636   1.120   8.011  0.7731  0.0354  0.8565
 5869SOL    HW229244   1.740   1.015   7.977  0.2118 -0.2322 -3.0067
 5870SOL     OW29245   0.240   2.835   5.978 -0.0499  0.2072 -0.0383
 5870SOL    HW129246   0.243   2.860   6.070  0.9738 -0.4393  0.0953
 5870SOL    HW229247   0.146   2.835   5.961  0.5769  0.5130 -3.4293
 5871SOL     OW29248   1.294   3.238   3.917  0.1621  0.1384  0.3065
 5871SOL    HW129249   1.259   3.240   3.828 -0.9187 -5.0356  0.5959
 5871SOL    HW229250   1.254   3.317   3.952  1.7144 -0.1617  2.7535
 5872SOL     OW29251   1.121   4.238   4.585  0.5568 -0.1609 -0.0966
 5872SOL    HW129252   1.096   4.183   4.660 -2.3974 -1.3731 -1.9436
 5872SOL    HW229253   1.204   4.192   4.572  0.2585 -1.3978  2.2899
 5873SOL     OW29254   4.068   1.119  10.293  0.3590 -0.5483  0.2349
 5873SOL    HW129255   4.028   1.161  10.217  1.2326  0.3888  0.2920
 5873SOL    HW229256   4.148   1.172  10.288 -0.7568  1.3777  3.0766
 5874SOL     OW29257   2.518   1.009   7.019 -0.3188  0.5523  0.0084
 5874SOL    HW129258   2.513   1.059   7.101 -0.3243 -1.8837  1.4701
 5874SOL    HW229259   2.526   0.920   7.052 -0.7282  0.7060  0.5182
 5875SOL     OW29260   2.966   0.561  14.177  0.1628 -0.3713  0.0844
 5875SOL    HW129261   3.035   0.557  14.111 -1.1786  0.9592 -1.3937
 5875SOL    HW229262   2.987   0.637  14.231 -1.2364  1.3332 -1.8030
 5876SOL     OW29263   1.082   3.092  16.370  0.2656 -0.5445  0.5223
 5876SOL    HW129264   1.032   3.015  16.343  1.4493 -0.4480 -1.9060
 5876SOL    HW229265   1.061   3.157  16.304  0.2417  0.9362  1.9812
 5877SOL     OW29266   2.275   0.497   6.935 -0.2538  0.2318 -0.0802
 5877SOL    HW129267   2.343   0.441   6.972 -0.2885 -1.3591 -2.4574
 5877SOL    HW229268   2.326   0.535   6.863  0.8065 -0.4686  0.2970
 5878SOL     OW29269   1.987   4.499  15.313  0.4807 -0.5339 -0.1055
 5878SOL    HW129270   1.951   4.427  15.364  2.2577 -1.2908  0.0818
 5878SOL    HW229271   2.062   4.529  15.365 -0.8128  1.4382  0.6520
 5879SOL     OW29272   4.393   1.145   4.655 -0.3995  0.1272  0.1799
 5879SOL    HW129273   4.404   1.050   4.664 -0.6473  0.1213  0.4559
 5879SOL    HW229274   4.427   1.183   4.736 -0.2665  0.1019  0.1354
 5880SOL     OW29275   0.656   1.437  14.417  0.1089  0.2039  0.3445
 5880SOL    HW129276   0.606   1.448  14.337 -0.8401 -2.5096  0.5341
 5880SOL    HW229277   0.740   1.424  14.373 -0.4215 -2.5411  0.0888
 5881SOL     OW29278   2.439   2.617   2.116  0.2936  0.4266  0.0034
 5881SOL    HW129279   2.445   2.688   2.052  1.7022  0.8582  0.6149
 5881SOL    HW229280   2.532   2.599   2.126  0.1818 -0.6524 -0.9343
 5882SOL     OW29281   1.377   1.188   4.516  0.4189  0.1458  0.5469
 5882SOL    HW129282   1.352   1.270   4.474  1.0960  0.2123  0.2711
 5882SOL    HW229283   1.448   1.167   4.454  0.8024 -0.6951  1.2734
 5883SOL     OW29284   3.837   4.338   7.427 -0.6195 -0.1861 -0.4939
 5883SOL    HW129285   3.870   4.300   7.346  0.7586 -0.7832  0.3375
 5883SOL    HW229286   3.768   4.391   7.389  0.1555  0.8324 -0.4658
 5884SOL     OW29287   3.220   0.645   2.635  0.5692 -0.0507 -0.0055
 5884SOL    HW129288   3.185   0.727   2.601 -1.3260 -0.3886  1.1552
 5884SOL    HW229289   3.229   0.597   2.552  0.1283 -0.4380  0.1730
 5885SOL     OW29290   0.985   4.147   7.909  0.1802  0.1092 -0.7516
 5885SOL    HW129291   1.023   4.162   7.996 -0.8880 -2.4920  0.1787
 5885SOL    HW229292   1.056   4.170   7.850 -0.8013  3.3751 -0.6657
 5886SOL     OW29293   1.478   3.755   4.172 -0.6120 -0.8271 -0.3622
 5886SOL    HW129294   1.398   3.801   4.198 -0.3695 -0.9396  0.5725
 5886SOL    HW229295   1.547   3.818   4.188 -1.8987  0.1602  1.2714
 5887SOL     OW29296   4.695   1.067   1.900 -0.1157  0.5027  0.4523
 5887SOL    HW129297   4.654   1.044   1.983 -0.0345 -0.2263  0.2943
 5887SOL    HW229298   4.713   0.981   1.861 -0.8990  1.8670 -2.9113
 5888SOL     OW29299   1.599   4.334   2.393  0.1638 -0.1680 -0.1019
 5888SOL    HW129300   1.582   4.371   2.307  1.4999  0.6387 -0.0133
 5888SOL    HW229301   1.614   4.240   2.378  1.3057  0.0098 -0.0771
 5889SOL     OW29302   4.052   3.925   5.843  0.5883 -0.5461  0.3684
 5889SOL    HW129303   4.045   3.830   5.846 -2.3402 -0.3597 -0.3047
 5889SOL    HW229304   3.961   3.952   5.859  0.6897 -1.0828  1.9016
 5890SOL     OW29305   3.154   2.778   1.850 -0.4469  0.5055  0.0409
 5890SOL    HW129306   3.122   2.782   1.760  0.1231 -0.9264 -0.2353
 5890SOL    HW229307   3.244   2.756   1.824 -0.0537  3.7664 -1.2609
 5891SOL     OW29308   4.338   0.413   6.321  0.2808 -0.0719  0.3405
 5891SOL    HW129309   4.408   0.457   6.273 -1.1154  1.6627 -0.1125
 5891SOL    HW229310   4.298   0.352   6.259 -0.7872  0.6979  0.2681
 5892SOL     OW29311   0.639   2.473  14.528 -0.2568 -0.8678  0.2977
 5892SOL    HW129312   0.609   2.453  14.439  0.7160 -1.2724  0.0643
 5892SOL    HW229313   0.731   2.489  14.506 -0.1974 -0.5201  0.8032
 5893SOL     OW29314   1.255   4.336   8.132 -0.0973  0.2331  0.3273
 5893SOL    HW129315   1.209   4.252   8.124  0.8161 -0.2861  0.5620
 5893SOL    HW229316   1.304   4.330   8.050 -2.6395  1.6870 -1.3001
 5894SOL     OW29317   2.892   4.205  13.906  0.1214 -0.6721 -0.5730
 5894SOL    HW129318   2.902   4.135  13.970  0.1746  2.1975  2.5656
 5894SOL    HW229319   2.797   4.211  13.902  0.0100 -1.6428  0.5993
 5895SOL     OW29320   4.685   1.466   3.448 -0.1833  0.0762 -0.0960
 5895SOL    HW129321   4.737   1.530   3.400  0.9003 -0.4887  0.3276
 5895SOL    HW229322   4.730   1.384   3.425 -0.2017 -0.3339  1.3468
 5896SOL     OW29323   3.446   3.511   5.834  0.6345 -0.3050  0.3528
 5896SOL    HW129324   3.505   3.498   5.908 -1.1741 -0.1793  1.8131
 5896SOL    HW229325   3.402   3.426   5.833 -0.6637  0.3713  1.8682
 5897SOL     OW29326   3.965   3.658   8.671  0.1773  0.3543  0.5166
 5897SOL    HW129327   3.955   3.625   8.582  0.8848  1.0225  0.1922
 5897SOL    HW229328   3.925   3.744   8.666  0.2450  0.4082  0.8904
 5898SOL     OW29329   0.241   3.513  15.991 -0.1556 -0.5403  1.0144
 5898SOL    HW129330   0.220   3.568  16.066 -1.0916 -0.6212  0.8124
 5898SOL    HW229331   0.214   3.432  16.035 -2.0483  1.2411  3.1137
 5899SOL     OW29332   1.593   3.017  10.231  0.1819 -0.5496 -0.5010
 5899SOL    HW129333   1.670   2.992  10.283  1.5889  2.7601 -0.9451
 5899SOL    HW229334   1.614   3.111  10.234  1.7302 -0.8761 -0.7798
 5900SOL     OW29335   3.892   3.506  13.042  0.1489 -0.4184  0.0854
 5900SOL    HW129336   3.984   3.503  13.013  0.1607 -0.9504  0.1785
 5900SOL    HW229337   3.863   3.422  13.006  0.8154 -0.0520 -1.3035
 5901SOL     OW29338   2.889   0.974   2.503 -0.0991  0.0796  0.6768
 5901SOL    HW129339   2.875   1.010   2.415 -0.6599  0.7610  1.0416
 5901SOL    HW229340   2.802   0.986   2.540  0.4248  2.6972  1.0965
 5902SOL     OW29341   0.099   0.141  13.753  0.2823 -0.1370 -0.3379
 5902SOL    HW129342   0.069   0.228  13.780  0.2673 -1.0950  2.7669
 5902SOL    HW229343   0.020   0.119  13.704  2.3402 -4.2834 -1.7963
 5903SOL     OW29344   4.068   0.478  14.001  0.4367  0.8467 -0.1274
 5903SOL    HW129345   4.015   0.535  14.057 -0.4236 -0.4428  0.3695
 5903SOL    HW229346   4.065   0.520  13.916  1.3308  0.5990 -0.2837
 5904SOL     OW29347   0.627   0.714  10.282 -0.6307  0.4138  1.0922
 5904SOL    HW129348   0.572   0.649  10.325  0.1395 -0.9574  0.0174
 5904SOL    HW229349   0.561   0.777  10.254 -1.0854 -1.8609 -2.8754
 5905SOL     OW29350   2.412   4.059   7.744 -0.6049 -0.2715 -0.4263
 5905SOL    HW129351   2.461   3.979   7.729  1.0884  0.7302 -0.2636
 5905SOL    HW229352   2.327   4.026   7.714 -1.5625  1.0816  0.7615
 5906SOL     OW29353   3.821   1.022  16.383 -0.1826 -0.8974 -0.1396
 5906SOL    HW129354   3.818   1.055  16.293 -0.6144 -1.5627 -0.3680
 5906SOL    HW229355   3.900   0.970  16.369 -2.0524 -3.3726 -1.5142
 5907SOL     OW29356   3.741   3.863   3.569 -0.0180  0.1588 -0.1897
 5907SOL    HW129357   3.777   3.922   3.636 -0.8844  0.1514  0.2747
 5907SOL    HW229358   3.647   3.881   3.569 -0.2765 -1.2744 -2.0801
 5908SOL     OW29359   0.063   0.581  11.206  0.0723  0.4639  0.0208
 5908SOL    HW129360   0.009   0.609  11.132 -3.9107 -0.3759  2.5985
 5908SOL    HW229361   4.732   0.529  11.245  0.3494 -0.4463 -0.7108
 5909SOL     OW29362   2.611   2.127  14.195  0.1318 -0.0640 -0.2118
 5909SOL    HW129363   2.552   2.176  14.137  0.1423 -0.8881 -0.9174
 5909SOL    HW229364   2.636   2.198  14.254  0.4722 -0.3679  0.0140
 5910SOL     OW29365   4.167   2.843   7.709 -0.1905  0.2823  0.2074
 5910SOL    HW129366   4.094   2.862   7.649  1.3169  0.0633 -1.6831
 5910SOL    HW229367   4.246   2.858   7.658 -1.1139  0.8059 -1.0924
 5911SOL     OW29368   0.206   2.781   4.543 -0.3600 -0.1249  0.1965
 5911SOL    HW129369   0.118   2.803   4.574 -0.4575 -2.3384  1.4455
 5911SOL    HW229370   0.190   2.744   4.457 -0.5985 -1.2013  0.7048
 5912SOL     OW29371   0.122   4.119   4.609 -0.2558 -0.2856  0.0185
 5912SOL    HW129372   0.026   4.127   4.603 -0.3612 -0.4914  1.3168
 5912SOL    HW229373   0.131   4.024   4.607  0.1838 -0.2640  1.2932
 5913SOL     OW29374   3.124   4.500  16.402 -0.2385 -0.0441  0.3037
 5913SOL    HW129375   3.036   4.507  16.365  0.3869 -1.9911 -1.5560
 5913SOL    HW229376   3.113   4.414  16.442 -0.4770  0.3961  1.1913
 5914SOL     OW29377   4.296   2.685   2.382 -0.6584 -0.7805  0.1963
 5914SOL    HW129378   4.299   2.651   2.471  0.5541 -0.6490  0.1993
 5914SOL    HW229379   4.200   2.692   2.375 -0.4905  2.2393  0.9491
 5915SOL     OW29380   0.565   4.190   6.275  0.0257 -0.0341  0.1030
 5915SOL    HW129381   0.605   4.214   6.359  0.7854 -2.0832  0.3246
 5915SOL    HW229382   0.492   4.135   6.301 -1.7770  2.5000  0.4498
 5916SOL     OW29383   0.265   3.373   1.813 -0.4530  0.2641  0.5982
 5916SOL    HW129384   0.336   3.344   1.871 -1.3347 -0.2328  1.4219
 5916SOL    HW229385   0.224   3.443   1.863  0.2896 -0.1092  1.7346
 5917SOL     OW29386   0.957   0.732   5.169  0.1256 -0.4994 -0.0365
 5917SOL    HW129387   1.003   0.666   5.220  1.2995 -0.1288 -0.6215
 5917SOL    HW229388   1.025   0.762   5.109 -2.0301  1.0146 -1.7276
 5918SOL     OW29389   2.256   4.546   7.498 -0.3302  0.4864 -0.7567
 5918SOL    HW129390   2.285   4.492   7.571  0.9583 -0.0457 -1.6608
 5918SOL    HW229391   2.277   4.485   7.427 -0.7120 -0.6975  0.1552
 5919SOL     OW29392   4.009   4.454   3.520  0.0517  0.2478 -0.0683
 5919SOL    HW129393   3.951   4.529   3.508  0.0713  0.4566  1.1235
 5919SOL    HW229394   4.006   4.429   3.612 -0.8059 -1.2300 -0.4903
 5920SOL     OW29395   3.814   3.476   2.190 -0.4755  0.0387  0.4416
 5920SOL    HW129396   3.777   3.561   2.166  0.2939 -0.1823 -1.4639
 5920SOL    HW229397   3.760   3.460   2.268  1.0172  1.0678  1.6748
 5921SOL     OW29398   2.064   1.471   2.886  0.0356  0.1308 -0.1177
 5921SOL    HW129399   2.018   1.472   2.801  1.2277 -0.0029 -0.7593
 5921SOL    HW229400   2.054   1.566   2.893 -0.9987  0.0703 -0.6843
 5922SOL     OW29401   1.747   1.114   6.563 -0.5382  0.1997  0.1239
 5922SOL    HW129402   1.831   1.120   6.609 -1.5277  1.1227  1.8377
 5922SOL    HW229403   1.765   1.189   6.506  1.6140 -0.4058  0.0187
 5923SOL     OW29404   3.838   2.916   2.436  1.1827  0.5037  0.0645
 5923SOL    HW129405   3.882   2.985   2.485  0.7026  1.0393 -0.2545
 5923SOL    HW229406   3.751   2.954   2.423  0.7413 -0.5601 -0.0999
 5924SOL     OW29407   2.265   0.003  14.709 -0.3570 -0.2096 -0.0158
 5924SOL    HW129408   2.319   4.672  14.746  2.0776  0.7963 -1.6631
 5924SOL    HW229409   2.175   4.718  14.731 -0.3817 -0.5598 -0.5136
 5925SOL     OW29410   3.951   4.371   0.590  0.6047 -0.0020 -0.6037
 5925SOL    HW129411   3.914   4.333   0.669  0.7109 -0.9599 -1.0145
 5925SOL    HW229412   3.907   4.325   0.519 -0.9613  1.0608 -0.3246
 5926SOL     OW29413   3.353   2.499   5.061  0.3390 -0.2120  0.6328
 5926SOL    HW129414   3.390   2.412   5.049  1.0148 -0.0228  1.4117
 5926SOL    HW229415   3.305   2.496   5.143 -0.6544  1.8621  0.1404
 5927SOL     OW29416   1.480   2.553  12.824 -0.0597  0.2556  0.2219
 5927SOL    HW129417   1.561   2.506  12.844  0.8009  1.1835 -1.1042
 5927SOL    HW229418   1.408   2.492  12.835  0.3669 -0.4842 -1.0864
 5928SOL     OW29419   3.844   1.888   8.499  0.4814 -0.0158 -0.4883
 5928SOL    HW129420   3.936   1.876   8.522  0.0931 -1.5183  0.2619
 5928SOL    HW229421   3.832   1.976   8.534  0.3154  0.0900 -0.8046
 5929SOL     OW29422   1.369   3.458   5.590 -0.2590  0.5086 -0.1044
 5929SOL    HW129423   1.386   3.452   5.683 -0.5119  0.1098 -0.0866
 5929SOL    HW229424   1.377   3.366   5.568 -0.7350  0.4295  0.0511
 5930SOL     OW29425   3.852   0.363   3.615  0.2605  0.3876 -0.6478
 5930SOL    HW129426   3.818   0.276   3.638  1.8873  0.2721  1.3319
 5930SOL    HW229427   3.913   0.386   3.685  0.9295  0.7090 -1.3482
 5931SOL     OW29428   4.250   1.210   2.058 -0.1625 -0.3582 -0.1403
 5931SOL    HW129429   4.290   1.270   2.121 -0.1270 -0.5111 -0.0177
 5931SOL    HW229430   4.267   1.266   1.983 -0.1140 -0.4507 -0.1975
 5932SOL     OW29431   4.379   2.119   2.300 -0.0398  0.3715 -0.0056
 5932SOL    HW129432   4.461   2.072   2.285  0.6514  2.1405 -1.7706
 5932SOL    HW229433   4.396   2.168   2.380  0.4121  1.3090 -0.6852
 5933SOL     OW29434   3.110   4.613   5.839  0.7307 -0.1431 -0.2712
 5933SOL    HW129435   3.198   4.617   5.803  1.4977  1.9497  1.7712
 5933SOL    HW229436   3.117   4.664   5.920  2.0376  0.0577 -0.5195
 5934SOL     OW29437   1.101   1.175  16.807 -0.6976 -0.8481  0.6133
 5934SOL    HW129438   1.006   1.171  16.799 -0.8094 -2.3738  2.6310
 5934SOL    HW229439   1.122   1.093  16.762 -1.6858 -0.7039 -0.1000
 5935SOL     OW29440   2.766   1.335   5.614  0.1865 -0.2724 -0.5215
 5935SOL    HW129441   2.775   1.342   5.709 -1.1309 -0.0426 -0.4047
 5935SOL    HW229442   2.671   1.345   5.607  0.2975  0.6031 -0.8882
 5936SOL     OW29443   0.415   0.157   5.312 -0.2206 -0.6437  0.2112
 5936SOL    HW129444   0.338   0.143   5.368  0.3096 -1.1858  0.8039
 5936SOL    HW229445   0.476   0.183   5.381  1.0072  0.5811 -1.3507
 5937SOL     OW29446   1.460   4.509   3.900 -0.0292 -0.1406 -0.1958
 5937SOL    HW129447   1.439   4.570   3.830 -3.9924  0.3772  1.4471
 5937SOL    HW229448   1.408   4.534   3.977  1.2041  1.1348  0.2359
 5938SOL     OW29449   1.052   3.210   3.158 -0.1030 -0.4316 -0.2889
 5938SOL    HW129450   1.049   3.273   3.229 -2.0579 -1.8151  0.8718
 5938SOL    HW229451   0.968   3.163   3.155 -0.0368 -0.5857  0.3514
 5939SOL     OW29452   2.683   1.692  13.728 -0.4766 -0.4471  0.3818
 5939SOL    HW129453   2.717   1.723  13.812  2.8025 -0.2457 -1.0202
 5939SOL    HW229454   2.735   1.612  13.728 -0.9387 -0.7445 -0.3350
 5940SOL     OW29455   2.290   3.662  15.796 -0.6520 -0.3719 -0.1150
 5940SOL    HW129456   2.214   3.617  15.759 -1.7670 -0.0087  1.7674
 5940SOL    HW229457   2.283   3.627  15.885 -1.9442 -0.5000 -0.2662
 5941SOL     OW29458   2.503   0.773   1.784  0.9612  0.4132  0.1506
 5941SOL    HW129459   2.514   0.682   1.812  1.8236  0.1020 -1.2237
 5941SOL    HW229460   2.415   0.758   1.748  0.8468  1.2127  0.1055
 5942SOL     OW29461   2.517   1.066   3.593 -0.1817  0.2330 -0.1426
 5942SOL    HW129462   2.542   0.988   3.543  1.4701 -0.4006  1.6372
 5942SOL    HW229463   2.592   1.069   3.653  0.0393 -2.9912 -0.2624
 5943SOL     OW29464   0.740   0.458   1.677  0.0332  0.4209  0.1358
 5943SOL    HW129465   0.759   0.552   1.675  0.3102  0.4047  1.8874
 5943SOL    HW229466   0.668   0.457   1.740  0.1195 -0.8555  0.2138
 5944SOL     OW29467   0.922   3.177  14.866  0.2897  0.4066  0.0438
 5944SOL    HW129468   0.921   3.085  14.841  2.9189  0.8081 -1.5874
 5944SOL    HW229469   0.886   3.172  14.954 -0.4652  0.8201 -0.2441
 5945SOL     OW29470   4.323   4.053   4.834 -0.4656  0.3302 -0.1079
 5945SOL    HW129471   4.266   4.131   4.836  0.1681  0.7982 -0.3714
 5945SOL    HW229472   4.395   4.106   4.868 -1.1614  1.0182  0.3119
 5946SOL     OW29473   3.188   3.151   3.535 -0.6451  0.2612 -0.0528
 5946SOL    HW129474   3.142   3.082   3.488 -0.3457  0.2223 -0.2887
 5946SOL    HW229475   3.235   3.099   3.600  2.5431  1.2059 -1.6181
 5947SOL     OW29476   4.537   3.714   4.673  0.0848  0.0532  0.0622
 5947SOL    HW129477   4.551   3.641   4.612 -3.9431  0.8174 -1.7587
 5947SOL    HW229478   4.511   3.673   4.756  1.8129  0.7911  0.9667
 5948SOL     OW29479   2.040   0.310   9.482  0.0241  0.8089  0.4038
 5948SOL    HW129480   2.105   0.347   9.423  0.2620 -1.0164 -0.5007
 5948SOL    HW229481   2.061   0.216   9.475  1.5542  1.2990 -1.9218
 5949SOL     OW29482   0.644   1.550   4.850 -0.0621 -0.0637  0.7356
 5949SOL    HW129483   0.612   1.478   4.905  0.7600 -1.8939 -1.1587
 5949SOL    HW229484   0.693   1.509   4.779  0.0191 -0.9234  1.2899
 5950SOL     OW29485   0.843   1.978   4.728 -0.1938 -0.3283 -0.1494
 5950SOL    HW129486   0.923   2.010   4.771  0.8491 -0.2908 -2.1525
 5950SOL    HW229487   0.853   2.028   4.648  0.9430 -0.3379 -0.0148
 5951SOL     OW29488   0.411   2.311   2.326 -0.4217 -0.1690 -0.4763
 5951SOL    HW129489   0.353   2.362   2.383 -0.4569  1.7360 -2.2072
 5951SOL    HW229490   0.358   2.234   2.307  2.3817 -1.6443 -2.3613
 5952SOL     OW29491   2.297   3.209   6.146 -0.2484 -0.0712 -0.4060
 5952SOL    HW129492   2.256   3.134   6.101 -1.6474 -0.4538  1.4798
 5952SOL    HW229493   2.378   3.168   6.177  0.1922  0.1026 -1.3242
 5953SOL     OW29494   1.443   2.906   8.255  0.2605  0.5795 -0.0417
 5953SOL    HW129495   1.537   2.894   8.262 -0.1449 -0.9154  2.8729
 5953SOL    HW229496   1.441   2.967   8.328 -1.0612  2.2659 -1.4756
 5954SOL     OW29497   2.902   1.358   9.378  0.7117  0.4951  0.2306
 5954SOL    HW129498   2.905   1.405   9.295  0.6041 -0.5123 -0.3456
 5954SOL    HW229499   2.811   1.331   9.386  0.1388  1.9070 -1.3951
 5955SOL     OW29500   3.199   0.727   0.066  0.4922 -0.3513  0.0379
 5955SOL    HW129501   3.145   0.701  17.746 -0.2677  1.0463  0.1084
 5955SOL    HW229502   3.191   0.648   0.120 -1.3417 -0.1717  0.0354
 5956SOL     OW29503   2.904   2.622   2.560 -0.0703  0.6142  0.1249
 5956SOL    HW129504   2.979   2.676   2.586  0.0598 -0.0892  1.2423
 5956SOL    HW229505   2.890   2.587   2.648 -1.7921  1.5467  0.2070
 5957SOL     OW29506   2.638   1.775   3.484 -0.3121  0.4298  0.1420
 5957SOL    HW129507   2.578   1.765   3.409  0.7150  3.4856 -1.0745
 5957SOL    HW229508   2.620   1.864   3.514  1.3589  0.1920  1.8188
 5958SOL     OW29509   0.321   0.896   8.499  0.1881  0.1297  0.0745
 5958SOL    HW129510   0.397   0.878   8.554 -0.7849 -0.6511  1.1470
 5958SOL    HW229511   0.255   0.872   8.563 -1.2481  0.9854 -1.0928
 5959SOL     OW29512   1.626   0.295   3.354 -0.4242  0.1405  0.2531
 5959SOL    HW129513   1.688   0.355   3.396  1.2303 -1.9461  0.7811
 5959SOL    HW229514   1.609   0.337   3.269 -0.8576  1.3280  0.9231
 5960SOL     OW29515   3.453   4.679   9.475 -0.5282 -0.2568 -0.3138
 5960SOL    HW129516   3.426   4.699   9.386 -2.9678 -2.8958 -0.1529
 5960SOL    HW229517   3.409   0.007   9.527  1.1306 -1.3278  2.4880
 5961SOL     OW29518   2.292   2.191   3.036 -0.4076  0.6032  0.0736
 5961SOL    HW129519   2.250   2.245   3.104  0.4188 -0.0130  1.0870
 5961SOL    HW229520   2.232   2.215   2.966 -1.0590  0.5231  0.6029
 5962SOL     OW29521   1.590   3.481   2.885 -0.3196  0.3503 -0.0643
 5962SOL    HW129522   1.514   3.538   2.898  0.1774  1.1473 -0.6719
 5962SOL    HW229523   1.582   3.410   2.948  1.6590  2.3734  2.4655
 5963SOL     OW29524   1.955   1.126  14.690  0.2953 -0.1154  0.4968
 5963SOL    HW129525   2.022   1.140  14.624  0.6571  2.1370  1.3454
 5963SOL    HW229526   2.014   1.071  14.742 -0.4295 -2.4057 -1.0925
 5964SOL     OW29527   0.124   1.074  15.207 -0.1129  0.3206  0.1995
 5964SOL    HW129528   0.064   1.114  15.144  0.8218  1.4315  0.0017
 5964SOL    HW229529   0.061   1.048  15.274  0.1943 -2.2515 -0.5075
 5965SOL     OW29530   1.853   1.881   8.111  0.4558 -0.4961  0.3804
 5965SOL    HW129531   1.782   1.823   8.085  1.6871 -1.8949  0.1446
 5965SOL    HW229532   1.858   1.867   8.205 -1.9529 -0.7756  0.4642
 5966SOL     OW29533   2.877   3.392  14.953 -0.0514 -0.2061  0.4695
 5966SOL    HW129534   2.889   3.487  14.954  1.6141 -0.4090  0.7257
 5966SOL    HW229535   2.861   3.367  14.862  2.7519 -0.6583  0.0906
 5967SOL     OW29536   1.584   3.285   9.206  0.4833  0.4411  0.0429
 5967SOL    HW129537   1.606   3.264   9.115 -0.2178  0.0442 -0.0395
 5967SOL    HW229538   1.672   3.302   9.237  1.5738 -0.8078 -2.3993
 5968SOL     OW29539   1.681   1.352  14.989 -1.0181 -0.2141 -0.0409
 5968SOL    HW129540   1.675   1.287  14.918  1.1828 -0.1623 -0.2525
 5968SOL    HW229541   1.602   1.397  14.960 -0.1407  1.9807  1.0087
 5969SOL     OW29542   3.661   1.158   7.668  0.2611 -0.3682  0.0628
 5969SOL    HW129543   3.681   1.118   7.584  2.5293 -0.0893  0.4802
 5969SOL    HW229544   3.570   1.185   7.654  0.7516  0.5629 -1.2436
 5970SOL     OW29545   2.580   2.017   2.500  0.5169 -0.0047 -0.2150
 5970SOL    HW129546   2.672   2.022   2.472  0.7722  0.1704  0.6591
 5970SOL    HW229547   2.593   1.961   2.577 -1.6276 -0.2616 -0.0616
 5971SOL     OW29548   2.197   0.706   5.755 -0.0488  0.0211 -0.1047
 5971SOL    HW129549   2.186   0.682   5.847 -2.3282  2.3161  0.2194
 5971SOL    HW229550   2.235   0.793   5.767  1.9473 -0.7129 -1.1239
 5972SOL     OW29551   3.133   2.496   1.787 -0.4081 -0.2337  0.2400
 5972SOL    HW129552   3.117   2.590   1.788 -1.2495 -0.3897  1.1423
 5972SOL    HW229553   3.104   2.474   1.876 -1.3788 -1.0487 -0.2717
 5973SOL     OW29554   3.561   4.698   6.916 -0.0520  0.3003 -0.8837
 5973SOL    HW129555   3.517   4.613   6.917 -1.8793  1.2509  0.2119
 5973SOL    HW229556   3.484   0.010   6.892  1.1396  1.9946 -1.1129
 5974SOL     OW29557   1.174   0.706   8.097  0.2242  0.5953  0.0780
 5974SOL    HW129558   1.111   0.729   8.029 -0.6247 -1.1914  0.2680
 5974SOL    HW229559   1.196   0.796   8.121 -2.1007  1.1374  0.1984
 5975SOL     OW29560   2.557   2.553   4.547  0.5738  0.7241  0.1252
 5975SOL    HW129561   2.584   2.523   4.634  0.2707 -3.3618 -1.1991
 5975SOL    HW229562   2.481   2.600   4.581 -0.3955  1.4615 -3.1150
 5976SOL     OW29563   2.465   0.375   5.013  0.5106 -0.6286 -0.2656
 5976SOL    HW129564   2.554   0.362   4.982  0.4065 -0.2562 -0.7124
 5976SOL    HW229565   2.459   0.333   5.099  2.0617  0.0218  0.1601
 5977SOL     OW29566   2.409   0.345   8.235 -0.3016  0.2958  0.3883
 5977SOL    HW129567   2.437   0.366   8.324 -1.9836  0.4534  0.8879
 5977SOL    HW229568   2.449   0.419   8.188 -0.1603  0.2493  0.4354
 5978SOL     OW29569   1.441   2.404  11.151 -0.4284  0.4072  0.1179
 5978SOL    HW129570   1.468   2.358  11.231 -1.5361  0.1119  0.3267
 5978SOL    HW229571   1.519   2.444  11.114  1.9647 -2.2774  2.2468
 5979SOL     OW29572   3.831   3.254   5.241 -0.1378 -0.3262  0.2431
 5979SOL    HW129573   3.740   3.245   5.213  0.2366  1.6529 -1.6694
 5979SOL    HW229574   3.872   3.246   5.154 -0.0348 -0.8971  0.3446
 5980SOL     OW29575   2.311   1.681   6.472  0.0719  0.1485 -0.6363
 5980SOL    HW129576   2.226   1.685   6.514  0.2141 -2.6815 -0.1025
 5980SOL    HW229577   2.287   1.708   6.383 -2.9827 -1.8512 -0.4213
 5981SOL     OW29578   2.556   1.752   7.992 -0.8168 -0.3517 -0.2279
 5981SOL    HW129579   2.584   1.816   8.056 -0.1002 -0.3060 -0.5928
 5981SOL    HW229580   2.484   1.797   7.947 -2.0250 -1.2706  0.7705
 5982SOL     OW29581   3.330   1.879   7.559  0.4726  0.5794 -0.2570
 5982SOL    HW129582   3.275   1.952   7.530 -0.3045  0.5533  1.1224
 5982SOL    HW229583   3.386   1.934   7.615 -0.2484  0.3691  0.6686
 5983SOL     OW29584   3.277   4.662  14.615 -0.1125  0.4075  0.4526
 5983SOL    HW129585   3.225   4.737  14.646  1.5815  0.7321  2.4970
 5983SOL    HW229586   3.256   4.664  14.522 -0.6839  1.4042  0.6032
 5984SOL     OW29587   1.831   2.237  17.390 -0.1542 -0.2607  0.4987
 5984SOL    HW129588   1.840   2.234  17.485  1.4668  1.1553  0.3911
 5984SOL    HW229589   1.771   2.311  17.381 -1.6869 -1.6177 -0.5895
 5985SOL     OW29590   4.260   4.223  17.340  0.0482 -0.0163  0.3868
 5985SOL    HW129591   4.170   4.254  17.343 -0.8948 -2.6831  0.1768
 5985SOL    HW229592   4.254   4.142  17.289  2.3881  0.3847 -0.5222
 5986SOL     OW29593   1.935   0.473   0.509  0.3573 -0.2318  0.5371
 5986SOL    HW129594   1.917   0.567   0.498  2.5510 -0.1705 -2.3948
 5986SOL    HW229595   2.030   0.468   0.504  0.1979 -1.7525 -1.0922
 5987SOL     OW29596   1.367   2.295   8.017 -0.3859 -0.3394  0.2961
 5987SOL    HW129597   1.411   2.310   8.101  1.5318  0.0072 -0.7684
 5987SOL    HW229598   1.371   2.384   7.982 -1.5902 -0.5902 -0.4917
 5988SOL     OW29599   2.394   4.458   3.683 -0.1021  0.2633 -0.1935
 5988SOL    HW129600   2.458   4.402   3.639 -1.4341 -1.7868  0.4351
 5988SOL    HW229601   2.309   4.424   3.653  0.5616 -1.5915  0.0096
 5989SOL     OW29602   0.710   4.151   6.847 -0.0573  0.2122  0.5800
 5989SOL    HW129603   0.705   4.099   6.927 -1.5371 -1.6266 -0.6985
 5989SOL    HW229604   0.702   4.234   6.895  0.3382  0.5641  0.0367
 5990SOL     OW29605   2.846   1.722   9.561 -0.1327  0.0553  0.2930
 5990SOL    HW129606   2.853   1.814   9.534 -1.9670  0.3722  0.8694
 5990SOL    HW229607   2.935   1.692   9.549 -1.0286 -2.2154 -0.5967
 5991SOL     OW29608   0.223   0.807  16.558 -0.2758  0.4770 -0.1470
 5991SOL    HW129609   0.128   0.810  16.552 -0.1043  4.3621 -0.7646
 5991SOL    HW229610   0.231   0.812  16.654  1.1412  0.0824 -0.2466
 5992SOL     OW29611   0.235   3.530   6.737 -0.7034 -0.2206  0.0953
 5992SOL    HW129612   0.183   3.557   6.813 -1.3177  0.4833 -0.5791
 5992SOL    HW229613   0.314   3.579   6.757 -0.2820  0.6081 -3.5883
 5993SOL     OW29614   2.324   4.047  12.150 -0.3081 -0.5012 -0.3465
 5993SOL    HW129615   2.410   4.013  12.128  1.2489  2.1877  1.5552
 5993SOL    HW229616   2.328   4.136  12.114  0.4336 -0.4025 -0.0061
 5994SOL     OW29617   3.886   4.425   1.334 -0.3995  0.6757  0.3739
 5994SOL    HW129618   3.824   4.497   1.343  0.3839  1.6025 -1.6923
 5994SOL    HW229619   3.962   4.464   1.376  0.6379 -0.0225 -0.8566
 5995SOL     OW29620   3.338   0.566   4.699  0.4268 -0.1048 -0.0237
 5995SOL    HW129621   3.245   0.562   4.677  0.4117 -0.4970  0.1178
 5995SOL    HW229622   3.358   0.505   4.770  1.4109 -0.9418 -1.0160
 5996SOL     OW29623   3.945   1.712   5.213 -0.0195 -0.3930 -0.8139
 5996SOL    HW129624   3.942   1.663   5.132  0.5994  1.9111 -2.2492
 5996SOL    HW229625   3.875   1.777   5.204 -0.8431 -0.9889  1.1639
 5997SOL     OW29626   4.699   1.802  13.447  0.5937 -0.1827 -0.3200
 5997SOL    HW129627   4.704   1.736  13.378  3.0376  1.1824 -1.4227
 5997SOL    HW229628   4.723   1.755  13.527  0.3084 -0.2473 -0.2696
 5998SOL     OW29629   0.446   2.968  16.178 -0.0537  0.4228 -0.3266
 5998SOL    HW129630   0.424   2.939  16.266  0.5643  1.1230  0.0646
 5998SOL    HW229631   0.411   3.057  16.180 -1.5963 -0.1864 -0.5006
 5999SOL     OW29632   4.271   0.997   7.231 -0.1927 -0.3241 -0.5053
 5999SOL    HW129633   4.279   1.059   7.159 -0.4079  0.4594  0.1471
 5999SOL    HW229634   4.350   1.023   7.278 -0.5891 -1.5888  0.8370
 6000SOL     OW29635   2.617   4.304   9.536 -0.1056 -0.3987  0.5968
 6000SOL    HW129636   2.567   4.295   9.617 -0.0476  1.8558  0.8850
 6000SOL    HW229637   2.707   4.308   9.567  0.3850  2.3635 -1.2289
 6001SOL     OW29638   2.352   1.826   8.598  0.3299 -0.2884 -0.1582
 6001SOL    HW129639   2.418   1.895   8.600  0.4553 -0.4844  2.1308
 6001SOL    HW229640   2.376   1.779   8.518  0.8132 -0.7399  0.2518
 6002SOL     OW29641   2.176   0.615  13.454 -0.1166 -0.1480  0.1932
 6002SOL    HW129642   2.209   0.695  13.495 -0.3280  0.8958 -1.6531
 6002SOL    HW229643   2.132   0.653  13.378  0.2945  1.2119  0.6378
 6003SOL     OW29644   3.495   2.038   7.714  0.1227  0.1834 -0.2623
 6003SOL    HW129645   3.575   2.037   7.766  0.0131  0.7534 -0.0743
 6003SOL    HW229646   3.454   2.109   7.764 -3.1475  0.3551 -3.1886
 6004SOL     OW29647   1.169   1.415   4.592 -0.3873 -0.7945  0.0685
 6004SOL    HW129648   1.083   1.418   4.635 -0.4233 -0.4785 -0.0300
 6004SOL    HW229649   1.162   1.476   4.519 -0.2836 -0.0114  0.7111
 6005SOL     OW29650   0.054   3.727   7.176  0.3018 -0.2004 -0.0412
 6005SOL    HW129651   0.045   3.634   7.157 -0.2275 -0.1138 -0.2155
 6005SOL    HW229652   0.147   3.732   7.198 -0.1579  0.0906  1.8649
 6006SOL     OW29653   2.795   0.805   3.978  0.2768 -0.6655  0.2758
 6006SOL    HW129654   2.740   0.859   3.921 -1.1659 -0.7945  1.5512
 6006SOL    HW229655   2.800   0.723   3.928  1.5012 -0.2363 -0.3066
 6007SOL     OW29656   2.836   1.330   6.582  0.2418  0.2510 -0.8494
 6007SOL    HW129657   2.841   1.377   6.665 -1.7483  2.1042 -1.7618
 6007SOL    HW229658   2.744   1.306   6.576  0.3444 -0.6520  1.2607
 6008SOL     OW29659   2.674   0.535   7.067  0.4136  0.4920 -0.2092
 6008SOL    HW129660   2.621   0.581   7.132 -0.9087 -3.2211  1.3705
 6008SOL    HW229661   2.614   0.464   7.042 -1.3542  1.8723  0.0620
 6009SOL     OW29662   1.318   2.326   5.428 -0.8101  0.1345  0.5000
 6009SOL    HW129663   1.273   2.398   5.472 -0.2066 -0.1409  1.5668
 6009SOL    HW229664   1.237   2.303   5.381  0.1630 -1.4622 -0.3838
 6010SOL     OW29665   4.464   0.706   2.615  0.3972 -0.7472  0.2089
 6010SOL    HW129666   4.524   0.743   2.680  0.6665  0.3569 -0.6560
 6010SOL    HW229667   4.423   0.638   2.668 -0.9580 -0.1189 -0.0097
 6011SOL     OW29668   1.192   4.412   4.193 -0.1900 -0.4697  0.2625
 6011SOL    HW129669   1.267   4.358   4.215 -0.6043 -1.6930 -1.4004
 6011SOL    HW229670   1.122   4.371   4.244  0.7361  1.1993  2.9127
 6012SOL     OW29671   3.686   1.281   1.816  0.0421  0.0291 -0.2623
 6012SOL    HW129672   3.674   1.218   1.887  0.6781  0.1782 -0.0246
 6012SOL    HW229673   3.599   1.287   1.777  0.3893  3.5138 -0.4555
 6013SOL     OW29674   2.793   3.741  10.978 -0.2228  0.0930 -0.0231
 6013SOL    HW129675   2.886   3.757  10.959 -0.3110 -0.4734 -0.9167
 6013SOL    HW229676   2.752   3.792  10.908  1.6576  1.3070 -0.2625
 6014SOL     OW29677   3.190   1.915   2.937  0.8486  0.7592 -0.8875
 6014SOL    HW129678   3.167   1.907   3.030 -0.1564 -1.9762 -1.3655
 6014SOL    HW229679   3.243   1.995   2.943 -0.1364  1.2530  1.1149
 6015SOL     OW29680   2.191   0.171   5.752 -0.1356  0.3826  0.0960
 6015SOL    HW129681   2.203   0.132   5.666 -1.6659 -1.8883  0.8995
 6015SOL    HW229682   2.227   0.259   5.750  0.8003 -0.0324 -1.0629
 6016SOL     OW29683   1.041   1.198   2.366 -0.0658 -0.2140 -0.0509
 6016SOL    HW129684   1.043   1.115   2.319  0.5564 -0.5713  0.6335
 6016SOL    HW229685   1.040   1.259   2.291 -1.5174 -0.4113 -0.1932
 6017SOL     OW29686   1.629   1.490  10.812 -0.1134  0.2021  0.2025
 6017SOL    HW129687   1.659   1.429  10.879  0.2319 -0.4904 -0.5885
 6017SOL    HW229688   1.534   1.496  10.826 -0.3329 -1.3281 -0.6172
 6018SOL     OW29689   0.945   3.772  10.553  0.0798  0.4420 -0.3393
 6018SOL    HW129690   0.902   3.697  10.511 -1.4190  0.3104  1.3992
 6018SOL    HW229691   0.887   3.845  10.534  1.1148  0.9158 -1.6497
 6019SOL     OW29692   2.048   1.508   4.410  0.8661 -0.5976  0.4061
 6019SOL    HW129693   2.125   1.561   4.388  0.2839 -0.2752 -0.8485
 6019SOL    HW229694   2.012   1.494   4.323  0.6108 -0.2289  0.4528
 6020SOL     OW29695   3.823   2.868   6.779 -0.1441  0.4203  0.4652
 6020SOL    HW129696   3.765   2.884   6.853 -1.8039 -1.1949 -0.4826
 6020SOL    HW229697   3.842   2.956   6.747 -0.2214 -0.0506 -0.8966
 6021SOL     OW29698   3.071   2.907   7.486  0.3439 -0.2530  0.1139
 6021SOL    HW129699   3.148   2.906   7.429 -1.1144  2.9560 -1.9440
 6021SOL    HW229700   3.085   2.990   7.532  3.5746 -0.3639 -0.6382
 6022SOL     OW29701   3.176   1.139   8.492 -0.3891 -0.0814  0.6360
 6022SOL    HW129702   3.221   1.157   8.575 -0.5806  0.5857  0.5995
 6022SOL    HW229703   3.084   1.159   8.514 -0.8695  0.4739 -1.8948
 6023SOL     OW29704   4.679   0.240   2.952  0.3996 -0.6315 -0.0944
 6023SOL    HW129705   0.024   0.215   2.990  0.7914 -1.0889 -1.2545
 6023SOL    HW229706   4.621   0.166   2.972  0.6998 -0.0734  2.8508
 6024SOL     OW29707   3.535   2.020  12.377  0.1622  0.1695 -0.3461
 6024SOL    HW129708   3.510   2.024  12.284  0.4753 -2.4977 -0.5419
 6024SOL    HW229709   3.630   2.013  12.370  0.2033  0.7954 -0.4326
 6025SOL     OW29710   4.647   1.536   3.695 -0.5583  0.6556  0.3880
 6025SOL    HW129711   4.735   1.509   3.718 -0.7949 -0.5014 -0.0986
 6025SOL    HW229712   4.644   1.508   3.604 -1.3145  1.4470  0.1605
 6026SOL     OW29713   3.768   0.196   4.772 -0.3192 -0.1610 -0.2196
 6026SOL    HW129714   3.778   0.291   4.780  1.2930 -0.2376 -1.1864
 6026SOL    HW229715   3.681   0.190   4.812 -0.6902  1.4083 -0.8072
 6027SOL     OW29716   3.139   2.532  17.613  0.3388  0.0665  0.1090
 6027SOL    HW129717   3.227   2.554  17.584  1.2030 -0.9421  2.0004
 6027SOL    HW229718   3.090   2.541  17.531  1.1525 -0.5523 -0.4386
 6028SOL     OW29719   1.415   1.725   7.970  0.1429  1.1217 -0.2490
 6028SOL    HW129720   1.472   1.746   8.044  0.5578 -0.6515 -0.0822
 6028SOL    HW229721   1.477   1.750   7.901 -0.1492  0.6910 -0.6629
 6029SOL     OW29722   2.562   3.847  12.671  0.1515  0.1947 -0.3239
 6029SOL    HW129723   2.497   3.912  12.644  0.3956 -0.6869 -3.1270
 6029SOL    HW229724   2.635   3.879  12.618  0.6808  1.9556  1.4644
 6030SOL     OW29725   2.403   1.375   3.893  0.4652 -0.2905 -0.7217
 6030SOL    HW129726   2.458   1.376   3.815  0.6603  0.1076 -0.5802
 6030SOL    HW229727   2.452   1.422   3.960  2.1959 -1.8136 -0.9363
 6031SOL     OW29728   3.034   1.924  13.775 -0.5328 -0.3848 -0.0714
 6031SOL    HW129729   3.074   1.836  13.773 -2.1445 -1.1111 -0.3625
 6031SOL    HW229730   2.955   1.901  13.823  0.2137 -0.9736  0.8725
 6032SOL     OW29731   4.203   4.727   2.436  0.4705 -0.5617 -0.1898
 6032SOL    HW129732   4.178   0.057   2.497  2.1383  2.0754 -2.5045
 6032SOL    HW229733   4.279   0.027   2.393  0.1330 -0.3159 -0.5572
 6033SOL     OW29734   1.358   2.527   3.175  0.0723 -0.3063  0.5459
 6033SOL    HW129735   1.362   2.585   3.099  0.4636 -1.4160 -0.2845
 6033SOL    HW229736   1.269   2.527   3.209  0.4636 -2.4417  1.5878
 6034SOL     OW29737   4.653   2.436   4.275 -0.1215 -0.0022 -0.1834
 6034SOL    HW129738   4.690   2.360   4.321 -0.3616 -1.2212 -2.0237
 6034SOL    HW229739   4.727   2.495   4.291 -1.5687  1.5536  0.8425
 6035SOL     OW29740   3.752   1.635   2.614  0.3843 -0.3021 -0.2888
 6035SOL    HW129741   3.706   1.593   2.686  0.7667  0.0161  0.1417
 6035SOL    HW229742   3.802   1.558   2.588  0.0707  0.0599 -1.9805
 6036SOL     OW29743   1.135   0.320   5.815 -0.4700  0.4316 -0.3153
 6036SOL    HW129744   1.131   0.228   5.842 -0.8759  0.4876 -0.1962
 6036SOL    HW229745   1.043   0.318   5.789 -0.4072  0.8459 -0.5763
 6037SOL     OW29746   4.030   0.104   1.498 -0.3589  0.1328 -0.8188
 6037SOL    HW129747   3.994   0.018   1.519 -4.3290  1.9627  0.0523
 6037SOL    HW229748   3.966   0.149   1.442 -0.0158  0.6592 -0.7809
 6038SOL     OW29749   2.708   1.894   7.523  0.0261  0.3068  0.3027
 6038SOL    HW129750   2.648   1.821   7.540  0.2566  0.0149 -0.1338
 6038SOL    HW229751   2.759   1.899   7.604 -2.5326  2.7934  1.7319
 6039SOL     OW29752   3.550   0.174   7.994  0.4906 -0.3534  0.0315
 6039SOL    HW129753   3.594   0.193   7.911  0.0672 -2.7679 -0.7415
 6039SOL    HW229754   3.472   0.229   7.996 -0.2203 -1.3790  0.8825
 6040SOL     OW29755   2.489   3.593  12.716  0.1225  0.2378 -0.1719
 6040SOL    HW129756   2.487   3.601  12.621 -2.8563 -3.2695 -0.3972
 6040SOL    HW229757   2.517   3.682  12.738 -2.6086  1.3909 -1.3480
 6041SOL     OW29758   0.089   2.703   7.969  0.0080 -0.6684 -0.1575
 6041SOL    HW129759   0.142   2.634   7.929  0.3272 -0.0269 -0.8615
 6041SOL    HW229760   0.115   2.690   8.060 -0.5745 -0.4259  0.0447
 6042SOL     OW29761   3.482   1.833   1.849  0.4444 -0.8906 -0.6178
 6042SOL    HW129762   3.435   1.915   1.831  1.2468 -0.2584  0.1834
 6042SOL    HW229763   3.411   1.783   1.888 -0.3721 -0.3077 -1.3555
 6043SOL     OW29764   4.720   4.337   2.576  0.0802  0.1539  0.3948
 6043SOL    HW129765   0.023   4.275   2.517  0.7343  2.3155 -1.4221
 6043SOL    HW229766   4.661   4.383   2.516 -0.3006 -1.5920 -0.5859
 6044SOL     OW29767   3.370   2.770   8.308 -0.3494 -0.3460 -0.0740
 6044SOL    HW129768   3.336   2.701   8.366 -3.9412  0.9036 -0.6878
 6044SOL    HW229769   3.458   2.786   8.342 -1.2376  0.9085  1.6277
 6045SOL     OW29770   3.049   4.639  10.522  0.1773 -0.3123  0.2866
 6045SOL    HW129771   3.045   4.604  10.433  1.8072  1.1982 -0.3596
 6045SOL    HW229772   2.985   4.588  10.572  0.0173  1.6056  2.0232
 6046SOL     OW29773   4.674   2.238   8.473 -0.1386 -0.0697 -0.4752
 6046SOL    HW129774   4.661   2.239   8.568  3.3395 -0.2798 -0.0157
 6046SOL    HW229775   4.710   2.326   8.462 -0.3633  0.1251  0.3851
 6047SOL     OW29776   0.150   1.222   2.009  0.5024  0.1920  0.3640
 6047SOL    HW129777   0.083   1.165   1.970  0.9500  2.4930 -3.7447
 6047SOL    HW229778   0.107   1.247   2.091  2.2692  2.6895  0.5319
 6048SOL     OW29779   3.157   2.710  11.176  0.6310 -0.7070 -0.9151
 6048SOL    HW129780   3.104   2.774  11.224  0.5095 -1.1926 -0.4036
 6048SOL    HW229781   3.121   2.711  11.087  2.7673 -1.5837 -1.7873
 6049SOL     OW29782   3.298   2.915   7.329 -0.0108  0.2791 -0.7127
 6049SOL    HW129783   3.339   2.833   7.302 -0.0379 -0.2729  0.9036
 6049SOL    HW229784   3.283   2.965   7.249 -2.2629 -1.5612 -1.4342
 6050SOL     OW29785   1.636   0.373   5.204  0.5999  0.0738 -0.1746
 6050SOL    HW129786   1.677   0.371   5.290 -3.4151 -3.1242  1.6787
 6050SOL    HW229787   1.695   0.318   5.153 -0.2591  1.4910 -2.7131
 6051SOL     OW29788   2.209   2.491   4.613 -0.1706 -0.6938  0.2923
 6051SOL    HW129789   2.117   2.515   4.630 -0.0402 -0.1976  0.2952
 6051SOL    HW229790   2.261   2.567   4.639  0.8171 -1.2665 -0.0338
 6052SOL     OW29791   2.577   4.196   6.844 -0.5252  0.3318  0.6761
 6052SOL    HW129792   2.659   4.239   6.818 -2.0032  2.4698 -0.4244
 6052SOL    HW229793   2.531   4.199   6.760  2.2998 -1.1706 -0.9569
 6053SOL     OW29794   1.129   4.025  10.886 -0.0590  0.6921  0.3598
 6053SOL    HW129795   1.171   4.062  10.808 -0.1731  0.2373  0.0797
 6053SOL    HW229796   1.161   4.088  10.950 -1.2690 -0.2968  1.9271
 6054SOL     OW29797   1.283   2.433   7.745  0.0794 -0.6397  0.4518
 6054SOL    HW129798   1.345   2.474   7.805 -0.0275  1.3840 -0.8176
 6054SOL    HW229799   1.271   2.491   7.669  0.3572 -1.6115 -0.3283
 6055SOL     OW29800   0.210   0.793   6.239  0.2467  0.0783  0.4070
 6055SOL    HW129801   0.276   0.795   6.169  1.8778  0.9242  1.9532
 6055SOL    HW229802   0.145   0.731   6.206  0.9462  0.2376 -1.2667
 6056SOL     OW29803   4.677   3.448   1.495 -0.4536  0.2356  0.0387
 6056SOL    HW129804   4.627   3.482   1.421  3.1778  0.7105 -2.1401
 6056SOL    HW229805   4.734   3.523   1.513 -1.4584  0.5565  1.9880
 6057SOL     OW29806   2.884   4.049  16.383 -0.5389 -0.8516 -0.5187
 6057SOL    HW129807   2.971   4.058  16.423  0.2878  0.9069 -2.7579
 6057SOL    HW229808   2.848   4.137  16.397  0.8349 -0.3394 -0.2490
 6058SOL     OW29809   3.972   0.258   8.523  0.2202 -0.3599  0.6778
 6058SOL    HW129810   4.060   0.235   8.493 -0.6161 -2.8850  0.1450
 6058SOL    HW229811   3.925   0.198   8.465 -0.2693  0.7524 -0.0793
 6059SOL     OW29812   3.586   2.057   1.475  0.9991 -0.4991 -0.1658
 6059SOL    HW129813   3.502   2.018   1.499  0.2327  0.9308 -0.5353
 6059SOL    HW229814   3.583   2.039   1.381 -1.6275  0.5900 -0.2912
 6060SOL     OW29815   3.880   1.817  16.272 -0.6149  0.0231  0.0306
 6060SOL    HW129816   3.867   1.815  16.177  0.1470 -2.1422 -0.0385
 6060SOL    HW229817   3.840   1.737  16.306 -2.7470  1.4051  0.7615
 6061SOL     OW29818   3.850   2.687  14.784 -0.0165 -0.0130  0.4660
 6061SOL    HW129819   3.800   2.721  14.709 -0.1165 -1.3590 -0.0801
 6061SOL    HW229820   3.816   2.744  14.853 -1.6295  0.6475 -0.8571
 6062SOL     OW29821   3.012   0.778  14.316 -0.8734 -0.2149  0.0839
 6062SOL    HW129822   3.046   0.863  14.289  0.6614 -1.2945 -1.3527
 6062SOL    HW229823   2.948   0.802  14.384 -1.6288  1.7889 -1.3333
 6063SOL     OW29824   2.635   2.634   5.502 -0.5189  0.2104  0.2877
 6063SOL    HW129825   2.558   2.588   5.470  0.3948 -1.2354  0.1758
 6063SOL    HW229826   2.698   2.563   5.513  1.0195  1.9028  2.5396
 6064SOL     OW29827   4.085   2.945   1.380 -0.7146 -0.2690 -0.4093
 6064SOL    HW129828   4.116   3.027   1.341  0.8190 -0.6207  0.0939
 6064SOL    HW229829   3.993   2.944   1.352 -1.2580  0.2904  1.3473
 6065SOL     OW29830   4.732   2.349   0.597  0.1225 -0.0679 -0.1828
 6065SOL    HW129831   0.086   2.372   0.596 -0.5185  2.6042  0.6708
 6065SOL    HW229832   4.708   2.375   0.686 -2.4154 -1.7109 -0.4050
 6066SOL     OW29833   4.406   3.179   5.506 -0.3463  0.8863 -0.1559
 6066SOL    HW129834   4.384   3.162   5.415  3.9819 -2.4417 -0.6214
 6066SOL    HW229835   4.373   3.104   5.556 -0.6212 -0.5944 -2.5894
 6067SOL     OW29836   4.690   2.396   3.485 -0.5645 -0.1863  0.3481
 6067SOL    HW129837   4.620   2.457   3.459 -1.4110 -1.2072  0.1959
 6067SOL    HW229838   0.020   2.458   3.507 -0.2488 -0.6107  0.5500
 6068SOL     OW29839   1.358   2.450   7.300  0.3468 -0.1810  0.2387
 6068SOL    HW129840   1.433   2.392   7.313 -0.2707 -1.1073 -0.3547
 6068SOL    HW229841   1.379   2.469   7.208 -0.8986 -0.4715 -0.1073
 6069SOL     OW29842   2.872   1.848   6.615  0.3292  0.4007  0.1669
 6069SOL    HW129843   2.922   1.815   6.689  2.1332  0.2596 -1.0992
 6069SOL    HW229844   2.852   1.936   6.647  0.3221  0.5363 -0.2101
 6070SOL     OW29845   3.327   1.557  13.754 -0.6747 -0.1818  0.5376
 6070SOL    HW129846   3.244   1.587  13.791 -1.4649  0.3427 -1.6252
 6070SOL    HW229847   3.374   1.638  13.773  0.5061 -0.7947  0.2033
 6071SOL     OW29848   3.115   4.343  16.818  0.5408 -0.0478 -0.6236
 6071SOL    HW129849   3.140   4.324  16.908  3.5437  4.3715 -0.5446
 6071SOL    HW229850   3.157   4.429  16.809 -0.5992  0.4247 -1.3091
 6072SOL     OW29851   1.378   4.186  16.839 -0.2434  0.5119  0.5067
 6072SOL    HW129852   1.353   4.193  16.931  0.6755 -0.2592  0.8163
 6072SOL    HW229853   1.308   4.141  16.791  0.6675 -1.5763  1.1596
 6073SOL     OW29854   2.544   1.174  12.398 -0.1132 -0.1351  0.5896
 6073SOL    HW129855   2.583   1.146  12.480  1.1333 -1.3504 -0.4111
 6073SOL    HW229856   2.586   1.261  12.396  0.1892 -0.3174 -2.1538
 6074SOL     OW29857   4.711   3.316   2.617  0.2879  0.0232  0.3011
 6074SOL    HW129858   0.038   3.261   2.660  1.2853 -1.4289 -3.0525
 6074SOL    HW229859   0.020   3.354   2.543 -1.4459  3.9997  1.2385
 6075SOL     OW29860   0.035   2.119  17.366  0.0245  0.4884  0.2553
 6075SOL    HW129861   4.711   2.090  17.301  0.6691 -1.8972  0.6885
 6075SOL    HW229862   0.083   2.191  17.325 -0.8323  0.9686  0.0965
 6076SOL     OW29863   0.611   1.351  14.687  0.0174  0.2936  0.6044
 6076SOL    HW129864   0.642   1.357  14.597 -0.0480  0.0769  0.5686
 6076SOL    HW229865   0.645   1.436  14.715 -0.9168  0.4418  1.2916
 6077SOL     OW29866   2.943   1.843  12.829 -0.2490  0.2506  0.1235
 6077SOL    HW129867   2.987   1.843  12.744  1.8442  0.4821  1.2161
 6077SOL    HW229868   2.976   1.763  12.870  1.1983  0.9591  0.3328
 6078SOL     OW29869   4.027   2.920   5.452  0.5805 -0.3233 -0.0940
 6078SOL    HW129870   3.932   2.920   5.466  0.5483 -1.2209 -0.2780
 6078SOL    HW229871   4.042   2.833   5.490 -1.5051 -1.4666 -1.8421
 6079SOL     OW29872   0.040   2.605   0.883  0.2484 -0.1280  0.2069
 6079SOL    HW129873   4.725   2.534   0.919 -0.3872 -1.1289 -2.7491
 6079SOL    HW229874   0.090   2.547   0.825  0.4030  0.7582 -0.5337
 6080SOL     OW29875   3.820   3.989   9.901  0.5658 -0.0693  0.3444
 6080SOL    HW129876   3.916   3.989   9.896  0.5371  1.7832 -0.3559
 6080SOL    HW229877   3.795   3.955   9.815 -1.5761  0.4239  0.7883
 6081SOL     OW29878   0.257   0.815  15.285  0.0922 -0.0678  0.2709
 6081SOL    HW129879   0.333   0.810  15.227  0.1790  2.4658  0.1670
 6081SOL    HW229880   0.220   0.900  15.263 -0.0520 -1.0742 -3.3503
 6082SOL     OW29881   4.680   1.589  13.227  0.0281 -0.2414 -0.6564
 6082SOL    HW129882   0.029   1.619  13.205  0.2209 -1.9311 -2.2235
 6082SOL    HW229883   4.685   1.504  13.270  2.6266  1.4176  2.2390
 6083SOL     OW29884   1.719   1.450  12.001  0.2934  0.2110  0.1201
 6083SOL    HW129885   1.802   1.489  11.973 -0.2825  1.1763 -0.2691
 6083SOL    HW229886   1.701   1.377  11.941 -0.7671 -0.9006  1.7906
 6084SOL     OW29887   2.375   1.755   0.295 -0.5280  0.3744  0.2844
 6084SOL    HW129888   2.421   1.829   0.256  0.2936  1.0758  2.5886
 6084SOL    HW229889   2.358   1.709   0.213  1.3728  0.4591 -0.1500
 6085SOL     OW29890   3.397   3.013   9.414  0.0965  0.4079 -0.6434
 6085SOL    HW129891   3.414   3.043   9.325  0.0834 -0.4478 -0.9356
 6085SOL    HW229892   3.354   3.091   9.450 -1.8270 -0.9682  0.0923
 6086SOL     OW29893   1.163   1.983  13.063  0.1376  0.9097  0.6703
 6086SOL    HW129894   1.218   2.061  13.068  1.3158 -0.1025  3.4046
 6086SOL    HW229895   1.138   1.999  12.972 -1.1071 -0.2091  0.8137
 6087SOL     OW29896   2.421   0.683   8.754  0.8627  0.9291 -0.1190
 6087SOL    HW129897   2.378   0.647   8.676  2.8690  0.0727 -0.8310
 6087SOL    HW229898   2.440   0.772   8.723 -0.0510  1.7390  1.6426
 6088SOL     OW29899   3.876   4.227   7.173  0.0536  1.1685  0.0131
 6088SOL    HW129900   3.797   4.278   7.154 -1.5965 -1.7514 -0.9702
 6088SOL    HW229901   3.928   4.234   7.093 -0.7588 -1.0083 -0.7112
 6089SOL     OW29902   3.759   3.342   9.140 -0.0388 -0.5042 -0.5311
 6089SOL    HW129903   3.784   3.420   9.090 -3.0500  0.1299 -1.0303
 6089SOL    HW229904   3.834   3.283   9.133 -0.1932 -0.3107 -3.9704
 6090SOL     OW29905   1.252   0.294  15.656 -0.3013 -0.0477  0.9015
 6090SOL    HW129906   1.328   0.248  15.620 -1.3614 -1.9721  1.1229
 6090SOL    HW229907   1.201   0.214  15.666 -2.1122  0.7444 -1.8941
 6091SOL     OW29908   3.436   0.157   3.546  0.3520  0.3856 -0.9878
 6091SOL    HW129909   3.346   0.149   3.577  1.3585 -2.4058  1.1943
 6091SOL    HW229910   3.431   0.114   3.461  1.9532 -0.8837 -0.4279
 6092SOL     OW29911   0.935   4.680   9.062  0.2116 -0.3911 -0.6426
 6092SOL    HW129912   1.001   4.720   9.118 -0.4675 -0.1020 -0.0501
 6092SOL    HW229913   0.939   4.590   9.093  1.3589 -0.0446  0.2082
 6093SOL     OW29914   0.104   0.050   7.894  0.5464  0.2246 -0.2666
 6093SOL    HW129915   0.050   0.057   7.972  1.2981  0.3715  0.2372
 6093SOL    HW229916   0.191   0.085   7.917  0.8235 -0.2621 -0.5672
 6094SOL     OW29917   0.977   3.930   4.969  0.5835  0.3730 -0.2711
 6094SOL    HW129918   0.957   3.960   4.880  0.1217  0.2520 -0.2038
 6094SOL    HW229919   1.068   3.957   4.984  0.9635 -0.1666 -1.5574
 6095SOL     OW29920   2.011   4.606  10.801  1.1540  0.1093  0.0995
 6095SOL    HW129921   2.085   4.561  10.842 -0.4613 -0.9070  1.8992
 6095SOL    HW229922   2.049   4.677  10.749  0.0363 -0.3262 -1.3158
 6096SOL     OW29923   4.324   2.952   8.578 -0.3662 -0.2741 -0.2095
 6096SOL    HW129924   4.351   2.995   8.660 -1.8681  1.8557 -0.8357
 6096SOL    HW229925   4.331   2.862   8.611  1.8286 -0.5811 -1.4984
 6097SOL     OW29926   0.139   1.870   6.032 -0.2629 -0.1327  0.2298
 6097SOL    HW129927   0.084   1.809   5.982 -0.8909  1.8588 -1.5046
 6097SOL    HW229928   0.176   1.810   6.097 -1.5237 -0.9587  0.2099
 6098SOL     OW29929   3.717   3.831   1.785  0.0076 -0.2677  0.2488
 6098SOL    HW129930   3.653   3.902   1.779 -0.6317 -0.7451  1.3539
 6098SOL    HW229931   3.795   3.869   1.745 -0.3032  0.9010  0.7662
 6099SOL     OW29932   3.825   0.613   2.560 -0.0117 -0.2924 -0.2252
 6099SOL    HW129933   3.734   0.583   2.558  0.0840 -0.5644 -0.5295
 6099SOL    HW229934   3.817   0.707   2.543  1.4925  0.2449  2.1283
 6100SOL     OW29935   0.229   2.425   6.507  0.6675  0.9420 -0.1457
 6100SOL    HW129936   0.225   2.417   6.412  1.4011  0.5794 -0.1499
 6100SOL    HW229937   0.270   2.341   6.529 -1.1756  0.3179  0.8694
 6101SOL     OW29938   1.151   4.453   2.990  0.5424 -0.0933  0.4093
 6101SOL    HW129939   1.120   4.543   2.979  2.3778  0.5307  0.3656
 6101SOL    HW229940   1.080   4.405   3.031 -1.9056  1.0737 -2.4554
 6102SOL     OW29941   0.306   1.260   4.350 -0.0867  0.2934 -0.6785
 6102SOL    HW129942   0.262   1.282   4.432  1.7846 -1.4169  0.7770
 6102SOL    HW229943   0.398   1.241   4.367 -0.1986 -0.1760 -0.6126
 6103SOL     OW29944   3.367   1.322   6.643  0.0020 -0.1022 -0.5195
 6103SOL    HW129945   3.294   1.379   6.668  0.6257  0.5135 -0.1198
 6103SOL    HW229946   3.324   1.279   6.569 -2.4825  1.7820 -0.1670
 6104SOL     OW29947   0.884   2.805   3.303 -0.1973  0.1630  0.3143
 6104SOL    HW129948   0.874   2.772   3.393  0.5753 -2.4603 -0.5786
 6104SOL    HW229949   0.810   2.757   3.266  1.6462 -2.2324 -0.2424
 6105SOL     OW29950   1.249   0.883   6.499 -0.1987  0.2600 -0.4852
 6105SOL    HW129951   1.315   0.946   6.527 -1.1037 -0.1388  2.5476
 6105SOL    HW229952   1.238   0.826   6.576 -1.3442  0.2639 -0.6571
 6106SOL     OW29953   0.411   1.858   4.052 -0.5309  0.6789  0.6571
 6106SOL    HW129954   0.379   1.895   3.970  0.5429 -2.0039 -0.9811
 6106SOL    HW229955   0.336   1.861   4.110 -0.5736  0.1259  0.6348
 6107SOL     OW29956   1.645   0.978  10.906 -0.1219 -0.5169  0.4061
 6107SOL    HW129957   1.626   0.995  10.998 -0.3361  2.3441 -0.1673
 6107SOL    HW229958   1.573   0.918  10.887 -0.8545 -0.3614  2.7470
 6108SOL     OW29959   3.399   0.884   6.771 -0.0722 -0.1678 -0.3525
 6108SOL    HW129960   3.355   0.924   6.847 -0.8441 -0.5860 -0.5801
 6108SOL    HW229961   3.319   0.870   6.720 -0.2136 -1.2709  0.1537
 6109SOL     OW29962   1.084   1.789   5.314 -0.0774 -0.4761 -0.0396
 6109SOL    HW129963   1.057   1.697   5.315 -0.3277 -0.3813  1.7070
 6109SOL    HW229964   1.144   1.791   5.239  0.4634 -0.1923  0.3996
 6110SOL     OW29965   1.992   2.677   2.720  0.0659  0.8171 -0.2486
 6110SOL    HW129966   2.048   2.733   2.666  1.2148 -0.8937 -0.8294
 6110SOL    HW229967   2.040   2.633   2.791 -1.2192 -0.1264  0.0318
 6111SOL     OW29968   0.613   2.405   6.016 -0.1124 -0.4208  0.5954
 6111SOL    HW129969   0.613   2.424   6.110 -0.3662  1.0761  0.2920
 6111SOL    HW229970   0.567   2.322   6.023  1.3777 -1.5001 -2.8239
 6112SOL     OW29971   0.082   4.565  11.786  0.2483 -0.1575 -0.1988
 6112SOL    HW129972   4.725   4.569  11.790  0.2538  0.1629 -0.4568
 6112SOL    HW229973   0.082   4.579  11.691  2.0722 -1.1067 -0.3377
 6113SOL     OW29974   1.961   4.473   5.320  0.2757  0.1277  0.0149
 6113SOL    HW129975   1.926   4.386   5.341 -4.1699  1.9328  0.1304
 6113SOL    HW229976   2.043   4.462   5.273  1.1272 -0.7335  1.7182
 6114SOL     OW29977   3.022   1.431   0.394 -0.2061  0.2920  0.4105
 6114SOL    HW129978   3.111   1.465   0.394 -0.4490  0.9143 -2.0871
 6114SOL    HW229979   2.974   1.482   0.330 -0.5203 -1.3150 -0.6457
 6115SOL     OW29980   1.165   3.280   5.417 -0.1461 -0.4430  0.0497
 6115SOL    HW129981   1.249   3.311   5.384  0.2603 -1.3538  0.2330
 6115SOL    HW229982   1.142   3.349   5.479 -1.0588  0.0408 -0.8152
 6116SOL     OW29983   2.937   1.061   6.511 -0.1005  0.0475 -0.0985
 6116SOL    HW129984   2.992   1.096   6.441  1.2925 -0.2705  0.8537
 6116SOL    HW229985   2.916   1.145   6.552 -1.1996  0.2517 -1.0741
 6117SOL     OW29986   2.483   2.453   2.503  0.3340 -0.0809 -0.1683
 6117SOL    HW129987   2.482   2.413   2.590  1.2596  0.0518 -0.1007
 6117SOL    HW229988   2.571   2.431   2.472 -0.7294 -1.0975 -2.4722
 6118SOL     OW29989   2.949   3.342   9.169 -0.3997 -0.3653  0.2107
 6118SOL    HW129990   2.968   3.337   9.263  3.0694 -2.0003 -0.5650
 6118SOL    HW229991   2.938   3.436   9.155 -2.4840 -0.5467  0.7041
 6119SOL     OW29992   2.076   1.594   7.995  0.7360  0.3667  0.3440
 6119SOL    HW129993   2.170   1.610   8.001  0.4705  0.9102  3.0526
 6119SOL    HW229994   2.046   1.628   8.079 -3.1836 -1.5152 -0.2820
 6120SOL     OW29995   3.289   2.263   2.401  0.1546 -0.2882  0.0961
 6120SOL    HW129996   3.357   2.224   2.346  0.2818  0.0452  0.0208
 6120SOL    HW229997   3.314   2.355   2.405 -1.6713  0.2871 -1.5483
 6121SOL     OW29998   2.147   1.140  16.123  0.2497 -0.1182  0.3856
 6121SOL    HW129999   2.223   1.169  16.074  0.9330 -1.5249  0.6484
 6121SOL    HW230000   2.106   1.095  16.050  2.1699  2.6068 -2.3780
 6122SOL     OW30001   3.654   3.581   3.097 -0.0817 -0.3419  0.7331
 6122SOL    HW130002   3.664   3.532   3.016  1.6312  0.8896  0.1996
 6122SOL    HW230003   3.661   3.674   3.074 -2.0652 -0.1221  0.9826
 6123SOL     OW30004   3.473   2.407  11.933  0.2514  0.0868  0.1515
 6123SOL    HW130005   3.401   2.463  11.903 -0.3076 -0.9474 -0.4530
 6123SOL    HW230006   3.496   2.379  11.844 -1.5150 -2.8107  0.6237
 6124SOL     OW30007   1.163   2.210   4.503  0.2544 -0.2578  0.1522
 6124SOL    HW130008   1.132   2.277   4.565  2.3763  1.0506 -0.1971
 6124SOL    HW230009   1.257   2.226   4.512  0.1221  1.8557 -2.0841
 6125SOL     OW30010   0.718   3.180   7.897  0.4050 -0.2979  0.0156
 6125SOL    HW130011   0.674   3.111   7.947 -2.8249  0.0634 -2.3492
 6125SOL    HW230012   0.666   3.184   7.817 -0.6123  0.5824  0.7272
 6126SOL     OW30013   2.950   4.375   5.725  0.2408 -0.3127 -0.2677
 6126SOL    HW130014   2.888   4.404   5.791  0.1577  1.7143 -1.2252
 6126SOL    HW230015   3.015   4.446   5.718 -1.5702  1.5976  2.3582
 6127SOL     OW30016   1.042   0.222   1.897 -0.1606  0.0233  0.0637
 6127SOL    HW130017   0.965   0.171   1.872 -1.0892  1.7471 -0.6182
 6127SOL    HW230018   1.001   0.287   1.954 -1.5765 -1.2925  0.5366
 6128SOL     OW30019   2.118   0.396   2.769  0.2121  0.7724  0.3524
 6128SOL    HW130020   2.034   0.374   2.729  0.4958  0.2112  0.0710
 6128SOL    HW230021   2.179   0.334   2.729 -0.3700  0.3335  0.1550
 6129SOL     OW30022   2.172   3.997   7.110  0.3409  0.0929  0.8290
 6129SOL    HW130023   2.234   4.058   7.070  0.8396 -1.0833 -0.1833
 6129SOL    HW230024   2.110   4.063   7.142  0.6496  1.3570 -1.1862
 6130SOL     OW30025   1.493   2.984   4.378 -0.1026  0.2913 -0.7401
 6130SOL    HW130026   1.404   2.975   4.345  0.0193 -0.9152 -0.7317
 6130SOL    HW230027   1.514   3.072   4.346 -0.2650  0.7751  0.4828
 6131SOL     OW30028   3.730   0.239   3.358  0.4399 -0.3640  0.0814
 6131SOL    HW130029   3.721   0.209   3.448 -0.9850  2.5068  0.8703
 6131SOL    HW230030   3.758   0.330   3.358 -2.1017  0.3920  1.3206
 6132SOL     OW30031   3.928   0.200  15.423  0.6267 -0.0176  0.5788
 6132SOL    HW130032   4.002   0.143  15.445  2.0834  0.6120 -2.7203
 6132SOL    HW230033   3.861   0.148  15.466  1.7465 -2.2522 -0.3954
 6133SOL     OW30034   0.953   4.573   4.368 -0.0906  0.0924  0.0045
 6133SOL    HW130035   1.029   4.531   4.329  0.1976 -0.0814  0.7516
 6133SOL    HW230036   0.892   4.502   4.351  0.5364 -0.4805  0.1398
 6134SOL     OW30037   4.210   4.283   2.033  0.1403  0.4394 -0.1577
 6134SOL    HW130038   4.157   4.209   2.065 -0.8615  1.8500  1.5088
 6134SOL    HW230039   4.236   4.326   2.115  1.6941  1.5064 -1.2166
 6135SOL     OW30040   2.380   3.069   6.799  0.2799 -0.5333  0.3515
 6135SOL    HW130041   2.414   3.024   6.721  2.4218  0.4001  0.7419
 6135SOL    HW230042   2.299   3.106   6.766 -0.9612 -1.7894  2.0095
 6136SOL     OW30043   2.975   3.264   9.427 -0.0142  0.4804  0.1770
 6136SOL    HW130044   2.920   3.188   9.407  0.0923  0.2474  0.7510
 6136SOL    HW230045   2.908   3.305   9.481  0.3783 -0.3516  1.3011
 6137SOL     OW30046   0.677   1.021  10.394  0.5421 -0.0154 -0.0494
 6137SOL    HW130047   0.660   1.110  10.425  2.4072  0.6142 -0.8045
 6137SOL    HW230048   0.628   0.964  10.453  1.0410 -1.1371 -0.7037
 6138SOL     OW30049   1.329   4.375   3.176 -0.2096  0.0638  0.3339
 6138SOL    HW130050   1.277   4.427   3.114 -0.4405 -0.9787 -0.3482
 6138SOL    HW230051   1.383   4.441   3.217  0.6478 -0.4121 -0.0277
 6139SOL     OW30052   1.155   3.797   9.891  0.4461  0.6244 -0.4917
 6139SOL    HW130053   1.234   3.762   9.851 -0.0431 -0.0259 -0.8852
 6139SOL    HW230054   1.188   3.885   9.909 -1.4359  1.2774 -0.2355
 6140SOL     OW30055   1.112   4.536   3.688  0.1641 -0.2689 -0.1045
 6140SOL    HW130056   1.172   4.607   3.709  2.9174 -1.9561 -2.3338
 6140SOL    HW230057   1.026   4.574   3.705  1.2019  0.8595  2.5578
 6141SOL     OW30058   4.705   1.823  15.222 -0.5307 -0.0392  0.5850
 6141SOL    HW130059   0.051   1.780  15.210  0.4998  1.9025  0.9581
 6141SOL    HW230060   4.641   1.767  15.177  0.3664  0.8875 -1.8371
 6142SOL     OW30061   2.855   1.420  11.388 -0.0094  0.1497  0.0195
 6142SOL    HW130062   2.781   1.380  11.434  0.2898  1.0907  1.3528
 6142SOL    HW230063   2.822   1.502  11.350 -3.5061 -0.2522  2.1731
 6143SOL     OW30064   2.763   4.343   6.022  0.3766  0.1605  0.0613
 6143SOL    HW130065   2.843   4.295   6.044 -0.3991 -0.9795  0.3601
 6143SOL    HW230066   2.806   4.425   5.997 -0.7761  0.7769  0.0907
 6144SOL     OW30067   4.416   1.062   9.067  0.2763  0.3827 -0.3134
 6144SOL    HW130068   4.391   1.074   8.976  1.3510  1.5977 -0.4426
 6144SOL    HW230069   4.420   0.967   9.079 -0.6283  0.6057  1.8051
 6145SOL     OW30070   0.533   1.729   0.319 -0.3944  1.0748  1.1741
 6145SOL    HW130071   0.441   1.704   0.324  0.4577 -2.2196  0.3973
 6145SOL    HW230072   0.540   1.824   0.323 -2.1226  1.2625 -0.1624
 6146SOL     OW30073   0.695   2.927   2.470 -0.7548 -0.3270  0.0257
 6146SOL    HW130074   0.739   2.982   2.405  0.1252  0.6606  1.4595
 6146SOL    HW230075   0.645   2.872   2.410  0.1368 -0.7397 -0.3432
 6147SOL     OW30076   3.990   3.925  14.051 -0.1890 -0.2683 -0.0662
 6147SOL    HW130077   4.028   3.931  13.963 -2.2632 -0.3330 -0.9478
 6147SOL    HW230078   4.057   3.977  14.097 -0.2275  0.3499 -0.7129
 6148SOL     OW30079   1.404   0.352   5.708  0.3479 -0.5902  0.2568
 6148SOL    HW130080   1.427   0.434   5.752  3.0954 -1.2695  0.0737
 6148SOL    HW230081   1.311   0.341   5.726  0.7757  0.9275  3.4367
 6149SOL     OW30082   0.812   4.559   5.386  0.1759  0.0101 -0.0513
 6149SOL    HW130083   0.763   4.553   5.304 -1.6119  1.6756  0.8808
 6149SOL    HW230084   0.801   4.653   5.400 -0.2815 -0.2548  1.3484
 6150SOL     OW30085   3.562   1.574   3.603 -0.3642  0.0379 -0.4398
 6150SOL    HW130086   3.541   1.593   3.695 -1.0872 -0.6707 -0.4517
 6150SOL    HW230087   3.524   1.489   3.580  0.3536 -0.0477 -1.2850
 6151SOL     OW30088   0.637   1.641   3.016  0.2419 -0.4367  0.2183
 6151SOL    HW130089   0.661   1.733   3.017 -1.0897 -0.0993  1.5804
 6151SOL    HW230090   0.704   1.614   2.953 -0.6166 -3.1417  0.4501
 6152SOL     OW30091   0.879   2.978   9.507  0.2034  0.7007 -0.6639
 6152SOL    HW130092   0.968   2.949   9.528  0.1504  1.3901  0.5387
 6152SOL    HW230093   0.905   3.067   9.479  0.9499  0.8277  0.4529
 6153SOL     OW30094   3.759   1.598  16.398  0.1777  0.8953  0.4017
 6153SOL    HW130095   3.811   1.580  16.477  0.1117  1.2965  0.5385
 6153SOL    HW230096   3.749   1.513  16.355 -0.6051 -0.0464  2.4376
 6154SOL     OW30097   2.470   2.199  15.813  0.6628 -0.4076 -0.9360
 6154SOL    HW130098   2.435   2.136  15.750 -0.9684  0.1418 -0.5935
 6154SOL    HW230099   2.559   2.171  15.793  0.6241 -1.3682  0.2127
 6155SOL     OW30100   4.342   3.351   4.050  0.2887  0.4380 -0.5155
 6155SOL    HW130101   4.370   3.299   3.975 -0.7997 -1.9405  0.7391
 6155SOL    HW230102   4.247   3.350   4.037  0.4718  0.4425 -1.8627
 6156SOL     OW30103   1.165   4.601  13.954  0.4877  0.1112 -0.2217
 6156SOL    HW130104   1.150   4.529  14.016  0.7515  0.9198  0.7809
 6156SOL    HW230105   1.180   4.540  13.881  0.2779  0.0527 -0.2169
 6157SOL     OW30106   1.171   2.411   0.147  0.0915 -0.3537 -0.0851
 6157SOL    HW130107   1.214   2.493   0.173  0.4336 -1.0777  1.6733
 6157SOL    HW230108   1.118   2.391   0.224  2.7179  0.3096  1.9296
 6158SOL     OW30109   4.182   0.422   2.971 -0.0317  0.4317 -0.0014
 6158SOL    HW130110   4.234   0.347   3.002  0.6677  0.5291 -0.9375
 6158SOL    HW230111   4.093   0.389   2.986  0.0992 -0.1651 -0.4970
 6159SOL     OW30112   4.318   1.187   7.543  0.0860 -0.3524  0.4997
 6159SOL    HW130113   4.378   1.162   7.473 -0.5654  0.3605 -0.3042
 6159SOL    HW230114   4.380   1.176   7.616  1.8405 -0.6458 -1.0242
 6160SOL     OW30115   3.181   1.495   6.138 -0.1523  0.3206 -0.2403
 6160SOL    HW130116   3.230   1.543   6.073  2.7535  0.0881  1.7977
 6160SOL    HW230117   3.221   1.549   6.206 -0.9678 -0.0180  0.5222
 6161SOL     OW30118   4.620   0.921  11.992 -1.0409  0.0673 -0.4171
 6161SOL    HW130119   4.537   0.887  12.025 -1.1942  1.4657  0.6112
 6161SOL    HW230120   4.673   0.843  11.977  1.4261  1.5515  0.7677
 6162SOL     OW30121   4.462   4.630   4.739 -0.2530 -0.7099 -0.3421
 6162SOL    HW130122   4.482   4.580   4.660  0.1343 -0.7698 -0.2087
 6162SOL    HW230123   4.368   4.645   4.731 -0.3143 -1.4144 -0.9741
 6163SOL     OW30124   1.281   4.009   2.981 -0.4585 -0.4776 -0.1170
 6163SOL    HW130125   1.251   3.920   2.961  0.2432 -0.6316 -0.4884
 6163SOL    HW230126   1.310   3.990   3.071  1.7517 -0.1812 -0.7883
 6164SOL     OW30127   2.901   2.047   3.655 -0.2124 -0.5340 -0.9092
 6164SOL    HW130128   2.868   2.029   3.567  0.8561 -2.8431 -0.8512
 6164SOL    HW230129   2.949   2.128   3.634  2.2665 -1.0967  2.6716
 6165SOL     OW30130   0.892   4.204  10.418 -0.0020 -0.1251  0.1767
 6165SOL    HW130131   0.884   4.143  10.492 -0.8859  1.7281  1.6140
 6165SOL    HW230132   0.858   4.158  10.341 -3.8010  0.2902  1.5904
 6166SOL     OW30133   2.630   3.628   1.030  0.3504  0.1652  0.1846
 6166SOL    HW130134   2.639   3.698   0.965  1.8544  1.2912  1.6000
 6166SOL    HW230135   2.535   3.635   1.028  0.4200  0.9265 -1.1058
 6167SOL     OW30136   0.044   0.503   2.679  0.1936 -0.0652  0.0168
 6167SOL    HW130137   0.042   0.454   2.597 -0.5091  1.4655 -0.8832
 6167SOL    HW230138   0.069   0.587   2.641  0.1867 -0.5045 -0.9574
 6168SOL     OW30139   2.383   2.758   2.327  0.6430  0.0766  0.0502
 6168SOL    HW130140   2.477   2.777   2.331  0.6516 -0.1829  1.0555
 6168SOL    HW230141   2.371   2.688   2.262 -2.5706 -0.4390  1.2224
 6169SOL     OW30142   2.295   0.686  13.115 -0.4243 -0.0345  0.6065
 6169SOL    HW130143   2.205   0.691  13.147 -0.4277  1.6984  0.3377
 6169SOL    HW230144   2.311   0.598  13.149  0.5450  0.0188  0.2951
 6170SOL     OW30145   0.261   2.803   3.574  0.3016  0.0807 -0.9163
 6170SOL    HW130146   0.337   2.808   3.515  0.7583  1.4418 -0.2223
 6170SOL    HW230147   0.236   2.895   3.573 -2.8871 -0.7723  0.6996
 6171SOL     OW30148   3.310   2.424   3.317 -0.7194 -0.0002 -0.1233
 6171SOL    HW130149   3.312   2.362   3.244  0.4529 -0.4344  0.2952
 6171SOL    HW230150   3.400   2.451   3.330 -0.9615  0.2453  1.0442
 6172SOL     OW30151   1.027   0.650   7.221  0.6821  0.4253  0.5758
 6172SOL    HW130152   1.041   0.556   7.217  0.0117  0.3627 -0.2562
 6172SOL    HW230153   0.961   0.665   7.153 -0.7382  0.7077  2.0229
 6173SOL     OW30154   3.147   2.247   3.004 -0.2396 -0.2296  0.2173
 6173SOL    HW130155   3.054   2.226   3.000 -0.6977  2.4056 -2.6498
 6173SOL    HW230156   3.157   2.272   2.912 -1.2457 -0.3687  0.0673
 6174SOL     OW30157   1.033   0.850   6.309  0.4610  0.3998  0.1653
 6174SOL    HW130158   0.961   0.906   6.338  0.6510  0.6211  0.2093
 6174SOL    HW230159   1.104   0.886   6.362 -0.7980 -1.0033  2.8160
 6175SOL     OW30160   3.568   4.615   5.743 -0.3505  0.6261  0.1106
 6175SOL    HW130161   3.638   4.679   5.757  1.2987 -1.3550  0.8276
 6175SOL    HW230162   3.604   4.535   5.781  0.6779  0.5420 -1.0300
 6176SOL     OW30163   0.138   4.046  15.246  0.3896  1.0906 -0.4003
 6176SOL    HW130164   0.093   3.997  15.178 -1.4961  0.9030  0.9737
 6176SOL    HW230165   0.124   4.134  15.210  0.9955  1.6636  0.7504
 6177SOL     OW30166   4.291   4.366  12.065 -0.7287  0.5461  0.2559
 6177SOL    HW130167   4.334   4.440  12.022  2.1078 -0.6651  1.0152
 6177SOL    HW230168   4.247   4.325  11.990  2.0478 -1.2007 -0.4111
 6178SOL     OW30169   1.510   1.110  14.085 -0.2707  0.3398 -0.0303
 6178SOL    HW130170   1.560   1.191  14.092  1.7633 -0.7937 -1.4414
 6178SOL    HW230171   1.569   1.072  14.020 -0.0475 -0.3159  0.5543
 6179SOL     OW30172   4.111   2.590  11.527 -0.2563 -0.5002 -0.1900
 6179SOL    HW130173   4.102   2.592  11.622  0.8051 -0.3335 -0.0902
 6179SOL    HW230174   4.187   2.535  11.512 -1.8261 -3.4910  2.8581
 6180SOL     OW30175   2.625   2.986   9.621  0.9770  0.0688  0.1568
 6180SOL    HW130176   2.593   2.913   9.674 -1.5250  2.9594  2.5953
 6180SOL    HW230177   2.624   3.056   9.686  1.2448  0.5533 -0.3579
 6181SOL     OW30178   1.293   0.351  14.210  0.7188 -0.1385 -0.0399
 6181SOL    HW130179   1.339   0.430  14.239 -2.5730  1.3676  1.0581
 6181SOL    HW230180   1.297   0.368  14.116 -0.7194  0.0815 -0.0636
 6182SOL     OW30181   2.928   3.770  17.513 -0.8578 -0.1729 -0.1078
 6182SOL    HW130182   2.860   3.833  17.488 -1.5524 -1.2714 -0.9530
 6182SOL    HW230183   2.983   3.790  17.438 -1.3217  2.8860  0.3557
 6183SOL     OW30184   1.413   1.625   6.139  0.5061  0.6876 -0.1271
 6183SOL    HW130185   1.418   1.531   6.124  2.6046  0.6955  0.5767
 6183SOL    HW230186   1.466   1.658   6.067  1.1534 -1.4336 -0.6053
 6184SOL     OW30187   1.782   0.321   5.431 -0.2997 -0.1055 -0.3977
 6184SOL    HW130188   1.736   0.342   5.512  0.1075  0.7742 -0.3927
 6184SOL    HW230189   1.821   0.235   5.446 -0.6575 -0.5017 -1.7369
 6185SOL     OW30190   1.342   1.548   8.450 -0.0273 -0.1822  0.6746
 6185SOL    HW130191   1.273   1.483   8.443 -1.5316  1.3108  1.6477
 6185SOL    HW230192   1.353   1.543   8.545  0.3627  2.9143  0.7827
 6186SOL     OW30193   3.115   4.720   4.747  0.0462  0.3120  0.7120
 6186SOL    HW130194   3.095   0.054   4.805 -2.0171  0.3617 -0.0659
 6186SOL    HW230195   3.181   4.676   4.801  1.1173  1.0162 -0.0273
 6187SOL     OW30196   1.890   0.216   2.799  0.1046  0.3757 -0.0200
 6187SOL    HW130197   1.811   0.266   2.778 -1.2240 -2.2293 -1.2284
 6187SOL    HW230198   1.883   0.146   2.734 -4.1845  0.4248  0.3544
 6188SOL     OW30199   2.320   4.019  17.736  0.0725 -0.1440 -0.0922
 6188SOL    HW130200   2.238   4.035   0.027  0.6607  2.9581 -0.1056
 6188SOL    HW230201   2.289   4.012  17.645 -0.6967  0.3161  0.1357
 6189SOL     OW30202   1.374   1.419   4.368  0.4171 -0.1421  0.2416
 6189SOL    HW130203   1.444   1.467   4.413 -1.8254  2.3092  1.0770
 6189SOL    HW230204   1.312   1.489   4.350  1.6581  0.1953 -2.8433
 6190SOL     OW30205   2.205   4.342   6.810  0.2902  0.1702  0.0229
 6190SOL    HW130206   2.249   4.366   6.728  0.9113 -1.5928 -0.1538
 6190SOL    HW230207   2.167   4.429   6.827 -0.3964 -0.0612 -0.3376
 6191SOL     OW30208   0.229   0.355   5.530  0.2126 -0.8711  0.4996
 6191SOL    HW130209   0.233   0.360   5.625 -1.4953  0.9384  0.4626
 6191SOL    HW230210   0.214   0.261   5.521 -0.7789 -0.8543  2.1745
 6192SOL     OW30211   0.764   2.667   9.365 -0.5780  0.0324  0.6791
 6192SOL    HW130212   0.709   2.590   9.357  1.7232 -1.9884  4.5124
 6192SOL    HW230213   0.842   2.644   9.314 -0.0189  0.2113  1.4511
 6193SOL     OW30214   1.940   3.758  10.307 -0.2665  0.1142 -0.4440
 6193SOL    HW130215   1.976   3.723  10.388  1.0476  0.7992 -0.7275
 6193SOL    HW230216   1.967   3.849  10.320  0.3496  0.1107 -1.6165
 6194SOL     OW30217   0.538   0.204   8.595 -0.8770  0.3197 -0.1666
 6194SOL    HW130218   0.627   0.227   8.621  0.0250 -1.4750 -1.6864
 6194SOL    HW230219   0.540   0.227   8.502  2.1920  1.4479  0.2026
 6195SOL     OW30220   2.374   2.602   6.331 -0.1347  0.3858 -0.3146
 6195SOL    HW130221   2.405   2.519   6.367 -0.4495  0.3240 -0.1882
 6195SOL    HW230222   2.279   2.590   6.327  0.0705 -0.9291 -1.1676
 6196SOL     OW30223   1.523   0.502   5.001 -0.2413  0.4081 -0.0778
 6196SOL    HW130224   1.506   0.431   4.939 -0.7743  0.3856  0.0941
 6196SOL    HW230225   1.549   0.446   5.074  0.4011 -0.2542 -0.8165
 6197SOL     OW30226   4.203   4.073   3.992  0.3416  0.4684 -0.1938
 6197SOL    HW130227   4.294   4.079   4.022 -0.4069 -0.9733  2.3978
 6197SOL    HW230228   4.211   4.091   3.899 -1.4123 -0.8595 -0.6036
 6198SOL     OW30229   2.821   2.857  11.320 -0.4551  0.0148  0.0190
 6198SOL    HW130230   2.885   2.921  11.288 -1.5762  1.1704  0.0501
 6198SOL    HW230231   2.801   2.824  11.232  0.0001 -0.3109  0.0399
 6199SOL     OW30232   0.210   3.621   9.879 -0.2226 -0.0127 -0.0176
 6199SOL    HW130233   0.130   3.581   9.915 -0.5819  0.6520 -0.0688
 6199SOL    HW230234   0.243   3.666   9.957  1.2185  1.1241 -1.2852
 6200SOL     OW30235   4.281   1.876   4.387  0.1175  0.1977 -0.2021
 6200SOL    HW130236   4.291   1.781   4.379 -2.2925 -0.1472  1.1687
 6200SOL    HW230237   4.300   1.895   4.479  2.3000  1.6203 -0.9306
 6201SOL     OW30238   2.000   1.565   4.119  0.2765 -0.3349 -0.0544
 6201SOL    HW130239   2.093   1.568   4.095  0.2343 -1.2518 -0.3340
 6201SOL    HW230240   1.962   1.622   4.053  2.0842 -1.3655 -2.0228
 6202SOL     OW30241   0.864   1.358  11.880 -0.6775  0.5218 -0.6688
 6202SOL    HW130242   0.949   1.389  11.847 -0.5569  2.2965  1.3031
 6202SOL    HW230243   0.898   1.311  11.957  1.8123  3.1825 -0.1063
 6203SOL     OW30244   4.455   1.420   6.651  0.3310 -0.1499 -0.1491
 6203SOL    HW130245   4.513   1.488   6.684  1.7356 -2.2774  1.7140
 6203SOL    HW230246   4.509   1.341   6.657 -0.1751 -0.5016 -0.1580
 6204SOL     OW30247   0.895   3.945   6.233 -0.0226  0.5844 -0.2600
 6204SOL    HW130248   0.881   3.899   6.316  1.8816  2.5257  1.1239
 6204SOL    HW230249   0.859   4.032   6.254  0.7708  0.6559  0.8509
 6205SOL     OW30250   2.978   1.339  10.158  0.1760  0.1460 -0.5394
 6205SOL    HW130251   3.013   1.270  10.102  1.3723  0.2985  0.0067
 6205SOL    HW230252   2.933   1.404  10.104 -0.8112 -1.5131 -1.7074
 6206SOL     OW30253   3.704   1.827   1.693  0.0768  0.4008 -0.1458
 6206SOL    HW130254   3.631   1.822   1.755  0.7208 -2.4210  0.4066
 6206SOL    HW230255   3.685   1.907   1.645 -2.7794 -1.9380 -2.8793
 6207SOL     OW30256   2.601   1.683  12.221 -0.1528 -0.3241 -0.6210
 6207SOL    HW130257   2.602   1.591  12.194 -1.2308 -1.1667  2.1665
 6207SOL    HW230258   2.676   1.696  12.280 -0.9209  2.3158 -0.2441
 6208SOL     OW30259   0.680   3.055   1.991 -0.2803 -0.1694 -0.7129
 6208SOL    HW130260   0.665   2.969   1.952 -0.6892 -0.9781  1.1929
 6208SOL    HW230261   0.685   3.101   1.908  2.0968  0.6739 -0.1031
 6209SOL     OW30262   4.024   0.395   4.846  0.3872 -0.2507  0.2307
 6209SOL    HW130263   4.015   0.411   4.940 -1.3930 -2.5059  0.4376
 6209SOL    HW230264   3.938   0.425   4.817 -0.0808 -1.6074  0.2049
 6210SOL     OW30265   2.461   2.297   4.014  0.0247 -0.4164  0.2470
 6210SOL    HW130266   2.472   2.202   4.008  1.0629 -0.3740  1.6212
 6210SOL    HW230267   2.501   2.309   4.100  0.8557 -0.8800 -0.0783
 6211SOL     OW30268   1.211   2.837   8.910  0.4945  0.0685 -0.4848
 6211SOL    HW130269   1.130   2.886   8.919 -0.9526 -2.3247 -0.4999
 6211SOL    HW230270   1.187   2.766   8.969  2.4442 -1.3369 -1.3845
 6212SOL     OW30271   2.788   3.217   0.855  0.3500  0.1768 -0.3332
 6212SOL    HW130272   2.747   3.135   0.883  2.2557 -0.8645 -0.6043
 6212SOL    HW230273   2.715   3.277   0.870  0.2551 -0.0476  0.1276
 6213SOL     OW30274   0.495   0.257   7.093 -0.6065 -0.0472 -0.1596
 6213SOL    HW130275   0.458   0.343   7.112 -0.6179  0.5274 -2.7313
 6213SOL    HW230276   0.512   0.231   7.183  1.3061 -1.2057 -0.8585
 6214SOL     OW30277   1.643   1.437   6.793  0.2917 -0.0919 -0.0843
 6214SOL    HW130278   1.663   1.484   6.712 -1.7412  1.0754  0.1088
 6214SOL    HW230279   1.551   1.459   6.803 -0.3314 -1.7665 -2.0126
 6215SOL     OW30280   0.872   1.738   0.554 -0.0338 -0.4789 -0.0326
 6215SOL    HW130281   0.786   1.699   0.570 -0.1271 -0.3619 -0.2532
 6215SOL    HW230282   0.927   1.686   0.613  2.1812 -2.1716 -3.5799
 6216SOL     OW30283   3.724   3.440   8.035  0.3460 -0.4893 -0.3266
 6216SOL    HW130284   3.798   3.438   8.096  0.6750  1.3555 -0.6585
 6216SOL    HW230285   3.706   3.346   8.040 -0.3384 -0.4279 -1.5381
 6217SOL     OW30286   0.938   4.008  16.462  0.0193  0.0188  0.5565
 6217SOL    HW130287   1.019   3.970  16.428 -0.2253 -0.5062  0.5542
 6217SOL    HW230288   0.902   3.931  16.505 -0.5848  0.5368  0.9795
 6218SOL     OW30289   2.458   3.594   6.017 -0.3455  0.6071 -0.1155
 6218SOL    HW130290   2.486   3.518   6.070  1.8607  0.9522 -0.7657
 6218SOL    HW230291   2.435   3.556   5.933  1.3266  0.2154 -0.4093
 6219SOL     OW30292   4.718   1.246   0.960  0.4128 -0.1156  0.1754
 6219SOL    HW130293   4.685   1.220   0.874  1.4177 -1.6341  0.2524
 6219SOL    HW230294   4.720   1.341   0.946  3.1971 -0.3872 -1.4342
 6220SOL     OW30295   0.903   0.371   4.529  0.2943  0.3750 -0.3033
 6220SOL    HW130296   0.976   0.321   4.565 -0.4715 -1.8895 -1.9147
 6220SOL    HW230297   0.901   0.457   4.571  0.1100  0.0375  0.3719
 6221SOL     OW30298   1.488   0.670   5.476 -0.2564  0.4257  0.6635
 6221SOL    HW130299   1.462   0.638   5.563  0.9189  1.8059  1.5345
 6221SOL    HW230300   1.414   0.628   5.433  0.8026 -1.2411  0.4876
 6222SOL     OW30301   4.685   4.124   3.552 -0.0144 -1.0841  0.1883
 6222SOL    HW130302   4.595   4.150   3.574  2.0490  4.3489  2.1757
 6222SOL    HW230303   4.723   4.161   3.632  1.4560  0.0081 -1.0115
 6223SOL     OW30304   1.343   3.725  11.628 -1.0980 -0.0306  0.4901
 6223SOL    HW130305   1.350   3.662  11.700 -1.2186 -1.0795 -0.4201
 6223SOL    HW230306   1.252   3.709  11.602 -1.2161  0.7959  0.3672
 6224SOL     OW30307   1.977   4.010   2.890 -0.0216  0.3995  0.1139
 6224SOL    HW130308   2.012   3.935   2.938  0.4212 -0.1626 -1.0853
 6224SOL    HW230309   1.890   3.972   2.877 -0.5102  2.2395 -2.0520
 6225SOL     OW30310   3.933   4.076  12.105  0.1348  0.1182  0.1031
 6225SOL    HW130311   3.911   4.003  12.162  0.3304 -0.7752 -0.9543
 6225SOL    HW230312   3.851   4.125  12.107 -0.9654 -1.6618 -1.0832
 6226SOL     OW30313   0.828   1.062   0.983 -0.3398  0.0170  0.8991
 6226SOL    HW130314   0.826   1.093   0.893  2.9577  0.8963  1.0912
 6226SOL    HW230315   0.734   1.056   1.000 -0.4503  1.1863  0.6737
 6227SOL     OW30316   2.192   2.120   0.768  0.4800 -0.3858  0.1433
 6227SOL    HW130317   2.268   2.108   0.712  0.0518 -0.4584 -0.4164
 6227SOL    HW230318   2.184   2.035   0.812 -1.0351 -0.6335 -0.5929
 6228SOL     OW30319   1.981   2.190   3.693 -0.1951 -0.5934 -0.2937
 6228SOL    HW130320   1.913   2.137   3.652 -1.4749  1.3222 -0.6511
 6228SOL    HW230321   2.041   2.192   3.618 -0.1432 -0.9438 -0.2591
 6229SOL     OW30322   0.813   3.899   8.481 -0.3410  0.0117 -0.4442
 6229SOL    HW130323   0.744   3.866   8.424 -0.7451 -1.7830  1.0947
 6229SOL    HW230324   0.815   3.986   8.441 -0.4508 -0.4509 -1.4385
 6230SOL     OW30325   3.522   0.644   2.579  0.3387 -0.1057 -0.0287
 6230SOL    HW130326   3.448   0.599   2.537 -0.2937  0.5111  0.4193
 6230SOL    HW230327   3.487   0.732   2.566 -0.5792 -0.7955 -2.2819
 6231SOL     OW30328   3.875   2.053   6.240 -0.1495  0.0387 -0.1334
 6231SOL    HW130329   3.947   2.001   6.277  0.0152  0.2757 -0.1140
 6231SOL    HW230330   3.910   2.136   6.273  0.9911 -0.5509  0.1589
 6232SOL     OW30331   2.080   2.916   1.311  0.5610  0.0841 -0.1568
 6232SOL    HW130332   1.997   2.868   1.302 -1.0963  2.1806  4.0342
 6232SOL    HW230333   2.097   2.941   1.220  1.1770 -0.8355 -0.2894
 6233SOL     OW30334   3.768   0.982   4.756  0.5555  0.4416 -0.1189
 6233SOL    HW130335   3.751   0.890   4.775  1.3444  0.4050  0.4264
 6233SOL    HW230336   3.861   0.980   4.734  0.6931 -0.8046  0.5635
 6234SOL     OW30337   4.407   0.141   9.124 -0.0488 -0.0347  0.7159
 6234SOL    HW130338   4.327   0.155   9.175 -0.5356 -0.2225  0.0085
 6234SOL    HW230339   4.364   0.136   9.039  1.5951  0.1057 -0.1127
 6235SOL     OW30340   3.784   1.403   6.391  0.7076 -0.4559  0.1812
 6235SOL    HW130341   3.768   1.318   6.350  1.3105 -0.4977  0.0384
 6235SOL    HW230342   3.762   1.382   6.482  1.4555 -0.1743  0.4227
 6236SOL     OW30343   1.945   1.880   5.376  0.0271 -0.1451  0.1134
 6236SOL    HW130344   1.884   1.943   5.338  0.0962 -0.1484 -0.0015
 6236SOL    HW230345   1.904   1.879   5.463 -0.2685  0.8935 -0.0184
 6237SOL     OW30346   1.274   2.863   7.346 -0.3278 -0.6036 -0.1887
 6237SOL    HW130347   1.316   2.928   7.290  1.5054 -1.7846 -0.2075
 6237SOL    HW230348   1.212   2.821   7.286 -1.0133 -0.1067  0.1818
 6238SOL     OW30349   2.378   0.402  10.219 -0.2837 -1.1234 -0.0099
 6238SOL    HW130350   2.366   0.310  10.242 -2.1997 -0.7670  0.3962
 6238SOL    HW230351   2.304   0.412  10.160 -0.1108  0.2645  0.0236
 6239SOL     OW30352   4.228   3.525   3.764  0.6045 -0.1208  0.1884
 6239SOL    HW130353   4.306   3.504   3.713  1.7279  0.0445  1.8201
 6239SOL    HW230354   4.254   3.613   3.791 -1.3452  0.7423 -0.7707
 6240SOL     OW30355   2.875   3.814   4.310 -0.0892  0.4881  0.0532
 6240SOL    HW130356   2.872   3.789   4.217  3.3018 -2.4915  0.7384
 6240SOL    HW230357   2.805   3.879   4.312 -0.6803 -0.1386 -0.2101
 6241SOL     OW30358   0.324   2.486   3.819 -0.4103  0.1351 -0.1884
 6241SOL    HW130359   0.352   2.401   3.854 -3.1278 -0.8461 -0.3410
 6241SOL    HW230360   0.407   2.530   3.802  0.0613 -1.0648 -1.0729
 6242SOL     OW30361   0.942   2.859   0.283 -0.2307  0.0534 -0.1760
 6242SOL    HW130362   0.938   2.764   0.288 -0.8372  0.0200 -1.1781
 6242SOL    HW230363   0.905   2.869   0.195 -2.3002 -0.3409  0.6441
 6243SOL     OW30364   4.463   4.025   9.616 -0.2537 -0.4942  0.0951
 6243SOL    HW130365   4.422   4.105   9.582  0.4361  0.2455  0.9748
 6243SOL    HW230366   4.409   3.958   9.574 -0.9825  0.9286 -1.2143
 6244SOL     OW30367   2.077   4.643   3.579 -0.2394  0.1651  0.0531
 6244SOL    HW130368   1.990   4.666   3.546 -1.1672 -0.1642  2.2460
 6244SOL    HW230369   2.135   4.689   3.518  2.3728 -1.9416  0.9725
 6245SOL     OW30370   1.017   1.836   3.697 -0.4267 -0.2658  0.4421
 6245SOL    HW130371   1.083   1.773   3.727 -0.4504 -0.4526  0.1086
 6245SOL    HW230372   0.942   1.794   3.739 -0.6810 -1.6449 -1.3511
 6246SOL     OW30373   2.287   1.421   6.161 -0.0079  0.2147 -0.3004
 6246SOL    HW130374   2.293   1.401   6.068  1.4300 -1.5740  0.1983
 6246SOL    HW230375   2.214   1.367   6.192  1.0925 -0.4369  1.1679
 6247SOL     OW30376   3.036   1.850   0.194 -0.0225  0.1182 -0.6479
 6247SOL    HW130377   3.048   1.944   0.179  0.6830  0.2322  0.5786
 6247SOL    HW230378   3.037   1.815   0.105  0.0503  0.8681 -0.9392
 6248SOL     OW30379   3.982   2.006   4.058 -0.2154 -0.1266  0.2819
 6248SOL    HW130380   3.983   1.920   4.016  1.1434  0.9293 -1.8402
 6248SOL    HW230381   4.010   1.971   4.143  1.2836 -0.1097 -0.2057
 6249SOL     OW30382   3.572   3.002   2.353  0.7530  0.4227 -0.1780
 6249SOL    HW130383   3.478   3.006   2.375  0.7110  0.2150 -0.3230
 6249SOL    HW230384   3.575   2.933   2.286  0.7648  0.1645  0.0846
 6250SOL     OW30385   3.554   0.816   0.635 -0.0274 -0.5745 -0.3695
 6250SOL    HW130386   3.625   0.828   0.571  0.4534 -1.1015  0.0688
 6250SOL    HW230387   3.513   0.741   0.592  0.9165 -0.0701 -2.1768
 6251SOL     OW30388   1.668   4.306  16.430 -0.1174 -0.0407  0.0070
 6251SOL    HW130389   1.660   4.386  16.379  0.4534 -0.0274 -0.0627
 6251SOL    HW230390   1.599   4.315  16.497 -0.8987 -0.8031 -0.6980
 6252SOL     OW30391   2.310   2.791   0.060  0.2560 -0.1697  0.3818
 6252SOL    HW130392   2.318   2.742   0.141 -3.7726  0.8613  1.3931
 6252SOL    HW230393   2.262   2.731   0.003  1.5197 -1.3360  0.5372
 6253SOL     OW30394   3.771   1.523  16.908 -0.1995  0.3196  0.0874
 6253SOL    HW130395   3.831   1.470  16.960 -3.0207 -2.3420  0.6402
 6253SOL    HW230396   3.702   1.482  16.961 -0.2668 -0.8484 -0.9231
 6254SOL     OW30397   4.488   1.045   7.370  0.3435  0.2011  0.4126
 6254SOL    HW130398   4.558   1.089   7.322 -0.8161  0.1969 -1.2859
 6254SOL    HW230399   4.528   0.961   7.390 -0.9055 -1.0853 -2.4720
 6255SOL     OW30400   1.057   4.492  17.326 -0.4586 -0.0985 -0.6005
 6255SOL    HW130401   1.019   4.413  17.365 -0.1775  0.3736  0.6454
 6255SOL    HW230402   1.054   4.554  17.399  0.6869  1.1106 -1.5899
 6256SOL     OW30403   4.666   0.029   6.456 -0.1203  0.0314 -0.2454
 6256SOL    HW130404   4.712   0.022   6.540 -0.1325  3.4001  0.0456
 6256SOL    HW230405   4.696   0.111   6.415 -2.3714  1.3468  0.7704
 6257SOL     OW30406   4.675   4.433   2.319  0.0740  0.4735  0.4293
 6257SOL    HW130407   4.684   4.381   2.239 -1.5003  0.9499 -0.0549
 6257SOL    HW230408   0.025   4.409   2.345  0.1485 -0.5701 -0.7773
 6258SOL     OW30409   0.567   1.319   4.682 -0.4069  0.1832 -0.2951
 6258SOL    HW130410   0.583   1.402   4.639  2.3336 -0.6576 -0.9194
 6258SOL    HW230411   0.640   1.262   4.658 -0.2941 -0.6652  2.0381
 6259SOL     OW30412   0.369   3.793  16.368  0.0754 -0.6766  0.4611
 6259SOL    HW130413   0.427   3.804  16.443  1.9556 -0.2159 -1.0578
 6259SOL    HW230414   0.402   3.865  16.314  0.4717 -1.4361 -0.3032
 6260SOL     OW30415   1.381   0.250   4.725  0.1462  0.6448  0.1752
 6260SOL    HW130416   1.363   0.191   4.798  0.8362  1.4483  1.0056
 6260SOL    HW230417   1.429   0.205   4.656 -1.9216 -2.1307  0.5515
 6261SOL     OW30418   1.907   4.223   3.214  0.0940  0.1721  0.3565
 6261SOL    HW130419   1.838   4.163   3.187  0.9841 -0.9027  0.4253
 6261SOL    HW230420   1.966   4.198   3.142  0.2036 -1.9696  1.1911
 6262SOL     OW30421   0.264   0.138  10.846 -0.5900 -0.4593 -0.1521
 6262SOL    HW130422   0.263   0.121  10.941  0.6571 -2.2806 -0.4737
 6262SOL    HW230423   0.356   0.163  10.834 -0.1173 -2.2336 -0.1176
 6263SOL     OW30424   4.683   4.306   8.370 -0.4490 -0.0687 -0.2092
 6263SOL    HW130425   4.599   4.273   8.402  0.2218 -0.6025  1.0100
 6263SOL    HW230426   4.697   4.375   8.436 -0.5010 -0.7694  0.5395
 6264SOL     OW30427   2.908   2.301  17.459 -0.3865  0.0261 -0.0495
 6264SOL    HW130428   2.874   2.267  17.377 -0.9476  0.8552 -0.1594
 6264SOL    HW230429   2.844   2.363  17.492 -0.1267  0.7392 -0.8780
 6265SOL     OW30430   4.725   0.544   4.241  0.1912 -0.2111 -0.1833
 6265SOL    HW130431   0.001   0.561   4.334 -0.8022  0.7308 -0.1900
 6265SOL    HW230432   4.709   0.633   4.208 -0.3053  0.1180  0.9348
 6266SOL     OW30433   4.342   0.554   2.805 -0.1588 -0.1633 -0.5382
 6266SOL    HW130434   4.273   0.523   2.864  0.8578  0.5617  1.0231
 6266SOL    HW230435   4.406   0.572   2.874 -2.3238 -0.2230  1.4795
 6267SOL     OW30436   2.649   4.369   8.947 -0.0526  0.1222  0.0190
 6267SOL    HW130437   2.617   4.393   9.034 -2.4878  1.6674 -1.3058
 6267SOL    HW230438   2.593   4.421   8.889  0.0962 -0.0540 -0.2829
 6268SOL     OW30439   0.393   4.677   9.278  0.2103 -0.0943 -0.1704
 6268SOL    HW130440   0.307   4.713   9.260  1.5341  3.3509  0.4336
 6268SOL    HW230441   0.434   4.658   9.193  0.8225 -0.6308  0.2422
 6269SOL     OW30442   0.254   1.974   0.786 -0.4861  1.1067  0.2677
 6269SOL    HW130443   0.330   1.946   0.735 -0.2553  2.5332 -0.1637
 6269SOL    HW230444   0.220   1.891   0.821 -1.3707  0.9510 -0.9632
 6270SOL     OW30445   1.697   0.311   1.360  0.6372 -0.3310 -0.1154
 6270SOL    HW130446   1.755   0.387   1.366 -1.3303  1.4841 -3.5656
 6270SOL    HW230447   1.752   0.240   1.393  0.6245  0.4541  1.6139
 6271SOL     OW30448   1.497   0.726  14.897  0.9710 -0.5621 -0.0590
 6271SOL    HW130449   1.550   0.795  14.936 -1.0203  0.8643  0.1147
 6271SOL    HW230450   1.504   0.742  14.803  0.3421  1.8452  0.2965
 6272SOL     OW30451   2.108   1.944   3.904  0.1199 -0.3338 -0.0088
 6272SOL    HW130452   2.036   1.882   3.889 -0.5398  0.8202 -1.6923
 6272SOL    HW230453   2.092   1.995   3.824 -1.0163  2.6847  2.1670
 6273SOL     OW30454   1.440   3.822   0.784 -0.3128  0.4196 -0.1817
 6273SOL    HW130455   1.381   3.870   0.726 -1.5645 -1.9568 -0.8466
 6273SOL    HW230456   1.398   3.745   0.822 -0.0702  0.3288 -0.1015
 6274SOL     OW30457   4.305   3.084   9.862  0.0558 -0.6128  0.4195
 6274SOL    HW130458   4.355   3.122   9.934 -0.2939  0.1344  0.2589
 6274SOL    HW230459   4.245   3.158   9.854 -1.8502 -2.3116 -1.0073
 6275SOL     OW30460   4.527   1.668  17.284  0.0800 -0.0528  0.1783
 6275SOL    HW130461   4.598   1.620  17.242 -0.3146 -1.5908  1.2802
 6275SOL    HW230462   4.512   1.618  17.364  1.3656 -1.6876 -0.6211
 6276SOL     OW30463   0.371   0.922   4.518  0.7264 -0.0205  0.1177
 6276SOL    HW130464   0.363   0.833   4.551  1.4954 -0.4124 -0.7393
 6276SOL    HW230465   0.382   0.967   4.602  0.3212  1.2122 -0.4775
 6277SOL     OW30466   2.479   4.218   6.608 -0.3901 -0.2371 -0.2135
 6277SOL    HW130467   2.440   4.165   6.538 -0.2045  1.4894 -1.6448
 6277SOL    HW230468   2.567   4.240   6.577  0.6770 -2.4351  1.2447
 6278SOL     OW30469   0.700   4.008   7.064  0.0193 -0.0758 -0.0580
 6278SOL    HW130470   0.668   4.056   7.141  3.2612 -1.1690  1.9602
 6278SOL    HW230471   0.774   3.962   7.103 -0.2853 -1.0853 -0.6514
 6279SOL     OW30472   1.457   1.754  10.993 -0.4699 -0.4753 -0.4792
 6279SOL    HW130473   1.518   1.768  11.066 -1.5522  1.4520  0.0401
 6279SOL    HW230474   1.389   1.818  11.014 -0.7497 -0.0652 -2.7196
 6280SOL     OW30475   4.498   3.928   3.343 -0.4218  0.5857  0.1563
 6280SOL    HW130476   4.492   4.021   3.320  0.6665  1.1524  2.2125
 6280SOL    HW230477   4.410   3.900   3.316 -0.9944  2.0803  0.4822
 6281SOL     OW30478   4.667   2.187   5.499  0.7173 -0.1202 -0.0549
 6281SOL    HW130479   0.019   2.206   5.521  0.6827 -2.2881  1.9401
 6281SOL    HW230480   4.621   2.149   5.574  1.0112 -1.6154 -0.6304
 6282SOL     OW30481   2.805   0.696   3.662  0.3491  0.0782 -0.3300
 6282SOL    HW130482   2.731   0.692   3.602 -0.2717 -0.4121  0.4679
 6282SOL    HW230483   2.883   0.682   3.608 -0.1161 -1.9904 -0.4786
 6283SOL     OW30484   0.547   2.128   6.064  0.0477  0.5472  0.3594
 6283SOL    HW130485   0.453   2.138   6.053  0.4109 -0.0406 -3.1786
 6283SOL    HW230486   0.550   2.128   6.160  0.3267 -2.1504  0.3596
 6284SOL     OW30487   3.272   1.215   8.209  0.3855  0.0032  0.0377
 6284SOL    HW130488   3.259   1.186   8.299  0.7494 -2.2181 -0.6090
 6284SOL    HW230489   3.223   1.297   8.215  0.3144 -0.1421  1.4548
 6285SOL     OW30490   0.743   0.444   7.379 -0.1608 -0.5264 -0.1573
 6285SOL    HW130491   0.806   0.374   7.393  1.1059  0.7247  0.3326
 6285SOL    HW230492   0.661   0.398   7.396  0.5618 -2.6491 -2.4597
 6286SOL     OW30493   3.110   0.759   0.828  0.0996 -0.1551 -0.9118
 6286SOL    HW130494   3.125   0.714   0.744  0.9293 -0.3258 -0.6644
 6286SOL    HW230495   3.198   0.777   0.859 -0.3637  1.3051 -0.4573
 6287SOL     OW30496   3.192   2.496   3.544  0.1029 -0.3012  0.4109
 6287SOL    HW130497   3.127   2.426   3.543 -0.8055  0.6081 -2.1578
 6287SOL    HW230498   3.226   2.485   3.456  2.0666  3.1628  0.7410
 6288SOL     OW30499   3.912   2.676   9.507  0.7727 -0.4381  0.2198
 6288SOL    HW130500   3.914   2.759   9.459  0.4532 -0.8203 -0.4537
 6288SOL    HW230501   3.979   2.716   9.563  0.0629 -0.1026  0.8292
 6289SOL     OW30502   2.805   1.304   7.825  0.4872  0.4072  0.2319
 6289SOL    HW130503   2.744   1.377   7.839 -0.6283 -0.4185 -0.2622
 6289SOL    HW230504   2.839   1.324   7.738 -2.7145  1.1165 -0.8645
 6290SOL     OW30505   2.886   2.529   1.394 -0.4172 -0.2026 -0.5841
 6290SOL    HW130506   2.820   2.516   1.462 -1.0825  1.6299 -0.8576
 6290SOL    HW230507   2.895   2.624   1.386 -0.7208 -0.1097  0.1423
 6291SOL     OW30508   2.388   1.813  17.720 -0.2750  0.2681 -0.3082
 6291SOL    HW130509   2.472   1.811  17.674 -0.8064 -1.2206 -1.2080
 6291SOL    HW230510   2.389   1.723  17.752 -0.6526  0.0109 -1.0015
 6292SOL     OW30511   1.453   2.785   6.887  0.2210 -0.6402  0.8439
 6292SOL    HW130512   1.508   2.858   6.916 -0.6944  0.6047 -0.5423
 6292SOL    HW230513   1.420   2.835   6.812 -1.2356 -1.0059  1.2525
 6293SOL     OW30514   1.866   3.107   5.440  0.4170 -0.3979  0.1993
 6293SOL    HW130515   1.877   3.087   5.347  0.5233 -1.1708  0.3805
 6293SOL    HW230516   1.957   3.124   5.462  0.2340  0.5923  0.1970
 6294SOL     OW30517   3.539   1.043   8.890 -0.3708 -0.1923 -0.4599
 6294SOL    HW130518   3.462   0.990   8.910  0.2395 -1.4165 -1.3773
 6294SOL    HW230519   3.585   1.055   8.973 -0.6239 -2.7433  0.0326
 6295SOL     OW30520   3.989   2.646  16.965  0.2981  0.3788 -0.1333
 6295SOL    HW130521   3.931   2.580  17.001  0.2104  1.3124  1.4510
 6295SOL    HW230522   4.019   2.604  16.885 -1.9417  1.0927 -1.3573
 6296SOL     OW30523   0.459   1.059  14.373 -0.2408  0.2728  0.6319
 6296SOL    HW130524   0.500   0.974  14.390 -2.4926 -1.3043 -1.8636
 6296SOL    HW230525   0.425   1.078  14.461  0.1357  0.5706  0.7110
 6297SOL     OW30526   2.214   0.654   6.007 -0.0861  0.2572  0.3455
 6297SOL    HW130527   2.299   0.627   6.041 -0.4605 -0.8647  0.3825
 6297SOL    HW230528   2.162   0.607   6.071  1.7693 -1.7624  0.3493
 6298SOL     OW30529   3.818   0.632   2.206 -0.3747  0.1553 -0.1717
 6298SOL    HW130530   3.808   0.611   2.299  0.2050 -2.4064 -0.6647
 6298SOL    HW230531   3.913   0.617   2.200 -0.7744 -1.7102 -1.7893
 6299SOL     OW30532   4.203   0.313   1.551 -0.0801  0.1988  0.0965
 6299SOL    HW130533   4.180   0.379   1.485 -0.1643 -1.8615 -1.9162
 6299SOL    HW230534   4.131   0.250   1.544  1.1670 -1.4111  1.6818
 6300SOL     OW30535   0.884   0.405  16.112  0.4326 -0.4965  0.1353
 6300SOL    HW130536   0.829   0.465  16.163  1.2112 -0.9558  1.5124
 6300SOL    HW230537   0.882   0.453  16.029  1.9703  0.8413  0.9012
 6301SOL     OW30538   2.514   4.307   3.277 -0.4095 -0.2773  0.2497
 6301SOL    HW130539   2.459   4.314   3.199 -2.7622  1.7433  2.1023
 6301SOL    HW230540   2.524   4.402   3.287  0.6243 -0.2734 -0.8222
 6302SOL     OW30541   2.497   1.682   7.548 -0.7100  0.0225 -0.4305
 6302SOL    HW130542   2.490   1.620   7.475  0.0900 -0.3552 -0.1965
 6302SOL    HW230543   2.446   1.635   7.614 -0.0367  0.2273  0.2316
 6303SOL     OW30544   3.906   2.551   7.606  0.1414  0.1379 -0.4712
 6303SOL    HW130545   3.971   2.486   7.633  2.1221  0.9292 -3.2438
 6303SOL    HW230546   3.942   2.586   7.524 -0.1180 -1.6278 -1.3538
 6304SOL     OW30547   3.554   1.846   0.248 -0.4978  0.1065  0.6784
 6304SOL    HW130548   3.476   1.858   0.304 -0.6361 -1.0811  0.7348
 6304SOL    HW230549   3.620   1.868   0.314 -0.3049 -2.3938  1.3171
 6305SOL     OW30550   3.903   2.843  12.641 -0.6280 -0.2114 -0.5043
 6305SOL    HW130551   3.991   2.808  12.656 -0.4927  0.0878 -0.6043
 6305SOL    HW230552   3.909   2.926  12.689  1.0806  1.2172 -3.2024
 6306SOL     OW30553   2.637   2.154   0.422  0.4053  0.4381 -0.0147
 6306SOL    HW130554   2.701   2.216   0.385 -0.6837  0.4079 -1.9361
 6306SOL    HW230555   2.693   2.117   0.491  1.9181  2.9013  0.0880
 6307SOL     OW30556   0.060   2.498   5.391 -0.4165  0.3047  0.3774
 6307SOL    HW130557   0.092   2.511   5.302  0.2149 -1.4271  0.3478
 6307SOL    HW230558   0.142   2.477   5.435  0.1762  0.8339 -0.5011
 6308SOL     OW30559   1.010   2.392   4.314 -0.1582 -0.4177 -0.2241
 6308SOL    HW130560   1.089   2.429   4.276 -0.6155 -0.5810 -1.3200
 6308SOL    HW230561   1.051   2.319   4.361  0.7063  0.9179  1.0944
 6309SOL     OW30562   0.380   1.404   6.774  0.7023 -0.2625 -0.9819
 6309SOL    HW130563   0.378   1.316   6.813  0.6113  0.5005  0.7433
 6309SOL    HW230564   0.359   1.456   6.852 -3.5812  0.2838 -2.5324
 6310SOL     OW30565   2.120   1.032   7.934  0.1283  0.3218 -0.1456
 6310SOL    HW130566   2.027   1.026   7.957 -0.0689 -1.4006 -1.3974
 6310SOL    HW230567   2.156   1.032   8.023  0.5240  2.0085 -0.3083
 6311SOL     OW30568   0.328   0.447   5.275 -0.0462 -0.2976 -0.1364
 6311SOL    HW130569   0.412   0.488   5.293 -1.0954  1.3720  0.8533
 6311SOL    HW230570   0.322   0.383   5.347  0.8884  0.4366  0.5913
 6312SOL     OW30571   2.739   1.321   4.433 -0.6444  0.1147  0.4612
 6312SOL    HW130572   2.679   1.393   4.451 -1.6407 -0.0586 -2.0962
 6312SOL    HW230573   2.737   1.296   4.525  0.2044 -0.2289  0.3810
 6313SOL     OW30574   3.923   4.178   6.149  0.0923 -0.2311  0.1129
 6313SOL    HW130575   3.876   4.140   6.074 -1.2778  0.6571  0.5252
 6313SOL    HW230576   3.915   4.103   6.208 -1.8658  0.3927  0.6627
 6314SOL     OW30577   2.684   4.439   4.229  0.4878  0.6641 -0.3945
 6314SOL    HW130578   2.712   4.523   4.193  1.4013  1.3961  2.0438
 6314SOL    HW230579   2.719   4.372   4.169 -0.6012  0.8377 -1.2160
 6315SOL     OW30580   4.584   0.006   1.375 -0.1453  0.1382 -0.6306
 6315SOL    HW130581   4.489   0.002   1.379 -0.2023  0.9717 -1.2352
 6315SOL    HW230582   4.605   4.658   1.409  0.9698  0.8913  0.6259
 6316SOL     OW30583   3.764   1.268  13.505  0.1797 -0.0464  0.6176
 6316SOL    HW130584   3.770   1.177  13.536  0.2121 -0.4805 -0.6385
 6316SOL    HW230585   3.752   1.319  13.585  0.5157 -0.6029  1.0266
 6317SOL     OW30586   4.047   0.118   2.704 -0.0408  0.2258  1.5038
 6317SOL    HW130587   4.118   0.108   2.768  0.1712 -2.1298  0.8963
 6317SOL    HW230588   3.976   0.150   2.759 -0.8925  1.9856 -0.6901
 6318SOL     OW30589   2.979   4.283  13.655  0.0290  0.1099  0.1203
 6318SOL    HW130590   2.972   4.261  13.748  1.7432 -1.1834 -0.0373
 6318SOL    HW230591   2.890   4.267  13.626  0.2901 -0.0478 -0.6160
 6319SOL     OW30592   3.666   2.575   2.425  0.6413  0.5272 -0.8873
 6319SOL    HW130593   3.673   2.484   2.395 -1.5362  0.7462 -2.1133
 6319SOL    HW230594   3.758   2.598   2.428  0.4606  1.4559 -3.0405
 6320SOL     OW30595   0.672   0.686   2.321  0.1133  0.3320 -0.2372
 6320SOL    HW130596   0.588   0.731   2.328 -1.3648 -2.1387 -2.1351
 6320SOL    HW230597   0.667   0.658   2.229 -2.0260 -0.8633  0.2456
 6321SOL     OW30598   3.881   4.530   4.532  0.2630 -0.2750  0.5867
 6321SOL    HW130599   3.951   4.548   4.470 -0.8038 -0.3592 -0.6478
 6321SOL    HW230600   3.810   4.563   4.477  1.3798  0.8873 -0.1503
 6322SOL     OW30601   2.084   1.844   0.598  0.4018 -0.4374 -0.4259
 6322SOL    HW130602   2.167   1.815   0.560 -0.2762  1.0557 -3.0762
 6322SOL    HW230603   2.033   1.765   0.579 -0.7646  0.5456 -1.3714
 6323SOL     OW30604   0.671   0.285   6.376  0.2573 -0.2894  0.0620
 6323SOL    HW130605   0.608   0.253   6.440 -0.3300  0.3106 -0.2154
 6323SOL    HW230606   0.734   0.330   6.433  0.9089  0.1252 -0.9751
 6324SOL     OW30607   1.520   4.139  15.101 -0.1400  0.2398  0.1195
 6324SOL    HW130608   1.457   4.144  15.172  0.3826 -0.1141  0.6124
 6324SOL    HW230609   1.466   4.101  15.033  3.1407 -0.0592 -2.3413
 6325SOL     OW30610   0.538   1.229  14.193 -0.7146 -0.3713 -0.2380
 6325SOL    HW130611   0.632   1.220  14.208 -0.5381  0.7820 -0.5982
 6325SOL    HW230612   0.496   1.165  14.250  1.4178 -0.2076  1.5461
 6326SOL     OW30613   1.477   2.288  11.395 -0.0366  0.1051  0.0178
 6326SOL    HW130614   1.565   2.268  11.428 -0.5479  0.6722  1.7107
 6326SOL    HW230615   1.429   2.207  11.407 -0.5764  0.9108  3.2329
 6327SOL     OW30616   1.457   2.245  12.810 -0.1010 -0.3723  0.1902
 6327SOL    HW130617   1.512   2.194  12.750 -0.0648  0.0885 -0.1779
 6327SOL    HW230618   1.376   2.259  12.760 -1.1959  0.8447  2.2968
 6328SOL     OW30619   3.632   3.606   2.384  0.6733  0.2184 -0.1192
 6328SOL    HW130620   3.562   3.668   2.366 -1.3976 -2.4698 -1.3758
 6328SOL    HW230621   3.659   3.632   2.472 -0.3321 -2.8208  1.0844
 6329SOL     OW30622   4.732   1.049   5.993  0.0783  0.5993  0.0796
 6329SOL    HW130623   4.716   1.085   6.080 -1.0445  0.3370 -0.0189
 6329SOL    HW230624   4.640   1.026   5.980 -0.1456  1.1386  0.7191
 6330SOL     OW30625   0.601   0.066   4.714  0.4018  0.4348 -0.4842
 6330SOL    HW130626   0.673   0.108   4.760  0.9043  0.8710 -1.6993
 6330SOL    HW230627   0.545   0.042   4.789 -0.2010 -0.4841 -1.2221
 6331SOL     OW30628   3.512   3.914   2.935  0.2414 -1.0969 -0.0943
 6331SOL    HW130629   3.476   3.876   3.015 -0.5020  1.3601  0.7216
 6331SOL    HW230630   3.552   3.994   2.968  1.1329 -0.6488 -2.3008
 6332SOL     OW30631   0.077   2.664   2.444  0.7896 -0.0158 -0.4217
 6332SOL    HW130632   0.054   2.710   2.526 -2.2353 -1.1444 -0.6270
 6332SOL    HW230633   0.055   2.736   2.384 -2.8737 -0.9324 -0.1730
 6333SOL     OW30634   2.726   0.916  10.746 -0.3251  0.0164  0.2620
 6333SOL    HW130635   2.786   0.960  10.806 -1.1425  0.9568  0.3815
 6333SOL    HW230636   2.696   0.845  10.803  0.4209  0.5060  1.2587
 6334SOL     OW30637   1.092   4.692  13.571  0.2034  0.8721  0.3260
 6334SOL    HW130638   1.164   4.704  13.509 -0.0046 -0.7432 -0.2363
 6334SOL    HW230639   1.104   4.598  13.586  2.5908  1.0107 -0.7875
 6335SOL     OW30640   0.098   0.724   6.703  0.3842 -0.0682 -0.2158
 6335SOL    HW130641   0.138   0.695   6.622 -0.2097 -0.2594 -0.4414
 6335SOL    HW230642   0.039   0.792   6.670  2.3423  0.7940 -1.8936
 6336SOL     OW30643   4.566   3.164   7.169 -0.0056 -0.5379  0.0294
 6336SOL    HW130644   4.616   3.119   7.237  1.8147  1.0327 -0.2686
 6336SOL    HW230645   4.515   3.093   7.130 -1.1537  1.1742 -1.5496
 6337SOL     OW30646   1.094   0.084  15.711 -0.0802  0.5516  0.3369
 6337SOL    HW130647   1.061   0.024  15.778  1.8768 -0.9409 -0.0550
 6337SOL    HW230648   1.060   0.046  15.630  0.6577  1.4563 -0.3956
 6338SOL     OW30649   2.314   1.361   2.863  0.1866 -0.2056  0.6653
 6338SOL    HW130650   2.234   1.399   2.899 -0.4491 -0.0050 -0.9407
 6338SOL    HW230651   2.278   1.301   2.797  0.5179  1.0441 -0.6520
 6339SOL     OW30652   2.371   2.670   4.252  0.0091 -0.1012 -0.4277
 6339SOL    HW130653   2.328   2.668   4.338  0.6790  1.3434 -0.0663
 6339SOL    HW230654   2.465   2.686   4.258  0.1435 -1.0856  0.1701
 6340SOL     OW30655   3.623   3.195   6.156  0.0946 -0.1584 -0.3477
 6340SOL    HW130656   3.603   3.102   6.166 -0.1305 -0.0133  0.5860
 6340SOL    HW230657   3.649   3.207   6.248  3.1105 -1.6110 -1.0098
 6341SOL     OW30658   2.767   2.299   9.779  0.3566 -0.5232 -0.5172
 6341SOL    HW130659   2.779   2.368   9.844  0.9465 -1.3705  0.2818
 6341SOL    HW230660   2.696   2.243   9.811  1.2594  0.6604  3.5264
 6342SOL     OW30661   1.326   3.988   9.641  0.2764  0.0929  0.4437
 6342SOL    HW130662   1.361   3.900   9.649  0.2710  0.0834  0.3626
 6342SOL    HW230663   1.335   4.013   9.733 -2.3628  1.1643  0.4188
 6343SOL     OW30664   3.896   4.080   3.178  0.2568  0.5576  0.1534
 6343SOL    HW130665   3.897   4.085   3.274 -3.0801 -3.7270  0.4105
 6343SOL    HW230666   3.867   4.170   3.159 -0.2184  0.2181 -0.7540
 6344SOL     OW30667   4.411   4.260   3.612  0.1580 -0.6130  0.4345
 6344SOL    HW130668   4.412   4.321   3.538 -0.5074  0.0520  0.9703
 6344SOL    HW230669   4.362   4.304   3.682 -2.0283 -0.5459 -1.1149
 6345SOL     OW30670   0.625   2.141   2.484  0.0312 -0.0094 -0.4734
 6345SOL    HW130671   0.711   2.183   2.481 -0.3223  0.7668  0.3634
 6345SOL    HW230672   0.639   2.086   2.407 -0.0163 -1.6267  0.6792
 6346SOL     OW30673   2.986   1.363   7.306  0.3352 -0.3492 -0.3003
 6346SOL    HW130674   3.077   1.344   7.330 -0.0097 -1.7174 -0.0531
 6346SOL    HW230675   2.930   1.285   7.306  1.1627 -0.9552  0.1680
 6347SOL     OW30676   4.105   0.366   0.806 -0.3316 -0.2717  0.3873
 6347SOL    HW130677   4.100   0.270   0.811  1.0318 -0.3240  0.6836
 6347SOL    HW230678   4.151   0.389   0.887  3.5014  1.8037 -2.4043
 6348SOL     OW30679   2.835   3.152  11.844  0.3444 -0.2942  0.4536
 6348SOL    HW130680   2.925   3.117  11.850  0.0801 -0.7223  1.8825
 6348SOL    HW230681   2.831   3.217  11.913  1.6071 -1.0923  1.2932
 6349SOL     OW30682   2.133   0.183  12.621  0.2094  0.6098  0.1135
 6349SOL    HW130683   2.083   0.230  12.554 -0.0303 -0.9457 -0.7883
 6349SOL    HW230684   2.069   0.124  12.661  0.3865  0.6034  0.3856
 6350SOL     OW30685   0.473   3.508  11.900 -0.0168  0.2010  0.3652
 6350SOL    HW130686   0.492   3.601  11.914 -2.3530  1.0205 -1.8987
 6350SOL    HW230687   0.554   3.481  11.855  0.6202  0.6291  1.2533
 6351SOL     OW30688   0.056   1.305   1.241  0.4491  0.2322  0.4907
 6351SOL    HW130689   0.125   1.267   1.295 -0.4017 -2.2470 -0.1854
 6351SOL    HW230690   0.098   1.380   1.199  0.5690  0.6991  1.4275
 6352SOL     OW30691   3.737   3.002   4.168  0.4004  0.3534 -0.1451
 6352SOL    HW130692   3.652   3.039   4.191 -1.1393 -2.3657 -1.4720
 6352SOL    HW230693   3.789   3.019   4.246  0.3907 -3.1995  0.5932
 6353SOL     OW30694   0.415   2.747   4.689  0.1696 -0.0232  0.7030
 6353SOL    HW130695   0.339   2.761   4.634  1.1452  0.6381 -0.4871
 6353SOL    HW230696   0.471   2.707   4.622 -1.3210 -1.3817  0.2752
 6354SOL     OW30697   1.812   1.770   9.911 -0.0482  0.2245 -0.3782
 6354SOL    HW130698   1.739   1.822   9.945  0.9707  1.2827  0.1864
 6354SOL    HW230699   1.879   1.832   9.939 -1.6456  1.0092  1.6965
 6355SOL     OW30700   0.885   2.005   2.832  0.4830  0.4348  0.0606
 6355SOL    HW130701   0.834   1.961   2.763  1.7724  1.7704 -1.7656
 6355SOL    HW230702   0.973   1.974   2.811  1.4926  1.5976  2.5922
 6356SOL     OW30703   1.306   0.259   7.643 -0.3563  0.2809 -0.3974
 6356SOL    HW130704   1.390   0.213   7.656  0.0080  1.0602 -0.0220
 6356SOL    HW230705   1.316   0.304   7.559 -0.4008  0.6847 -0.1834
 6357SOL     OW30706   4.412   2.813   5.253 -0.1438 -0.1752 -0.2007
 6357SOL    HW130707   4.495   2.860   5.261  0.0631 -0.9333  1.9077
 6357SOL    HW230708   4.455   2.728   5.242  2.3300  1.0470  0.0573
 6358SOL     OW30709   3.707   1.738   3.959 -0.2775 -0.1887 -0.2092
 6358SOL    HW130710   3.688   1.830   3.974  1.4292  0.4410 -1.9162
 6358SOL    HW230711   3.707   1.699   4.047  0.2221  0.6327  0.1506
 6359SOL     OW30712   1.199   3.230   4.471 -0.4776  0.3506 -0.2649
 6359SOL    HW130713   1.116   3.275   4.485  0.0887  1.8334 -1.6562
 6359SOL    HW230714   1.244   3.283   4.405 -2.1519  1.7174 -0.2929
 6360SOL     OW30715   2.300   1.153  11.194  0.2820  0.0315 -0.0050
 6360SOL    HW130716   2.375   1.117  11.243  0.6481  0.6890 -0.0784
 6360SOL    HW230717   2.349   1.222  11.147 -1.2278  1.5790  0.6906
 6361SOL     OW30718   3.297   2.053  13.910  0.1259  0.4259  0.3798
 6361SOL    HW130719   3.347   2.106  13.972 -0.3191 -0.4169  1.4721
 6361SOL    HW230720   3.318   1.966  13.944  0.6844  0.4449  0.0900
 6362SOL     OW30721   2.801   3.596  16.746  0.1766 -0.0157 -0.1552
 6362SOL    HW130722   2.740   3.665  16.774  1.4011 -0.4289  3.4707
 6362SOL    HW230723   2.762   3.576  16.661 -0.6816  0.6149  0.0875
 6363SOL     OW30724   1.479   1.797   8.469 -0.4324 -0.6109 -0.5119
 6363SOL    HW130725   1.461   1.706   8.444  1.6320 -1.3469  0.6723
 6363SOL    HW230726   1.418   1.833   8.405 -0.9941 -0.1220  0.3049
 6364SOL     OW30727   3.146   3.010   2.194  0.3736  0.5081  0.5653
 6364SOL    HW130728   3.202   2.990   2.270 -1.9928 -0.3224  2.0831
 6364SOL    HW230729   3.200   3.079   2.155 -0.9183  0.5357 -1.1340
 6365SOL     OW30730   3.669   2.858   5.438 -0.2006 -0.1324  0.2889
 6365SOL    HW130731   3.579   2.835   5.417 -1.1002  2.8361  0.9980
 6365SOL    HW230732   3.712   2.781   5.400  1.4293  1.5397 -1.2246
 6366SOL     OW30733   1.075   2.294   5.172 -0.1236  0.1861  0.8867
 6366SOL    HW130734   0.987   2.326   5.153 -0.5049 -1.2828  0.2127
 6366SOL    HW230735   1.072   2.257   5.260 -0.1185  0.8042  1.1503
 6367SOL     OW30736   1.913   1.820   3.737 -0.6332 -0.2306 -0.0887
 6367SOL    HW130737   1.916   1.883   3.665 -1.1910  2.2288  2.0400
 6367SOL    HW230738   1.943   1.750   3.680  0.6953 -0.0570  0.3951
 6368SOL     OW30739   1.318   0.658   1.638  0.2022 -0.9982 -0.0523
 6368SOL    HW130740   1.364   0.574   1.629  0.6375 -0.9701  1.9195
 6368SOL    HW230741   1.385   0.723   1.659 -1.4835  0.9835 -0.8907
 6369SOL     OW30742   3.275   0.474   6.710  0.1506 -0.0519  0.5632
 6369SOL    HW130743   3.326   0.393   6.703  2.6626  1.5594  0.1622
 6369SOL    HW230744   3.328   0.529   6.653  0.2816 -0.5881  0.1709
 6370SOL     OW30745   2.574   4.004  10.018  0.6802  0.0550 -0.3430
 6370SOL    HW130746   2.642   4.004   9.951  1.0188 -0.9637 -0.0078
 6370SOL    HW230747   2.635   4.024  10.089 -1.8240  1.2231  1.5097
 6371SOL     OW30748   0.343   1.146  10.939 -0.1165  0.7001  0.9735
 6371SOL    HW130749   0.408   1.198  10.985  1.2088  0.2934 -0.4369
 6371SOL    HW230750   0.314   1.215  10.878  2.4443 -0.7338 -1.8517
 6372SOL     OW30751   2.925   1.963   2.805  0.0640  0.2208 -0.0448
 6372SOL    HW130752   2.945   1.871   2.788 -1.4359 -0.7353  3.3172
 6372SOL    HW230753   3.000   1.976   2.863 -2.5692 -0.6510  3.5540
 6373SOL     OW30754   3.512   2.358   3.071 -0.4604 -0.0342 -0.1877
 6373SOL    HW130755   3.570   2.417   3.022  0.9113 -1.8277 -0.7200
 6373SOL    HW230756   3.498   2.285   3.012 -0.0824 -3.3036  3.7985
 6374SOL     OW30757   4.100   0.457   1.359 -0.4493 -0.2160 -0.5851
 6374SOL    HW130758   4.034   0.496   1.417  2.1755  1.4996  1.2464
 6374SOL    HW230759   4.138   0.534   1.317  3.4684 -1.0752  1.2925
 6375SOL     OW30760   2.798   1.597   3.335 -0.0576  0.1147 -0.1214
 6375SOL    HW130761   2.744   1.521   3.313 -0.2293 -0.4205  2.1379
 6375SOL    HW230762   2.748   1.640   3.404 -0.3321 -0.5665  0.1002
 6376SOL     OW30763   2.536   4.386   2.796 -0.1583  0.2323  0.8252
 6376SOL    HW130764   2.533   4.473   2.837 -1.7825  0.8771 -0.6653
 6376SOL    HW230765   2.574   4.407   2.710 -0.4445  2.0811  1.1630
 6377SOL     OW30766   4.352   0.775   4.074 -0.0824  0.6671  0.0512
 6377SOL    HW130767   4.376   0.783   3.982 -1.4333  0.1500 -0.3493
 6377SOL    HW230768   4.438   0.769   4.115  0.5961  1.6802 -1.2123
 6378SOL     OW30769   2.283   3.484   4.893  0.4261  0.4258 -0.0752
 6378SOL    HW130770   2.285   3.510   4.985 -2.7613  0.6464 -0.0420
 6378SOL    HW230771   2.226   3.409   4.909 -1.5564  1.8504 -0.3580
 6379SOL     OW30772   4.000   2.617   5.874  0.0606 -0.3986  0.8874
 6379SOL    HW130773   3.981   2.709   5.890 -0.8692 -0.1536 -1.5636
 6379SOL    HW230774   3.930   2.587   5.815 -0.8020  1.4918  0.9391
 6380SOL     OW30775   0.185   3.743  10.611 -0.0085  0.3031  0.3031
 6380SOL    HW130776   0.275   3.758  10.584  0.2087 -2.0438 -0.2388
 6380SOL    HW230777   0.190   3.649  10.626  2.5204  0.0832 -1.9997
 6381SOL     OW30778   3.998   2.112   2.996 -0.5207  0.0744 -0.2167
 6381SOL    HW130779   3.951   2.029   3.005 -0.1826 -0.0467  0.4831
 6381SOL    HW230780   3.953   2.166   3.061 -0.5835  2.2416 -2.0791
 6382SOL     OW30781   4.266   2.787   6.390  0.3239  0.0131  0.4237
 6382SOL    HW130782   4.337   2.755   6.335 -1.1721 -1.5014 -0.6475
 6382SOL    HW230783   4.278   2.879   6.370  1.5998 -0.2760 -0.1329
 6383SOL     OW30784   0.645   4.716   2.545  0.8035 -0.2105  0.2455
 6383SOL    HW130785   0.638   4.633   2.593  0.4323 -1.1630 -1.4261
 6383SOL    HW230786   0.739   4.734   2.533  0.4519  1.0919 -0.5525
 6384SOL     OW30787   3.876   3.781   2.417  0.1470 -0.4613 -0.1823
 6384SOL    HW130788   3.838   3.759   2.332  0.1753  0.2352 -0.3712
 6384SOL    HW230789   3.949   3.720   2.427 -0.2775 -0.8338  0.6964
 6385SOL     OW30790   2.865   1.459   9.101  0.4870  0.4400  0.2426
 6385SOL    HW130791   2.897   1.373   9.074  0.3720  1.3514 -2.8831
 6385SOL    HW230792   2.783   1.469   9.053 -0.6636 -1.8052  1.7440
 6386SOL     OW30793   1.618   2.397  17.643 -0.5134 -0.1776  0.2398
 6386SOL    HW130794   1.580   2.470  17.594  2.2486  0.9612 -0.2053
 6386SOL    HW230795   1.553   2.383  17.711  0.4359  2.6772  1.7477
 6387SOL     OW30796   2.636   1.692   8.955 -0.2156  0.0715  0.3830
 6387SOL    HW130797   2.670   1.779   8.976 -0.8904  0.7410 -1.3320
 6387SOL    HW230798   2.578   1.682   9.031  0.3444  2.1046  1.0862
 6388SOL     OW30799   2.060   0.768   4.145  0.2077 -0.4309 -0.2452
 6388SOL    HW130800   2.042   0.849   4.194  0.7389 -2.2249  2.9054
 6388SOL    HW230801   2.155   0.768   4.135  0.2459  0.4836  0.0902
 6389SOL     OW30802   1.020   0.748   6.040 -0.8780 -0.0592 -0.4473
 6389SOL    HW130803   0.927   0.766   6.049 -1.3384 -3.1023  0.8628
 6389SOL    HW230804   1.036   0.796   6.121  3.1428 -1.0168 -0.6434
 6390SOL     OW30805   4.587   3.370   2.100  0.3931 -0.4636  0.3879
 6390SOL    HW130806   4.619   3.439   2.159  1.5161 -0.1608 -0.5632
 6390SOL    HW230807   4.548   3.426   2.033  0.9467  1.4554  1.6516
 6391SOL     OW30808   0.576   0.563  16.135 -0.5646 -0.3866  0.2755
 6391SOL    HW130809   0.524   0.642  16.121 -1.7204 -0.7079  2.7245
 6391SOL    HW230810   0.503   0.503  16.147  0.2024 -0.7470  3.1563
 6392SOL     OW30811   0.199   3.656  16.223  0.1928 -0.4312 -0.6149
 6392SOL    HW130812   0.172   3.747  16.236  0.5047 -0.4705  0.2971
 6392SOL    HW230813   0.276   3.659  16.279  1.3525 -1.3617 -2.1520
 6393SOL     OW30814   0.174   0.162   5.078  0.3503  0.2413 -0.1056
 6393SOL    HW130815   0.159   0.090   5.017 -0.6030  0.9820 -0.7326
 6393SOL    HW230816   0.212   0.106   5.146 -0.0085 -0.4155 -0.4465
 6394SOL     OW30817   3.699   2.758  15.032 -0.5173  0.0106  0.0645
 6394SOL    HW130818   3.604   2.754  15.038 -0.5016 -1.7036 -0.6890
 6394SOL    HW230819   3.726   2.763  15.124  2.0082 -1.1167 -0.6103
 6395SOL     OW30820   0.880   0.331   5.738 -0.0897 -0.3811  0.3860
 6395SOL    HW130821   0.844   0.373   5.660 -0.1493 -2.0929 -0.5156
 6395SOL    HW230822   0.803   0.308   5.790 -1.1417  0.1730 -0.9307
 6396SOL     OW30823   1.967   0.083   4.032  0.1411 -0.0211  0.1445
 6396SOL    HW130824   2.006   0.129   3.958  0.8750 -1.9165 -0.6575
 6396SOL    HW230825   1.925   0.152   4.082 -2.6249 -1.1705 -0.5832
 6397SOL     OW30826   0.268   0.272  15.845  0.2496 -0.8086  0.2823
 6397SOL    HW130827   0.290   0.179  15.840 -0.9866 -0.9980 -1.6313
 6397SOL    HW230828   0.237   0.308  15.762  0.9826 -1.1308 -0.1342
 6398SOL     OW30829   0.928   3.772  15.597 -0.0031  0.1946  1.0039
 6398SOL    HW130830   0.953   3.809  15.513  1.9134 -0.9520  1.0696
 6398SOL    HW230831   1.008   3.791  15.646  0.0246 -0.2378  1.1241
 6399SOL     OW30832   3.113   4.668   4.490  1.0463 -0.4255  0.0682
 6399SOL    HW130833   3.176   0.001   4.489  0.6029 -0.0489 -1.0959
 6399SOL    HW230834   3.093   4.643   4.580  0.5363 -0.7305 -0.1301
 6400SOL     OW30835   2.717   1.761  14.816 -0.3434 -0.0809  0.2232
 6400SOL    HW130836   2.637   1.771  14.763  0.1760 -2.4459 -0.9888
 6400SOL    HW230837   2.788   1.763  14.752 -1.6983 -1.2688 -1.3207
 6401SOL     OW30838   1.575   0.585   4.727 -0.1784  0.4315 -0.4785
 6401SOL    HW130839   1.484   0.568   4.701  0.2542  2.7186 -3.5505
 6401SOL    HW230840   1.593   0.503   4.772 -0.9044  0.6826  0.2768
 6402SOL     OW30841   3.386   1.461  16.329 -0.0672  0.2234 -0.2049
 6402SOL    HW130842   3.350   1.386  16.377  0.4708 -1.3708 -2.3231
 6402SOL    HW230843   3.450   1.424  16.269  0.0794 -1.2864  0.8784
 6403SOL     OW30844   4.652   3.349  10.421  0.1665 -0.4542  0.5807
 6403SOL    HW130845   4.688   3.306  10.499 -1.4097 -2.3002  0.2786
 6403SOL    HW230846   4.593   3.414  10.460  1.9403  1.8031 -0.5346
 6404SOL     OW30847   1.359   4.317   6.465  0.0502 -0.5827 -0.2693
 6404SOL    HW130848   1.286   4.312   6.403  0.6882  0.4437 -1.1090
 6404SOL    HW230849   1.311   4.369   6.529  0.9929  0.4413 -0.3753
 6405SOL     OW30850   2.839   1.838   0.391 -0.0212  0.8418 -0.3304
 6405SOL    HW130851   2.871   1.924   0.417 -0.1611  0.5207  0.9105
 6405SOL    HW230852   2.896   1.833   0.314 -1.2828  1.1652 -1.2832
 6406SOL     OW30853   0.170   2.220   5.583  0.2837 -0.2239  0.0571
 6406SOL    HW130854   0.239   2.156   5.564  1.3084  0.9082 -0.0100
 6406SOL    HW230855   0.207   2.305   5.560  0.2605 -0.0434  0.6849
 6407SOL     OW30856   0.649   0.245   5.949 -0.2456 -0.2715  0.3553
 6407SOL    HW130857   0.603   0.172   5.991 -0.6222 -0.0302  0.3615
 6407SOL    HW230858   0.576   0.278   5.896  1.0375  0.6267 -0.8565
 6408SOL     OW30859   2.674   2.729  13.181  0.6348 -0.8733 -0.2693
 6408SOL    HW130860   2.704   2.667  13.114  0.2032 -2.8656  1.4005
 6408SOL    HW230861   2.605   2.675  13.220  0.3267  0.0411  0.4420
 6409SOL     OW30862   2.802   3.756   4.052  0.5299  0.3425  0.1868
 6409SOL    HW130863   2.826   3.836   4.006 -0.8462  0.6017 -0.0939
 6409SOL    HW230864   2.884   3.706   4.056 -0.0889 -0.6998  0.0194
 6410SOL     OW30865   2.889   1.176   2.301  0.6338  0.0010 -1.1548
 6410SOL    HW130866   2.894   1.229   2.380 -1.5716 -1.5583  0.0131
 6410SOL    HW230867   2.816   1.220   2.258  1.6003  2.4453 -0.2813
 6411SOL     OW30868   0.063   3.984   2.665  0.5231  0.5783  0.3285
 6411SOL    HW130869   0.129   3.974   2.734  1.3064  0.1014 -0.4836
 6411SOL    HW230870   0.004   3.916   2.698  1.4338 -0.0673  0.6489
 6412SOL     OW30871   4.260   1.741   4.730 -0.2213  0.3164 -0.6354
 6412SOL    HW130872   4.165   1.741   4.744 -0.0047  1.1129  0.8855
 6412SOL    HW230873   4.273   1.650   4.703 -0.5873 -0.2045  0.9625
 6413SOL     OW30874   3.260   1.933   2.692  0.5573 -0.5178  0.0375
 6413SOL    HW130875   3.214   1.919   2.774 -1.6911 -1.3050 -1.3630
 6413SOL    HW230876   3.318   1.857   2.698  0.7612 -0.3152  0.5634
 6414SOL     OW30877   2.064   4.355  10.626 -0.2438 -0.3022  0.5404
 6414SOL    HW130878   2.052   4.439  10.671 -0.0752  1.0321 -1.8911
 6414SOL    HW230879   2.031   4.377  10.539  0.6023  0.3316  0.3854
 6415SOL     OW30880   1.806   2.942   8.536  0.1793 -0.1474  0.0941
 6415SOL    HW130881   1.882   2.978   8.489  0.2144 -1.2893 -0.7211
 6415SOL    HW230882   1.821   2.989   8.618  0.1909 -0.5721  0.3309
 6416SOL     OW30883   2.672   3.442   5.143  0.3296  0.4180 -0.1123
 6416SOL    HW130884   2.758   3.470   5.174  1.8318 -1.0582 -2.9694
 6416SOL    HW230885   2.698   3.377   5.077  3.0543  1.0039  0.4098
 6417SOL     OW30886   2.733   1.394  12.398 -0.3062 -0.7287 -0.5075
 6417SOL    HW130887   2.752   1.402  12.305  0.7238 -2.8432 -0.4861
 6417SOL    HW230888   2.807   1.439  12.440 -0.7591  1.2930 -1.8830
 6418SOL     OW30889   2.462   1.959   5.708  0.2288  0.4996  0.3015
 6418SOL    HW130890   2.381   1.909   5.718  0.1177  0.7664  0.7558
 6418SOL    HW230891   2.435   2.051   5.704 -2.0195 -0.2582 -2.3335
 6419SOL     OW30892   2.095   4.607   6.862 -0.5012 -0.1130 -0.0149
 6419SOL    HW130893   2.117   4.688   6.908  2.7658 -0.5292 -0.8397
 6419SOL    HW230894   2.005   4.598   6.893  0.0354 -1.5165  1.1627
 6420SOL     OW30895   2.214   1.036   8.993 -0.1923 -0.0656 -0.1253
 6420SOL    HW130896   2.125   1.003   9.008  0.4623 -1.0758  1.5624
 6420SOL    HW230897   2.237   1.003   8.907 -1.5518  1.4498 -1.0634
 6421SOL     OW30898   2.084   4.517   0.471  0.1488 -0.6399  0.3378
 6421SOL    HW130899   2.160   4.464   0.495  1.1857  0.5834 -0.2384
 6421SOL    HW230900   2.113   4.607   0.485  0.8443 -0.6858 -0.8225
 6422SOL     OW30901   2.805   0.657   9.610 -0.5649 -0.0507  0.2254
 6422SOL    HW130902   2.755   0.739   9.614  2.1052  1.4094  3.2266
 6422SOL    HW230903   2.891   0.690   9.636 -0.2536 -0.4020 -0.3721
 6423SOL     OW30904   3.432   1.557   6.445 -0.3267 -0.5472  0.2561
 6423SOL    HW130905   3.400   1.630   6.498  0.0120 -0.1671 -0.0676
 6423SOL    HW230906   3.526   1.569   6.458  0.0988 -0.9847 -2.4880
 6424SOL     OW30907   4.032   0.955   4.611  0.6298 -0.0370 -0.4198
 6424SOL    HW130908   3.964   0.936   4.547  2.2486 -1.5440 -1.6827
 6424SOL    HW230909   4.102   0.904   4.571  1.0567 -2.0113  2.8118
 6425SOL     OW30910   3.630   3.982   7.087  0.3655  0.0933 -0.2239
 6425SOL    HW130911   3.549   3.936   7.065  0.7105 -0.8328  0.4175
 6425SOL    HW230912   3.692   3.918   7.051  2.3849  0.7647  2.0821
 6426SOL     OW30913   2.936   0.952  11.454 -0.3463  0.2168  0.0039
 6426SOL    HW130914   3.014   0.952  11.508  1.0735  1.3793 -2.0190
 6426SOL    HW230915   2.933   0.862  11.422  0.0130 -0.6166  2.3958
 6427SOL     OW30916   3.820   4.627   5.584  0.2168  0.4966 -0.6101
 6427SOL    HW130917   3.811   4.602   5.492  1.4491 -1.1964 -0.2753
 6427SOL    HW230918   3.907   4.588   5.597  0.1039  0.8262  1.1612
 6428SOL     OW30919   1.626   2.764   7.825 -0.4475 -0.6700  0.4182
 6428SOL    HW130920   1.701   2.784   7.881 -1.0474  4.3971 -0.6643
 6428SOL    HW230921   1.661   2.725   7.745 -0.8821  1.2765 -0.7094
 6429SOL     OW30922   3.542   2.164   6.443 -0.3341 -0.0648 -0.0755
 6429SOL    HW130923   3.508   2.153   6.354 -0.1708 -0.6981 -0.0533
 6429SOL    HW230924   3.589   2.247   6.430 -0.3400  0.0216  0.4648
 6430SOL     OW30925   0.095   0.323   6.110 -0.3762 -0.4471  0.6289
 6430SOL    HW130926   0.020   0.287   6.062 -1.3253  0.5785  1.3172
 6430SOL    HW230927   0.171   0.282   6.070 -1.3874  0.2183 -1.9647
 6431SOL     OW30928   1.316   3.261   5.995  0.1570 -0.1045 -0.3772
 6431SOL    HW130929   1.381   3.248   5.927 -0.3770  0.8086 -1.0552
 6431SOL    HW230930   1.231   3.257   5.951  1.1001  0.1818 -2.1839
 6432SOL     OW30931   4.635   3.069   2.411 -0.1449 -0.6022 -0.3001
 6432SOL    HW130932   4.665   3.046   2.323 -1.8070  0.4675 -1.1585
 6432SOL    HW230933   4.552   3.023   2.427 -1.0648  0.3377 -2.3311
 6433SOL     OW30934   3.388   1.323   6.302  0.1540  0.4501  0.3636
 6433SOL    HW130935   3.404   1.410   6.339 -0.1338  0.9380 -0.6628
 6433SOL    HW230936   3.436   1.329   6.220  2.1801 -1.2209  1.4328
 6434SOL     OW30937   2.938   1.184   5.457  0.3384  0.1956  0.5477
 6434SOL    HW130938   3.017   1.234   5.478  0.7662  0.3353 -1.3946
 6434SOL    HW230939   2.871   1.228   5.509  0.2909  0.8217 -0.0278
 6435SOL     OW30940   3.389   3.080   3.345 -0.1417  0.1003  0.4044
 6435SOL    HW130941   3.426   3.150   3.290  0.1264 -1.5140 -1.4914
 6435SOL    HW230942   3.315   3.123   3.386  1.0570  3.9469 -1.5041
 6436SOL     OW30943   1.364   4.266   2.919  0.3362  0.0342 -0.2934
 6436SOL    HW130944   1.330   4.178   2.937 -0.7024  0.7587  1.3447
 6436SOL    HW230945   1.278   4.308   2.928 -0.8168 -2.0670 -1.5161
 6437SOL     OW30946   0.851   2.297   0.576 -0.0369  0.4538 -0.2948
 6437SOL    HW130947   0.867   2.203   0.567  2.2542  0.7614  0.4070
 6437SOL    HW230948   0.905   2.319   0.653  1.4909  0.7531 -1.4506
 6438SOL     OW30949   2.446   3.966   9.273 -0.0084  0.6151  0.0852
 6438SOL    HW130950   2.467   3.872   9.274 -0.6707  0.4417 -1.7078
 6438SOL    HW230951   2.497   4.011   9.340 -0.5954  0.6795  0.4909
 6439SOL     OW30952   1.774   4.389   4.322 -0.1081 -0.0085 -0.2781
 6439SOL    HW130953   1.732   4.441   4.254  0.3851 -0.1663 -0.7035
 6439SOL    HW230954   1.778   4.455   4.391  1.4962  1.2150 -1.5572
 6440SOL     OW30955   3.886   3.538   7.814 -0.0598 -0.4816 -0.6831
 6440SOL    HW130956   3.874   3.463   7.872 -3.1851 -0.2937 -1.0997
 6440SOL    HW230957   3.969   3.507   7.776 -0.0274 -1.3923  0.1120
 6441SOL     OW30958   2.163   0.258   9.820 -0.5276  0.3355 -0.9611
 6441SOL    HW130959   2.121   0.309   9.888 -2.6740  0.8316 -2.6509
 6441SOL    HW230960   2.135   0.303   9.740 -0.3947  1.5184 -0.3269
 6442SOL     OW30961   0.769   4.451   2.161  0.5908  0.0193  0.1534
 6442SOL    HW130962   0.678   4.454   2.133  0.7873  0.7215 -0.4043
 6442SOL    HW230963   0.790   4.543   2.146 -1.3894  0.3291 -0.6299
 6443SOL     OW30964   2.867   4.194   6.762  0.1171  0.7518 -0.0736
 6443SOL    HW130965   2.953   4.163   6.732 -0.1288 -1.4105  1.4562
 6443SOL    HW230966   2.854   4.279   6.720  1.4591  1.4382  0.9047
 6444SOL     OW30967   4.605   1.715   4.359  0.2359  0.8313 -0.1690
 6444SOL    HW130968   4.611   1.781   4.289  1.6490  0.9961  0.1051
 6444SOL    HW230969   4.686   1.665   4.351 -0.0461  0.4575 -0.6589
 6445SOL     OW30970   1.957   3.938   9.497  0.4591 -0.2340  0.2942
 6445SOL    HW130971   1.959   4.005   9.566 -1.6308  0.9967 -0.8470
 6445SOL    HW230972   1.898   3.966   9.427  1.3833  1.4912  0.2101
 6446SOL     OW30973   0.535   4.673   2.269  0.1953  0.2522  0.2476
 6446SOL    HW130974   0.518   4.717   2.353  1.0377  1.2019 -0.0765
 6446SOL    HW230975   0.628   4.693   2.254  0.7472 -2.2832  0.3720
 6447SOL     OW30976   0.338   2.321   8.343 -0.6164  0.0409  0.0527
 6447SOL    HW130977   0.288   2.251   8.385 -0.8788  1.4253  2.0046
 6447SOL    HW230978   0.327   2.397   8.400  3.5320  0.4160  0.3835
 6448SOL     OW30979   3.553   4.683   3.807  0.3907 -0.2162  0.2347
 6448SOL    HW130980   3.463   4.655   3.790 -0.1966  2.7981 -1.5930
 6448SOL    HW230981   3.594   4.601   3.779 -0.1395  0.2360 -1.8524
 6449SOL     OW30982   3.774   0.669   4.613 -0.0626  0.2044 -0.3340
 6449SOL    HW130983   3.821   0.705   4.688  3.1039 -3.5219 -0.4634
 6449SOL    HW230984   3.683   0.697   4.620 -0.2025 -0.5706  0.9064
 6450SOL     OW30985   2.994   4.168   3.428 -0.0853 -0.0600  0.2095
 6450SOL    HW130986   3.058   4.238   3.424  0.8805 -0.8737  1.3127
 6450SOL    HW230987   2.910   4.214   3.423 -1.0804 -2.1249 -1.7512
 6451SOL     OW30988   4.497   3.227   2.782 -0.2650  0.2087  0.0089
 6451SOL    HW130989   4.550   3.274   2.718  1.3707 -2.1945 -0.4219
 6451SOL    HW230990   4.424   3.288   2.790 -1.7568 -1.5336 -0.1576
 6452SOL     OW30991   3.675   0.117   3.645  0.2983 -0.1768 -0.3535
 6452SOL    HW130992   3.664   0.067   3.726 -0.5483 -1.1330 -1.0587
 6452SOL    HW230993   3.582   0.134   3.632  0.5210  0.7866 -0.7011
 6453SOL     OW30994   0.984   1.071   8.637 -0.2872  0.5535 -0.1729
 6453SOL    HW130995   1.020   1.140   8.693  0.3302 -0.7952  1.0593
 6453SOL    HW230996   0.954   1.010   8.703  0.5802 -0.7711 -1.0013
 6454SOL     OW30997   4.394   2.994   2.931 -0.3588 -0.3932  0.1396
 6454SOL    HW130998   4.306   3.015   2.963 -0.0660 -0.6715  1.1328
 6454SOL    HW230999   4.424   3.073   2.887  0.3961 -0.2905  0.8277
 6455SOL     OW31000   2.084   3.440  10.603 -0.6921 -0.0683 -1.0503
 6455SOL    HW131001   2.045   3.406  10.523  1.2448  1.6033 -2.7201
 6455SOL    HW231002   2.094   3.531  10.574  0.2444  0.6775  1.5920
 6456SOL     OW31003   4.513   2.642   9.132  0.0544 -0.2084 -0.0275
 6456SOL    HW131004   4.465   2.723   9.153  1.1198  0.1969  0.8082
 6456SOL    HW231005   4.597   2.687   9.125 -1.0216  1.8212 -0.2380
 6457SOL     OW31006   4.699   2.855   2.224  0.1695 -0.2461 -0.1607
 6457SOL    HW131007   4.641   2.867   2.149 -1.1064 -0.3420  0.8039
 6457SOL    HW231008   4.645   2.796   2.277 -3.7736  1.7874 -1.8984
 6458SOL     OW31009   2.600   4.129   7.214 -0.1865 -0.7627  0.3055
 6458SOL    HW131010   2.505   4.141   7.221 -0.0405 -0.1256  1.1429
 6458SOL    HW231011   2.630   4.204   7.164  0.3575 -0.8249  0.5418
 6459SOL     OW31012   1.375   3.487   4.202 -0.1019 -0.2951 -0.2021
 6459SOL    HW131013   1.419   3.570   4.188  2.6170 -1.1161  3.6005
 6459SOL    HW231014   1.322   3.485   4.122  0.0350 -1.6888 -0.2539
 6460SOL     OW31015   2.713   2.328  16.698  0.0305 -0.2609  0.1300
 6460SOL    HW131016   2.806   2.315  16.677  0.0119  0.7234 -0.5463
 6460SOL    HW231017   2.686   2.236  16.694 -2.7904  0.6447 -0.8530
 6461SOL     OW31018   4.607   2.649  16.516  0.2756 -0.3563 -0.2041
 6461SOL    HW131019   4.626   2.629  16.424 -1.4968 -1.5244 -0.3112
 6461SOL    HW231020   4.564   2.731  16.491 -0.4280 -1.1112 -1.4792
 6462SOL     OW31021   3.797   1.025  13.639  0.0090 -0.7614 -0.6230
 6462SOL    HW131022   3.853   0.949  13.654  1.0255  0.7421  3.0540
 6462SOL    HW231023   3.733   1.022  13.710 -0.4198  2.5876 -0.8707
 6463SOL     OW31024   3.552   0.276   5.537 -0.0894  0.5227  0.3449
 6463SOL    HW131025   3.638   0.275   5.579  0.1054 -2.2143 -0.1394
 6463SOL    HW231026   3.491   0.306   5.604  0.8607  0.2092  1.3368
 6464SOL     OW31027   2.927   3.225   5.468 -0.6341 -0.1251  0.0123
 6464SOL    HW131028   2.943   3.187   5.382  1.4403 -0.4061  0.5197
 6464SOL    HW231029   2.924   3.144   5.519  2.2766 -0.4014 -0.2312
 6465SOL     OW31030   3.589   1.969   9.444 -0.6129  0.4144 -0.4680
 6465SOL    HW131031   3.635   1.958   9.361  0.5829 -0.5123  0.3134
 6465SOL    HW231032   3.660   1.997   9.501 -2.9301  1.4459  1.8903
 6466SOL     OW31033   4.291   0.460   4.787  0.2036 -0.0172 -0.0061
 6466SOL    HW131034   4.340   0.378   4.785  0.1671 -0.0679  1.1899
 6466SOL    HW231035   4.203   0.424   4.801 -0.4331  1.9883  1.1341
 6467SOL     OW31036   4.094   0.646  11.345 -0.5612 -0.1649 -0.4483
 6467SOL    HW131037   4.065   0.654  11.254  0.6289  0.5837 -0.7733
 6467SOL    HW231038   4.011   0.623  11.385 -0.2153 -2.0129 -0.7836
 6468SOL     OW31039   4.086   2.204   9.145  0.3593 -0.2009  0.2560
 6468SOL    HW131040   4.148   2.274   9.168 -0.4496  0.4698  0.3918
 6468SOL    HW231041   4.031   2.265   9.095 -0.0845  0.0980  1.1104
 6469SOL     OW31042   4.257   3.904   4.623 -0.7142  0.0235  0.4475
 6469SOL    HW131043   4.301   3.828   4.661  0.3115  1.2237  1.6851
 6469SOL    HW231044   4.259   3.974   4.689 -1.3328  0.1142  0.3700
 6470SOL     OW31045   0.379   1.184  15.279  0.1176 -0.2383  0.3632
 6470SOL    HW131046   0.303   1.143  15.237 -0.5256  3.0661 -1.6460
 6470SOL    HW231047   0.397   1.252  15.214 -1.1845  0.5364  0.8292
 6471SOL     OW31048   3.990   1.948   1.622  0.1970 -0.2289 -0.3200
 6471SOL    HW131049   3.920   1.894   1.660  0.2464 -0.6675 -0.8537
 6471SOL    HW231050   4.047   1.871   1.615  0.4932 -0.0334 -0.0438
 6472SOL     OW31051   2.100   4.546   2.338  0.5641 -0.0796 -0.5477
 6472SOL    HW131052   2.029   4.525   2.399  1.7041  0.1605  0.8668
 6472SOL    HW231053   2.176   4.521   2.389  1.4799  2.9004 -0.4437
 6473SOL     OW31054   4.549   0.406   2.319 -0.0418  0.3757  0.2371
 6473SOL    HW131055   4.480   0.459   2.359 -1.5205 -2.0225  0.8558
 6473SOL    HW231056   4.495   0.379   2.244  0.3784  0.1380  0.0230
 6474SOL     OW31057   4.453   3.733  15.939  0.6237 -0.5209 -0.2524
 6474SOL    HW131058   4.543   3.757  15.917 -0.3971  2.2586 -1.3739
 6474SOL    HW231059   4.451   3.729  16.035  1.2998 -0.2491 -0.2263
 6475SOL     OW31060   0.282   2.852   0.815 -0.7199 -0.7615 -0.3811
 6475SOL    HW131061   0.241   2.774   0.852 -0.1378 -0.3342  1.1944
 6475SOL    HW231062   0.269   2.919   0.883  0.8035 -1.0342  0.1873
 6476SOL     OW31063   2.596   1.474   7.821  0.1798 -0.1219  0.2495
 6476SOL    HW131064   2.537   1.399   7.810  0.1746  0.5365 -3.9080
 6476SOL    HW231065   2.533   1.546   7.814 -0.3083 -0.5395  0.2735
 6477SOL     OW31066   0.753   1.673  13.415 -0.1327 -0.2222 -0.3741
 6477SOL    HW131067   0.843   1.706  13.415 -0.1714 -0.1198 -1.9473
 6477SOL    HW231068   0.765   1.587  13.375  0.8893 -0.6357  0.8160
 6478SOL     OW31069   0.805   3.238   5.355 -0.0340  0.0393  0.0744
 6478SOL    HW131070   0.812   3.203   5.267  1.9157  0.8316 -0.0890
 6478SOL    HW231071   0.725   3.197   5.389 -0.5435  1.2126  0.2786
 6479SOL     OW31072   1.782   2.218   2.148  1.1269 -0.1347  0.1908
 6479SOL    HW131073   1.773   2.297   2.202 -2.0602 -0.8405  0.6666
 6479SOL    HW231074   1.838   2.238   2.072 -0.4347  1.1266 -0.6266
 6480SOL     OW31075   1.220   4.479   2.461  1.0220  0.2544  0.1685
 6480SOL    HW131076   1.257   4.525   2.386  1.0571 -0.6637 -0.3799
 6480SOL    HW231077   1.249   4.387   2.458  1.8803  0.5363 -0.0786
 6481SOL     OW31078   2.052   0.002  10.521 -0.5544 -0.7212  0.2036
 6481SOL    HW131079   2.087   4.727  10.433 -0.5980  1.2226 -0.1229
 6481SOL    HW231080   2.004   4.657  10.520  0.8565 -1.5264  1.1587
 6482SOL     OW31081   2.496   1.118   6.089  0.0785 -0.7103 -0.5864
 6482SOL    HW131082   2.448   1.035   6.082  2.3910 -2.1461  0.8953
 6482SOL    HW231083   2.456   1.168   6.017 -0.5016  0.9691  0.8801
 6483SOL     OW31084   3.502   1.942  11.901  0.4066  0.3728 -0.1727
 6483SOL    HW131085   3.552   1.994  11.964  2.0960 -0.2246 -1.0088
 6483SOL    HW231086   3.496   2.001  11.826 -0.8284 -0.8363 -1.0314
 6484SOL     OW31087   1.043   1.413   0.457  0.1487  0.2191  0.1269
 6484SOL    HW131088   1.084   1.338   0.499 -1.5645 -0.7081  0.1762
 6484SOL    HW231089   0.993   1.443   0.533 -1.5880  0.2848 -1.0198
 6485SOL     OW31090   4.645   3.735   7.461 -0.3302 -0.5168 -0.3996
 6485SOL    HW131091   4.647   3.649   7.421  0.0378 -0.9787  0.6040
 6485SOL    HW231092   4.625   3.718   7.553 -0.8261  0.8226 -0.2557
 6486SOL     OW31093   1.179   0.738  12.318 -0.5355 -0.0565 -1.1182
 6486SOL    HW131094   1.168   0.679  12.243 -2.0574 -1.3059  0.0913
 6486SOL    HW231095   1.232   0.799  12.267 -0.8534 -0.4490 -1.9238
 6487SOL     OW31096   3.453   0.066  14.974 -0.1364 -0.0319  0.1210
 6487SOL    HW131097   3.361   0.044  14.961  0.0260 -1.0161  0.6720
 6487SOL    HW231098   3.445   0.144  14.918  0.6885  1.0323  1.4741
 6488SOL     OW31099   2.840   2.791  14.609 -0.5813  0.1939  0.1936
 6488SOL    HW131100   2.874   2.722  14.552  1.3928  1.4318 -0.1231
 6488SOL    HW231101   2.751   2.808  14.581  0.0725 -1.3047 -2.7740
 6489SOL     OW31102   0.820   3.871   2.019 -0.0572  0.3665  0.3583
 6489SOL    HW131103   0.852   3.785   2.046  0.1294  0.3192 -0.0168
 6489SOL    HW231104   0.725   3.861   2.029  0.2905 -4.0448 -0.8932
 6490SOL     OW31105   1.353   2.870   3.285  0.2459  0.2770  0.3540
 6490SOL    HW131106   1.308   2.834   3.210  1.3997 -0.0914 -0.1655
 6490SOL    HW231107   1.281   2.898   3.341 -0.0213  1.1445 -0.4172
 6491SOL     OW31108   1.039   3.653   0.932  0.1339 -0.0738 -0.1837
 6491SOL    HW131109   1.056   3.732   0.983 -1.2214 -0.5986  1.0715
 6491SOL    HW231110   1.123   3.615   0.959 -0.2873 -1.7946 -1.2188
 6492SOL     OW31111   1.970   0.223   4.312  0.1926  0.0283  0.5339
 6492SOL    HW131112   1.903   0.251   4.374  1.3910  0.4896  1.6163
 6492SOL    HW231113   2.014   0.306   4.291 -1.8918  1.6048  2.3266
 6493SOL     OW31114   0.913   0.022   2.592  0.1150 -0.5717 -0.0300
 6493SOL    HW131115   0.956   0.070   2.522  0.8116 -0.9198  0.1632
 6493SOL    HW231116   0.985   4.716   2.636 -0.2720 -0.3598  0.8247
 6494SOL     OW31117   1.864   2.428   3.103 -0.3056  0.5764 -0.0070
 6494SOL    HW131118   1.824   2.502   3.149 -0.5460 -0.9045  2.1284
 6494SOL    HW231119   1.836   2.453   3.015  2.0218 -0.7078 -1.1104
 6495SOL     OW31120   0.345   1.756   2.479  0.5134  0.5353  0.0740
 6495SOL    HW131121   0.265   1.725   2.522 -0.4075  2.1135 -0.4632
 6495SOL    HW231122   0.411   1.762   2.548 -0.6913  1.4853  1.1471
 6496SOL     OW31123   4.420   2.961   7.924  0.3122 -0.0538 -0.4145
 6496SOL    HW131124   4.329   2.935   7.937  0.2720 -0.6799 -1.9966
 6496SOL    HW231125   4.437   3.011   8.004 -3.8526 -2.9812  2.2884
 6497SOL     OW31126   3.026   0.396  13.703 -0.1719  0.1985 -0.4318
 6497SOL    HW131127   3.038   0.481  13.660 -0.9889  0.2309 -0.5961
 6497SOL    HW231128   2.967   0.348  13.645 -0.8762 -1.3527  1.5455
 6498SOL     OW31129   4.589   0.354   3.238  0.1097  0.0579 -0.6401
 6498SOL    HW131130   4.588   0.349   3.334  1.0324 -0.8673 -0.6709
 6498SOL    HW231131   4.670   0.308   3.213  1.7905  1.5143  2.0416
 6499SOL     OW31132   1.702   0.021  12.965  0.6277 -0.1486  0.0861
 6499SOL    HW131133   1.614   0.025  12.927  0.3152 -0.5739  0.7629
 6499SOL    HW231134   1.742   4.677  12.937  0.7956 -0.4296  1.1863
 6500SOL     OW31135   4.276   3.956   0.295  0.3778 -0.0933 -0.2369
 6500SOL    HW131136   4.195   3.949   0.345  0.7699  0.5653  0.4906
 6500SOL    HW231137   4.291   3.865   0.270  0.1279 -1.1904  3.6447
 6501SOL     OW31138   0.683   1.076   3.111 -0.1489 -0.7270 -0.1924
 6501SOL    HW131139   0.676   1.167   3.081  3.2119 -0.1580  0.7254
 6501SOL    HW231140   0.701   1.044   3.023 -0.0891 -2.4991  0.4707
 6502SOL     OW31141   0.556   0.508   3.430  0.0034 -0.0824 -0.0843
 6502SOL    HW131142   0.505   0.555   3.364  1.3106  0.8422 -0.4308
 6502SOL    HW231143   0.641   0.550   3.421 -0.4580  0.8440 -0.0675
 6503SOL     OW31144   3.816   2.806   1.406  0.4621 -0.0435 -0.6558
 6503SOL    HW131145   3.862   2.723   1.410  0.1841 -0.0924  1.2837
 6503SOL    HW231146   3.770   2.806   1.322  1.2016  2.4999 -1.0723
 6504SOL     OW31147   1.770   2.855   2.843 -0.1912  0.1809  0.1419
 6504SOL    HW131148   1.764   2.759   2.847  0.5851  0.0263 -2.2411
 6504SOL    HW231149   1.810   2.877   2.927 -0.8566 -1.2689  0.8471
 6505SOL     OW31150   2.104   1.338  17.068  0.1318 -0.2366  0.0265
 6505SOL    HW131151   2.024   1.355  17.018 -0.1391 -0.0576  0.5256
 6505SOL    HW231152   2.076   1.375  17.152  0.4432  0.6744 -0.2746
 6506SOL     OW31153   4.594   1.827   5.331 -0.0880  0.6341  0.2693
 6506SOL    HW131154   4.636   1.897   5.280  0.5402  0.4000  0.4716
 6506SOL    HW231155   4.570   1.761   5.265  3.2247  0.4981 -0.7889
 6507SOL     OW31156   4.214   2.578  17.326  0.4545 -0.3890 -0.2530
 6507SOL    HW131157   4.228   2.486  17.351  0.5637 -0.3314 -0.1036
 6507SOL    HW231158   4.119   2.583  17.320  0.3915 -0.4567  0.6646
 6508SOL     OW31159   1.288   0.334  13.929 -0.5104  0.2272  0.3338
 6508SOL    HW131160   1.250   0.252  13.898 -1.2288  1.1077 -1.1382
 6508SOL    HW231161   1.220   0.400  13.911 -1.5341 -0.9485 -0.0917
 6509SOL     OW31162   0.880   3.631   7.016  0.2717 -0.9979 -0.3392
 6509SOL    HW131163   0.896   3.547   6.973  0.0763 -0.8087 -0.7790
 6509SOL    HW231164   0.966   3.672   7.011 -0.6255  0.4751 -3.6712
 6510SOL     OW31165   0.479   0.246   6.563  0.0866  0.6477  1.1321
 6510SOL    HW131166   0.523   0.219   6.643 -1.0371 -1.6434  0.9868
 6510SOL    HW231167   0.421   0.316   6.593 -1.2061 -0.4999  1.3806
 6511SOL     OW31168   2.305   0.293   7.728 -0.6428  0.1644  0.2018
 6511SOL    HW131169   2.232   0.272   7.786 -0.6672  1.5778  0.6613
 6511SOL    HW231170   2.352   0.362   7.774  0.5431  0.0313 -0.8208
 6512SOL     OW31171   3.480   3.445  17.163  0.7154 -0.4385 -0.2307
 6512SOL    HW131172   3.495   3.351  17.155  1.4193 -0.2321 -1.2347
 6512SOL    HW231173   3.474   3.476  17.073  2.4211 -0.2638 -0.2829
 6513SOL     OW31174   1.453   1.455   7.513 -0.0473 -0.5471  0.0905
 6513SOL    HW131175   1.456   1.388   7.445  0.5983  1.4493 -1.8517
 6513SOL    HW231176   1.405   1.527   7.471  0.9964 -0.0181 -0.1893
 6514SOL     OW31177   0.334   0.325  12.857  0.4124 -0.0995  0.3424
 6514SOL    HW131178   0.364   0.408  12.820  1.5621 -0.8247 -0.3651
 6514SOL    HW231179   0.259   0.294  12.806  0.7104 -0.4164  0.0957
 6515SOL     OW31180   0.150   0.496   8.969 -0.2051 -0.2373 -0.3178
 6515SOL    HW131181   0.200   0.415   8.959 -0.3738 -0.7187  2.6871
 6515SOL    HW231182   0.142   0.502   9.064  0.6484 -0.6528 -0.2172
 6516SOL     OW31183   2.794   0.850  12.401 -0.2013 -0.5759 -0.0183
 6516SOL    HW131184   2.810   0.795  12.324 -2.1634 -0.5004 -0.4784
 6516SOL    HW231185   2.763   0.928  12.355  2.1813  0.0114 -0.6475
 6517SOL     OW31186   4.037   3.967   0.456 -0.0466  0.1324 -0.5172
 6517SOL    HW131187   3.969   3.939   0.394  1.6354 -0.8264 -1.9216
 6517SOL    HW231188   3.980   3.975   0.533  0.7580 -2.0110  0.3057
 6518SOL     OW31189   0.613   2.868   5.102 -0.1221  0.5795 -0.4638
 6518SOL    HW131190   0.555   2.904   5.035 -0.2302 -0.1980 -0.7877
 6518SOL    HW231191   0.637   2.785   5.062  2.2283  1.2761 -0.5023
 6519SOL     OW31192   1.086   2.449  12.840  0.2824  0.6128 -0.1392
 6519SOL    HW131193   1.015   2.441  12.776 -2.2564 -0.2680  2.7760
 6519SOL    HW231194   1.163   2.411  12.797 -0.5288 -0.3446 -0.7828
 6520SOL     OW31195   0.743   0.779   6.830 -0.2574  0.0502 -0.4200
 6520SOL    HW131196   0.735   0.851   6.767  0.6064  0.3601 -0.1788
 6520SOL    HW231197   0.815   0.812   6.884  0.7521  1.8801 -2.9036
 6521SOL     OW31198   2.530   2.849   0.365 -0.0864 -0.2813 -0.7827
 6521SOL    HW131199   2.563   2.761   0.379 -1.9725 -1.4316 -3.5224
 6521SOL    HW231200   2.606   2.900   0.395 -1.1329 -0.2966  1.8328
 6522SOL     OW31201   1.908   4.276   3.510 -0.2197 -0.2274  0.0616
 6522SOL    HW131202   1.957   4.256   3.430  1.1592  0.0006  0.8461
 6522SOL    HW231203   1.822   4.308   3.485 -1.2712 -1.2157  2.3615
 6523SOL     OW31204   0.465   0.538   8.875  0.3768 -0.1657  0.3791
 6523SOL    HW131205   0.441   0.460   8.825  1.4790 -1.5750  2.0325
 6523SOL    HW231206   0.476   0.608   8.811  1.0994 -0.6221  0.0037
 6524SOL     OW31207   1.535   3.101   2.342 -0.1346 -0.3652  0.6605
 6524SOL    HW131208   1.476   3.125   2.270 -0.6124 -0.4359  1.0282
 6524SOL    HW231209   1.623   3.130   2.318 -0.1135 -0.7215  0.3067
 6525SOL     OW31210   4.580   3.522   3.327 -0.3555 -0.8197  0.0224
 6525SOL    HW131211   4.559   3.451   3.266 -1.9354 -0.5941  0.3001
 6525SOL    HW231212   4.498   3.548   3.368 -0.0121 -0.6649  0.6132
 6526SOL     OW31213   2.721   1.043  13.084  0.0134 -0.5549 -0.4875
 6526SOL    HW131214   2.667   0.967  13.064  0.8295 -0.7410 -1.9693
 6526SOL    HW231215   2.792   1.025  13.023  0.8988  1.0580  0.0693
 6527SOL     OW31216   1.356   3.103   4.709 -0.2838  0.4523  0.8628
 6527SOL    HW131217   1.295   3.153   4.654 -0.0262  1.8568  1.8478
 6527SOL    HW231218   1.435   3.156   4.700 -0.3511  0.4753  0.4366
 6528SOL     OW31219   2.419   0.229  12.420 -0.1137 -0.0919 -0.2978
 6528SOL    HW131220   2.391   0.273  12.500 -0.7644 -0.2825 -0.4195
 6528SOL    HW231221   2.449   0.306  12.372 -0.1131  1.7619  2.7432
 6529SOL     OW31222   2.990   0.389  11.639 -0.1517  0.1578 -0.7552
 6529SOL    HW131223   3.027   0.303  11.662  2.0486  0.9860 -1.1309
 6529SOL    HW231224   3.068   0.444  11.649  1.3516 -2.0557 -0.1197
 6530SOL     OW31225   1.712   4.088   6.953  0.2172 -0.2407  0.7374
 6530SOL    HW131226   1.641   4.112   6.894  0.8566 -1.1123 -0.3978
 6530SOL    HW231227   1.786   4.128   6.907 -0.0998 -0.4413  0.0541
 6531SOL     OW31228   2.659   1.268   8.755 -0.7168 -0.3730 -0.5680
 6531SOL    HW131229   2.586   1.320   8.789  0.4963  1.5477 -0.9191
 6531SOL    HW231230   2.731   1.331   8.757 -1.7876  0.8919 -1.2406
 6532SOL     OW31231   0.947   4.322   9.859  0.1055 -0.3930  0.0082
 6532SOL    HW131232   1.027   4.370   9.839 -0.0124 -0.7793 -1.3731
 6532SOL    HW231233   0.957   4.254   9.793 -1.1369 -3.2354  2.7363
 6533SOL     OW31234   2.739   2.351   6.735  0.2604 -0.7937 -0.3911
 6533SOL    HW131235   2.700   2.407   6.668  0.3904 -0.8748 -0.5331
 6533SOL    HW231236   2.663   2.333   6.791 -0.4121  2.5904 -0.2397
 6534SOL     OW31237   0.601   0.869  12.090 -0.3175  0.2321 -0.0598
 6534SOL    HW131238   0.509   0.895  12.080 -0.3663  0.1491  0.1633
 6534SOL    HW231239   0.641   0.950  12.121  0.5820 -0.1172 -0.3220
 6535SOL     OW31240   3.437   2.865   6.731 -0.0770 -0.2934  0.0873
 6535SOL    HW131241   3.512   2.917   6.704 -0.2028 -0.1057  0.0993
 6535SOL    HW231242   3.458   2.777   6.702  1.8089  0.4132 -0.7046
 6536SOL     OW31243   1.674   0.888  15.263 -0.0184  0.0694  0.2271
 6536SOL    HW131244   1.744   0.875  15.327  0.0193  3.3269  0.8589
 6536SOL    HW231245   1.665   0.983  15.253  2.1412  0.3675  1.2307
 6537SOL     OW31246   3.037   2.482  13.555  0.2281 -0.8599 -0.0800
 6537SOL    HW131247   2.956   2.474  13.506 -0.3279 -0.4675  0.7731
 6537SOL    HW231248   2.998   2.526  13.631 -1.8178  0.9095 -2.2014
 6538SOL     OW31249   0.168   4.484   5.031 -0.7152 -0.2675 -0.1144
 6538SOL    HW131250   0.193   4.401   4.989 -0.4167  0.6904 -1.8411
 6538SOL    HW231251   0.096   4.506   4.972  0.3479 -1.8034 -1.9980
 6539SOL     OW31252   0.985   3.491   3.769 -0.1396  0.5477 -0.3566
 6539SOL    HW131253   0.916   3.546   3.733 -1.7151 -1.2462 -0.0245
 6539SOL    HW231254   0.959   3.406   3.734 -2.0462 -0.0785  2.5989
 6540SOL     OW31255   3.663   2.481   8.036 -0.2604 -0.0912 -0.1447
 6540SOL    HW131256   3.712   2.537   7.975 -0.3302 -0.3365 -0.4312
 6540SOL    HW231257   3.586   2.535   8.051 -0.2047  0.0079 -0.2174
 6541SOL     OW31258   0.092   0.010   7.636 -0.0964  0.2148  0.5040
 6541SOL    HW131259   0.184   4.725   7.642 -0.1579 -0.4958 -1.2274
 6541SOL    HW231260   0.082   0.026   7.729 -0.8542  0.3746  0.3969
 6542SOL     OW31261   2.112   1.536   8.508 -0.3438  0.0449 -0.4319
 6542SOL    HW131262   2.102   1.600   8.578  2.2550  0.2474 -0.2375
 6542SOL    HW231263   2.148   1.463   8.558  1.8787  0.5427 -1.3035
 6543SOL     OW31264   1.555   1.297   5.526  0.1258  0.2959 -0.1500
 6543SOL    HW131265   1.563   1.320   5.433 -0.5150 -2.7266 -0.9488
 6543SOL    HW231266   1.641   1.310   5.566  0.1813  2.3231 -0.9096
 6544SOL     OW31267   3.176   0.161   9.030 -0.3130  0.2341 -0.0259
 6544SOL    HW131268   3.103   0.222   9.014 -0.3058 -0.3622 -2.2619
 6544SOL    HW231269   3.137   0.079   9.061 -0.6752 -0.4825 -2.3782
 6545SOL     OW31270   2.833   3.201   8.183 -0.1561  0.0104  0.0397
 6545SOL    HW131271   2.809   3.286   8.146 -2.2634 -0.3610  0.5304
 6545SOL    HW231272   2.925   3.222   8.196 -0.4134  0.8038  0.6562
 6546SOL     OW31273   1.939   2.118   9.862  0.1747  0.2796 -0.3611
 6546SOL    HW131274   1.963   2.059   9.933  1.7793  3.0956  1.4583
 6546SOL    HW231275   2.032   2.123   9.839  0.5179 -0.0934  0.9501
 6547SOL     OW31276   1.896   0.487   8.123 -0.0795 -0.0887 -0.7487
 6547SOL    HW131277   1.978   0.439   8.134  0.2218  0.5045 -0.4208
 6547SOL    HW231278   1.865   0.490   8.214 -1.7703  0.3241 -1.3353
 6548SOL     OW31279   2.561   2.457   3.583  0.3058 -0.9340 -0.3317
 6548SOL    HW131280   2.626   2.502   3.528  1.9655 -0.6671  1.8514
 6548SOL    HW231281   2.489   2.455   3.520  0.1180 -1.8754 -0.0923
 6549SOL     OW31282   3.630   0.748   4.839 -0.3561 -0.2082 -0.6475
 6549SOL    HW131283   3.652   0.801   4.916 -0.5929  2.4289 -2.4241
 6549SOL    HW231284   3.544   0.716   4.867 -1.2159  1.2013 -1.6825
 6550SOL     OW31285   2.848   0.579  11.900  0.0158  0.1474  0.7299
 6550SOL    HW131286   2.904   0.597  11.825 -1.3139  0.5544 -0.1800
 6550SOL    HW231287   2.813   0.490  11.891 -0.5204  0.5243 -0.8560
 6551SOL     OW31288   4.209   2.313   8.481 -0.3699 -0.2300  0.0286
 6551SOL    HW131289   4.194   2.220   8.467  2.3512 -0.4012 -1.6586
 6551SOL    HW231290   4.174   2.319   8.570  1.9082 -0.4870  0.9392
 6552SOL     OW31291   4.359   4.632  16.985  0.1089  0.1580  0.2539
 6552SOL    HW131292   4.340   4.705  17.044  0.0698  1.2840 -1.1330
 6552SOL    HW231293   4.309   4.564  17.029  0.5822 -1.6123 -1.9603
 6553SOL     OW31294   0.294   1.487   7.367  0.0142 -0.0387 -0.0400
 6553SOL    HW131295   0.251   1.572   7.360  0.1566 -0.1662 -2.2979
 6553SOL    HW231296   0.223   1.433   7.332 -1.3707  2.1342 -0.6087
 6554SOL     OW31297   1.734   0.598   0.734  0.4294  0.5326  0.0802
 6554SOL    HW131298   1.784   0.609   0.653  1.0023  1.0703  0.5029
 6554SOL    HW231299   1.721   0.504   0.739 -0.1580  0.5715 -0.7342
 6555SOL     OW31300   3.672   4.511   8.837  0.1123 -0.0256  0.2109
 6555SOL    HW131301   3.636   4.559   8.762 -1.7274 -0.6368  0.7068
 6555SOL    HW231302   3.733   4.579   8.863  3.1401 -1.7428 -2.3937
 6556SOL     OW31303   2.195   0.685   8.193 -0.1447  0.2030  0.1439
 6556SOL    HW131304   2.111   0.724   8.217 -0.2168  1.2618 -1.8229
 6556SOL    HW231305   2.256   0.757   8.209 -1.2841  1.2309 -0.1120
 6557SOL     OW31306   0.648   3.317   6.465 -0.1506  0.2894 -0.0718
 6557SOL    HW131307   0.571   3.349   6.419 -0.8409  0.5504  1.2827
 6557SOL    HW231308   0.714   3.384   6.448 -0.3877  0.2514 -1.1557
 6558SOL     OW31309   2.996   3.942   0.916  0.1957 -0.8288 -0.8682
 6558SOL    HW131310   2.910   3.925   0.955  0.6022  0.0163  0.4111
 6558SOL    HW231311   3.022   4.031   0.941 -1.9730 -0.3195 -0.4014
 6559SOL     OW31312   1.826   2.413   7.580  0.5085 -0.2035  0.1100
 6559SOL    HW131313   1.877   2.400   7.500  2.0180  1.6554  0.7684
 6559SOL    HW231314   1.898   2.433   7.640  0.1740  0.2120  0.3739
 6560SOL     OW31315   0.515   3.808   7.010  0.2057 -0.5043 -0.4890
 6560SOL    HW131316   0.542   3.741   7.073 -1.1659  0.2609  0.9379
 6560SOL    HW231317   0.578   3.878   7.025 -0.9935  0.5367 -0.2975
 6561SOL     OW31318   2.008   1.060  10.583 -0.1068 -0.1394  0.1996
 6561SOL    HW131319   1.944   1.088  10.648  1.2718 -0.8166  1.8507
 6561SOL    HW231320   1.963   0.987  10.539  0.0719 -0.8832  1.2528
 6562SOL     OW31321   1.678   2.008   1.036  0.1113 -0.7018 -0.9337
 6562SOL    HW131322   1.745   2.000   0.968 -0.4303 -0.5869 -1.4792
 6562SOL    HW231323   1.615   1.939   1.016 -0.5076 -0.6290  0.7058
 6563SOL     OW31324   0.025   3.803   8.401 -0.2900  0.0083 -0.0307
 6563SOL    HW131325   4.727   3.797   8.314  1.9879  0.1830 -1.0246
 6563SOL    HW231326   0.019   3.898   8.410  1.9797  0.2442 -0.8610
 6564SOL     OW31327   2.962   0.614   7.836 -0.9249  0.5438 -0.4061
 6564SOL    HW131328   2.883   0.664   7.816 -0.4798  1.3439 -0.2094
 6564SOL    HW231329   2.943   0.559   7.912  1.5203 -0.3317 -0.4076
 6565SOL     OW31330   3.801   1.984  12.315  0.1263 -0.0748  0.0385
 6565SOL    HW131331   3.841   1.905  12.277  2.0142  0.7080  0.4031
 6565SOL    HW231332   3.871   2.014  12.373  1.4009  2.0122 -2.5908
 6566SOL     OW31333   4.191   3.172   7.280  0.5601 -0.4028 -0.1335
 6566SOL    HW131334   4.221   3.082   7.270 -0.0156 -0.5415 -0.6689
 6566SOL    HW231335   4.132   3.150   7.352  1.3926 -0.1629  0.6225
 6567SOL     OW31336   4.280   3.115   3.337  0.9240  0.3644 -0.6423
 6567SOL    HW131337   4.233   3.041   3.300 -0.2589  1.4361 -1.3158
 6567SOL    HW231338   4.232   3.187   3.296  0.9314  1.4937  1.3358
 6568SOL     OW31339   3.879   3.389  11.728  0.0257  0.0259  0.6182
 6568SOL    HW131340   3.952   3.407  11.788  2.2883 -0.6485 -1.9446
 6568SOL    HW231341   3.864   3.473  11.685 -2.9055 -1.8489 -2.0086
 6569SOL     OW31342   2.831   3.256  16.442  0.8987 -0.3397 -0.3142
 6569SOL    HW131343   2.794   3.263  16.354  2.1267  1.2924 -0.7162
 6569SOL    HW231344   2.765   3.312  16.484  0.9211 -2.0035  1.9070
 6570SOL     OW31345   4.405   1.810   7.192  0.0210 -0.0261  0.2338
 6570SOL    HW131346   4.409   1.840   7.101 -2.8958  1.0791  0.4742
 6570SOL    HW231347   4.493   1.830   7.223 -1.1573  0.6135  3.1507
 6571SOL     OW31348   2.990   2.650   5.009  0.2101  0.1624 -0.6137
 6571SOL    HW131349   2.977   2.585   5.078 -0.5830  0.7724 -0.1948
 6571SOL    HW231350   2.923   2.713   5.038  0.1464 -0.3224  0.2911
 6572SOL     OW31351   1.601   3.953  16.187 -0.5283 -0.4903  0.1192
 6572SOL    HW131352   1.668   3.944  16.119  0.2842  1.1733  0.6979
 6572SOL    HW231353   1.654   3.965  16.265  0.8729 -1.3029 -0.7145
 6573SOL     OW31354   3.104   0.206  11.274 -0.1641  0.4209  0.0838
 6573SOL    HW131355   3.092   0.111  11.269 -0.3427  0.3866  1.3586
 6573SOL    HW231356   3.092   0.217  11.368 -0.5228 -1.2612  0.2393
 6574SOL     OW31357   0.276   2.216  15.849 -0.2430 -0.2500  0.1050
 6574SOL    HW131358   0.277   2.227  15.944  1.4762  0.3687  0.0246
 6574SOL    HW231359   0.253   2.306  15.825  2.4181  0.0036 -1.5613
 6575SOL     OW31360   0.225   2.621   2.085 -0.2102 -0.0066  0.1729
 6575SOL    HW131361   0.167   2.657   2.018 -0.9141  0.4980  1.0623
 6575SOL    HW231362   0.191   2.532   2.091  1.2215 -0.6236 -0.7149
 6576SOL     OW31363   0.551   1.794   2.637 -0.0498  0.3270  0.1274
 6576SOL    HW131364   0.591   1.812   2.722  0.3369 -1.8456  0.4128
 6576SOL    HW231365   0.623   1.820   2.580 -1.7558  0.3260 -2.0362
 6577SOL     OW31366   3.308   0.160   9.559 -0.6598  0.0657  0.0408
 6577SOL    HW131367   3.243   0.226   9.535 -0.0748  0.8088  0.5103
 6577SOL    HW231368   3.351   0.193   9.637  0.2822 -0.2397 -0.3492
 6578SOL     OW31369   2.817   3.687   7.768  0.0830 -0.1400  0.4757
 6578SOL    HW131370   2.807   3.597   7.738 -3.5084  0.7451 -1.0640
 6578SOL    HW231371   2.892   3.713   7.716  0.2994 -1.9909 -0.1179
 6579SOL     OW31372   0.478   3.427  15.079 -0.3083  0.7150 -0.0042
 6579SOL    HW131373   0.404   3.469  15.034  0.7949  1.7939 -0.8053
 6579SOL    HW231374   0.534   3.423  15.001  0.0708 -0.3951  0.3261
 6580SOL     OW31375   3.148   0.910   2.478  0.2272 -0.3262 -0.3492
 6580SOL    HW131376   3.196   0.987   2.509  0.5258 -0.6397 -0.0281
 6580SOL    HW231377   3.058   0.937   2.496 -0.1078 -0.6218 -1.5980
 6581SOL     OW31378   3.122   3.276   5.662  0.3140 -0.0160  0.1012
 6581SOL    HW131379   3.103   3.182   5.653 -2.6997  0.6488 -0.7148
 6581SOL    HW231380   3.076   3.307   5.584 -1.1723 -2.6255 -0.0609
 6582SOL     OW31381   3.294   1.885  11.649  0.1001  0.3222  0.7186
 6582SOL    HW131382   3.246   1.891  11.732 -0.4699 -0.9823  0.4854
 6582SOL    HW231383   3.356   1.955  11.665 -0.4343  1.0348 -0.3435
 6583SOL     OW31384   0.603   4.346   1.840  0.2012 -0.1414 -0.0249
 6583SOL    HW131385   0.593   4.268   1.895 -2.0446  0.9017  1.0636
 6583SOL    HW231386   0.585   4.414   1.905  1.7571  0.2296  0.0138
 6584SOL     OW31387   1.056   0.284   8.880  0.1776 -0.2143 -0.3160
 6584SOL    HW131388   0.970   0.244   8.895 -0.6399  1.1782 -1.2893
 6584SOL    HW231389   1.082   0.243   8.797  0.4682  0.5731 -0.6160
 6585SOL     OW31390   0.037   3.445   3.842  0.2353 -0.4133 -0.0544
 6585SOL    HW131391   0.057   3.354   3.867 -0.3716 -0.4086  0.4472
 6585SOL    HW231392   0.020   3.432   3.749  1.1946  0.2869 -0.3230
 6586SOL     OW31393   1.961   1.259   4.786 -0.0632 -0.1589 -0.3644
 6586SOL    HW131394   1.867   1.275   4.789  0.2291  1.1887  1.7657
 6586SOL    HW231395   1.954   1.164   4.792 -1.3698 -0.0714 -0.5888
 6587SOL     OW31396   4.069   4.138   2.934 -0.1539  0.3350  0.1012
 6587SOL    HW131397   4.017   4.093   3.000 -0.8091  3.1249  1.4802
 6587SOL    HW231398   4.086   4.225   2.970  1.8033  0.7378 -1.7616
 6588SOL     OW31399   0.744   2.540   4.751  0.7085  0.8601  0.0965
 6588SOL    HW131400   0.837   2.522   4.736  0.4748 -1.4899  1.4392
 6588SOL    HW231401   0.736   2.628   4.713  0.7420 -0.1344 -2.2250
 6589SOL     OW31402   1.420   4.238   9.638 -0.2151 -0.1535  0.9021
 6589SOL    HW131403   1.351   4.175   9.619 -0.4860 -0.4041  2.6915
 6589SOL    HW231404   1.451   4.231   9.548  1.9357  2.6411  1.4125
 6590SOL     OW31405   2.644   2.130   1.803  0.0948 -0.2498  0.2922
 6590SOL    HW131406   2.738   2.131   1.788  0.3206  1.3626  1.8849
 6590SOL    HW231407   2.634   2.225   1.798  0.8288 -0.0952  1.9893
 6591SOL     OW31408   0.603   0.016   0.320  0.3903 -0.0815  0.0251
 6591SOL    HW131409   0.586   4.664   0.345  1.6239 -0.7539 -1.6199
 6591SOL    HW231410   0.563   0.002   0.234 -0.8123  2.1815  0.2318
 6592SOL     OW31411   2.495   1.995  10.511  0.1013 -0.2338 -0.5770
 6592SOL    HW131412   2.426   2.058  10.532  1.5526  0.7510  1.2564
 6592SOL    HW231413   2.475   1.976  10.419  1.0946  0.9824 -1.0443
 6593SOL     OW31414   2.352   1.588   8.095 -0.4024  0.1372  0.0646
 6593SOL    HW131415   2.429   1.616   8.045  0.4789 -0.1390  1.2739
 6593SOL    HW231416   2.368   1.632   8.179 -1.0978  1.1348 -0.3153
 6594SOL     OW31417   3.396   0.549  16.616  0.3994  0.1314 -0.0239
 6594SOL    HW131418   3.325   0.598  16.656  0.9969  1.0357 -0.0735
 6594SOL    HW231419   3.474   0.592  16.651 -0.0764  1.3061 -0.4296
 6595SOL     OW31420   2.575   1.608   5.980 -0.1634 -0.5156  1.0968
 6595SOL    HW131421   2.484   1.612   5.951  0.3052 -1.4189 -0.4725
 6595SOL    HW231422   2.565   1.606   6.076  0.7442 -0.0126  1.1983
 6596SOL     OW31423   2.437   0.698   6.412 -0.5115 -0.2243 -0.1999
 6596SOL    HW131424   2.510   0.660   6.361 -1.0327 -2.6995  0.8778
 6596SOL    HW231425   2.463   0.789   6.424 -0.3635 -0.5523  1.8375
 6597SOL     OW31426   2.707   4.714   8.522  0.0594  0.6531 -0.3086
 6597SOL    HW131427   2.671   0.010   8.441  1.1273 -0.1693 -1.1404
 6597SOL    HW231428   2.799   4.709   8.495  0.4525  1.5314  0.8779
 6598SOL     OW31429   3.255   4.033   5.539  0.4768 -0.0186 -0.1126
 6598SOL    HW131430   3.232   4.125   5.529  4.7529  1.3953  2.8824
 6598SOL    HW231431   3.222   3.997   5.457  0.5099 -0.8070  0.2207
 6599SOL     OW31432   0.486   2.235  16.048  0.0834  0.7106  0.5568
 6599SOL    HW131433   0.409   2.287  16.069  0.4043  0.4345  2.4330
 6599SOL    HW231434   0.526   2.288  15.978 -1.9048 -0.0170 -1.1262
 6600SOL     OW31435   4.010   4.457   7.613 -0.2917  0.4480 -0.4975
 6600SOL    HW131436   3.960   4.408   7.549 -0.7075  2.1543 -1.4774
 6600SOL    HW231437   4.003   4.390   7.682 -1.4918  0.6502 -0.4348
 6601SOL     OW31438   4.601   2.007   1.575 -0.3827  0.2331  0.2459
 6601SOL    HW131439   4.550   2.011   1.656  1.1761  2.0061  1.1686
 6601SOL    HW231440   4.543   2.058   1.519 -0.2107  2.2019  1.8617
 6602SOL     OW31441   2.211   1.346   8.692 -0.1311  0.0029  0.5056
 6602SOL    HW131442   2.232   1.253   8.694 -0.5118 -0.1125 -0.5194
 6602SOL    HW231443   2.267   1.393   8.753  0.5258 -1.5961  1.1309
 6603SOL     OW31444   3.609   3.734   9.201  0.0450  0.4236 -0.1862
 6603SOL    HW131445   3.672   3.752   9.132 -2.3195  1.5342 -2.0310
 6603SOL    HW231446   3.531   3.766   9.156 -1.6486 -2.6866  0.4664
 6604SOL     OW31447   1.258   1.999   0.242  0.2518  0.2057 -0.1621
 6604SOL    HW131448   1.205   2.012   0.164 -0.9567 -0.6842  0.5196
 6604SOL    HW231449   1.345   1.976   0.209  0.2307  1.2067 -0.9246
 6605SOL     OW31450   2.987   1.921   9.046  0.2301  0.1481 -0.5389
 6605SOL    HW131451   2.997   1.826   9.053  0.8360  0.0450 -2.7656
 6605SOL    HW231452   3.025   1.944   9.131 -1.3336  1.2952 -0.1512
 6606SOL     OW31453   3.879   0.030  13.328  0.4042 -0.1727  0.0485
 6606SOL    HW131454   3.826   0.073  13.396  2.5965 -0.9270  2.2119
 6606SOL    HW231455   3.823   0.033  13.251  1.5705  0.2709 -0.7716
 6607SOL     OW31456   0.041   1.315   1.706 -0.2043 -0.0191  0.0163
 6607SOL    HW131457   0.074   1.362   1.629 -2.5202  1.0753 -0.3124
 6607SOL    HW231458   0.107   1.246   1.699 -2.3626 -2.2546  1.6123
 6608SOL     OW31459   4.458   3.644  14.951  0.2478 -0.5962  0.3326
 6608SOL    HW131460   4.490   3.557  14.928 -2.0880 -1.7319  1.4427
 6608SOL    HW231461   4.363   3.635  14.950  0.2421 -0.6880  1.4018
 6609SOL     OW31462   4.717   2.440   7.849  0.3468 -0.0635  0.1067
 6609SOL    HW131463   4.730   2.472   7.938  1.1549 -1.4101  0.4704
 6609SOL    HW231464   0.071   2.448   7.826  0.3789 -0.9704 -0.0686
 6610SOL     OW31465   3.871   1.269   8.421  0.6753 -0.0452 -0.2829
 6610SOL    HW131466   3.901   1.329   8.352  1.4502  0.6984  0.6974
 6610SOL    HW231467   3.858   1.327   8.496 -1.3481 -0.0332 -0.6454
 6611SOL     OW31468   3.497   1.003   7.102 -0.2396 -0.3122 -0.2831
 6611SOL    HW131469   3.549   1.036   7.029  0.0100  1.5383  0.7342
 6611SOL    HW231470   3.415   0.993   7.053  0.1218 -0.1093 -0.9215
 6612SOL     OW31471   1.944   2.806   4.618 -0.1854 -0.2706 -0.7028
 6612SOL    HW131472   1.849   2.814   4.615 -0.4229 -1.7985  2.4854
 6612SOL    HW231473   1.962   2.898   4.636 -1.5116 -0.4685  1.5587
 6613SOL     OW31474   2.224   0.031   8.677  0.3540  0.4329  0.4520
 6613SOL    HW131475   2.151   4.729   8.631  0.8223 -3.1109  2.8985
 6613SOL    HW231476   2.177   0.106   8.715 -0.8574  1.4409 -3.0568
 6614SOL     OW31477   0.355   1.100   6.594  0.5931 -0.0729  0.7919
 6614SOL    HW131478   0.393   1.017   6.622  0.6569 -0.0566  0.7515
 6614SOL    HW231479   0.307   1.062   6.520  2.0332 -1.1176  0.4079
 6615SOL     OW31480   1.708   1.293   8.006 -0.3116  0.7468  0.3782
 6615SOL    HW131481   1.800   1.313   8.023 -0.8409  2.5827  1.0272
 6615SOL    HW231482   1.692   1.327   7.918  1.4525  0.9766  0.1543
 6616SOL     OW31483   2.596   0.819   3.511  0.3237 -0.6929  0.3964
 6616SOL    HW131484   2.507   0.790   3.493  1.0517 -2.5507 -0.2784
 6616SOL    HW231485   2.627   0.821   3.420 -1.3053 -0.1262 -0.1427
 6617SOL     OW31486   3.496   1.753   9.210 -0.7960 -0.0730 -0.3827
 6617SOL    HW131487   3.463   1.794   9.290  1.2663 -0.4319  0.6439
 6617SOL    HW231488   3.557   1.815   9.172 -1.9746 -0.1333 -2.3783
 6618SOL     OW31489   2.564   3.891  12.246  0.1890  0.1308 -0.2478
 6618SOL    HW131490   2.586   3.930  12.330 -1.9737 -1.9309  1.2554
 6618SOL    HW231491   2.641   3.906  12.191  1.1784  3.1420  1.9679
 6619SOL     OW31492   0.001   3.296   0.660  0.4124  0.1691 -0.0532
 6619SOL    HW131493   0.052   3.290   0.579 -0.8762  1.7938 -0.9828
 6619SOL    HW231494   0.011   3.208   0.694 -0.3617 -0.2957 -1.0209
 6620SOL     OW31495   0.502   0.383   4.457  0.1115  0.0936  0.1126
 6620SOL    HW131496   0.506   0.457   4.396 -0.5088  0.9192  1.0774
 6620SOL    HW231497   0.407   0.373   4.470  0.2981 -0.4732  1.0090
 6621SOL     OW31498   0.654   0.754   4.141  0.0410  0.1599 -0.4727
 6621SOL    HW131499   0.582   0.815   4.124  0.6706  0.9487 -0.3219
 6621SOL    HW231500   0.721   0.795   4.087  2.3095 -0.8875  1.5474
 6622SOL     OW31501   3.449   2.595   7.163  0.0043  0.2721  0.5307
 6622SOL    HW131502   3.401   2.608   7.244 -0.6160  1.8773 -0.0901
 6622SOL    HW231503   3.421   2.677   7.123 -0.5384  0.0987  0.5528
 6623SOL     OW31504   4.665   4.494   4.532 -0.2998 -0.2823 -0.6345
 6623SOL    HW131505   4.665   4.420   4.593 -1.8534  1.3258  1.3235
 6623SOL    HW231506   4.611   4.460   4.461 -1.8266 -1.5584  1.1084
 6624SOL     OW31507   1.670   3.025   3.819  0.0101 -0.2976 -0.5535
 6624SOL    HW131508   1.733   2.982   3.876  0.3818  0.3529 -0.4640
 6624SOL    HW231509   1.604   2.961   3.796  1.0462 -0.4634 -3.2035
 6625SOL     OW31510   4.538   4.029   5.441  0.0721 -0.0942  0.0257
 6625SOL    HW131511   4.551   3.986   5.357  1.5919 -2.0706  1.2613
 6625SOL    HW231512   4.544   3.960   5.507  1.4517 -0.1726 -0.1792
 6626SOL     OW31513   0.622   4.576   3.392  0.3534 -0.5232 -0.4129
 6626SOL    HW131514   0.647   4.528   3.313  0.9517 -1.6135  0.4415
 6626SOL    HW231515   0.628   4.503   3.453 -2.6334  2.2962  3.2334
 6627SOL     OW31516   4.724   1.529   0.914 -0.5685 -0.8307 -0.4856
 6627SOL    HW131517   4.716   1.610   0.864 -1.2783 -0.5847  0.0366
 6627SOL    HW231518   4.655   1.554   0.975  0.6001 -1.0565  0.9291
 6628SOL     OW31519   1.230   3.801  17.466  0.7778  0.3786  0.3567
 6628SOL    HW131520   1.234   3.885  17.511  0.8217 -0.5478  2.0900
 6628SOL    HW231521   1.319   3.800  17.431  0.2262 -0.0771 -1.0677
 6629SOL     OW31522   1.388   0.078  17.272  0.0824 -0.3116 -0.2918
 6629SOL    HW131523   1.354   0.031  17.196  0.6809 -1.5472  0.2162
 6629SOL    HW231524   1.329   0.151  17.289  0.5792 -0.0672  0.3732
 6630SOL     OW31525   0.442   1.467   5.972 -0.3387 -0.7428 -0.6359
 6630SOL    HW131526   0.483   1.415   5.903  0.1530  0.0834 -0.9739
 6630SOL    HW231527   0.352   1.436   5.973 -1.3955  2.3825  1.3890
 6631SOL     OW31528   3.992   3.545   9.514 -0.2884  0.1291 -0.4483
 6631SOL    HW131529   3.933   3.542   9.439 -0.1821 -0.0180 -0.5246
 6631SOL    HW231530   4.047   3.474   9.482 -0.0426  0.1816 -0.1502
 6632SOL     OW31531   1.923   0.521   5.096  0.5782 -0.6312  0.5152
 6632SOL    HW131532   1.994   0.563   5.144 -0.6050  2.7964 -0.7208
 6632SOL    HW231533   1.850   0.526   5.158  0.8468 -1.0534  0.8637
 6633SOL     OW31534   4.548   3.961   1.324  0.0920  0.5061  0.0487
 6633SOL    HW131535   4.509   3.957   1.237  0.1121  0.4039  0.0444
 6633SOL    HW231536   4.618   3.900   1.302 -0.0935  0.1735  0.3887
 6634SOL     OW31537   3.414   2.111   6.158  0.2186  0.0897  0.1208
 6634SOL    HW131538   3.354   2.038   6.173 -1.2777  1.4136  0.6448
 6634SOL    HW231539   3.491   2.056   6.146 -0.9645 -1.4258 -0.5663
 6635SOL     OW31540   1.165   2.770   6.434 -0.4546 -0.0989  0.5261
 6635SOL    HW131541   1.151   2.775   6.340 -1.7597  0.5527  0.7423
 6635SOL    HW231542   1.252   2.731   6.439  1.0599  3.1969 -0.4199
 6636SOL     OW31543   2.373   1.964   6.212 -0.2855 -0.6319 -0.4338
 6636SOL    HW131544   2.333   1.877   6.219  1.9625 -1.7013 -0.6254
 6636SOL    HW231545   2.458   1.943   6.173  0.2430 -0.4466  0.6183
 6637SOL     OW31546   3.163   1.506   6.691 -0.0742  0.0171 -0.2519
 6637SOL    HW131547   3.226   1.577   6.698 -0.2177  0.2064 -0.8810
 6637SOL    HW231548   3.136   1.496   6.600 -0.4230  0.4460 -0.1944
 6638SOL     OW31549   3.573   2.933   6.224  0.9840  0.5616  0.1526
 6638SOL    HW131550   3.622   2.859   6.189  1.6494 -0.3448  3.0603
 6638SOL    HW231551   3.527   2.895   6.299  0.7443 -0.2683 -0.4168
 6639SOL     OW31552   3.857   4.327   9.189 -0.1330  0.0995 -0.6977
 6639SOL    HW131553   3.908   4.338   9.108  0.1505 -1.9376 -0.8121
 6639SOL    HW231554   3.773   4.368   9.169 -1.4748 -2.7305 -0.8816
 6640SOL     OW31555   3.309   4.409   9.464  0.6915 -0.4482 -0.0716
 6640SOL    HW131556   3.354   4.484   9.426 -1.1616  1.5098  1.5700
 6640SOL    HW231557   3.347   4.336   9.416  2.3039  0.9232 -0.8363
 6641SOL     OW31558   3.152   3.388   9.744 -0.1567  0.2765 -0.1587
 6641SOL    HW131559   3.073   3.370   9.694  0.2435  1.7377 -1.3051
 6641SOL    HW231560   3.119   3.431   9.823 -0.4167 -1.2241  0.5493
 6642SOL     OW31561   2.126   3.335   8.973 -0.1230  0.3107  0.3234
 6642SOL    HW131562   2.062   3.405   8.984  1.5949  1.8167  0.6596
 6642SOL    HW231563   2.094   3.281   9.045 -2.1562  0.1230 -0.7153
 6643SOL     OW31564   4.524   1.917   5.036 -0.2655 -0.5061  0.2441
 6643SOL    HW131565   4.549   1.977   5.106  0.0222  1.4569 -1.5182
 6643SOL    HW231566   4.439   1.954   5.012  0.9004  1.7683 -0.4114
 6644SOL     OW31567   1.674   0.371   4.378  0.1955 -0.1688  0.5705
 6644SOL    HW131568   1.603   0.407   4.325 -0.3064 -0.3151  1.1395
 6644SOL    HW231569   1.708   0.451   4.418 -3.1692  0.9050  1.2799
 6645SOL     OW31570   0.675   1.747  17.167 -0.2345  0.2976 -0.0892
 6645SOL    HW131571   0.639   1.822  17.120 -0.9919 -0.4185 -0.6550
 6645SOL    HW231572   0.615   1.754  17.242 -1.7568 -0.7251 -1.2035
 6646SOL     OW31573   0.556   3.928   3.911 -0.1547  0.4552  0.2956
 6646SOL    HW131574   0.462   3.935   3.926 -0.4582 -1.1993 -0.9112
 6646SOL    HW231575   0.575   4.022   3.917  3.7442 -0.3149  0.3777
 6647SOL     OW31576   1.957   2.804   1.585  0.4033 -0.2994 -0.2754
 6647SOL    HW131577   1.975   2.738   1.518 -1.2030 -0.9964 -0.0056
 6647SOL    HW231578   1.999   2.762   1.660 -1.3516 -2.0916 -0.3033
 6648SOL     OW31579   0.963   2.628   5.300  0.4115 -0.7162  0.1442
 6648SOL    HW131580   0.991   2.700   5.244  0.5109 -0.3604  0.6576
 6648SOL    HW231581   0.911   2.574   5.240  1.5313 -1.5099 -0.1196
 6649SOL     OW31582   3.602   3.134   7.025 -0.4470 -0.5095  0.2538
 6649SOL    HW131583   3.627   3.174   7.108 -0.0520 -1.1905  0.4619
 6649SOL    HW231584   3.611   3.039   7.030 -1.5098 -0.5770  0.8804
 6650SOL     OW31585   0.201   0.985   3.467 -0.2278  0.6883  0.1207
 6650SOL    HW131586   0.151   0.934   3.532  2.6658 -1.4147  0.6754
 6650SOL    HW231587   0.287   0.944   3.475 -0.4563  0.5450  2.0500
 6651SOL     OW31588   1.961   1.042   3.866  0.1805  0.1433  0.3652
 6651SOL    HW131589   1.900   1.051   3.939 -0.2733 -1.1008  0.1511
 6651SOL    HW231590   2.046   1.062   3.906  0.8557 -1.6621 -0.1550
 6652SOL     OW31591   3.523   2.220   3.300  0.4951  0.3819  0.3117
 6652SOL    HW131592   3.554   2.262   3.220  0.3257  1.5438  0.8620
 6652SOL    HW231593   3.430   2.210   3.282  0.8275 -0.8026 -0.7071
 6653SOL     OW31594   1.377   2.574   7.054 -0.1477  0.1227  0.3638
 6653SOL    HW131595   1.381   2.652   6.999 -0.0818  0.8262  1.3522
 6653SOL    HW231596   1.463   2.536   7.034 -0.1399  0.2358  0.1887
 6654SOL     OW31597   2.129   2.442   3.925 -0.0476 -0.4510 -0.1763
 6654SOL    HW131598   2.199   2.438   3.860 -2.0903 -1.6987 -2.2654
 6654SOL    HW231599   2.171   2.430   4.011  1.0788  0.4842 -0.5978
 6655SOL     OW31600   3.578   0.464   7.214 -0.1982 -0.5312 -0.3469
 6655SOL    HW131601   3.519   0.483   7.287  0.1356 -1.8908  0.2746
 6655SOL    HW231602   3.554   0.372   7.201  0.8984 -1.0698  1.5010
 6656SOL     OW31603   0.413   2.583   5.182 -0.1886 -0.0946 -0.2857
 6656SOL    HW131604   0.481   2.574   5.116 -0.5584  1.7230 -0.9012
 6656SOL    HW231605   0.328   2.573   5.139 -0.7366 -2.0445  1.2373
 6657SOL     OW31606   3.898   3.183   2.543  0.4067 -0.1620  0.3353
 6657SOL    HW131607   3.985   3.193   2.505  0.5229 -2.7712 -0.0980
 6657SOL    HW231608   3.904   3.211   2.635  0.9627 -0.0573  0.2671
 6658SOL     OW31609   4.638   1.885   6.369  0.2058 -0.4350  0.0342
 6658SOL    HW131610   4.607   1.968   6.334  1.4795 -0.5300 -1.3756
 6658SOL    HW231611   4.654   1.825   6.296  0.5031  0.6229 -0.7676
 6659SOL     OW31612   2.063   0.250  15.709 -0.2856 -0.4903  0.2805
 6659SOL    HW131613   2.110   0.333  15.699 -0.5011 -0.6101 -1.7099
 6659SOL    HW231614   2.115   0.203  15.774 -1.9273 -0.7328  1.4148
 6660SOL     OW31615   0.148   2.424   9.943  0.4033 -0.3117  0.0802
 6660SOL    HW131616   0.126   2.332   9.954 -0.2725 -0.0259  1.0788
 6660SOL    HW231617   0.062   2.452   9.974  0.6105 -1.0148  1.2672
 6661SOL     OW31618   0.261   1.332  14.348 -0.2753  0.4464 -0.4537
 6661SOL    HW131619   0.233   1.320  14.257 -0.4517  0.3806 -0.3908
 6661SOL    HW231620   0.355   1.329  14.329 -0.4019  2.6439 -1.4295
 6662SOL     OW31621   3.569   3.796   6.257 -0.1129 -0.3226 -1.2867
 6662SOL    HW131622   3.499   3.800   6.192 -1.7666  1.4394  0.5741
 6662SOL    HW231623   3.617   3.720   6.224  0.5586  0.3144 -1.7752
 6663SOL     OW31624   1.211   0.307   3.341  0.6666  0.0642 -0.1306
 6663SOL    HW131625   1.166   0.384   3.306 -0.3672 -1.3621 -1.9127
 6663SOL    HW231626   1.209   0.331   3.434  0.5409 -0.4582  0.0027
 6664SOL     OW31627   0.166   3.511   0.759 -0.0105 -0.5887 -0.4010
 6664SOL    HW131628   0.095   3.475   0.706 -1.3668  1.6335 -0.1069
 6664SOL    HW231629   0.235   3.490   0.696  0.1824 -0.6371 -0.1708
 6665SOL     OW31630   0.565   4.096   3.596 -0.2269 -0.4056 -0.4557
 6665SOL    HW131631   0.631   4.128   3.534  0.2885 -0.6905 -0.0576
 6665SOL    HW231632   0.598   4.120   3.683 -2.3192  1.1851 -0.1138
 6666SOL     OW31633   4.178   3.777   5.318  0.0999 -0.5236  0.1379
 6666SOL    HW131634   4.274   3.786   5.323  0.0696  0.1929 -0.4894
 6666SOL    HW231635   4.165   3.708   5.252  1.8316 -2.0874  1.4477
 6667SOL     OW31636   0.170   1.234   4.104 -0.0553  0.3910  0.1420
 6667SOL    HW131637   0.094   1.291   4.119 -1.5698 -2.3517  2.8508
 6667SOL    HW231638   0.221   1.243   4.185 -0.5367  2.2607  0.2324
 6668SOL     OW31639   3.744   1.251   9.100  0.2800  0.5333  0.0562
 6668SOL    HW131640   3.768   1.192   9.028  0.0797  1.8074 -1.0683
 6668SOL    HW231641   3.705   1.331   9.062 -1.9387  0.0589  1.3403
 6669SOL     OW31642   4.356   1.759   7.521 -0.2554  0.3632  0.3784
 6669SOL    HW131643   4.328   1.797   7.438  0.1324  0.6638  0.3830
 6669SOL    HW231644   4.314   1.820   7.582 -1.0359  0.1425  0.0656
 6670SOL     OW31645   1.949   1.191  11.004 -0.3246  0.1417  0.8405
 6670SOL    HW131646   1.977   1.202  11.095  0.9259 -0.3581  0.5222
 6670SOL    HW231647   2.033   1.214  10.962 -1.3699  0.4973 -1.0717
 6671SOL     OW31648   4.177   3.145   2.963  0.0825 -0.0037  0.1836
 6671SOL    HW131649   4.161   3.190   2.879  1.7988  1.2250  0.5197
 6671SOL    HW231650   4.173   3.214   3.029 -2.4519  0.4761 -0.4590
 6672SOL     OW31651   0.972   3.578   5.866  0.1609  0.6152  0.3709
 6672SOL    HW131652   1.000   3.498   5.910  0.2706  0.4676  0.0270
 6672SOL    HW231653   0.970   3.644   5.936  0.2368  2.7043 -1.5824
 6673SOL     OW31654   2.872   2.513   5.698 -0.1661 -0.3894 -0.1899
 6673SOL    HW131655   2.880   2.428   5.655 -1.4246 -2.0818  2.9315
 6673SOL    HW231656   2.865   2.482   5.789 -0.7628  1.9990  0.5872
 6674SOL     OW31657   3.906   1.383   1.723  0.6165 -0.4157  0.3078
 6674SOL    HW131658   3.930   1.430   1.802 -0.6749 -0.7031  0.8637
 6674SOL    HW231659   3.821   1.352   1.753 -0.3115  2.8829  1.1302
 6675SOL     OW31660   2.367   0.943  11.447  0.6907 -0.3257  0.2296
 6675SOL    HW131661   2.321   1.016  11.491  1.1349  0.2263 -0.2307
 6675SOL    HW231662   2.419   0.912  11.521  1.6312 -0.8316 -0.6550
 6676SOL     OW31663   4.392   1.965   3.022 -0.8882  0.3684  0.1586
 6676SOL    HW131664   4.467   1.999   3.071 -0.2444 -0.1733 -0.4449
 6676SOL    HW231665   4.378   1.879   3.062  1.3393 -1.2815 -2.6037
 6677SOL     OW31666   3.549   1.728   6.033  0.2221  0.2840 -0.3611
 6677SOL    HW131667   3.572   1.806   6.084  1.4414 -0.2594 -0.1021
 6677SOL    HW231668   3.594   1.657   6.079  0.5212  1.0342  0.5085
 6678SOL     OW31669   4.626   3.084   7.775  0.4540 -0.0181 -0.0043
 6678SOL    HW131670   4.555   3.051   7.830 -0.3370  2.4169  0.4294
 6678SOL    HW231671   4.677   3.132   7.840  0.5710  1.8521 -1.5104
 6679SOL     OW31672   2.933   1.608   4.330  0.6246 -0.2091  0.2869
 6679SOL    HW131673   2.933   1.524   4.376  0.6316 -0.0236  0.6205
 6679SOL    HW231674   2.913   1.678   4.391 -0.7736  0.6233 -1.1212
 6680SOL     OW31675   2.127   3.709   9.428  0.3534 -0.0574 -0.3446
 6680SOL    HW131676   2.079   3.786   9.458  1.1076  0.5484 -0.6973
 6680SOL    HW231677   2.072   3.680   9.355 -0.4073  0.2487  0.1042
 6681SOL     OW31678   1.891   2.352  17.631  0.2027  0.3384  0.1083
 6681SOL    HW131679   1.925   2.441  17.618 -1.0129  0.7664 -0.1307
 6681SOL    HW231680   1.799   2.376  17.618  0.0066 -1.3036 -1.5377
 6682SOL     OW31681   0.496   3.111   8.476 -0.4286 -0.3069 -0.0656
 6682SOL    HW131682   0.570   3.114   8.416  0.3629  1.1776  0.9796
 6682SOL    HW231683   0.437   3.164   8.422  0.1171  0.8267  0.4352
 6683SOL     OW31684   4.264   1.800  14.581  0.1426 -0.1624  0.3658
 6683SOL    HW131685   4.176   1.763  14.577  0.6508 -1.2989 -0.2050
 6683SOL    HW231686   4.311   1.762  14.655 -0.9181 -0.7639  0.7216
 6684SOL     OW31687   2.357   1.309   4.259 -0.2132 -0.5807 -0.4726
 6684SOL    HW131688   2.298   1.336   4.188 -0.5981 -1.0049 -0.3103
 6684SOL    HW231689   2.295   1.277   4.324 -1.3681  2.1344 -0.2246
 6685SOL     OW31690   1.250   1.229   7.438 -0.2083  0.0334  0.5560
 6685SOL    HW131691   1.272   1.153   7.492  0.3477 -0.0042  0.2827
 6685SOL    HW231692   1.326   1.258   7.387 -0.7688  1.0396  0.2866
 6686SOL     OW31693   1.532   3.168   4.006  0.0144 -0.1116 -0.0575
 6686SOL    HW131694   1.450   3.186   3.960  0.7249 -0.5353 -1.5034
 6686SOL    HW231695   1.588   3.121   3.943  0.1286  1.4262 -1.1118
 6687SOL     OW31696   2.402   2.131   7.615 -0.0968  0.1890 -0.0894
 6687SOL    HW131697   2.332   2.111   7.678  0.6738 -1.3978  0.2789
 6687SOL    HW231698   2.355   2.164   7.539 -3.1999 -0.0099  1.7144
 6688SOL     OW31699   0.450   1.217   6.954  0.2991  0.8532  0.0327
 6688SOL    HW131700   0.408   1.214   7.040 -0.2894  1.1087 -0.2446
 6688SOL    HW231701   0.473   1.125   6.947  4.0643  1.7850  0.2032
 6689SOL     OW31702   1.420   2.924  11.317  0.0136  0.2604 -0.1490
 6689SOL    HW131703   1.358   2.997  11.321 -1.4017 -0.8504 -1.8391
 6689SOL    HW231704   1.365   2.862  11.365 -0.3478 -0.1219 -1.0436
 6690SOL     OW31705   3.477   0.570   7.804  0.4596 -0.3256 -0.4636
 6690SOL    HW131706   3.497   0.585   7.711 -0.2984 -2.5369 -0.9844
 6690SOL    HW231707   3.444   0.656   7.828 -0.4716 -1.4452  2.2345
 6691SOL     OW31708   1.567   0.841   2.408  0.0393  0.0166  0.2187
 6691SOL    HW131709   1.658   0.859   2.432  0.0391 -0.5689  0.6561
 6691SOL    HW231710   1.521   0.917   2.444  0.2090 -0.4751  1.4905
 6692SOL     OW31711   0.939   4.026   3.653  0.0756 -0.3790  0.0240
 6692SOL    HW131712   1.020   4.077   3.648  0.7841 -1.8202 -2.8868
 6692SOL    HW231713   0.948   3.970   3.576 -1.1304 -2.1754  1.2031
 6693SOL     OW31714   0.984   0.290   5.228  0.3945  0.1452 -0.5780
 6693SOL    HW131715   0.909   0.340   5.195  0.4210 -0.4889 -1.6125
 6693SOL    HW231716   0.957   0.280   5.319  0.5216 -1.4838 -0.7150
 6694SOL     OW31717   4.000   3.670   5.816 -0.3997 -0.2948  0.2053
 6694SOL    HW131718   4.040   3.650   5.732 -1.3877 -0.3903 -0.2481
 6694SOL    HW231719   4.054   3.613   5.871 -1.2178 -0.1158  1.2122
 6695SOL     OW31720   1.368   4.234   4.334  0.1383 -0.8220 -0.0080
 6695SOL    HW131721   1.427   4.191   4.271 -0.0987 -0.1518 -0.6881
 6695SOL    HW231722   1.370   4.180   4.413  2.6721 -1.3420 -0.4323
 6696SOL     OW31723   3.916   3.774   7.514  0.5650 -0.2786  0.2705
 6696SOL    HW131724   3.938   3.819   7.432  1.3150  0.4700  0.8833
 6696SOL    HW231725   3.849   3.710   7.490 -0.3481  0.9519 -0.4758
 6697SOL     OW31726   0.188   0.842  11.103  0.0770 -0.5459 -0.3137
 6697SOL    HW131727   0.251   0.812  11.037 -0.9696 -3.6960  0.1338
 6697SOL    HW231728   0.156   0.755  11.128  0.0705 -0.5531 -0.3462
 6698SOL     OW31729   0.257   4.503   2.012  0.1254 -0.3686  0.4522
 6698SOL    HW131730   0.183   4.456   1.971  1.2440 -3.3584  1.8459
 6698SOL    HW231731   0.238   4.481   2.103 -0.4756 -1.0716  0.1688
 6699SOL     OW31732   0.240   1.549   3.818  0.6595 -0.1041 -0.3121
 6699SOL    HW131733   0.283   1.613   3.874  1.1376 -0.9432  0.2702
 6699SOL    HW231734   0.284   1.465   3.830  0.8849  0.1256  0.4493
 6700SOL     OW31735   0.169   3.386   2.350  0.6212  0.0446  0.4704
 6700SOL    HW131736   0.198   3.316   2.292 -0.1307  0.7033 -0.6918
 6700SOL    HW231737   0.254   3.402   2.392  1.2752 -1.1405 -0.3970
 6701SOL     OW31738   0.834   2.724   2.662  0.1468  0.1508 -0.2376
 6701SOL    HW131739   0.815   2.703   2.753  0.9814  0.2727 -0.0369
 6701SOL    HW231740   0.747   2.759   2.643  0.6923  0.3077 -2.4665
 6702SOL     OW31741   1.013   2.491   1.792  0.3609 -0.2635  0.4100
 6702SOL    HW131742   0.971   2.566   1.750 -0.2573 -0.3770  0.8360
 6702SOL    HW231743   1.073   2.529   1.856 -1.9414  4.5659 -0.3771
 6703SOL     OW31744   0.195   4.186   1.585  0.2473 -0.1861 -0.8542
 6703SOL    HW131745   0.280   4.142   1.585  0.3019 -0.0501 -3.0611
 6703SOL    HW231746   0.139   4.126   1.536  1.0335 -2.0346  0.5080
 6704SOL     OW31747   3.654   1.566  15.566  0.3344  0.2373 -0.5094
 6704SOL    HW131748   3.601   1.626  15.513  2.2115  0.5277 -2.0503
 6704SOL    HW231749   3.732   1.565  15.512  0.1089  0.6918 -0.8433
 6705SOL     OW31750   3.089   0.762   9.184  0.0347  0.0076 -0.8590
 6705SOL    HW131751   3.159   0.698   9.186  1.1698  1.3167  1.3434
 6705SOL    HW231752   3.090   0.787   9.276 -0.6861  2.8357 -1.6131
 6706SOL     OW31753   0.608   1.690   2.117  0.1278  0.6704 -0.8753
 6706SOL    HW131754   0.600   1.689   2.022  0.2156 -2.2642 -0.8520
 6706SOL    HW231755   0.515   1.696   2.139  0.1524  0.3634 -0.6922
 6707SOL     OW31756   0.135   4.629   5.270 -0.8148  0.3122 -0.6475
 6707SOL    HW131757   0.167   4.557   5.324 -0.9289  0.4497 -0.3982
 6707SOL    HW231758   0.129   4.584   5.185  1.1244  1.1567 -1.2470
 6708SOL     OW31759   3.747   4.112   5.110  0.0372  0.2271 -0.4053
 6708SOL    HW131760   3.674   4.097   5.050 -0.1860 -1.5696  0.2981
 6708SOL    HW231761   3.695   4.149   5.182 -0.2148  1.3344 -1.1660
 6709SOL     OW31762   0.488   2.485   7.411 -0.0672  0.4577  0.0923
 6709SOL    HW131763   0.583   2.489   7.422 -0.0602  0.0214  0.1919
 6709SOL    HW231764   0.487   2.397   7.447 -2.5143  0.5821  0.3200
 6710SOL     OW31765   2.438   3.150   9.450  0.3500 -0.3383  0.3969
 6710SOL    HW131766   2.487   3.086   9.400 -0.0982 -1.1044  0.9428
 6710SOL    HW231767   2.457   3.134   9.542  1.9021  1.1866  0.3349
 6711SOL     OW31768   0.778   0.094   7.196 -0.2215 -0.3644 -0.6000
 6711SOL    HW131769   0.717   0.054   7.257 -1.4911  0.8907 -1.0397
 6711SOL    HW231770   0.759   0.048   7.114  1.2345  3.1900 -2.9457
 6712SOL     OW31771   3.520   1.682   2.205 -0.4318  0.2584  0.0101
 6712SOL    HW131772   3.454   1.747   2.225  0.7086  0.6814  2.4090
 6712SOL    HW231773   3.587   1.742   2.173  0.2113  0.2362  1.3076
 6713SOL     OW31774   0.929   2.116  10.067  0.1221  0.1825  0.0605
 6713SOL    HW131775   0.855   2.157  10.112  0.1101 -0.5795  0.7335
 6713SOL    HW231776   0.929   2.026  10.101 -0.4076 -0.8953 -2.8130
 6714SOL     OW31777   0.789   3.195   4.379  0.3128  0.1574  0.5271
 6714SOL    HW131778   0.845   3.259   4.424  0.6821 -0.6839  1.2575
 6714SOL    HW231779   0.698   3.221   4.394  0.4234  0.9709 -0.1587
 6715SOL     OW31780   0.607   3.993   6.597 -0.3899  0.6729  0.2061
 6715SOL    HW131781   0.531   4.045   6.570 -0.0429  2.0517  1.9197
 6715SOL    HW231782   0.619   4.029   6.684 -0.9353  0.2874  0.4373
 6716SOL     OW31783   0.043   0.857   3.278 -0.3764  0.3080 -0.2730
 6716SOL    HW131784   0.047   0.771   3.318  1.6490  1.9145  2.9675
 6716SOL    HW231785   0.076   0.905   3.354  2.1500  0.1603 -1.2559
 6717SOL     OW31786   4.103   0.650  16.022 -0.3853  0.5257 -0.1269
 6717SOL    HW131787   4.061   0.659  15.937  2.5618  0.3136 -1.6010
 6717SOL    HW231788   4.096   0.738  16.059 -1.1133 -0.0146  1.0534
 6718SOL     OW31789   0.533   3.704   2.558 -0.2190  0.2113 -0.0030
 6718SOL    HW131790   0.562   3.613   2.567 -1.1095 -0.1298 -0.5402
 6718SOL    HW231791   0.443   3.698   2.591 -0.5945 -1.1969 -1.2447
 6719SOL     OW31792   4.677   4.368   1.676  0.1641 -0.5509 -0.1467
 6719SOL    HW131793   4.719   4.356   1.762  1.6793 -0.2760 -0.8579
 6719SOL    HW231794   0.000   4.316   1.625  0.8718 -1.1542  1.3096
 6720SOL     OW31795   2.175   2.887   2.221  0.0487  0.1764  0.4240
 6720SOL    HW131796   2.254   2.845   2.254 -0.0721 -0.2222  0.1959
 6720SOL    HW231797   2.199   2.924   2.136  1.4051 -0.5088  0.5046
 6721SOL     OW31798   2.414   4.249  17.633  0.5879 -0.1275  0.5232
 6721SOL    HW131799   2.499   4.212  17.608 -0.3325 -1.5699 -0.4564
 6721SOL    HW231800   2.373   4.181  17.686 -0.0736  0.5649  0.8979
 6722SOL     OW31801   4.660   1.229   6.675 -0.0189  0.2984 -0.2014
 6722SOL    HW131802   4.712   1.304   6.645 -2.6097  1.5181 -1.6841
 6722SOL    HW231803   4.722   1.178   6.726 -0.9710  0.6332  1.2683
 6723SOL     OW31804   0.056   1.821   1.570 -0.0702 -0.0538 -0.2065
 6723SOL    HW131805   4.711   1.857   1.542 -1.5379 -2.9655  0.5126
 6723SOL    HW231806   0.113   1.862   1.504 -1.6008 -1.6344 -2.5028
 6724SOL     OW31807   2.939   1.835  14.233 -0.5045  0.5357 -0.0658
 6724SOL    HW131808   2.942   1.840  14.329  0.4441  0.0956 -0.0732
 6724SOL    HW231809   2.902   1.920  14.208 -1.2795  0.5756  1.1915
 6725SOL     OW31810   3.785   0.600   5.094  0.1103  0.4329 -0.0467
 6725SOL    HW131811   3.795   0.532   5.161  0.6383  1.6188  1.1001
 6725SOL    HW231812   3.734   0.667   5.140  1.2404  0.2441  1.5027
 6726SOL     OW31813   2.182   3.043   5.737 -0.3401  0.2527  0.2501
 6726SOL    HW131814   2.234   2.979   5.687 -1.5350 -3.2061  3.4718
 6726SOL    HW231815   2.190   3.008   5.826  2.1416 -3.3752 -1.3842
 6727SOL     OW31816   3.267   0.115   6.826 -0.3796  0.0798  0.4309
 6727SOL    HW131817   3.187   0.079   6.865 -1.1342  1.3505  0.0575
 6727SOL    HW231818   3.270   0.194   6.880  0.4755 -0.1152  0.6604
 6728SOL     OW31819   0.556   4.609   9.048  0.1965  0.2523 -0.4602
 6728SOL    HW131820   0.569   4.593   8.954 -3.6695 -0.0385 -0.9704
 6728SOL    HW231821   0.640   4.646   9.075  0.1074  0.1868 -0.0942
 6729SOL     OW31822   0.478   0.238   2.827 -0.3740 -0.2618 -0.1170
 6729SOL    HW131823   0.482   0.252   2.921  0.2770 -0.8296 -0.0581
 6729SOL    HW231824   0.475   0.142   2.822  1.5745 -0.4158  2.3068
 6730SOL     OW31825   4.313   0.042   1.383 -0.5764 -0.0466 -0.4119
 6730SOL    HW131826   4.306   0.122   1.436  1.9441  0.2691 -0.5427
 6730SOL    HW231827   4.226   0.002   1.392 -1.2602  1.5540  0.2087
 6731SOL     OW31828   0.280   4.249   7.245  0.2840  0.0072 -0.5076
 6731SOL    HW131829   0.291   4.190   7.320 -0.2610 -0.4646 -0.7959
 6731SOL    HW231830   0.246   4.324   7.294  0.1177  0.7420 -1.7442
 6732SOL     OW31831   1.026   3.434   5.572 -0.1556 -0.6161  0.1784
 6732SOL    HW131832   1.008   3.373   5.644  1.7829 -3.2107 -1.5551
 6732SOL    HW231833   0.941   3.474   5.555 -0.8654 -2.3494 -0.3226
 6733SOL     OW31834   3.430   2.995   7.977  0.0142  0.4203 -0.0576
 6733SOL    HW131835   3.393   3.043   7.903  0.8518  1.4419  0.1767
 6733SOL    HW231836   3.519   3.030   7.966  0.1792  0.3012  0.9022
 6734SOL     OW31837   1.801   1.351   4.126  0.4226 -0.2365 -0.3437
 6734SOL    HW131838   1.851   1.429   4.149  2.2596 -1.5468  0.1204
 6734SOL    HW231839   1.732   1.375   4.065 -0.4455 -2.4398 -0.2146
 6735SOL     OW31840   0.266   3.280   5.724 -0.2628 -0.4894  0.4488
 6735SOL    HW131841   0.360   3.272   5.736 -0.4553 -0.5015  1.9144
 6735SOL    HW231842   0.240   3.193   5.695  0.6309 -0.6945  0.2739
 6736SOL     OW31843   2.049   3.372   6.158 -0.6293  0.2606  0.4044
 6736SOL    HW131844   2.010   3.340   6.077 -1.6105  0.3957  0.8123
 6736SOL    HW231845   2.137   3.342   6.138 -1.4484 -1.0110 -1.3349
 6737SOL     OW31846   1.090   4.123   8.159 -0.2291  0.2731 -0.1062
 6737SOL    HW131847   1.112   4.033   8.135  0.4960 -0.0985  1.9796
 6737SOL    HW231848   1.046   4.097   8.240  0.3707  3.3042  1.2000
 6738SOL     OW31849   3.208   2.871   3.744  0.4482 -0.4272  0.4989
 6738SOL    HW131850   3.272   2.810   3.707  1.1741  0.2748  0.5753
 6738SOL    HW231851   3.144   2.811   3.781  0.7774  1.0993  3.5987
 6739SOL     OW31852   4.044   4.296   7.829 -0.1388  0.4417 -0.3457
 6739SOL    HW131853   4.086   4.325   7.910 -0.7983 -0.9612  0.5062
 6739SOL    HW231854   4.031   4.201   7.834 -0.1720  0.4061 -1.0695
 6740SOL     OW31855   2.688   0.939   8.912 -0.2199 -0.9199  0.2098
 6740SOL    HW131856   2.763   0.998   8.911 -0.7082 -0.2907  0.5620
 6740SOL    HW231857   2.701   0.904   9.000 -3.5913 -2.4082  0.1343
 6741SOL     OW31858   2.755   3.875   3.418 -0.0481 -0.0871  0.0636
 6741SOL    HW131859   2.754   3.963   3.380  0.6987 -0.9964 -2.0347
 6741SOL    HW231860   2.669   3.840   3.395 -0.0583 -0.2859  0.4049
 6742SOL     OW31861   2.544   1.260  16.237  0.2873 -0.1046 -0.5351
 6742SOL    HW131862   2.623   1.248  16.290  0.3717 -0.2566 -0.6957
 6742SOL    HW231863   2.499   1.175  16.242 -2.6195  1.4491 -0.1397
 6743SOL     OW31864   3.619   3.045   2.696  0.0392 -0.3269 -0.3472
 6743SOL    HW131865   3.620   2.952   2.675 -0.6568 -0.9692  2.4471
 6743SOL    HW231866   3.711   3.063   2.714 -0.4066  1.6301  0.0127
 6744SOL     OW31867   3.225   4.225   4.969 -0.0788  0.3375  0.0942
 6744SOL    HW131868   3.195   4.143   4.928 -0.5872 -1.5056  4.1125
 6744SOL    HW231869   3.164   4.230   5.043  0.6269  0.5490  0.6611
 6745SOL     OW31870   1.514   3.227   4.269  0.2778  0.0736 -0.6629
 6745SOL    HW131871   1.508   3.220   4.174  1.9279  0.1831 -0.7739
 6745SOL    HW231872   1.466   3.309   4.275  0.7245  0.0908  2.6391
 6746SOL     OW31873   1.212   0.797   5.602  0.2041 -0.5078  0.2316
 6746SOL    HW131874   1.163   0.874   5.629 -2.0926 -1.9576  0.1367
 6746SOL    HW231875   1.143   0.731   5.601 -0.0865 -0.2144  0.7241
 6747SOL     OW31876   3.394   4.156  15.723 -0.1531 -0.6468  0.2062
 6747SOL    HW131877   3.313   4.107  15.743 -0.2561  0.0951  1.5863
 6747SOL    HW231878   3.360   4.211  15.652  0.1780  1.4420  1.6735
 6748SOL     OW31879   4.445   0.993  16.465  0.0329  0.5138 -0.3401
 6748SOL    HW131880   4.446   1.087  16.482 -0.3780  0.1189  1.8947
 6748SOL    HW231881   4.486   0.993  16.379 -1.3821 -3.3745 -1.0159
 6749SOL     OW31882   1.437   0.527   4.257  0.6508  0.0139 -0.6780
 6749SOL    HW131883   1.420   0.588   4.185  0.1925 -1.1369 -1.5613
 6749SOL    HW231884   1.351   0.530   4.300  0.6433 -0.3684 -0.6671
 6750SOL     OW31885   2.467   2.785   7.524  0.3676  0.1333  0.3715
 6750SOL    HW131886   2.451   2.786   7.429  0.8793 -1.0301  0.2704
 6750SOL    HW231887   2.552   2.741   7.528  1.4992  2.1843 -1.0079
 6751SOL     OW31888   0.446   0.217   0.697 -0.0166  0.2632 -0.2607
 6751SOL    HW131889   0.496   0.290   0.736  1.8164 -2.4672  2.5375
 6751SOL    HW231890   0.362   0.260   0.680 -0.3645 -0.0139  0.7782
 6752SOL     OW31891   0.684   0.228  15.902 -0.2146  0.2819 -0.3493
 6752SOL    HW131892   0.713   0.139  15.919  0.4142  0.4422 -0.6064
 6752SOL    HW231893   0.674   0.258  15.992  0.9596 -2.8293  0.7873
 6753SOL     OW31894   2.165   0.066  15.892  0.6542 -0.3555  0.0114
 6753SOL    HW131895   2.104   4.733  15.872  0.9616 -0.1063 -1.8536
 6753SOL    HW231896   2.252   0.034  15.870  0.8445 -0.3433  0.7701
 6754SOL     OW31897   4.481   3.339   2.434 -0.0595 -0.2651 -0.7734
 6754SOL    HW131898   4.540   3.404   2.472 -0.6659 -0.4159  0.4154
 6754SOL    HW231899   4.538   3.264   2.449  1.0076  0.2366 -2.2471
 6755SOL     OW31900   3.701   0.590   3.699  0.6847  0.2404  0.1040
 6755SOL    HW131901   3.699   0.502   3.662  0.4915  0.8845 -1.4232
 6755SOL    HW231902   3.691   0.652   3.627 -0.9303  0.6371  0.6729
 6756SOL     OW31903   2.458   4.530   6.968 -0.2598 -0.2672  0.1482
 6756SOL    HW131904   2.384   4.478   6.936  0.7978 -1.0130 -1.0830
 6756SOL    HW231905   2.437   4.540   7.060 -1.0549 -1.0427  0.0484
 6757SOL     OW31906   2.686   0.411  15.345 -0.5277 -0.0927  0.4136
 6757SOL    HW131907   2.699   0.447  15.257 -1.3589 -0.2221  0.2380
 6757SOL    HW231908   2.746   0.337  15.340 -0.1016  0.2644  0.1996
 6758SOL     OW31909   4.018   2.427   1.799  0.0904 -0.1158 -0.7523
 6758SOL    HW131910   3.942   2.422   1.740 -0.8192 -0.8258  0.4714
 6758SOL    HW231911   3.976   2.478   1.868 -1.4454  1.0660 -2.5477
 6759SOL     OW31912   4.276   1.921  15.330 -0.1314  0.0830  0.2913
 6759SOL    HW131913   4.359   1.958  15.300 -0.1839  1.1874  1.5149
 6759SOL    HW231914   4.230   1.987  15.383 -1.5356 -0.0151 -0.8079
 6760SOL     OW31915   0.747   2.899   6.462  0.0179 -0.4068  0.0939
 6760SOL    HW131916   0.714   2.838   6.528 -0.2744  1.0156  1.2631
 6760SOL    HW231917   0.834   2.915   6.498 -0.4412 -0.2887  1.1353
 6761SOL     OW31918   1.327   2.365  17.480 -0.0373 -0.4428  0.0815
 6761SOL    HW131919   1.280   2.346  17.561 -1.4631 -1.4713 -0.9878
 6761SOL    HW231920   1.253   2.395  17.428  1.4976  2.6127 -0.3450
 6762SOL     OW31921   0.732   3.824   6.435  0.2415 -0.0023  0.6026
 6762SOL    HW131922   0.702   3.863   6.518  0.4019 -1.2723  1.2537
 6762SOL    HW231923   0.772   3.749   6.480  2.6679  2.5419  2.7222
 6763SOL     OW31924   4.199   2.171   4.765 -0.1746  0.0661 -0.5700
 6763SOL    HW131925   4.159   2.217   4.692 -0.7958 -2.4086 -1.7925
 6763SOL    HW231926   4.271   2.123   4.724 -0.0217 -1.4890  1.4962
 6764SOL     OW31927   1.097   4.110   8.791  0.1854 -0.1916  0.0254
 6764SOL    HW131928   1.121   4.121   8.699 -2.0654  1.2869 -0.3910
 6764SOL    HW231929   1.027   4.045   8.785  0.1501  0.1291 -2.8576
 6765SOL     OW31930   0.691   4.184   3.089 -0.9444 -0.5516  0.1586
 6765SOL    HW131931   0.738   4.165   3.008  2.5451 -0.7502  2.1934
 6765SOL    HW231932   0.658   4.098   3.115  2.0465 -2.4087 -2.1389
 6766SOL     OW31933   4.401   2.884   9.186 -0.1064  0.2552  0.1785
 6766SOL    HW131934   4.309   2.895   9.212 -0.5752 -1.5931 -0.6668
 6766SOL    HW231935   4.407   2.930   9.103 -1.1213 -1.0587 -0.6229
 6767SOL     OW31936   3.730   0.210  17.374 -0.0370  0.4369 -0.2287
 6767SOL    HW131937   3.776   0.291  17.393  2.2808 -1.2742  1.4914
 6767SOL    HW231938   3.661   0.237  17.313 -0.2379  1.3301  0.3946
 6768SOL     OW31939   3.613   4.238   2.711 -0.2845  0.1012 -0.1838
 6768SOL    HW131940   3.597   4.147   2.735  0.2946 -0.9625 -3.8490
 6768SOL    HW231941   3.704   4.255   2.734  0.3303 -1.5239 -1.3914
 6769SOL     OW31942   0.200   3.872   1.809  0.4140 -0.0581  0.5608
 6769SOL    HW131943   0.205   3.887   1.715 -1.4398  2.1488  0.8061
 6769SOL    HW231944   0.172   3.957   1.842  0.6369  0.0795  0.3960
 6770SOL     OW31945   0.080   3.368   4.554 -0.0556  0.2782 -0.0237
 6770SOL    HW131946   0.015   3.411   4.498 -0.1796  3.3154  2.4676
 6770SOL    HW231947   0.029   3.320   4.619  0.7246 -2.9109 -1.7471
 6771SOL     OW31948   1.892   3.443   4.238  0.3063 -0.1414 -0.2946
 6771SOL    HW131949   1.928   3.378   4.177 -0.1177 -1.2906  0.6794
 6771SOL    HW231950   1.888   3.519   4.180 -2.2549  0.0211  0.1170
 6772SOL     OW31951   1.183   1.919   7.366  0.0673  0.1934  0.1571
 6772SOL    HW131952   1.235   1.975   7.423 -0.1536  0.1394  0.4117
 6772SOL    HW231953   1.192   1.952   7.277 -0.1466 -0.3271 -0.0598
 6773SOL     OW31954   3.319   3.598  11.294  0.0853 -0.0380  0.0086
 6773SOL    HW131955   3.274   3.598  11.209 -1.1011  0.6936  0.6447
 6773SOL    HW231956   3.293   3.677  11.341  0.8185  1.2707 -1.7588
 6774SOL     OW31957   2.344   1.796   5.159  0.1467  0.1047 -0.5602
 6774SOL    HW131958   2.263   1.755   5.129  1.0394 -1.8476 -0.2698
 6774SOL    HW231959   2.303   1.844   5.231  2.9535 -1.0220  1.7813
 6775SOL     OW31960   4.586   4.350   5.216  0.5151 -0.0215  0.3538
 6775SOL    HW131961   4.655   4.286   5.201  0.6775  0.7605 -2.2312
 6775SOL    HW231962   4.559   4.328   5.305  1.8753 -0.1245  0.7485
 6776SOL     OW31963   1.540   3.107   6.465 -0.5747  0.1004 -0.2256
 6776SOL    HW131964   1.466   3.092   6.407 -1.3869  1.7048  0.4179
 6776SOL    HW231965   1.507   3.179   6.518 -2.7445 -1.6346  0.7719
 6777SOL     OW31966   0.407   0.833   6.607 -0.4083  0.4124 -0.8654
 6777SOL    HW131967   0.432   0.810   6.518 -0.2177 -0.6786 -0.5328
 6777SOL    HW231968   0.387   0.745   6.638  1.2208  0.5396  0.5482
 6778SOL     OW31969   2.604   3.024   2.997 -0.1608  0.3113  0.3328
 6778SOL    HW131970   2.599   2.982   3.083 -0.2791  1.6572  0.9666
 6778SOL    HW231971   2.590   2.954   2.933 -1.5308  1.5960 -0.7694
 6779SOL     OW31972   1.914   1.600  14.588  0.0878 -0.4515 -0.4667
 6779SOL    HW131973   1.834   1.618  14.637 -0.6293 -0.7787 -1.5203
 6779SOL    HW231974   1.893   1.536  14.520 -0.0813  0.1470 -0.9835
 6780SOL     OW31975   0.488   3.024   0.800  0.2236 -0.0668 -0.2316
 6780SOL    HW131976   0.432   3.098   0.780 -0.5161  0.1522  2.5901
 6780SOL    HW231977   0.430   2.948   0.798 -0.1537  0.1728  1.2157
 6781SOL     OW31978   1.579   4.645   6.449 -0.0724  0.0753  0.3347
 6781SOL    HW131979   1.670   4.629   6.474  0.1729  1.2317  0.1805
 6781SOL    HW231980   1.578   4.700   6.371 -0.5056  0.0287  0.3063
 6782SOL     OW31981   3.948   2.625  17.328  0.4174  0.2639  0.1926
 6782SOL    HW131982   3.869   2.670  17.296  1.4660  1.3052 -0.9492
 6782SOL    HW231983   3.926   2.589  17.414  1.7682  0.7309  0.7354
 6783SOL     OW31984   3.347   2.198   5.818 -0.2150  0.1423  0.7627
 6783SOL    HW131985   3.327   2.147   5.897  1.1860  0.6126  1.4158
 6783SOL    HW231986   3.275   2.167   5.763  0.2614 -1.0645  0.8078
 6784SOL     OW31987   0.944   1.501   0.051  0.6884 -0.0587  0.5225
 6784SOL    HW131988   0.880   1.573   0.053 -0.4881 -1.1040  0.8445
 6784SOL    HW231989   0.996   1.534   0.124  0.3968  3.8276 -0.9840
 6785SOL     OW31990   3.384   3.117   2.624  0.2962 -0.0672 -0.4330
 6785SOL    HW131991   3.413   3.207   2.629 -1.0991  0.4432 -1.3304
 6785SOL    HW231992   3.463   3.080   2.663  0.3264  1.5494  1.0257
 6786SOL     OW31993   0.342   3.351  12.096 -0.1772 -0.5651  0.1387
 6786SOL    HW131994   0.378   3.400  12.022 -0.7939 -0.9018 -0.3756
 6786SOL    HW231995   0.389   3.400  12.164  1.9804  0.3428 -1.9900
 6787SOL     OW31996   1.593   0.369   3.658 -0.7948 -0.2865  0.0682
 6787SOL    HW131997   1.575   0.448   3.708 -0.4424 -0.6857  0.8333
 6787SOL    HW231998   1.655   0.405   3.595  0.4131 -2.6379 -0.0955
 6788SOL     OW31999   0.689   1.731   5.446  0.2765  0.1529 -0.0557
 6788SOL    HW132000   0.644   1.750   5.528 -2.9230  0.5967 -1.9365
 6788SOL    HW232001   0.756   1.670   5.475  0.6870  0.6824  0.1138
 6789SOL     OW32002   4.686   1.168   6.216 -0.1416 -0.4046  0.2292
 6789SOL    HW132003   4.711   1.236   6.278  1.6359  1.1196 -2.1356
 6789SOL    HW232004   4.687   1.098   6.280 -0.2535 -0.1651  0.4931
 6790SOL     OW32005   4.293   2.184   4.308 -0.7037  0.5007  0.6657
 6790SOL    HW132006   4.286   2.090   4.327 -0.5412  0.4287  0.3729
 6790SOL    HW232007   4.378   2.184   4.264 -0.4425  0.1328  1.1697
 6791SOL     OW32008   2.338   0.212   3.973 -0.6415 -0.2411 -0.9000
 6791SOL    HW132009   2.334   0.234   3.879  2.0567  2.6715 -0.3346
 6791SOL    HW232010   2.268   0.148   3.974 -0.5284 -0.3050  1.2740
 6792SOL     OW32011   0.976   4.343  16.291 -0.3614  0.8931 -0.8417
 6792SOL    HW132012   1.071   4.340  16.291 -0.4327 -0.7606  1.5874
 6792SOL    HW232013   0.961   4.420  16.237 -0.4728  0.4918 -1.3906
 6793SOL     OW32014   0.577   3.610   8.711 -0.0966  0.7511  0.3326
 6793SOL    HW132015   0.671   3.615   8.697 -0.1336 -0.2432 -0.2397
 6793SOL    HW232016   0.542   3.679   8.655  0.0648 -0.7274 -1.5843
 6794SOL     OW32017   1.194   4.566  10.585  0.1627  0.5021  0.1098
 6794SOL    HW132018   1.136   4.542  10.513  0.8838 -0.9465  0.0284
 6794SOL    HW232019   1.169   4.509  10.657 -0.9377 -0.3275 -0.9484
 6795SOL     OW32020   1.677   4.626   8.838  0.5333 -0.1137  0.4214
 6795SOL    HW132021   1.758   4.665   8.806  1.8898 -3.2828  0.0942
 6795SOL    HW232022   1.634   4.608   8.754 -0.1148 -1.0547  0.9656
 6796SOL     OW32023   1.421   4.472   0.886 -0.1955  0.7840  0.1443
 6796SOL    HW132024   1.468   4.465   0.803 -0.9295 -2.1994 -0.0210
 6796SOL    HW232025   1.435   4.387   0.927  0.6842  0.9671  0.2090
 6797SOL     OW32026   4.425   3.564   9.448 -0.9195  0.5419 -0.0436
 6797SOL    HW132027   4.500   3.552   9.507 -1.2535 -0.2009  0.2315
 6797SOL    HW232028   4.408   3.657   9.465  0.2966  0.2739  2.6270
 6798SOL     OW32029   0.952   0.790   7.924  0.2900 -0.2189 -0.0547
 6798SOL    HW132030   0.926   0.855   7.858 -0.3818  0.2852  0.7120
 6798SOL    HW232031   0.892   0.814   7.994  1.1042 -1.1818  0.9651
 6799SOL     OW32032   1.411   1.565   3.146  0.1263 -0.1248 -0.7654
 6799SOL    HW132033   1.375   1.613   3.072  0.1695 -0.3257 -0.9147
 6799SOL    HW232034   1.350   1.583   3.218  3.5181  3.0509  1.3115
 6800SOL     OW32035   2.902   2.125  14.346 -0.3445 -0.1623 -0.3476
 6800SOL    HW132036   2.915   2.133  14.441 -0.2091  0.5958 -0.4309
 6800SOL    HW232037   2.846   2.202  14.340 -2.1153 -1.3394  1.1930
 6801SOL     OW32038   0.520   4.177   2.073 -0.7135  0.2953  0.5861
 6801SOL    HW132039   0.517   4.092   2.116 -1.1789  0.0115 -0.0030
 6801SOL    HW232040   0.610   4.204   2.091  0.0593 -1.5116 -0.5809
 6802SOL     OW32041   1.709   4.046  16.418  0.2742 -0.6304  0.3156
 6802SOL    HW132042   1.687   4.042  16.511  1.2884  1.0419  0.6268
 6802SOL    HW232043   1.708   4.141  16.409 -0.4519 -0.3960  2.9943
 6803SOL     OW32044   1.486   3.089   7.001  0.0169  0.1671  0.0656
 6803SOL    HW132045   1.423   3.082   6.929  0.2408  0.0943 -0.1248
 6803SOL    HW232046   1.502   3.183   6.997  0.5643  0.1184  1.1160
 6804SOL     OW32047   3.929   4.384  16.526 -0.2921 -0.0879  0.5812
 6804SOL    HW132048   3.907   4.476  16.513  0.1588 -0.5249 -3.0522
 6804SOL    HW232049   3.987   4.362  16.454 -0.8740  0.7895 -0.1492
 6805SOL     OW32050   4.397   0.323   2.122 -0.2090  0.2798  0.2024
 6805SOL    HW132051   4.311   0.283   2.132  0.6065 -1.1402  1.4587
 6805SOL    HW232052   4.428   0.296   2.035  0.0977  1.8357 -0.1721
 6806SOL     OW32053   1.509   0.742  14.630  0.0048  0.2108 -0.6806
 6806SOL    HW132054   1.481   0.686  14.557 -1.6107  2.0741 -1.5123
 6806SOL    HW232055   1.600   0.712  14.635 -0.2538 -0.2199  1.2816
 6807SOL     OW32056   1.514   1.226   7.315 -0.7502 -0.3963  0.0693
 6807SOL    HW132057   1.498   1.217   7.222 -0.9531 -0.0244  0.0677
 6807SOL    HW232058   1.557   1.141   7.330  2.7086  0.9759 -2.0626
 6808SOL     OW32059   4.324   2.701   8.658  0.2093 -0.2497 -0.2359
 6808SOL    HW132060   4.285   2.650   8.587 -2.8762 -0.0650  1.3649
 6808SOL    HW232061   4.281   2.663   8.735 -0.9639  0.8075 -0.3771
 6809SOL     OW32062   4.705   3.570   5.137  0.2417  0.3537 -0.1841
 6809SOL    HW132063   0.021   3.510   5.186  0.8021  0.7370 -0.3476
 6809SOL    HW232064   4.681   3.633   5.204 -0.7388  1.6183 -1.7146
 6810SOL     OW32065   3.143   2.828   2.804  0.6892  0.1062  0.0845
 6810SOL    HW132066   3.061   2.828   2.854 -0.3366 -0.6570 -1.5886
 6810SOL    HW232067   3.211   2.845   2.869 -0.3827  1.1548  0.9245
 6811SOL     OW32068   4.530   3.101   0.886  0.2344  0.7968  0.1292
 6811SOL    HW132069   4.619   3.076   0.858  0.0200  0.8121 -0.5561
 6811SOL    HW232070   4.541   3.154   0.964 -1.8818  0.1204  0.8787
 6812SOL     OW32071   4.293   3.491   6.396  0.0626  0.5263  0.2398
 6812SOL    HW132072   4.371   3.498   6.451 -1.9048  0.0102  3.0883
 6812SOL    HW232073   4.320   3.421   6.337 -2.2924 -0.7101  0.6160
 6813SOL     OW32074   1.637   2.069  16.938  0.2681  0.2960 -0.3054
 6813SOL    HW132075   1.671   2.130  17.002  0.0374  0.3174 -0.2019
 6813SOL    HW232076   1.546   2.065  16.968  0.7201  1.4145  1.1990
 6814SOL     OW32077   1.537   0.014   6.994  0.3583 -0.5921 -0.0627
 6814SOL    HW132078   1.503   0.055   7.073 -0.5680 -1.6738  0.0883
 6814SOL    HW232079   1.512   0.078   6.927  2.8818  0.2795 -0.1906
 6815SOL     OW32080   1.888   3.355   2.480  0.6210 -0.0696 -0.0077
 6815SOL    HW132081   1.838   3.418   2.532 -2.4009 -0.9331 -1.8287
 6815SOL    HW232082   1.951   3.328   2.547  1.0646  1.3980  0.1761
 6816SOL     OW32083   0.639   4.096   7.802 -1.1943  0.1267  0.1452
 6816SOL    HW132084   0.598   4.077   7.886 -3.1374 -0.6676 -0.9805
 6816SOL    HW232085   0.712   4.034   7.796  0.2748  1.9805 -0.8618
 6817SOL     OW32086   1.912   1.172   7.741  0.6874 -0.2904  0.1094
 6817SOL    HW132087   1.912   1.256   7.694  1.8410 -1.3036 -1.7325
 6817SOL    HW232088   1.969   1.187   7.816  0.6343  1.7217 -0.2510
 6818SOL     OW32089   2.283   3.767   6.169  0.2141  0.1867 -0.5589
 6818SOL    HW132090   2.292   3.849   6.121  2.0689  1.7289  2.5015
 6818SOL    HW232091   2.347   3.706   6.132  1.5768  1.8676 -0.9248
 6819SOL     OW32092   4.203   1.273   0.669  0.6415  0.1060 -0.1223
 6819SOL    HW132093   4.158   1.358   0.668  1.9659  0.7929 -1.5491
 6819SOL    HW232094   4.291   1.288   0.635  0.4654 -1.3265 -1.2108
 6820SOL     OW32095   3.887   4.590  13.019 -0.3690  0.2158  0.0079
 6820SOL    HW132096   3.850   4.668  13.061 -1.0065  0.3499 -0.7952
 6820SOL    HW232097   3.962   4.572  13.075  1.9535  0.5494 -3.0115
 6821SOL     OW32098   0.921   2.491  12.610  0.4126  0.2712  0.1925
 6821SOL    HW132099   0.911   2.570  12.558 -0.6138 -0.9157 -1.4246
 6821SOL    HW232100   0.880   2.427  12.552  1.2180  0.6316 -0.7593
 6822SOL     OW32101   3.399   2.511  13.902 -0.5770 -0.4971 -0.4968
 6822SOL    HW132102   3.451   2.560  13.839  0.8010 -1.9650 -0.5034
 6822SOL    HW232103   3.326   2.487  13.844 -1.0307 -1.0566  0.3046
 6823SOL     OW32104   2.575   1.606   9.501  0.4694  0.5267 -0.2383
 6823SOL    HW132105   2.559   1.577   9.591 -2.0571 -1.2312 -1.2597
 6823SOL    HW232106   2.652   1.664   9.505  1.5271 -0.8398 -0.8664
 6824SOL     OW32107   3.619   3.056   5.600 -0.0369 -0.0354 -0.2030
 6824SOL    HW132108   3.631   2.970   5.560 -1.6725 -1.1701  1.7124
 6824SOL    HW232109   3.548   3.097   5.551  1.8548  2.4166 -0.8396
 6825SOL     OW32110   3.503   2.826   2.059  0.3055  0.1547 -0.2059
 6825SOL    HW132111   3.488   2.913   2.022  1.6559  0.2330 -0.5637
 6825SOL    HW232112   3.582   2.831   2.114  1.7058 -1.3292 -2.0828
 6826SOL     OW32113   1.154   0.209   4.227 -0.1942  0.1309 -0.2708
 6826SOL    HW132114   1.208   0.167   4.294 -0.4820 -0.2256 -0.2669
 6826SOL    HW232115   1.068   0.174   4.250  0.4295 -0.9052  0.4903
 6827SOL     OW32116   1.227   2.423   4.664  0.0079  0.1427  0.2838
 6827SOL    HW132117   1.233   2.414   4.759 -1.4413  0.0468  0.3681
 6827SOL    HW232118   1.318   2.440   4.639 -0.9421 -0.2890 -3.4590
 6828SOL     OW32119   3.574   1.166   4.824  0.3758 -0.1908 -0.0895
 6828SOL    HW132120   3.628   1.241   4.798  2.7946 -0.6211  3.6126
 6828SOL    HW232121   3.631   1.091   4.804  1.6646  1.0852 -1.1241
 6829SOL     OW32122   0.464   3.873   9.418  0.4673  0.0691  0.5267
 6829SOL    HW132123   0.396   3.885   9.485  0.4626  1.7065  0.2272
 6829SOL    HW232124   0.498   3.962   9.416  0.1172  0.1767 -0.5124
 6830SOL     OW32125   3.966   1.277   7.446  0.0743 -0.2865  0.1966
 6830SOL    HW132126   3.936   1.186   7.456 -0.1642 -0.1695  0.5398
 6830SOL    HW232127   3.883   1.325   7.451 -0.3289 -0.8821 -0.5675
 6831SOL     OW32128   3.455   0.147   7.541  0.0517  0.1447 -1.0952
 6831SOL    HW132129   3.434   0.105   7.458 -0.6798 -0.5605 -0.5618
 6831SOL    HW232130   3.394   0.221   7.537  0.6160  0.6941  0.4632
 6832SOL     OW32131   2.813   1.464   5.329  0.0128 -0.1352  0.4177
 6832SOL    HW132132   2.807   1.421   5.415 -0.0560 -0.2423  0.3593
 6832SOL    HW232133   2.736   1.520   5.327 -0.3377 -0.6492 -0.1755
 6833SOL     OW32134   0.072   2.783  10.612 -0.0274 -0.1625 -0.2137
 6833SOL    HW132135   0.057   2.845  10.683 -1.6566  1.4418 -1.9870
 6833SOL    HW232136   0.165   2.798  10.595  0.1619  0.3999  1.2906
 6834SOL     OW32137   4.543   1.842   5.614  0.3552  0.8526  0.2089
 6834SOL    HW132138   4.510   1.927   5.645  1.2323  0.7038  1.5597
 6834SOL    HW232139   4.529   1.841   5.519  0.5791  1.4104  0.1690
 6835SOL     OW32140   2.587   0.222   9.644  0.1129 -0.6179  0.7549
 6835SOL    HW132141   2.682   0.213   9.645 -0.0513 -2.2836  0.7915
 6835SOL    HW232142   2.591   0.316   9.623 -0.9090 -0.9168 -0.7538
 6836SOL     OW32143   1.955   1.700   2.311 -0.0553  0.1258  0.2365
 6836SOL    HW132144   1.914   1.763   2.370 -1.2139 -0.4617  0.0473
 6836SOL    HW232145   1.992   1.759   2.245 -0.2935  0.5353  0.4704
 6837SOL     OW32146   3.451   2.606   1.899 -0.0249  0.5508 -0.3540
 6837SOL    HW132147   3.449   2.649   1.814 -1.1426  0.8804 -0.1530
 6837SOL    HW232148   3.481   2.685   1.946  1.5781  0.3362 -1.0100
 6838SOL     OW32149   2.991   2.422   4.442 -0.7921 -0.3169 -0.4716
 6838SOL    HW132150   2.930   2.361   4.483  0.2206 -0.3046  1.0452
 6838SOL    HW232151   2.933   2.498   4.432  0.3476  0.7837  1.2960
 6839SOL     OW32152   3.095   0.144  13.063 -0.1206  0.2430  0.0344
 6839SOL    HW132153   3.085   0.203  13.138  1.7426  1.5432 -0.7398
 6839SOL    HW232154   3.101   0.197  12.984  0.8133  1.3586  0.8429
 6840SOL     OW32155   2.505   2.971   5.365  0.4360  0.0612  0.0482
 6840SOL    HW132156   2.451   2.902   5.403  0.7845 -0.1969  0.0826
 6840SOL    HW232157   2.590   2.947   5.403 -0.4162  1.2500  2.7064
 6841SOL     OW32158   0.344   2.211   6.588  0.2125  0.0138  0.0702
 6841SOL    HW132159   0.357   2.120   6.562  0.0424  0.2474 -0.8143
 6841SOL    HW232160   0.378   2.207   6.677  1.2006 -0.7447 -0.3425
 6842SOL     OW32161   4.552   0.575   3.625 -0.3966  0.0660  0.1970
 6842SOL    HW132162   4.612   0.507   3.596 -0.7783  0.3420 -1.2641
 6842SOL    HW232163   4.467   0.533   3.613 -0.3660  0.1846 -0.4378
 6843SOL     OW32164   3.604   2.209  12.802  0.0051  0.7294 -0.3126
 6843SOL    HW132165   3.555   2.134  12.769 -0.9536  0.5802  1.4119
 6843SOL    HW232166   3.693   2.174  12.795 -0.9939 -1.9536  0.4015
 6844SOL     OW32167   0.172   4.126  16.064 -0.2118 -1.4472 -0.1634
 6844SOL    HW132168   0.147   4.050  16.118  0.5971 -0.7158  1.2254
 6844SOL    HW232169   0.190   4.067  15.990 -0.6902 -1.7475 -0.0457
 6845SOL     OW32170   4.264   0.422   7.456 -1.0040  0.1235  0.3630
 6845SOL    HW132171   4.285   0.412   7.549 -0.4121 -2.2437 -0.0077
 6845SOL    HW232172   4.341   0.378   7.420 -1.9405 -1.8742  0.7903
 6846SOL     OW32173   4.650   2.277   9.650 -0.2150  0.3382 -0.4767
 6846SOL    HW132174   4.652   2.372   9.663 -0.2060  0.1374  0.9834
 6846SOL    HW232175   4.583   2.242   9.709  0.6131  1.4200  1.1230
 6847SOL     OW32176   0.281   1.105   7.851  0.5251  0.4681  0.5327
 6847SOL    HW132177   0.245   1.123   7.938  0.2056  0.9808  0.2980
 6847SOL    HW232178   0.216   1.043   7.819  0.4589  1.3233 -1.0136
 6848SOL     OW32179   4.701   2.976   7.313  0.3645  0.0298 -0.0241
 6848SOL    HW132180   4.737   2.890   7.293  1.6234  0.8611 -1.3496
 6848SOL    HW232181   4.662   2.965   7.399  0.4754  2.3135  0.3288
 6849SOL     OW32182   1.822   3.164   6.492 -0.0915  0.0504  0.1992
 6849SOL    HW132183   1.752   3.204   6.544 -2.2908  0.4553 -3.0579
 6849SOL    HW232184   1.841   3.086   6.543  2.9063  0.6658 -0.0233
 6850SOL     OW32185   2.788   2.998  15.947  0.1232 -0.9531 -0.3907
 6850SOL    HW132186   2.764   3.033  15.861  2.2417  0.5303 -0.3766
 6850SOL    HW232187   2.839   3.073  15.978  0.2547 -0.6482 -1.3286
 6851SOL     OW32188   0.156   3.805   2.883 -0.0860  0.1477 -0.3179
 6851SOL    HW132189   0.189   3.884   2.926 -2.6242  0.8178  0.3897
 6851SOL    HW232190   0.097   3.759   2.943 -0.8947  0.8341 -0.5850
 6852SOL     OW32191   0.819   2.070  13.136 -0.2248 -0.2209 -0.2402
 6852SOL    HW132192   0.783   1.981  13.128  1.5824 -0.8674 -1.1367
 6852SOL    HW232193   0.810   2.092  13.043 -0.8193 -0.9626 -0.3676
 6853SOL     OW32194   3.470   2.981  13.700  0.6038  0.3100 -0.3411
 6853SOL    HW132195   3.462   2.959  13.608 -0.5784  3.2086 -0.9368
 6853SOL    HW232196   3.388   2.942  13.730  0.0294 -1.0980 -3.7627
 6854SOL     OW32197   3.992   1.577   2.266 -0.0178  0.4755  0.4471
 6854SOL    HW132198   4.085   1.555   2.272 -0.0157  0.9917  2.3355
 6854SOL    HW232199   3.998   1.639   2.194  0.9533  0.8847  0.8757
 6855SOL     OW32200   1.627   4.582   1.592 -0.0735  0.3378 -0.2448
 6855SOL    HW132201   1.544   4.624   1.616 -0.4930 -1.7537  1.9233
 6855SOL    HW232202   1.661   4.641   1.525 -0.6497 -1.6786 -2.3270
 6856SOL     OW32203   0.938   1.501   4.688  0.1304  0.2246  0.4276
 6856SOL    HW132204   0.945   1.587   4.729  3.4711 -0.2309  0.7826
 6856SOL    HW232205   0.919   1.438   4.757  0.9160  1.6856  1.9904
 6857SOL     OW32206   2.661   1.034   2.628 -0.6466 -0.1634  0.2263
 6857SOL    HW132207   2.622   1.044   2.541  2.1233  0.5352 -0.9308
 6857SOL    HW232208   2.597   0.974   2.667 -0.1785 -0.9163 -0.1715
 6858SOL     OW32209   2.937   1.308   3.348  0.1730 -1.0746 -0.2485
 6858SOL    HW132210   2.963   1.285   3.259 -1.5981  2.3766 -1.6305
 6858SOL    HW232211   2.895   1.393   3.340  0.8394 -0.6413  0.8577
 6859SOL     OW32212   2.665   1.167   8.145 -0.0352 -0.0183 -0.0964
 6859SOL    HW132213   2.740   1.209   8.104  0.1290 -0.3514 -0.1408
 6859SOL    HW232214   2.595   1.221   8.109  0.7333 -1.0102 -3.0911
 6860SOL     OW32215   3.827   3.209   3.745 -0.3997 -0.0738  0.4665
 6860SOL    HW132216   3.859   3.277   3.686 -2.6345  1.4631  1.0636
 6860SOL    HW232217   3.812   3.251   3.830  0.6279 -1.8661  1.5506
 6861SOL     OW32218   2.009   4.230   7.178 -0.7622 -0.2530 -0.2915
 6861SOL    HW132219   1.939   4.236   7.243 -0.5669  1.3200 -0.2153
 6861SOL    HW232220   1.967   4.257   7.096 -0.3741  0.8305 -0.1335
 6862SOL     OW32221   4.199   4.270   4.900 -0.4357 -0.0159 -0.2642
 6862SOL    HW132222   4.265   4.311   4.957  0.7014 -1.7262 -0.3498
 6862SOL    HW232223   4.122   4.311   4.939 -0.7601 -0.5225 -0.3814
 6863SOL     OW32224   0.046   2.489   8.453 -0.3153 -0.3745  0.2482
 6863SOL    HW132225   0.014   2.543   8.525 -0.3447 -0.8924  0.6248
 6863SOL    HW232226   0.139   2.494   8.474  0.0022 -0.9228 -0.9702
 6864SOL     OW32227   3.129   0.162  11.639 -0.3854  0.0173  0.0583
 6864SOL    HW132228   3.225   0.170  11.648 -0.3015 -1.0155  0.0130
 6864SOL    HW232229   3.119   0.074  11.604  0.3848  0.0972 -0.3616
 6865SOL     OW32230   0.504   2.926   3.747 -0.7334 -0.2805  0.4087
 6865SOL    HW132231   0.506   2.994   3.680 -0.8866 -1.1463 -0.4570
 6865SOL    HW232232   0.430   2.946   3.805 -2.7820  0.6479 -2.5578
 6866SOL     OW32233   3.422   3.273   5.556  0.2004 -0.3699 -0.1934
 6866SOL    HW132234   3.399   3.277   5.649  0.5808  2.5097 -0.2272
 6866SOL    HW232235   3.351   3.235   5.505  2.0792 -0.3639 -2.8012
 6867SOL     OW32236   3.619   4.447   6.457  0.1336 -0.3067 -0.3004
 6867SOL    HW132237   3.527   4.426   6.441 -0.2153  0.3076  0.8572
 6867SOL    HW232238   3.648   4.366   6.499  0.6263  0.4584  0.8344
 6868SOL     OW32239   0.701   3.299   6.940  0.1587  0.1302 -0.4081
 6868SOL    HW132240   0.713   3.367   6.874 -0.5092 -0.0068 -0.6735
 6868SOL    HW232241   0.698   3.218   6.890  2.0351  0.7887 -1.5822
 6869SOL     OW32242   1.197   1.995  11.889  0.7999 -0.1382  0.0034
 6869SOL    HW132243   1.111   1.967  11.856  0.6950  0.0515  0.1139
 6869SOL    HW232244   1.220   2.040  11.808 -0.0448  0.3970  0.0590
 6870SOL     OW32245   0.402   2.153   4.900  0.0341 -0.3200 -0.1428
 6870SOL    HW132246   0.459   2.225   4.873 -0.2949  0.0510  0.1411
 6870SOL    HW232247   0.463   2.096   4.947 -2.9903 -1.6713  2.1658
 6871SOL     OW32248   2.126   2.556   7.938  0.2957 -0.2081 -0.1660
 6871SOL    HW132249   2.058   2.546   8.004  0.8436 -1.2810  0.2258
 6871SOL    HW232250   2.192   2.592   7.997 -0.6678  1.6988 -0.2250
 6872SOL     OW32251   0.681   2.430  15.022 -0.3885  0.4738  0.3290
 6872SOL    HW132252   0.646   2.484  14.952 -0.3697  2.7173  2.0537
 6872SOL    HW232253   0.760   2.480  15.040 -0.6337  1.2824 -0.8650
 6873SOL     OW32254   0.340   4.398   0.675  0.1163  0.2038  0.0802
 6873SOL    HW132255   0.386   4.472   0.635 -0.0157  1.3338  2.0172
 6873SOL    HW232256   0.267   4.440   0.720 -1.5311 -2.2113 -0.3459
 6874SOL     OW32257   2.116   4.464  12.529  0.2073 -0.9470 -0.3103
 6874SOL    HW132258   2.177   4.391  12.517  0.2575 -0.4566 -3.1683
 6874SOL    HW232259   2.169   4.544  12.527 -0.2117 -0.6672 -0.0458
 6875SOL     OW32260   1.421   3.536   1.103  0.4971 -0.1732  0.0645
 6875SOL    HW132261   1.443   3.607   1.163  2.4541 -2.7505  2.4339
 6875SOL    HW232262   1.474   3.465   1.141  0.4229 -0.6866 -0.7748
 6876SOL     OW32263   2.665   3.721  13.379  0.1292 -0.2486  0.0171
 6876SOL    HW132264   2.724   3.681  13.443 -0.6868 -1.3016  0.1092
 6876SOL    HW232265   2.701   3.809  13.387 -0.6901  0.3151 -2.6555
 6877SOL     OW32266   3.934   4.458  16.950  0.2180 -0.0797  0.2208
 6877SOL    HW132267   3.929   4.552  16.963 -1.2673 -0.0572 -0.5553
 6877SOL    HW232268   3.844   4.442  16.977  0.4988 -0.3803  0.9844
 6878SOL     OW32269   2.930   4.500   4.008 -0.2873 -0.0054  0.5124
 6878SOL    HW132270   2.986   4.491   4.085  1.3314 -0.0526 -0.6663
 6878SOL    HW232271   2.899   4.410   4.015 -3.0926  0.9177  0.1889
 6879SOL     OW32272   3.319   1.855   6.265  0.2695 -0.1806 -0.1059
 6879SOL    HW132273   3.301   1.917   6.334  0.3319  0.1281 -0.3680
 6879SOL    HW232274   3.412   1.833   6.277  0.1557 -0.3825  0.3978
 6880SOL     OW32275   0.146   3.248   8.974  1.1050  0.0719 -0.8786
 6880SOL    HW132276   0.217   3.296   9.018 -1.1242  0.5023  2.2802
 6880SOL    HW232277   0.185   3.161   8.980  1.9797  0.5165 -0.2146
 6881SOL     OW32278   0.473   1.889   0.597  0.3674  0.2002 -0.0947
 6881SOL    HW132279   0.522   1.808   0.584  0.8096  0.6151 -1.0579
 6881SOL    HW232280   0.548   1.947   0.607  1.7598 -1.3911 -1.2523
 6882SOL     OW32281   2.834   2.304   3.420 -0.2609 -0.0807  0.4227
 6882SOL    HW132282   2.857   2.354   3.499  2.2123 -1.9134  0.8675
 6882SOL    HW232283   2.878   2.348   3.348 -2.1164 -0.5693 -1.0114
 6883SOL     OW32284   0.181   2.543   3.552  0.0373  0.2523 -0.5586
 6883SOL    HW132285   0.206   2.636   3.544 -2.0172  0.6856 -1.9535
 6883SOL    HW232286   0.270   2.508   3.542  1.0865  2.4005  1.2074
 6884SOL     OW32287   1.037   0.394   7.168  0.5032  0.2646  0.1799
 6884SOL    HW132288   1.020   0.300   7.153  1.7324  0.1365 -0.4037
 6884SOL    HW232289   1.131   0.392   7.152  0.0647  1.1621 -2.4656
 6885SOL     OW32290   2.235   0.933  10.944 -0.3550  0.1056  0.0840
 6885SOL    HW132291   2.309   0.885  10.906 -0.5536 -0.0976 -0.0446
 6885SOL    HW232292   2.287   1.011  10.967 -0.5322  0.1738  0.2514
 6886SOL     OW32293   3.562   2.237   5.581  0.0413  0.2337  0.1391
 6886SOL    HW132294   3.553   2.296   5.656  0.1886 -1.0715  1.1787
 6886SOL    HW232295   3.531   2.297   5.514  1.5135  0.1843 -0.5646
 6887SOL     OW32296   4.027   2.043   4.411  0.1528 -0.0797 -0.2006
 6887SOL    HW132297   4.003   1.987   4.337 -2.4312  0.8536 -0.0726
 6887SOL    HW232298   4.075   1.975   4.458  1.3634 -0.7266 -2.3327
 6888SOL     OW32299   2.812   1.928   3.217 -0.3569  0.5161 -0.5550
 6888SOL    HW132300   2.766   1.952   3.136 -2.7143  0.2716  0.7236
 6888SOL    HW232301   2.742   1.928   3.282  0.2016  0.4226  0.0471
 6889SOL     OW32302   2.627   3.226   4.950 -0.1552  0.5749 -0.5372
 6889SOL    HW132303   2.568   3.251   4.879 -2.1328  0.7972  1.2061
 6889SOL    HW232304   2.698   3.187   4.899  2.0900  0.7209  2.4591
 6890SOL     OW32305   2.657   3.481   4.172 -0.0876 -0.2907 -0.4217
 6890SOL    HW132306   2.698   3.499   4.087  1.0797 -1.7727 -0.1728
 6890SOL    HW232307   2.736   3.456   4.220 -0.0092  1.2199  0.2290
 6891SOL     OW32308   2.691   1.950   9.035 -0.1912 -0.2070  0.5122
 6891SOL    HW132309   2.660   2.032   9.074  2.4336  0.7885  0.4529
 6891SOL    HW232310   2.782   1.962   9.061  0.2873 -2.3580 -0.1242
 6892SOL     OW32311   1.810   1.986   5.614  0.1682  1.0281 -0.0932
 6892SOL    HW132312   1.847   2.040   5.684 -0.0316  1.8044 -0.5971
 6892SOL    HW232313   1.722   1.984   5.651  0.8172 -1.3613  1.3707
 6893SOL     OW32314   4.230   1.646   1.789 -0.1791  1.0566  0.3364
 6893SOL    HW132315   4.246   1.704   1.714  2.1994 -0.5774 -0.4425
 6893SOL    HW232316   4.306   1.664   1.843  0.3127  0.5196 -0.1666
 6894SOL     OW32317   3.454   0.345  10.875 -0.1615 -0.5774 -0.1968
 6894SOL    HW132318   3.529   0.352  10.816 -0.7862  2.7869 -0.5800
 6894SOL    HW232319   3.500   0.339  10.959  2.0925 -1.7427 -1.5095
 6895SOL     OW32320   3.910   2.498   3.484 -0.9022 -0.4979  0.2991
 6895SOL    HW132321   3.925   2.577   3.537  0.0423  0.3183 -1.2012
 6895SOL    HW232322   4.001   2.490   3.457 -1.1089  2.5733 -1.2939
 6896SOL     OW32323   3.620   3.201  13.584  0.7601  0.6984 -0.0890
 6896SOL    HW132324   3.564   3.145  13.637  1.0132 -0.1080 -0.6736
 6896SOL    HW232325   3.563   3.260  13.535  1.1609  0.6287 -0.6397
 6897SOL     OW32326   3.473   3.276   7.720 -0.0421  0.3411 -0.0611
 6897SOL    HW132327   3.421   3.351   7.691 -1.5159 -0.2001  1.1764
 6897SOL    HW232328   3.515   3.308   7.801 -1.7033  2.2036  0.0809
 6898SOL     OW32329   3.048   0.226   1.961 -0.3941 -0.2467 -0.5502
 6898SOL    HW132330   2.976   0.221   2.023 -1.2707  0.6575 -1.4827
 6898SOL    HW232331   3.055   0.322   1.959 -0.8001 -0.2641 -2.8888
 6899SOL     OW32332   4.661   1.082   4.512  0.3443 -0.3543  0.2201
 6899SOL    HW132333   4.577   1.072   4.558 -0.8548 -0.4110 -1.9480
 6899SOL    HW232334   4.646   1.061   4.419 -0.2447 -1.4975  0.5693
 6900SOL     OW32335   3.002   3.619   3.274 -0.0967 -0.1160  0.0591
 6900SOL    HW132336   3.057   3.603   3.198  0.2617  0.7165  0.1420
 6900SOL    HW232337   3.008   3.534   3.318  1.2364  0.0324  0.1759
 6901SOL     OW32338   0.935   2.564   2.460 -0.6974  0.1231 -0.5708
 6901SOL    HW132339   1.025   2.558   2.494 -0.8552 -1.3001 -0.4056
 6901SOL    HW232340   0.880   2.612   2.522 -1.6655 -0.8194 -0.6929
 6902SOL     OW32341   1.162   0.027   7.636  0.2211  0.4242  0.1548
 6902SOL    HW132342   1.176   4.736   7.725  0.1027  1.8599  0.6649
 6902SOL    HW232343   1.196   0.116   7.648 -1.0757  0.5605  2.6742
 6903SOL     OW32344   1.957   2.329   5.536 -0.3850 -0.3662  0.8492
 6903SOL    HW132345   1.864   2.342   5.553 -0.6217 -0.1488 -0.6097
 6903SOL    HW232346   1.980   2.278   5.614  1.4397 -0.0705  0.5079
 6904SOL     OW32347   3.439   3.175   6.472  0.0463  0.1284  0.0847
 6904SOL    HW132348   3.468   3.124   6.547 -3.8895 -0.1392  1.4205
 6904SOL    HW232349   3.524   3.194   6.434  0.0888 -0.6929 -0.2373
 6905SOL     OW32350   4.501   3.516   0.866 -0.3969  0.2839  0.3372
 6905SOL    HW132351   4.593   3.512   0.892 -0.2400 -0.2582 -0.3246
 6905SOL    HW232352   4.514   3.576   0.793 -0.8535  1.7758  1.4793
 6906SOL     OW32353   0.192   2.162  13.678  0.0841 -0.6490  0.2776
 6906SOL    HW132354   0.115   2.151  13.623 -0.7804  0.8473  1.2192
 6906SOL    HW232355   0.231   2.074  13.673  1.7815  0.0821  0.4735
 6907SOL     OW32356   1.805   3.591   3.163 -0.0866  0.3012 -0.7757
 6907SOL    HW132357   1.739   3.523   3.176  2.5757 -1.5778  2.9787
 6907SOL    HW232358   1.868   3.564   3.230 -0.5696 -0.9747 -0.8398
 6908SOL     OW32359   4.487   4.558   1.608 -0.2424 -0.3746  0.1320
 6908SOL    HW132360   4.517   4.641   1.646  0.4120 -0.8836  0.7306
 6908SOL    HW232361   4.550   4.493   1.640 -1.2164 -0.5893  1.5910
 6909SOL     OW32362   4.282   0.344   2.654  0.1428 -0.0128 -0.2350
 6909SOL    HW132363   4.289   0.425   2.704 -0.8887 -1.0933  1.6744
 6909SOL    HW232364   4.205   0.372   2.603  0.7387  1.4149 -0.3456
 6910SOL     OW32365   2.825   3.907   6.116  0.1467  0.2276  0.3785
 6910SOL    HW132366   2.791   3.919   6.027  0.5475  0.4888  0.2600
 6910SOL    HW232367   2.751   3.935   6.169  0.0169 -0.5813  0.6221
 6911SOL     OW32368   2.637   1.993  17.461 -0.7579  0.3322  0.5954
 6911SOL    HW132369   2.649   2.011  17.554  1.2894 -0.9944  0.5942
 6911SOL    HW232370   2.726   2.002  17.426 -1.4648 -0.3195 -1.3455
 6912SOL     OW32371   2.954   3.930  17.290 -0.0479 -0.1758  0.1873
 6912SOL    HW132372   2.883   3.875  17.256  1.2011 -1.5055 -0.2709
 6912SOL    HW232373   2.951   4.018  17.251  0.2688 -0.4343 -0.4349
 6913SOL     OW32374   2.828   1.695   8.385 -0.1463 -0.1508 -0.0834
 6913SOL    HW132375   2.776   1.670   8.308  1.6034 -0.9035 -1.0297
 6913SOL    HW232376   2.808   1.622   8.443 -1.2253 -0.5179 -0.9171
 6914SOL     OW32377   0.654   3.653   6.849 -0.5152 -0.3149 -0.3197
 6914SOL    HW132378   0.572   3.682   6.888 -1.1278 -0.4516 -1.5104
 6914SOL    HW232379   0.716   3.652   6.922  0.0844  1.5193 -0.7938
 6915SOL     OW32380   0.381   3.105  10.410 -0.6090  0.0666 -0.3494
 6915SOL    HW132381   0.462   3.114  10.360 -0.2947 -1.9214 -0.1856
 6915SOL    HW232382   0.329   3.059  10.344  1.0454 -0.6350 -1.1631
 6916SOL     OW32383   1.845   3.783   7.582  0.4709  0.0441 -0.1810
 6916SOL    HW132384   1.851   3.822   7.495  1.6087  0.5618  0.1219
 6916SOL    HW232385   1.807   3.854   7.634 -0.1396  0.1878 -0.8157
 6917SOL     OW32386   0.757   0.199   2.744  0.1840 -0.1152 -0.5663
 6917SOL    HW132387   0.791   0.125   2.693  1.8417 -0.6290  1.2904
 6917SOL    HW232388   0.665   0.194   2.719 -0.1326  0.4167  0.5019
 6918SOL     OW32389   4.691   3.538   0.341 -0.2650  0.7352 -0.2881
 6918SOL    HW132390   0.039   3.562   0.309 -0.4766 -1.2033 -2.3451
 6918SOL    HW232391   4.661   3.629   0.347 -0.1636  0.8104 -0.8757
 6919SOL     OW32392   2.607   2.455   7.634  0.3211 -0.7293 -0.8017
 6919SOL    HW132393   2.537   2.498   7.683 -1.3639 -2.3317 -1.8098
 6919SOL    HW232394   2.584   2.363   7.646  0.0680 -0.5138  0.4277
 6920SOL     OW32395   3.642   2.048   3.625  0.1410  0.6463  0.1788
 6920SOL    HW132396   3.696   1.974   3.597  0.5863  0.8322  0.5570
 6920SOL    HW232397   3.684   2.121   3.581  0.1488  0.1761 -0.5934
 6921SOL     OW32398   1.981   3.119  14.505 -0.2975  0.5067 -0.0072
 6921SOL    HW132399   1.934   3.108  14.587 -0.6547 -1.1345 -0.4351
 6921SOL    HW232400   2.062   3.079  14.536  0.1086  1.9341  0.7593
 6922SOL     OW32401   1.559   4.098   8.192  0.0905  0.0123 -0.3252
 6922SOL    HW132402   1.529   4.017   8.233 -0.0266 -1.2044 -2.8121
 6922SOL    HW232403   1.546   4.086   8.098 -1.0478  0.7734 -0.2599
 6923SOL     OW32404   3.930   3.009   1.670 -0.5902 -0.1654  0.0858
 6923SOL    HW132405   3.932   2.984   1.578  0.0298 -0.9825  0.3228
 6923SOL    HW232406   3.906   3.102   1.666  0.1714  0.1543  2.6197
 6924SOL     OW32407   2.022   4.298   4.508 -0.2155  0.1758  0.6299
 6924SOL    HW132408   2.068   4.245   4.442  0.6864  0.6869  0.8446
 6924SOL    HW232409   2.082   4.371   4.525  1.3830 -0.9977  0.0821
 6925SOL     OW32410   2.679   0.444  15.614  0.2505  0.6081 -0.1154
 6925SOL    HW132411   2.659   0.477  15.527  0.9702  0.6843 -0.2463
 6925SOL    HW232412   2.722   0.365  15.582  1.4330  3.0291 -4.4121
 6926SOL     OW32413   2.364   3.781   0.107 -0.1480  0.1352  0.2923
 6926SOL    HW132414   2.403   3.864   0.079  0.3764 -0.6431 -1.2660
 6926SOL    HW232415   2.399   3.773   0.196  0.2617 -0.1357  0.1103
 6927SOL     OW32416   0.204   0.208   3.597 -0.2514  0.1494 -0.1196
 6927SOL    HW132417   0.171   0.169   3.678  1.5384  3.0181  1.9945
 6927SOL    HW232418   0.294   0.220   3.627 -0.1149 -1.4044  0.0688
 6928SOL     OW32419   0.199   0.082  10.196  0.2579  0.0612 -0.0783
 6928SOL    HW132420   0.151   0.100  10.116  3.3021  1.2537 -1.6267
 6928SOL    HW232421   0.146   0.121  10.266 -0.6833  1.6355 -1.6855
 6929SOL     OW32422   1.057   0.927   0.142  0.1701  0.0464  0.0746
 6929SOL    HW132423   1.089   0.947   0.054  2.0252  0.8028  0.8997
 6929SOL    HW232424   0.963   0.932   0.130  0.5769  0.5979 -2.8108
 6930SOL     OW32425   3.821   3.847   5.121 -0.6088  0.2000 -0.0190
 6930SOL    HW132426   3.847   3.864   5.031 -0.3502  1.4795  0.2947
 6930SOL    HW232427   3.792   3.938   5.129 -1.0838  0.0191  0.3538
 6931SOL     OW32428   3.873   3.345   3.280 -0.3564 -0.0233  0.5344
 6931SOL    HW132429   3.842   3.372   3.366 -1.2451 -2.2636  0.9180
 6931SOL    HW232430   3.870   3.424   3.225 -2.7922  0.3286  1.1447
 6932SOL     OW32431   2.967   2.271  16.610  0.6927  0.3321  0.2617
 6932SOL    HW132432   3.046   2.307  16.570  0.2084 -0.5638 -1.5216
 6932SOL    HW232433   2.981   2.178  16.589 -0.7471  0.2995 -0.5863
 6933SOL     OW32434   1.466   3.660  16.949 -0.1695 -0.0008  0.0742
 6933SOL    HW132435   1.507   3.690  17.029  2.0425 -1.6908 -0.4338
 6933SOL    HW232436   1.391   3.617  16.992 -0.2745 -1.1438 -1.2328
 6934SOL     OW32437   4.643   4.155   9.001  0.1877 -0.7905  0.2305
 6934SOL    HW132438   4.722   4.180   9.048  1.5081 -0.9215 -1.9309
 6934SOL    HW232439   4.592   4.236   9.010 -0.5615 -1.3233  0.8408
 6935SOL     OW32440   2.817   1.072   5.855 -0.5338 -0.2331  0.2552
 6935SOL    HW132441   2.795   1.112   5.940 -0.2132 -2.7051  1.4881
 6935SOL    HW232442   2.901   1.114   5.838 -1.1337  1.1547  0.6827
 6936SOL     OW32443   0.376   1.369   5.142 -0.3150 -0.0158 -0.4908
 6936SOL    HW132444   0.401   1.437   5.205  1.6857 -0.4780 -0.7989
 6936SOL    HW232445   0.454   1.364   5.087 -0.7738 -0.1619 -1.1353
 6937SOL     OW32446   1.580   4.089   3.515  0.0911 -0.0244  0.3206
 6937SOL    HW132447   1.631   4.121   3.589 -0.4199  1.2107  0.1505
 6937SOL    HW232448   1.589   4.171   3.465 -0.3289 -1.9968 -2.9968
 6938SOL     OW32449   0.148   1.814  12.653  0.5025 -0.1645  0.2079
 6938SOL    HW132450   0.224   1.846  12.605 -0.5273  0.9218 -0.7178
 6938SOL    HW232451   0.168   1.721  12.654  1.1909 -0.0119  0.5695
 6939SOL     OW32452   2.452   0.987   6.711 -0.0643 -0.1073  0.0600
 6939SOL    HW132453   2.480   1.010   6.622 -0.6802 -0.3328 -0.1927
 6939SOL    HW232454   2.532   0.976   6.763  0.8889  0.2686 -1.3192
 6940SOL     OW32455   2.977   4.278  15.833 -0.5369  0.1955 -0.0091
 6940SOL    HW132456   2.899   4.276  15.888 -0.9873  1.7185 -0.5819
 6940SOL    HW232457   3.024   4.355  15.866 -4.1936  1.4502  2.2203
 6941SOL     OW32458   2.313   2.819   5.578  0.2659 -0.4031 -0.1571
 6941SOL    HW132459   2.311   2.732   5.536  1.1465 -1.2077  1.4709
 6941SOL    HW232460   2.391   2.812   5.633  0.1532 -0.7436 -0.0370
 6942SOL     OW32461   0.307   2.170   4.161 -0.1858 -0.4300  0.1981
 6942SOL    HW132462   0.269   2.185   4.248  0.4637 -0.2229  0.4454
 6942SOL    HW232463   0.362   2.097   4.188  1.8357  2.8958  5.1050
 6943SOL     OW32464   2.429   0.352   4.239 -0.3454 -0.0739  0.1517
 6943SOL    HW132465   2.487   0.337   4.164 -2.4621  0.0164 -1.5073
 6943SOL    HW232466   2.477   0.304   4.306  0.4081  0.2375 -0.1702
 6944SOL     OW32467   1.220   0.795   0.505 -0.0667 -0.0352 -0.4155
 6944SOL    HW132468   1.273   0.859   0.458 -0.1219  0.7882  0.6469
 6944SOL    HW232469   1.167   0.770   0.429  1.0371 -1.7387 -0.6272
 6945SOL     OW32470   1.044   0.140   7.147 -0.0959  0.1249 -0.4551
 6945SOL    HW132471   1.048   0.080   7.073  0.9049 -0.7398  0.3101
 6945SOL    HW232472   0.952   0.136   7.175  0.0927  1.6803  0.4230
 6946SOL     OW32473   3.400   0.974   4.670  0.5280  0.7105 -0.3821
 6946SOL    HW132474   3.473   1.034   4.656  4.0051 -3.3790  0.1171
 6946SOL    HW232475   3.354   0.997   4.751  0.1428 -2.5911  0.3565
 6947SOL     OW32476   4.544   0.677   2.185  0.5635  0.2904 -0.9236
 6947SOL    HW132477   4.554   0.591   2.227  0.6908  1.2326  1.0123
 6947SOL    HW232478   4.490   0.651   2.111 -1.8815 -0.1951  1.0352
 6948SOL     OW32479   3.033   0.517   6.829  0.1455  0.5799  0.0432
 6948SOL    HW132480   2.985   0.437   6.807  3.7044 -1.3008 -0.9962
 6948SOL    HW232481   3.108   0.504   6.770  1.0678  1.0270  1.1190
 6949SOL     OW32482   3.690   3.048   9.466  0.7922  0.7080 -0.3630
 6949SOL    HW132483   3.683   3.143   9.476 -1.5091  0.6228 -1.0471
 6949SOL    HW232484   3.603   3.012   9.486 -0.1871  1.5596 -3.0439
 6950SOL     OW32485   4.415   2.557   3.649  0.3797  0.0833 -0.2487
 6950SOL    HW132486   4.433   2.472   3.688 -1.4371 -0.1565  0.0853
 6950SOL    HW232487   4.492   2.611   3.669  1.0985 -1.6711  1.7285
 6951SOL     OW32488   1.307   0.400   6.019 -0.2061 -0.0580  0.6765
 6951SOL    HW132489   1.265   0.389   5.934 -2.1884  0.2403  1.6194
 6951SOL    HW232490   1.226   0.421   6.067  0.5099 -0.4959  2.0660
 6952SOL     OW32491   4.657   3.780   9.607 -0.0056  0.3230 -0.5094
 6952SOL    HW132492   4.619   3.859   9.647 -1.4653 -0.4032 -0.4689
 6952SOL    HW232493   4.649   3.712   9.673  0.3278  1.0243  0.2522
 6953SOL     OW32494   1.799   3.744  13.661 -0.5890  0.2669 -0.1166
 6953SOL    HW132495   1.831   3.720  13.574  1.5543  1.2871  0.4149
 6953SOL    HW232496   1.731   3.680  13.683 -0.4831 -0.1277 -0.9209
 6954SOL     OW32497   0.600   1.393   2.330 -0.1307  0.2549 -0.1019
 6954SOL    HW132498   0.649   1.362   2.254 -1.1316  1.2331 -1.1464
 6954SOL    HW232499   0.516   1.403   2.286  0.6802  0.6579 -1.5627
 6955SOL     OW32500   3.248   1.794   9.670 -0.1754 -0.4827  0.3967
 6955SOL    HW132501   3.204   1.731   9.613  0.1288  0.8206 -1.2894
 6955SOL    HW232502   3.240   1.760   9.759  0.7985  0.2790  0.7766
 6956SOL     OW32503   3.173   3.589  13.263 -0.2326 -0.4353  0.2125
 6956SOL    HW132504   3.138   3.656  13.322 -1.3087  2.5228 -3.7925
 6956SOL    HW232505   3.262   3.621  13.247 -0.9736  0.9373 -1.1754
 6957SOL     OW32506   0.971   3.409   6.731 -0.0755 -0.5344 -0.0821
 6957SOL    HW132507   0.955   3.354   6.654 -0.3489 -1.5510  0.6951
 6957SOL    HW232508   1.048   3.464   6.717  0.5319 -0.9567  1.5613
 6958SOL     OW32509   0.585   3.801   7.974  0.3176  0.2025 -0.5740
 6958SOL    HW132510   0.670   3.844   7.963 -0.5061  1.9566 -0.1728
 6958SOL    HW232511   0.548   3.778   7.889 -2.3592 -0.0051  0.6395
 6959SOL     OW32512   0.060   3.201   1.990 -0.4179  0.8478 -0.6348
 6959SOL    HW132513   0.132   3.232   2.044 -0.4653  2.5801 -1.5698
 6959SOL    HW232514   4.725   3.249   2.028  1.1399  0.6124  2.6464
 6960SOL     OW32515   0.635   1.786   6.280  0.2147 -0.3993 -0.5030
 6960SOL    HW132516   0.708   1.846   6.293 -0.5848  0.4443  0.0638
 6960SOL    HW232517   0.695   1.712   6.266  1.5185  0.7396 -0.9388
 6961SOL     OW32518   3.322   0.028   4.133 -0.2430  0.1240 -0.1395
 6961SOL    HW132519   3.343   4.700   4.069 -0.0251 -0.1049  0.1722
 6961SOL    HW232520   3.298   0.097   4.071 -0.6636 -1.4845 -1.7472
 6962SOL     OW32521   1.874   3.460   3.897  0.0627  0.7370 -0.0253
 6962SOL    HW132522   1.903   3.385   3.949 -2.8983 -0.6587 -0.3799
 6962SOL    HW232523   1.778   3.454   3.900  0.1810 -1.7434 -1.0001
 6963SOL     OW32524   1.086   2.406   3.782 -0.2012 -0.4480 -0.3085
 6963SOL    HW132525   1.023   2.477   3.797  1.9650  1.2801  0.6275
 6963SOL    HW232526   1.163   2.444   3.824  0.4092 -2.1861  0.1278
 6964SOL     OW32527   3.127   4.137   2.907  0.0501  0.5871 -0.4520
 6964SOL    HW132528   3.053   4.099   2.954  0.8341 -0.1369  0.2093
 6964SOL    HW232529   3.182   4.128   2.985 -0.2498  0.8980 -0.2056
 6965SOL     OW32530   4.336   1.183   8.815  0.0286  0.2796 -0.1779
 6965SOL    HW132531   4.286   1.232   8.880 -0.8194  0.3280 -0.8777
 6965SOL    HW232532   4.394   1.245   8.771  1.5897 -0.0697  1.3850
 6966SOL     OW32533   1.394   0.088   1.329 -0.3472  0.0581  0.5526
 6966SOL    HW132534   1.359   0.146   1.396 -4.3055 -1.5426 -0.1179
 6966SOL    HW232535   1.352   0.122   1.250 -1.9966  0.7698  1.7417
 6967SOL     OW32536   2.852   1.709   1.879  0.5253 -0.0030  0.0705
 6967SOL    HW132537   2.785   1.766   1.916 -1.5039 -0.3290 -3.1236
 6967SOL    HW232538   2.847   1.740   1.788  0.6960 -0.9788 -0.2762
 6968SOL     OW32539   3.014   1.468  12.704  0.7920  0.0245 -0.1907
 6968SOL    HW132540   3.019   1.528  12.778 -3.0672 -1.1951  1.0396
 6968SOL    HW232541   2.919   1.471  12.693  0.8493 -0.0277 -0.7102
 6969SOL     OW32542   3.446   4.516   8.208 -0.2357  0.5525 -0.5258
 6969SOL    HW132543   3.419   4.554   8.124 -0.8892 -1.1642 -1.1024
 6969SOL    HW232544   3.504   4.447   8.176  1.4437  1.4728  0.5796
 6970SOL     OW32545   2.208   0.715   7.879  0.0621 -0.1577 -0.5772
 6970SOL    HW132546   2.217   0.798   7.925 -0.6111 -0.7174  0.5410
 6970SOL    HW232547   2.120   0.682   7.896  0.1485 -0.4771 -0.7420
 6971SOL     OW32548   1.176   1.222   9.794 -0.4754 -0.1649  0.0419
 6971SOL    HW132549   1.086   1.190   9.785 -0.4210 -1.0103  2.5590
 6971SOL    HW232550   1.155   1.290   9.858 -0.4836 -1.9743  1.9234
 6972SOL     OW32551   2.975   2.586  16.780  0.1675 -0.1545  0.0739
 6972SOL    HW132552   2.976   2.654  16.847  0.7851  1.0351 -1.1541
 6972SOL    HW232553   3.030   2.636  16.719  0.6335 -1.8432 -0.8931
 6973SOL     OW32554   0.101   1.165   3.675 -0.0543 -0.1686  0.4324
 6973SOL    HW132555   0.063   1.077   3.671  1.5856 -0.7817 -1.5730
 6973SOL    HW232556   0.177   1.152   3.732  1.2060 -4.3873 -2.2021
 6974SOL     OW32557   1.109   2.972  10.890  0.3038  0.2783  0.0206
 6974SOL    HW132558   1.132   3.004  10.803  1.4738  0.3572  0.3575
 6974SOL    HW232559   1.198   2.959  10.922  0.2467  2.0917  0.9468
 6975SOL     OW32560   1.866   0.042  15.289 -0.0712  0.6374 -0.0903
 6975SOL    HW132561   1.955   0.076  15.302 -0.4421  1.3504  0.5867
 6975SOL    HW232562   1.871   4.699  15.339  1.5566  0.9783  0.3311
 6976SOL     OW32563   3.107   4.313  10.126 -0.8973  0.1053 -0.2419
 6976SOL    HW132564   3.049   4.238  10.118  0.1585 -0.6521 -0.7254
 6976SOL    HW232565   3.110   4.332  10.032  2.1608  0.1117 -0.1303
 6977SOL     OW32566   1.486   2.131   8.624  0.3199  0.1497 -0.6200
 6977SOL    HW132567   1.443   2.216   8.610 -1.2837 -0.7271 -1.0574
 6977SOL    HW232568   1.453   2.124   8.713 -0.7886 -1.3761 -1.1363
 6978SOL     OW32569   1.037   1.424   1.268  0.2661  0.1739  0.5850
 6978SOL    HW132570   1.130   1.422   1.289  0.1173 -0.0244  1.2259
 6978SOL    HW232571   1.038   1.479   1.190 -0.8732 -1.3670 -0.5361
 6979SOL     OW32572   4.096   0.095   0.831 -0.5651 -0.6516 -0.1644
 6979SOL    HW132573   4.090   0.112   0.925 -1.1268 -0.0318 -0.3138
 6979SOL    HW232574   4.021   0.041   0.806  0.0050 -0.7621 -1.6417
 6980SOL     OW32575   0.508   1.415   7.966 -0.0852  0.1136  0.3386
 6980SOL    HW132576   0.514   1.509   7.953  0.3842 -0.2204 -1.7466
 6980SOL    HW232577   0.452   1.394   7.892 -0.4671  2.0584  0.0722
 6981SOL     OW32578   4.572   4.616   5.270  0.6008 -0.2413  0.6154
 6981SOL    HW132579   4.595   4.529   5.240  2.8890  0.2802  0.9082
 6981SOL    HW232580   4.494   4.624   5.214  0.2133  2.3187  1.4915
 6982SOL     OW32581   2.128   1.358   0.983  0.6573  0.4130  0.2309
 6982SOL    HW132582   2.081   1.370   0.900  1.5610 -0.2239 -0.3876
 6982SOL    HW232583   2.215   1.341   0.947  0.8356  2.5541 -0.3412
 6983SOL     OW32584   1.751   0.735   5.385 -0.1079  0.0242  0.3825
 6983SOL    HW132585   1.664   0.705   5.410 -0.4222 -0.4848 -1.2931
 6983SOL    HW232586   1.751   0.690   5.300  0.6273 -1.4926  1.1888
 6984SOL     OW32587   0.845   1.840  14.753 -0.2416 -0.0552  0.1321
 6984SOL    HW132588   0.786   1.913  14.774 -0.5366  0.7444 -3.3731
 6984SOL    HW232589   0.907   1.889  14.700 -0.7301  2.4033  1.8301
 6985SOL     OW32590   3.570   2.415  11.682 -0.4686 -0.5274 -0.1456
 6985SOL    HW132591   3.558   2.507  11.657 -1.4777 -0.3545  0.9648
 6985SOL    HW232592   3.656   2.392  11.648 -1.1980 -0.7829 -1.8399
 6986SOL     OW32593   2.388   1.302   0.902 -0.3440  0.0338 -0.2834
 6986SOL    HW132594   2.471   1.313   0.856  0.1865 -0.4770  0.5484
 6986SOL    HW232595   2.351   1.234   0.846  0.1794 -0.4202 -0.0735
 6987SOL     OW32596   4.605   2.515   3.164  0.1558 -0.0163 -0.1360
 6987SOL    HW132597   4.576   2.425   3.179  1.6723 -0.9932 -2.9928
 6987SOL    HW232598   4.565   2.570   3.232 -0.1618  0.3305 -0.6056
 6988SOL     OW32599   1.290   0.471   8.192 -0.4756  0.5335  0.1987
 6988SOL    HW132600   1.264   0.561   8.172 -0.8452  0.1064 -1.2106
 6988SOL    HW232601   1.384   0.484   8.191 -0.6051  1.1878 -3.8987
 6989SOL     OW32602   0.159   2.535   3.154  0.1960  0.0204 -0.3312
 6989SOL    HW132603   0.063   2.529   3.147  0.1974 -0.2467 -0.1043
 6989SOL    HW232604   0.171   2.627   3.178  0.4184 -0.5035  1.5407
 6990SOL     OW32605   0.403   4.549   8.515 -0.5546 -0.3439  0.2814
 6990SOL    HW132606   0.349   4.514   8.444 -0.1576  1.6892 -1.0437
 6990SOL    HW232607   0.376   4.498   8.591 -0.3815 -0.5955  0.1717
 6991SOL     OW32608   1.560   1.017   4.806  0.2438 -0.0371 -0.0149
 6991SOL    HW132609   1.488   1.038   4.747 -0.0245 -0.4503  0.1715
 6991SOL    HW232610   1.570   0.925   4.782  1.0044 -0.3973  1.7489
 6992SOL     OW32611   2.536   0.085   7.505 -0.0377  0.3555  0.1814
 6992SOL    HW132612   2.580   0.013   7.551  0.9527  1.0083  0.2495
 6992SOL    HW232613   2.586   0.157   7.542  2.0980 -1.4382  0.7861
 6993SOL     OW32614   2.685   4.011   4.362  0.2765  0.2668 -0.1109
 6993SOL    HW132615   2.601   4.003   4.408  1.1061  0.2326  1.4045
 6993SOL    HW232616   2.736   4.068   4.420  3.6301 -1.7943 -1.0453
 6994SOL     OW32617   0.990   1.689   1.592  0.1927 -0.1463 -0.4680
 6994SOL    HW132618   0.949   1.770   1.621  0.7251 -0.2261  0.4988
 6994SOL    HW232619   1.053   1.709   1.523  0.5960 -1.1288 -0.3885
 6995SOL     OW32620   2.712   0.275   7.599  0.0059  0.0862  0.4405
 6995SOL    HW132621   2.784   0.276   7.662  1.1241 -0.1003 -0.8222
 6995SOL    HW232622   2.713   0.370   7.582  2.6329 -0.2201 -1.1680
 6996SOL     OW32623   2.797   3.715   7.448 -0.0143 -0.5071  0.2720
 6996SOL    HW132624   2.819   3.670   7.366 -0.8967  0.9639 -0.7768
 6996SOL    HW232625   2.878   3.707   7.497 -0.0962 -0.7402  0.3691
 6997SOL     OW32626   0.075   3.664   8.946 -0.2793 -0.0344 -0.0455
 6997SOL    HW132627   0.154   3.692   8.992  0.3464 -0.5116 -0.8447
 6997SOL    HW232628   0.011   3.683   9.015  1.0637  0.2454  1.1075
 6998SOL     OW32629   4.029   2.287  17.457  0.4496  0.0530 -0.1315
 6998SOL    HW132630   3.971   2.270  17.382 -2.3624 -0.4347  2.1199
 6998SOL    HW232631   3.974   2.356  17.495 -0.3526 -1.5165  1.5976
 6999SOL     OW32632   2.681   0.757   7.427 -0.3572 -0.0148 -0.1020
 6999SOL    HW132633   2.705   0.679   7.475  1.3189  1.2290  1.0870
 6999SOL    HW232634   2.685   0.822   7.497  1.3072 -1.4737  1.1344
 7000SOL     OW32635   2.584   4.406   8.164  0.1123  0.6499  0.0984
 7000SOL    HW132636   2.515   4.407   8.230 -1.2587  4.0208 -1.3655
 7000SOL    HW232637   2.546   4.334   8.113  2.1478 -2.5012  3.0117
 7001SOL     OW32638   3.796   3.290  11.037  0.0802  0.4905  0.0288
 7001SOL    HW132639   3.717   3.325  11.079 -1.3088  0.9328 -2.9208
 7001SOL    HW232640   3.807   3.208  11.085  0.9392  0.2543 -0.5834
 7002SOL     OW32641   2.080   3.919   8.663  0.4692  0.9248 -0.2363
 7002SOL    HW132642   2.061   3.945   8.573 -1.0380 -0.9260 -0.4278
 7002SOL    HW232643   2.171   3.950   8.668  0.5309  0.6458  0.3528
 7003SOL     OW32644   4.692   2.175   0.340 -0.6176 -0.1855  0.1444
 7003SOL    HW132645   4.603   2.138   0.343 -1.9947  3.2326  1.3105
 7003SOL    HW232646   4.698   2.228   0.419  2.0412 -0.5619  0.1752
 7004SOL     OW32647   1.185   1.717  17.572  0.2312  0.1314 -0.3760
 7004SOL    HW132648   1.141   1.645  17.527 -1.6601  1.6530 -0.9348
 7004SOL    HW232649   1.249   1.664  17.620  0.0385  0.7227  0.5298
 7005SOL     OW32650   4.699   0.448   8.648 -0.0757  0.7148 -0.0247
 7005SOL    HW132651   4.656   0.372   8.684  0.0416  0.2994 -0.7544
 7005SOL    HW232652   4.667   0.522   8.700 -1.2485 -1.0908  1.7762
 7006SOL     OW32653   3.890   3.160  13.437 -0.2606  0.2755 -0.1771
 7006SOL    HW132654   3.827   3.232  13.434 -0.6025 -0.0333 -0.5905
 7006SOL    HW232655   3.954   3.181  13.369 -0.1226  2.6643  0.7075
 7007SOL     OW32656   0.427   0.244   5.771 -0.1997  0.0095  0.6691
 7007SOL    HW132657   0.392   0.156   5.784 -0.7661  0.0608 -0.4924
 7007SOL    HW232658   0.340   0.281   5.790 -0.3582 -0.3644  0.6634
 7008SOL     OW32659   0.478   3.991  16.010 -0.4199  0.0913  0.0355
 7008SOL    HW132660   0.570   3.974  15.988 -0.4364 -2.4927  2.0266
 7008SOL    HW232661   0.480   4.084  16.032  1.6619 -0.1806  1.0519
 7009SOL     OW32662   2.198   0.090   3.137  0.3172  0.0540 -0.7021
 7009SOL    HW132663   2.135   0.046   3.081 -1.0933  1.1258  0.0366
 7009SOL    HW232664   2.186   0.185   3.131 -1.1428 -0.0645  0.1819
 7010SOL     OW32665   2.121   0.675   8.913  0.1954 -0.6911 -0.0113
 7010SOL    HW132666   2.148   0.586   8.891  0.5357 -0.1041 -1.9773
 7010SOL    HW232667   2.027   0.672   8.929  0.1594 -0.3888 -0.1752
 7011SOL     OW32668   3.756   4.377   8.493 -0.0384  0.0342 -0.2268
 7011SOL    HW132669   3.713   4.445   8.545  1.3908  0.5239  0.3117
 7011SOL    HW232670   3.825   4.426   8.448 -0.2312 -0.3307 -0.9177
 7012SOL     OW32671   3.169   2.870   5.190 -0.3029  0.0656  0.2747
 7012SOL    HW132672   3.118   2.803   5.235  0.3285 -2.6305 -3.0627
 7012SOL    HW232673   3.209   2.823   5.117  2.4096  3.5851 -0.5325
 7013SOL     OW32674   1.192   0.975  11.847  0.5637  0.6113 -0.3719
 7013SOL    HW132675   1.100   0.969  11.873  0.4166 -0.2289 -1.0882
 7013SOL    HW232676   1.226   0.885  11.845  0.3705  0.5951 -2.9907
 7014SOL     OW32677   4.081   4.381   6.021  0.3459  0.3336 -0.1838
 7014SOL    HW132678   4.024   4.323   6.072  1.6076 -0.1747  0.6457
 7014SOL    HW232679   4.143   4.319   5.980  0.5854  0.0831  0.5607
 7015SOL     OW32680   4.726   0.175  15.938  0.5406  0.3104  0.3761
 7015SOL    HW132681   0.017   0.264  15.957  3.4347 -0.5506 -0.1353
 7015SOL    HW232682   4.694   0.189  15.849 -1.7268 -1.9070  0.8373
 7016SOL     OW32683   2.851   2.258  17.196  0.2098  0.3800 -0.1600
 7016SOL    HW132684   2.764   2.276  17.162  0.5740  0.5516 -1.0099
 7016SOL    HW232685   2.891   2.289  17.115 -0.1991  1.9431  0.2398
 7017SOL     OW32686   3.183   0.295   2.831  0.0226 -0.0410  0.0846
 7017SOL    HW132687   3.172   0.258   2.743  0.7282  1.1487 -0.5019
 7017SOL    HW232688   3.095   0.268   2.858  0.6131  0.2292  2.2174
 7018SOL     OW32689   2.629   4.169  11.511 -0.3865 -0.3223  0.2282
 7018SOL    HW132690   2.636   4.264  11.502  2.5617 -0.4732  0.7492
 7018SOL    HW232691   2.552   4.153  11.457  0.2629 -1.3257 -0.4135
 7019SOL     OW32692   3.123   4.096   6.695  0.0223  0.6089  0.2591
 7019SOL    HW132693   3.192   4.127   6.754  0.6787 -2.0165  0.8745
 7019SOL    HW232694   3.180   4.052   6.632  2.6468  0.2583  2.8639
 7020SOL     OW32695   0.317   1.904  13.617  0.1453 -0.0168  0.1962
 7020SOL    HW132696   0.275   1.916  13.532 -0.3433  2.5728  0.8295
 7020SOL    HW232697   0.409   1.894  13.591  0.1093 -1.1174  0.5055
 7021SOL     OW32698   4.589   1.044  16.834 -0.6418 -0.4442  0.1254
 7021SOL    HW132699   4.552   0.956  16.847  1.1226 -1.2085  0.0589
 7021SOL    HW232700   4.645   1.051  16.756  1.5141  1.2029  1.8275
 7022SOL     OW32701   1.220   3.308   0.835  0.2507  0.4891  0.0227
 7022SOL    HW132702   1.127   3.284   0.840  0.7499 -1.4241 -0.3128
 7022SOL    HW232703   1.266   3.225   0.832 -0.7726 -0.1551  2.1975
 7023SOL     OW32704   3.941   4.634   2.567  0.1466  0.1880  0.0343
 7023SOL    HW132705   3.995   4.698   2.613  1.3780  0.7126 -2.1437
 7023SOL    HW232706   3.997   4.620   2.490  0.0631  0.9450 -0.1640
 7024SOL     OW32707   1.814   2.791   7.499  0.0106 -0.1829 -1.2886
 7024SOL    HW132708   1.759   2.810   7.423 -0.8395  0.9062 -0.4039
 7024SOL    HW232709   1.879   2.730   7.463  2.1013  1.9265 -1.0486
 7025SOL     OW32710   0.294   3.082   1.529 -0.2947  0.3976  0.1347
 7025SOL    HW132711   0.332   3.166   1.503  0.3251  0.1514  0.2481
 7025SOL    HW232712   0.221   3.112   1.585 -1.3743 -0.2208 -0.9368
 7026SOL     OW32713   0.454   4.668   0.119  0.4254 -0.3429 -0.0445
 7026SOL    HW132714   0.455   4.581   0.079  0.0111 -0.7778  0.8834
 7026SOL    HW232715   0.381   4.703   0.068 -0.4858 -0.6334  1.0601
 7027SOL     OW32716   1.340   0.668   6.333  0.3860  0.6163 -0.0705
 7027SOL    HW132717   1.388   0.706   6.259  1.6505 -1.7428 -0.4834
 7027SOL    HW232718   1.308   0.745   6.379 -0.0646  0.7556 -0.6279
 7028SOL     OW32719   3.414   3.598   4.872 -0.2633 -0.3910  0.2085
 7028SOL    HW132720   3.432   3.602   4.966  1.7762  1.5774 -0.2680
 7028SOL    HW232721   3.338   3.656   4.871  0.6908  0.8424 -0.9847
 7029SOL     OW32722   3.165   1.854   0.524  0.4169 -0.2026  0.2265
 7029SOL    HW132723   3.095   1.870   0.461 -1.8071 -2.0369  2.2528
 7029SOL    HW232724   3.114   1.852   0.605 -0.7963 -1.5374 -0.5660
 7030SOL     OW32725   2.941   0.243   8.813  0.0781 -0.2984  1.0839
 7030SOL    HW132726   2.849   0.246   8.838 -1.0003 -0.3579 -2.9465
 7030SOL    HW232727   2.960   0.337   8.815 -1.8350  0.1682 -2.5378
 7031SOL     OW32728   1.961   3.284  12.474  0.9687  0.6104  0.3516
 7031SOL    HW132729   2.053   3.279  12.449  0.8232 -2.1945  0.3378
 7031SOL    HW232730   1.962   3.227  12.551 -2.2628 -1.1332 -0.8778
 7032SOL     OW32731   0.790   2.275   2.807  0.3229  0.1991 -0.2487
 7032SOL    HW132732   0.861   2.330   2.774 -1.3627  0.5897 -3.2320
 7032SOL    HW232733   0.835   2.191   2.815 -0.1025  0.2107  2.2766
 7033SOL     OW32734   3.997   1.698   4.742 -0.0563  0.3092 -0.2623
 7033SOL    HW132735   3.953   1.690   4.658  0.7710 -3.7721 -0.2844
 7033SOL    HW232736   4.003   1.793   4.738  2.1637  0.1678 -0.2799
 7034SOL     OW32737   4.558   3.527   1.267  0.0648 -0.1812  0.1345
 7034SOL    HW132738   4.579   3.590   1.198 -2.2400 -1.1779 -1.4990
 7034SOL    HW232739   4.464   3.518   1.253  0.0447  0.6127 -0.2472
 7035SOL     OW32740   3.091   2.386   4.175  0.4127 -0.1744 -0.7959
 7035SOL    HW132741   3.056   2.411   4.260 -0.4510  1.5766 -1.6584
 7035SOL    HW232742   3.014   2.355   4.127 -0.4003 -2.3432  1.9126
 7036SOL     OW32743   2.668   0.137  15.800 -0.0303  0.6710 -0.1423
 7036SOL    HW132744   2.762   0.156  15.809  0.3859 -0.1149 -2.8259
 7036SOL    HW232745   2.627   0.197  15.863  1.4418  1.5117  0.0144
 7037SOL     OW32746   3.421   2.789   5.370  0.1657 -0.1821  0.2370
 7037SOL    HW132747   3.410   2.705   5.416  2.9898 -0.3984  0.4906
 7037SOL    HW232748   3.349   2.791   5.307  0.3902  1.4563  0.0204
 7038SOL     OW32749   4.681   2.339   0.887 -0.0807  0.0264  0.3214
 7038SOL    HW132750   4.678   2.261   0.943 -0.4655 -0.2004 -0.0171
 7038SOL    HW232751   4.593   2.336   0.849 -1.0978  0.4626  2.6450
 7039SOL     OW32752   1.947   1.967  10.094  0.0251 -0.2630 -0.2548
 7039SOL    HW132753   1.991   1.926  10.168 -3.8627 -1.4760  1.4087
 7039SOL    HW232754   1.860   1.939  10.121  0.5510 -1.5199  0.1472
 7040SOL     OW32755   2.378   3.950   5.135  0.0484 -0.0140 -0.1432
 7040SOL    HW132756   2.453   3.911   5.090  0.4451 -1.0826  1.4275
 7040SOL    HW232757   2.318   3.876   5.145 -3.5562  2.8291 -0.7223
 7041SOL     OW32758   0.071   3.328   8.714 -0.1997 -0.0264 -0.2539
 7041SOL    HW132759   0.125   3.406   8.708 -1.0761  0.6720  0.8591
 7041SOL    HW232760   0.108   3.299   8.797 -0.7309  1.0676  0.3655
 7042SOL     OW32761   4.560   4.303   4.732  0.3623  0.1414  0.3718
 7042SOL    HW132762   4.546   4.281   4.824 -1.3378  1.4669  0.4438
 7042SOL    HW232763   4.583   4.220   4.691  2.6564 -0.2527  2.4807
 7043SOL     OW32764   4.271   3.632   6.023  0.5154  0.1838  0.2544
 7043SOL    HW132765   4.332   3.583   5.968 -0.3425  0.5346 -1.0112
 7043SOL    HW232766   4.273   3.587   6.107  0.5065 -0.1529  0.0744
 7044SOL     OW32767   1.378   0.445   5.320 -0.1077  1.0372  0.3774
 7044SOL    HW132768   1.457   0.409   5.280 -0.6651 -0.7583  0.9107
 7044SOL    HW232769   1.410   0.416   5.406 -2.2913 -1.7737  0.2447
 7045SOL     OW32770   3.210   0.316   6.089  0.1764  0.2891  0.0671
 7045SOL    HW132771   3.246   0.355   6.169 -3.0898 -0.5913  1.9699
 7045SOL    HW232772   3.286   0.291   6.037  0.6017  3.0388 -0.6279
 7046SOL     OW32773   1.851   0.670   8.925  0.0776  0.1206  0.2580
 7046SOL    HW132774   1.770   0.687   8.878  0.3857 -2.7452 -1.3457
 7046SOL    HW232775   1.812   0.640   9.007  0.0831  2.8376  1.2464
 7047SOL     OW32776   1.251   4.114   8.993 -0.1543 -0.5723 -0.5265
 7047SOL    HW132777   1.291   4.028   8.980 -0.6551 -1.3772  3.1903
 7047SOL    HW232778   1.185   4.101   8.924 -1.0994 -2.5960  0.7430
 7048SOL     OW32779   1.792   3.503   2.027 -0.3013  0.3891  0.1286
 7048SOL    HW132780   1.853   3.519   1.955  0.4632 -1.0913  0.4675
 7048SOL    HW232781   1.716   3.501   1.968 -0.2175  2.3270 -0.0601
 7049SOL     OW32782   2.988   4.260  14.694  0.6488  0.3883 -0.2003
 7049SOL    HW132783   2.997   4.342  14.742 -1.3381  1.2406 -1.2653
 7049SOL    HW232784   3.057   4.270  14.628  0.3865  0.2299 -0.4996
 7050SOL     OW32785   2.199   0.073   4.526 -0.2104  0.1561 -0.3170
 7050SOL    HW132786   2.177   0.105   4.438  3.7911  0.5292 -1.1814
 7050SOL    HW232787   2.200   0.152   4.580 -0.9401 -0.9854  1.3398
 7051SOL     OW32788   3.942   0.994   9.021 -0.0936  0.0521  0.2613
 7051SOL    HW132789   3.974   1.008   8.932  1.7096  0.0073  0.9033
 7051SOL    HW232790   3.955   0.901   9.040 -0.2612 -0.2958 -1.3015
 7052SOL     OW32791   3.807   4.566   7.025 -0.6535 -0.0723 -0.0694
 7052SOL    HW132792   3.775   4.502   6.961  0.6704 -0.1906 -0.6181
 7052SOL    HW232793   3.727   4.618   7.033 -0.7084 -0.3931  1.4988
 7053SOL     OW32794   1.966   4.652   1.575  0.2049  0.1604  0.3744
 7053SOL    HW132795   2.046   4.655   1.628  0.0165 -0.7794  0.7149
 7053SOL    HW232796   1.976   4.569   1.528  1.5306  0.7839 -0.4413
 7054SOL     OW32797   3.744   1.577   3.377  0.1459  0.1364  0.2283
 7054SOL    HW132798   3.684   1.557   3.449 -1.5597 -0.1707 -1.2867
 7054SOL    HW232799   3.692   1.542   3.304 -0.6727  2.1429 -0.1354
 7055SOL     OW32800   3.718   1.755  14.459  0.0063 -0.1352 -0.2542
 7055SOL    HW132801   3.677   1.719  14.538  0.6239  1.0185  0.5812
 7055SOL    HW232802   3.646   1.806  14.420 -0.4205  0.6527  1.5801
 7056SOL     OW32803   4.722   4.508   8.572 -1.0752 -0.0240  0.1816
 7056SOL    HW132804   0.059   4.517   8.629 -0.5683 -0.6039 -0.4094
 7056SOL    HW232805   4.699   4.585   8.520 -0.0377 -1.7764 -2.8659
 7057SOL     OW32806   2.256   3.685   4.470 -0.7623 -0.0790  0.4060
 7057SOL    HW132807   2.304   3.657   4.548  0.2164  0.9238  0.1660
 7057SOL    HW232808   2.303   3.642   4.398 -2.4035  0.5082 -0.9991
 7058SOL     OW32809   3.536   2.019   1.215  0.0890  0.2448 -0.2692
 7058SOL    HW132810   3.548   1.924   1.217 -1.1596  0.0941 -0.1585
 7058SOL    HW232811   3.556   2.038   1.124  2.3105 -0.8225 -0.0125
 7059SOL     OW32812   3.512   3.682  13.455  0.4154  0.1152  0.6559
 7059SOL    HW132813   3.582   3.738  13.422 -0.7991  1.0967 -0.2509
 7059SOL    HW232814   3.463   3.744  13.510 -1.5400 -0.6198 -0.2626
 7060SOL     OW32815   2.847   4.264  16.753  0.0223 -0.4645  0.8375
 7060SOL    HW132816   2.934   4.304  16.762  0.2038 -0.2015 -1.8200
 7060SOL    HW232817   2.868   4.179  16.790  2.3632 -0.4971 -0.5337
 7061SOL     OW32818   1.174   3.474  15.261 -0.3596  0.0644  0.0527
 7061SOL    HW132819   1.135   3.418  15.328 -0.7477 -2.8812 -2.6262
 7061SOL    HW232820   1.103   3.479  15.196 -1.5720 -1.8995  1.2110
 7062SOL     OW32821   0.832   2.302   2.438  0.8202  0.2437 -0.1430
 7062SOL    HW132822   0.925   2.294   2.457  0.8306  1.0795  0.1506
 7062SOL    HW232823   0.827   2.395   2.417  1.2469  0.2421 -0.2491
 7063SOL     OW32824   1.910   1.024   0.243 -0.5664  0.1365  0.2775
 7063SOL    HW132825   1.833   1.000   0.294  0.5664 -3.4583  0.3156
 7063SOL    HW232826   1.871   1.073   0.171 -2.0699 -1.2794  0.1349
 7064SOL     OW32827   0.051   3.561  11.803  0.1714 -0.0635 -0.8241
 7064SOL    HW132828   0.028   3.612  11.725  2.3085  1.8977 -0.1844
 7064SOL    HW232829   0.075   3.626  11.869 -2.5842  0.3847 -0.2539
 7065SOL     OW32830   3.311   0.136   4.469  0.3350 -0.2629 -0.6401
 7065SOL    HW132831   3.394   0.143   4.422 -0.8874 -2.7830 -3.1904
 7065SOL    HW232832   3.263   0.218   4.463 -0.1724 -0.5223 -0.2118
 7066SOL     OW32833   2.391   3.420   3.896  0.1534  0.0661 -0.6331
 7066SOL    HW132834   2.315   3.413   3.839 -0.6171  0.8592  0.3031
 7066SOL    HW232835   2.415   3.509   3.867  1.1447 -1.4704 -4.5426
 7067SOL     OW32836   0.054   0.115   0.697  0.2302 -0.2381 -0.2656
 7067SOL    HW132837   0.095   0.194   0.730 -1.7457  0.5753  0.2673
 7067SOL    HW232838   0.063   0.140   0.605 -0.7391 -1.4992 -0.7168
 7068SOL     OW32839   0.622   3.123   1.724  0.2232  0.2082 -0.8834
 7068SOL    HW132840   0.637   3.120   1.630  2.3119 -3.3216 -0.4117
 7068SOL    HW232841   0.554   3.057   1.737 -1.2202  1.7321 -0.7686
 7069SOL     OW32842   3.716   1.920  10.952 -0.4010  0.1352 -0.2410
 7069SOL    HW132843   3.719   1.845  11.012  2.4534 -0.4954 -1.1897
 7069SOL    HW232844   3.795   1.963  10.987 -0.1965  1.7747 -2.7679
 7070SOL     OW32845   1.297   3.584   6.085 -0.1110  0.6756 -0.2332
 7070SOL    HW132846   1.232   3.599   6.153 -0.0483  0.4393 -0.1220
 7070SOL    HW232847   1.300   3.488   6.084  1.6303  0.7246 -0.0615
 7071SOL     OW32848   1.080   3.772   2.328 -0.0954  1.0115  0.6450
 7071SOL    HW132849   1.066   3.679   2.314 -0.9676  1.5902 -2.3959
 7071SOL    HW232850   1.124   3.771   2.412  0.4192 -1.4501  0.3501
 7072SOL     OW32851   0.816   0.722   2.874  0.2810 -0.2556 -0.0539
 7072SOL    HW132852   0.864   0.655   2.826  1.2558 -0.7158  1.5617
 7072SOL    HW232853   0.837   0.703   2.965  0.6546 -1.1340 -0.3333
 7073SOL     OW32854   2.005   3.612  13.309 -0.5798 -0.3662  0.4195
 7073SOL    HW132855   2.028   3.667  13.385  0.1330 -0.4500  0.2676
 7073SOL    HW232856   1.912   3.625  13.326 -0.4563  0.0703  0.7717
 7074SOL     OW32857   1.652   3.432  11.804  0.8439 -0.1009 -0.0407
 7074SOL    HW132858   1.577   3.491  11.811 -1.1850 -2.7800  0.4592
 7074SOL    HW232859   1.655   3.383  11.885  0.5278  0.6600  0.4330
 7075SOL     OW32860   2.200   1.091   0.455  0.3112 -0.0086  0.1033
 7075SOL    HW132861   2.144   1.023   0.418 -0.6991  0.6766  0.3677
 7075SOL    HW232862   2.260   1.044   0.513 -1.1721 -1.3765  0.5249
 7076SOL     OW32863   4.258   2.405   2.804 -0.3440 -0.8454  0.4562
 7076SOL    HW132864   4.335   2.354   2.779  0.7121 -0.3327  2.6251
 7076SOL    HW232865   4.264   2.475   2.739  0.0696 -0.3219  1.0553
 7077SOL     OW32866   1.890   0.817   3.144  0.8693 -0.1192  0.4864
 7077SOL    HW132867   1.900   0.912   3.151 -2.4736  0.2865 -0.0505
 7077SOL    HW232868   1.977   0.793   3.176  0.3206 -1.3738  1.0055
 7078SOL     OW32869   2.735   2.878   5.417 -0.3449  0.2466  0.4112
 7078SOL    HW132870   2.713   2.790   5.446  0.6102  0.5469  2.0399
 7078SOL    HW232871   2.795   2.851   5.347 -1.8237 -1.4153 -0.2299
 7079SOL     OW32872   3.911   3.670   3.702  0.0287 -0.1738  0.2127
 7079SOL    HW132873   3.979   3.690   3.767  0.7610 -2.4240  0.1161
 7079SOL    HW232874   3.908   3.755   3.658  0.6653 -0.6831 -0.8041
 7080SOL     OW32875   2.785   2.778   5.135  0.4278  0.2014 -0.2111
 7080SOL    HW132876   2.728   2.750   5.063  2.3412 -1.7863 -0.9675
 7080SOL    HW232877   2.766   2.871   5.124  1.6224  0.5580  0.7298
 7081SOL     OW32878   4.594   0.926   3.082 -0.0779  0.1477  0.3130
 7081SOL    HW132879   4.503   0.952   3.095 -0.4394 -0.4800 -0.9599
 7081SOL    HW232880   4.625   0.898   3.168  0.6912 -1.6103 -0.5228
 7082SOL     OW32881   0.890   4.350  15.953 -0.4277  0.2421  0.3531
 7082SOL    HW132882   0.853   4.385  15.872 -0.7672  3.2618  1.8275
 7082SOL    HW232883   0.870   4.414  16.021  0.8764  1.1059 -0.0797
 7083SOL     OW32884   1.137   2.546   3.479  0.2385 -0.8680  0.0998
 7083SOL    HW132885   1.170   2.459   3.503  2.7141 -0.4388 -1.7641
 7083SOL    HW232886   1.105   2.537   3.389 -0.1310  1.1944  0.0369
 7084SOL     OW32887   1.870   3.574   7.044 -0.0178  0.0652 -0.2390
 7084SOL    HW132888   1.837   3.660   7.019 -1.6939  0.0718  1.9799
 7084SOL    HW232889   1.895   3.591   7.135 -2.6723 -0.9769  0.7081
 7085SOL     OW32890   1.958   1.977  17.674  0.6617 -0.4360 -0.2100
 7085SOL    HW132891   1.952   1.995   0.014 -0.5134  0.0921 -0.3879
 7085SOL    HW232892   1.865   1.976  17.653  0.8123  1.9439 -0.9837
 7086SOL     OW32893   0.273   0.640   6.434 -0.2036  0.0691  0.2924
 7086SOL    HW132894   0.238   0.715   6.386 -1.1868  1.0874  2.5796
 7086SOL    HW232895   0.351   0.614   6.385  0.9849  1.0204  1.6677
 7087SOL     OW32896   1.494   1.896   4.519  0.3568 -0.5827  0.3668
 7087SOL    HW132897   1.507   1.807   4.553  0.7175 -0.4130  0.6766
 7087SOL    HW232898   1.581   1.913   4.484  0.8745  2.6765  3.2393
 7088SOL     OW32899   0.221   2.987  10.214  0.0434  0.4692 -0.0340
 7088SOL    HW132900   0.236   2.911  10.157  1.1623 -0.7834  1.9228
 7088SOL    HW232901   0.128   2.976  10.235  0.5516 -0.9875  1.5154
 7089SOL     OW32902   3.589   4.573   0.360 -0.3184  0.6833 -0.1114
 7089SOL    HW132903   3.626   4.576   0.271 -1.4946  3.1309 -0.5254
 7089SOL    HW232904   3.591   4.484   0.393 -1.9750 -0.0473 -1.9597
 7090SOL     OW32905   2.241   0.997   6.390 -0.1278  0.4957 -0.4942
 7090SOL    HW132906   2.213   0.979   6.300  0.2901  1.6748 -0.8642
 7090SOL    HW232907   2.188   0.953   6.456  0.1931 -0.3772 -0.8181
 7091SOL     OW32908   1.895   3.745   5.276  0.3930 -0.0832  0.6418
 7091SOL    HW132909   1.892   3.650   5.284  1.7111 -0.2779 -1.1522
 7091SOL    HW232910   1.932   3.760   5.189  1.7125 -2.3019  0.8321
 7092SOL     OW32911   0.140   4.579   0.756 -0.5339  0.2634  0.3684
 7092SOL    HW132912   0.205   4.582   0.826 -0.4204  0.7939  0.2379
 7092SOL    HW232913   0.118   4.672   0.755 -1.9053 -0.0300  1.8283
 7093SOL     OW32914   0.421   4.358   2.642  0.4790  0.2193  0.1104
 7093SOL    HW132915   0.389   4.297   2.575  1.6639  0.8390 -1.0245
 7093SOL    HW232916   0.516   4.351   2.649  0.5652  0.5401 -0.6929
 7094SOL     OW32917   4.519   3.213   0.522 -0.4781  0.2417  0.2002
 7094SOL    HW132918   4.489   3.288   0.470  0.9918  0.7020  0.0077
 7094SOL    HW232919   4.576   3.260   0.583  2.5621 -1.4780 -1.3373
 7095SOL     OW32920   0.663   2.534   7.145  0.2833  0.0203 -0.1172
 7095SOL    HW132921   0.664   2.618   7.192  0.3655 -1.9635  3.3547
 7095SOL    HW232922   0.606   2.477   7.196 -0.0221 -0.5229 -1.0711
 7096SOL     OW32923   2.559   3.695   7.202 -0.0834  0.7065  0.2316
 7096SOL    HW132924   2.491   3.667   7.141  0.5647 -0.4133  0.0085
 7096SOL    HW232925   2.583   3.778   7.162  3.4436 -1.7490 -2.7921
 7097SOL     OW32926   4.028   3.550   2.600 -0.0062  0.2636  0.3769
 7097SOL    HW132927   4.055   3.465   2.636 -0.9413  0.2505  1.0609
 7097SOL    HW232928   4.049   3.540   2.508  0.5070 -1.5184  0.6773
 7098SOL     OW32929   2.606   2.709   8.287 -0.2295  0.1782 -0.0507
 7098SOL    HW132930   2.664   2.680   8.357 -0.5642  0.1026  0.1927
 7098SOL    HW232931   2.637   2.799   8.275 -0.7773  0.3696 -0.0419
 7099SOL     OW32932   1.714   3.909   4.181  0.0722 -0.5689 -0.1299
 7099SOL    HW132933   1.794   3.859   4.164  1.8421  2.1825  0.1264
 7099SOL    HW232934   1.751   3.984   4.228 -2.3575 -0.0291  0.9504
 7100SOL     OW32935   0.419   3.446   3.670  0.6954  0.5984 -0.1662
 7100SOL    HW132936   0.412   3.519   3.732  1.7482  0.4239  0.1497
 7100SOL    HW232937   0.381   3.373   3.719  0.0737  0.1248 -1.3592
 7101SOL     OW32938   1.856   2.710   6.045  0.2692 -0.4517  0.1735
 7101SOL    HW132939   1.817   2.752   5.968 -0.5082  1.1240  1.4278
 7101SOL    HW232940   1.827   2.622   6.020  2.3198 -1.0100 -0.2212
 7102SOL     OW32941   1.779   1.277   3.327 -0.5975 -0.1454  0.3067
 7102SOL    HW132942   1.818   1.215   3.265  1.2097  1.3971 -0.1195
 7102SOL    HW232943   1.687   1.254   3.324 -0.8446  0.5840  2.2486
 7103SOL     OW32944   2.926   4.264   7.558 -0.1260  0.1623 -0.2858
 7103SOL    HW132945   2.879   4.186   7.589 -0.8562  1.0266  0.8137
 7103SOL    HW232946   2.924   4.246   7.464  2.4663 -1.4482 -0.0525
 7104SOL     OW32947   2.564   4.361  16.721 -0.2581 -0.9735 -0.3635
 7104SOL    HW132948   2.623   4.387  16.649 -0.7611  0.2480 -0.3394
 7104SOL    HW232949   2.631   4.318  16.773 -0.6959  1.7171  2.4319
 7105SOL     OW32950   3.426   0.793  11.911 -0.4047 -0.0926  0.4062
 7105SOL    HW132951   3.387   0.801  11.824  3.0617  0.1851 -1.1111
 7105SOL    HW232952   3.381   0.870  11.946 -1.0868 -0.0948 -0.4525
 7106SOL     OW32953   2.535   0.430   3.182  0.3437  0.0564  0.4570
 7106SOL    HW132954   2.626   0.398   3.182 -0.1252 -1.2651  1.8970
 7106SOL    HW232955   2.514   0.419   3.275  0.2609 -1.3931  0.2671
 7107SOL     OW32956   1.511   3.601   4.982  0.5058 -0.4061  0.4619
 7107SOL    HW132957   1.485   3.682   5.027  1.3454  1.3638 -2.2146
 7107SOL    HW232958   1.527   3.640   4.896  0.1903 -1.9417 -0.2773
 7108SOL     OW32959   1.179   3.700   3.542 -0.3333  0.3568 -0.4262
 7108SOL    HW132960   1.197   3.769   3.607 -0.5494  3.4186 -3.6355
 7108SOL    HW232961   1.236   3.632   3.580  2.7005  3.9687  1.5437
 7109SOL     OW32962   3.708   0.801   8.247 -0.0303 -0.7787 -0.4538
 7109SOL    HW132963   3.634   0.740   8.249 -1.6062  1.1007 -1.9265
 7109SOL    HW232964   3.665   0.874   8.291  0.6882 -1.0481  0.6805
 7110SOL     OW32965   2.542   0.376   6.534 -0.3098 -0.0724  0.0134
 7110SOL    HW132966   2.585   0.450   6.490  1.1198 -0.8151  0.1623
 7110SOL    HW232967   2.609   0.309   6.544  1.3230  1.3951 -0.9730
 7111SOL     OW32968   2.030   4.397   9.925 -0.4295  0.1768 -0.1608
 7111SOL    HW132969   2.025   4.457   9.999  0.7342  0.4154 -0.2872
 7111SOL    HW232970   1.936   4.388   9.904 -0.3438 -0.7886 -0.1608
 7112SOL     OW32971   0.658   1.192  17.116 -0.2457 -0.5182  0.1553
 7112SOL    HW132972   0.694   1.277  17.142 -2.9533  0.4233  0.8735
 7112SOL    HW232973   0.662   1.206  17.022 -0.1130 -1.9242 -0.0427
 7113SOL     OW32974   2.946   1.746  17.427 -0.4623  0.1563 -0.0912
 7113SOL    HW132975   2.928   1.840  17.420  0.6800  0.5205  1.7970
 7113SOL    HW232976   3.031   1.743  17.382  0.4210  1.3794  1.5041
 7114SOL     OW32977   2.713   2.005   4.634  0.5191 -0.9611 -0.0984
 7114SOL    HW132978   2.630   2.028   4.675 -0.0219 -0.5108 -1.4356
 7114SOL    HW232979   2.686   2.016   4.542 -0.2293 -0.7621  0.1496
 7115SOL     OW32980   2.712   0.875   9.412 -0.5396 -0.9185  0.1666
 7115SOL    HW132981   2.629   0.917   9.434 -0.2272  0.4944 -1.3638
 7115SOL    HW232982   2.760   0.948   9.374 -1.2115 -0.5404  0.0513
 7116SOL     OW32983   3.060   2.640  12.274  0.1570  0.5969 -0.2424
 7116SOL    HW132984   3.022   2.576  12.333 -1.7788  2.0698  0.0948
 7116SOL    HW232985   3.028   2.723  12.309  0.0670  0.9010 -1.0319
 7117SOL     OW32986   3.382   0.818  11.594  0.1811  0.2580  0.0836
 7117SOL    HW132987   3.419   0.892  11.643  1.5895 -0.2060 -0.2953
 7117SOL    HW232988   3.393   0.833  11.500  0.8085 -1.5129 -0.1239
 7118SOL     OW32989   0.431   3.420   4.200  0.4626  0.2532  0.6781
 7118SOL    HW132990   0.443   3.503   4.154 -0.2658  0.2372  0.4592
 7118SOL    HW232991   0.342   3.430   4.231  0.1212  2.0276 -0.9058
 7119SOL     OW32992   2.679   3.047   9.032  0.0858 -0.0531 -0.5273
 7119SOL    HW132993   2.756   3.090   8.996 -0.3399  0.4247 -0.8731
 7119SOL    HW232994   2.650   2.990   8.961  0.7863 -0.5753 -0.3937
 7120SOL     OW32995   3.474   3.313   4.404  0.4612 -0.3705  0.3737
 7120SOL    HW132996   3.504   3.293   4.492 -0.5616 -2.6484  0.1983
 7120SOL    HW232997   3.554   3.356   4.375  0.7909 -1.6952 -0.6508
 7121SOL     OW32998   1.787   0.133   9.201  0.2569 -0.2606  0.2432
 7121SOL    HW132999   1.699   0.098   9.185  0.3436  0.5491 -2.0436
 7121SOL    HW233000   1.835   0.056   9.169  2.1425  1.7109 -1.7011
 7122SOL     OW33001   2.370   3.384   9.712 -0.2356  0.0949 -0.8613
 7122SOL    HW133002   2.367   3.455   9.776  2.2001 -1.0461  0.5033
 7122SOL    HW233003   2.298   3.330   9.746  2.0669 -3.5106 -1.7015
 7123SOL     OW33004   0.355   1.506   2.967 -0.3708 -0.2924 -0.2012
 7123SOL    HW133005   0.431   1.562   2.954  0.6482 -1.4578  0.6533
 7123SOL    HW233006   0.362   1.452   2.889 -0.8185  0.9921 -1.1359
 7124SOL     OW33007   3.274   1.681  17.613  0.3281 -0.2362  0.2231
 7124SOL    HW133008   3.344   1.705  17.552 -0.6464 -1.4136 -1.3840
 7124SOL    HW233009   3.291   1.587  17.628  0.9527 -0.1113  0.3125
 7125SOL     OW33010   2.823   3.045   7.790  0.5667 -0.1645  0.3930
 7125SOL    HW133011   2.841   2.976   7.854 -0.2488 -1.1766 -0.4601
 7125SOL    HW233012   2.735   3.031   7.755  0.4393 -2.1645  1.5443
 7126SOL     OW33013   2.658   3.573   2.808  0.2390  0.4015 -0.3751
 7126SOL    HW133014   2.605   3.493   2.804  0.7178  0.1793 -2.0047
 7126SOL    HW233015   2.593   3.613   2.866 -0.6678 -0.0494 -1.0929
 7127SOL     OW33016   0.789   2.315   3.883  0.2435  0.2854 -0.1251
 7127SOL    HW133017   0.718   2.252   3.869  0.9308 -0.4886 -0.1361
 7127SOL    HW233018   0.863   2.257   3.901 -1.0391 -0.8485  1.5909
 7128SOL     OW33019   2.230   1.364   0.546  0.4602 -0.0814 -0.1569
 7128SOL    HW133020   2.230   1.269   0.530 -3.3461  0.3429 -2.6149
 7128SOL    HW233021   2.322   1.389   0.554 -0.2024  2.2629 -0.0159
 7129SOL     OW33022   3.147   2.322   7.174  0.1856 -0.2238  0.2717
 7129SOL    HW133023   3.140   2.229   7.194  0.8245 -0.2125  0.5503
 7129SOL    HW233024   3.093   2.356   7.245 -1.8197 -1.3906 -0.6860
 7130SOL     OW33025   2.125   0.204  15.412  0.2550  0.7746 -0.1412
 7130SOL    HW133026   2.198   0.143  15.417  0.1025  0.6087  0.0663
 7130SOL    HW233027   2.079   0.202  15.496  1.0143 -0.1956  0.2416
 7131SOL     OW33028   2.252   1.532   3.605  0.0149  0.3792 -0.5364
 7131SOL    HW133029   2.320   1.466   3.603 -1.4711 -1.1208 -1.5530
 7131SOL    HW233030   2.236   1.552   3.697 -1.2982  0.2039 -0.7241
 7132SOL     OW33031   2.602   4.615  10.718 -0.4406  0.2504  0.2631
 7132SOL    HW133032   2.526   4.592  10.665  0.1594 -0.0373 -0.4716
 7132SOL    HW233033   2.560   4.637  10.802 -0.3181  2.2338 -0.1921
 7133SOL     OW33034   2.663   3.097   8.421  0.1266  0.1566 -0.4085
 7133SOL    HW133035   2.717   3.041   8.365 -0.3508 -1.0715  0.3470
 7133SOL    HW233036   2.582   3.074   8.374  0.6088 -0.8689 -0.7484
 7134SOL     OW33037   1.815   2.963   9.106 -0.5392  0.4201 -0.6319
 7134SOL    HW133038   1.900   2.984   9.068  0.3125 -1.7544  0.0980
 7134SOL    HW233039   1.840   2.945   9.197 -4.3933  2.3581  0.8135
 7135SOL     OW33040   2.080   2.320   2.856  0.2838 -0.2904 -0.2325
 7135SOL    HW133041   2.127   2.308   2.774 -0.3778 -0.0418 -0.6402
 7135SOL    HW233042   1.992   2.300   2.826  0.0545 -0.1282  0.3386
 7136SOL     OW33043   4.655   0.218   9.205 -0.2365  0.2370 -0.0037
 7136SOL    HW133044   4.676   0.259   9.121 -1.2786  1.1984  0.2133
 7136SOL    HW233045   4.566   0.195   9.182 -0.3118 -0.6079  1.0817
 7137SOL     OW33046   0.284   1.442   7.043  0.2571 -0.6150  0.1494
 7137SOL    HW133047   0.289   1.350   7.070  1.7708 -1.1800 -2.0107
 7137SOL    HW233048   0.343   1.478   7.109 -1.1609  0.5563  0.7660
 7138SOL     OW33049   1.462   2.298  14.143 -0.1509 -0.8471 -0.1208
 7138SOL    HW133050   1.536   2.261  14.095  1.7066 -0.0642  2.0747
 7138SOL    HW233051   1.395   2.276  14.079 -1.3295 -0.7430  1.0792
 7139SOL     OW33052   0.681   0.056   3.852 -0.0312  0.2481  0.2957
 7139SOL    HW133053   0.716   0.092   3.933  0.8687  1.6585 -0.7344
 7139SOL    HW233054   0.681   0.133   3.794  1.6011  0.9015  1.1704
 7140SOL     OW33055   0.366   0.995  15.028 -0.0623  0.1462  0.0564
 7140SOL    HW133056   0.461   0.987  15.036 -0.3189 -3.9802 -0.7391
 7140SOL    HW233057   0.354   1.087  15.049  0.2723 -0.2727  2.1187
 7141SOL     OW33058   0.799   4.534   7.604 -0.4250  0.3578  0.7621
 7141SOL    HW133059   0.805   4.590   7.682  2.0796 -1.6662  2.0277
 7141SOL    HW233060   0.751   4.459   7.638  0.5510  0.2951  2.0513
 7142SOL     OW33061   1.444   0.271   9.319  0.7799 -0.0734 -0.4271
 7142SOL    HW133062   1.529   0.233   9.338  2.4282  2.8829 -1.9752
 7142SOL    HW233063   1.403   0.207   9.260  0.6724 -0.5393  0.1506
 7143SOL     OW33064   0.391   0.874  13.770  0.0167  0.6759 -0.0750
 7143SOL    HW133065   0.445   0.933  13.719  2.6935 -0.2519  1.6847
 7143SOL    HW233066   0.422   0.785  13.755  0.3645  1.0514 -1.5044
 7144SOL     OW33067   4.185   1.936   9.029  0.2686 -0.6107  0.1086
 7144SOL    HW133068   4.155   2.008   9.086  1.4995  0.9217 -1.1843
 7144SOL    HW233069   4.203   1.878   9.103  2.0324  0.8456  0.8103
 7145SOL     OW33070   0.747   2.906   1.219  0.4523 -0.1614  0.8734
 7145SOL    HW133071   0.814   2.930   1.155  1.1948 -1.3184  1.2216
 7145SOL    HW233072   0.663   2.897   1.173  0.6139 -0.9791  0.7409
 7146SOL     OW33073   2.707   0.963   1.486 -0.0276 -0.7276 -0.6547
 7146SOL    HW133074   2.754   0.935   1.563  2.4981 -0.6824 -2.1877
 7146SOL    HW233075   2.631   0.904   1.487  0.7519 -1.7212 -0.7077
 7147SOL     OW33076   4.026   1.274   6.951 -0.3698 -0.4655  0.1734
 7147SOL    HW133077   4.067   1.304   6.869 -2.9930  0.8679 -0.6654
 7147SOL    HW233078   3.941   1.240   6.925 -0.9312 -1.2422  3.0815
 7148SOL     OW33079   4.386   2.012   1.757 -0.6352  0.4180 -0.2553
 7148SOL    HW133080   4.410   2.076   1.824  0.4873  0.1595 -0.4103
 7148SOL    HW233081   4.307   2.052   1.721 -0.4098  0.4499 -0.7122
 7149SOL     OW33082   3.958   0.989  16.645  0.2149  0.5497  0.1151
 7149SOL    HW133083   3.939   1.080  16.668  0.4186  0.9838 -1.4252
 7149SOL    HW233084   4.050   0.986  16.673 -0.3349  0.5724  1.9250
 7150SOL     OW33085   3.589   3.048  14.702  0.3919 -0.7200  0.0625
 7150SOL    HW133086   3.584   2.971  14.645 -1.3829  1.5094 -2.7828
 7150SOL    HW233087   3.683   3.049  14.718  0.1950  0.8996  1.0821
 7151SOL     OW33088   3.140   1.389   5.406 -0.0968 -0.0409  1.0028
 7151SOL    HW133089   3.122   1.482   5.421  0.0367  0.2228 -0.5090
 7151SOL    HW233090   3.181   1.374   5.321 -0.6181 -1.6686  1.0487
 7152SOL     OW33091   4.718   2.181   4.373  0.5709 -0.0272 -0.0595
 7152SOL    HW133092   0.072   2.158   4.372  0.2089 -1.6083  2.0687
 7152SOL    HW233093   4.698   2.167   4.465 -0.2079  0.0395 -0.2176
 7153SOL     OW33094   3.654   2.555  12.532  0.0539 -0.2269  0.5527
 7153SOL    HW133095   3.704   2.482  12.493  0.1247 -0.3309  0.8387
 7153SOL    HW233096   3.574   2.511  12.559  0.3840 -1.4292 -0.4316
 7154SOL     OW33097   1.184   0.456   4.371 -1.0487  0.4214  0.0462
 7154SOL    HW133098   1.185   0.379   4.314  0.9863  0.0751  0.5361
 7154SOL    HW233099   1.169   0.409   4.454  0.1731  0.2836  0.1918
 7155SOL     OW33100   1.383   0.324  10.486  0.5897  0.9540 -0.8177
 7155SOL    HW133101   1.454   0.324  10.551 -0.3299 -0.5938  0.1973
 7155SOL    HW233102   1.345   0.240  10.514 -1.5713  2.1468 -0.2427
 7156SOL     OW33103   2.133   2.732   3.596 -0.2645  0.6490 -0.1632
 7156SOL    HW133104   2.065   2.782   3.552 -1.5825  1.0031  2.2656
 7156SOL    HW233105   2.127   2.652   3.543  0.3331  0.1945  0.4517
 7157SOL     OW33106   2.808   3.899   5.793  0.1995  0.3432  0.9411
 7157SOL    HW133107   2.884   3.951   5.819  1.5575 -0.9455 -0.4517
 7157SOL    HW233108   2.853   3.828   5.748 -1.6296  0.2208 -0.6734
 7158SOL     OW33109   4.007   1.856   6.644 -0.1150 -0.6999 -0.0826
 7158SOL    HW133110   3.988   1.764   6.664  0.0125 -0.2783  1.9240
 7158SOL    HW233111   4.035   1.879   6.733  2.3848  0.9174 -1.2855
 7159SOL     OW33112   1.268   4.655   4.116 -0.8300  0.2354 -0.6726
 7159SOL    HW133113   1.235   4.566   4.129  1.4874 -0.6742 -1.0261
 7159SOL    HW233114   1.185   4.700   4.103 -0.7292  0.2811 -1.1558
 7160SOL     OW33115   1.013   3.822   4.497 -0.9751 -0.1075 -0.3547
 7160SOL    HW133116   0.976   3.905   4.466 -2.8500 -1.3291 -1.3668
 7160SOL    HW233117   0.963   3.806   4.577  0.7254  0.5248  0.8359
 7161SOL     OW33118   4.173   0.763  16.513 -0.0313  0.3953 -0.2946
 7161SOL    HW133119   4.251   0.719  16.478  0.1058 -0.8673  1.5976
 7161SOL    HW233120   4.168   0.736  16.604 -0.6204 -1.7023 -0.9393
 7162SOL     OW33121   3.264   3.189   8.948 -0.2921  0.0278  0.3069
 7162SOL    HW133122   3.237   3.279   8.964 -2.6407 -0.5273 -0.6790
 7162SOL    HW233123   3.316   3.205   8.869  3.7843 -0.6615  2.8194
 7163SOL     OW33124   2.253   0.412  15.622 -0.5190 -0.0624  0.3804
 7163SOL    HW133125   2.276   0.499  15.655 -3.0256  0.8089 -0.1528
 7163SOL    HW233126   2.315   0.406  15.549  0.2631 -2.5916  1.2655
 7164SOL     OW33127   0.191   0.259   4.186 -0.3730  1.1880 -0.5805
 7164SOL    HW133128   0.226   0.311   4.114  0.8459  0.7985 -0.2679
 7164SOL    HW233129   0.105   0.300   4.191 -1.4514 -1.0922 -0.2125
 7165SOL     OW33130   3.746   0.421   8.478  0.1394  0.1462  0.3476
 7165SOL    HW133131   3.820   0.380   8.523 -2.3905 -0.7396  3.6199
 7165SOL    HW233132   3.756   0.372   8.397  2.0672  1.4025 -0.1952
 7166SOL     OW33133   2.413   3.042   7.505  0.1923 -0.8049 -0.0949
 7166SOL    HW133134   2.320   3.031   7.523 -0.0582  1.4342  0.0086
 7166SOL    HW233135   2.436   2.964   7.454 -1.2886 -0.0077 -1.9543
 7167SOL     OW33136   0.470   1.689   7.950 -0.1682 -0.5990  0.8445
 7167SOL    HW133137   0.438   1.776   7.973  0.7885  0.0196 -0.1468
 7167SOL    HW233138   0.465   1.700   7.855  1.3928  0.8382  0.9316
 7168SOL     OW33139   0.919   1.411   3.566 -0.1222  0.2991 -0.3205
 7168SOL    HW133140   0.901   1.325   3.604  1.2457  0.8447  1.5683
 7168SOL    HW233141   1.008   1.404   3.530 -0.7511 -1.3578 -1.5799
 7169SOL     OW33142   2.235   2.106   9.819 -0.1129  0.0900  0.0037
 7169SOL    HW133143   2.279   2.143   9.895 -0.5778  0.4069  0.1183
 7169SOL    HW233144   2.248   2.173   9.751  1.8902  0.2929  0.6069
 7170SOL     OW33145   0.436   0.804   2.316  0.4537 -0.2713  0.6898
 7170SOL    HW133146   0.391   0.872   2.367  0.1625  0.2374 -0.2459
 7170SOL    HW233147   0.383   0.800   2.236 -0.0224 -1.1349  1.0475
 7171SOL     OW33148   2.433   1.380   3.116 -0.1083  0.0711 -0.1673
 7171SOL    HW133149   2.426   1.361   3.022 -0.7892  0.0528 -0.1167
 7171SOL    HW233150   2.349   1.346   3.148 -0.1720 -2.5434 -3.0299
 7172SOL     OW33151   1.466   4.581   2.607 -0.3222  0.2029 -0.7140
 7172SOL    HW133152   1.433   4.506   2.656  0.2178 -0.0048 -0.6750
 7172SOL    HW233153   1.425   4.566   2.521  2.4745  1.0827 -2.2256
 7173SOL     OW33154   3.496   0.717   2.830 -0.2252  0.9926 -0.1956
 7173SOL    HW133155   3.465   0.638   2.874  0.8326 -0.3714 -1.8692
 7173SOL    HW233156   3.504   0.675   2.744 -1.1987  0.2351  0.0937
 7174SOL     OW33157   2.443   4.164   8.841  0.1312 -0.0809 -0.1989
 7174SOL    HW133158   2.468   4.216   8.765  1.2643  0.3948  0.5036
 7174SOL    HW233159   2.528   4.144   8.880  0.0119  0.2821  0.2363
 7175SOL     OW33160   2.095   1.065   2.573  0.2503 -0.0885 -0.2114
 7175SOL    HW133161   2.168   1.123   2.595 -1.4415  1.8984  0.1794
 7175SOL    HW233162   2.048   1.123   2.512  1.1587  0.2388 -0.5992
 7176SOL     OW33163   1.135   1.978  17.431  0.6984 -0.0004  0.3540
 7176SOL    HW133164   1.128   1.996  17.525  0.0349  3.7949 -0.4203
 7176SOL    HW233165   1.131   1.882  17.425 -0.1536  0.1397 -1.2208
 7177SOL     OW33166   3.301   2.184   7.835 -0.3816 -0.1763  0.3557
 7177SOL    HW133167   3.241   2.252   7.805  1.9614  1.5387 -0.4815
 7177SOL    HW233168   3.330   2.211   7.922  0.9061 -1.6677  0.3875
 7178SOL     OW33169   3.496   4.122   5.929  0.0973  0.3655 -0.0570
 7178SOL    HW133170   3.487   4.180   5.852  3.0202  1.3670  0.3654
 7178SOL    HW233171   3.450   4.048   5.890  2.9969 -1.0036 -0.8211
 7179SOL     OW33172   0.653   3.540  13.420 -0.5577  0.5757  0.1374
 7179SOL    HW133173   0.585   3.482  13.454 -0.2815  0.7699  1.0118
 7179SOL    HW233174   0.595   3.611  13.392 -0.7681 -0.2146 -1.4900
 7180SOL     OW33175   4.647   1.839  11.098 -0.7525 -0.0616  0.3929
 7180SOL    HW133176   4.714   1.894  11.057  0.7282 -3.7624 -2.0657
 7180SOL    HW233177   4.621   1.898  11.169 -1.2365  0.7377 -0.4420
 7181SOL     OW33178   2.647   4.647   7.664  0.0691 -0.2568  0.2475
 7181SOL    HW133179   2.723   4.668   7.719  0.5151 -0.0727 -0.4392
 7181SOL    HW233180   2.628   4.557   7.691  2.4077 -0.7481  0.2623
 7182SOL     OW33181   4.400   3.909   2.733 -0.0347 -0.2241  0.1275
 7182SOL    HW133182   4.378   3.950   2.817  0.5528  1.3998 -0.5089
 7182SOL    HW233183   4.318   3.865   2.710  0.5525 -2.0846  1.5940
 7183SOL     OW33184   2.389   4.201  10.737  0.1947 -0.0822 -0.3336
 7183SOL    HW133185   2.348   4.129  10.687  1.6188 -0.8363 -0.4134
 7183SOL    HW233186   2.362   4.192  10.828 -1.3111 -0.4454 -0.8078
 7184SOL     OW33187   4.043   1.067   5.365 -0.0908 -0.4186  0.3851
 7184SOL    HW133188   3.950   1.083   5.383  0.5454 -0.3318  3.5519
 7184SOL    HW233189   4.055   0.982   5.407  3.0306 -0.8818 -1.4177
 7185SOL     OW33190   0.424   3.902   5.383 -0.2917 -0.1745 -0.1480
 7185SOL    HW133191   0.479   3.942   5.451 -1.5486 -0.5139  1.0787
 7185SOL    HW233192   0.434   3.810   5.406 -0.1203 -0.7751 -2.7015
 7186SOL     OW33193   0.372   1.392   2.186 -0.0327 -0.9825  0.8114
 7186SOL    HW133194   0.289   1.355   2.214 -0.1872 -0.3420  1.1964
 7186SOL    HW233195   0.348   1.456   2.119 -0.4897 -1.1459  0.8190
 7187SOL     OW33196   0.229   0.494   9.458  0.1259 -0.0908 -0.6231
 7187SOL    HW133197   0.286   0.430   9.500  1.6879  1.8884  0.3171
 7187SOL    HW233198   0.186   0.527   9.537  1.1133  0.2150 -0.2076
 7188SOL     OW33199   4.248   2.157  12.722  0.1529  0.3159  0.2557
 7188SOL    HW133200   4.320   2.096  12.705 -0.4785  0.2103 -1.9372
 7188SOL    HW233201   4.197   2.111  12.789  0.7147  0.8601  1.0695
 7189SOL     OW33202   2.132   1.969   5.863 -0.0460 -0.3198 -0.1278
 7189SOL    HW133203   2.150   1.957   5.957 -0.2161  0.5124  0.0177
 7189SOL    HW233204   2.037   1.983   5.865 -0.1234 -0.9376  0.3883
 7190SOL     OW33205   3.522   0.926   2.557 -0.4280 -0.0808  0.4254
 7190SOL    HW133206   3.480   1.003   2.593  3.0479  2.3192 -0.6395
 7190SOL    HW233207   3.604   0.919   2.606 -0.5725 -3.0542  0.2638
 7191SOL     OW33208   0.546   3.509   4.801  0.2761  0.6937 -0.0691
 7191SOL    HW133209   0.510   3.583   4.850  0.7894  0.4066  0.7352
 7191SOL    HW233210   0.474   3.495   4.739  0.5489  0.3872 -0.3225
 7192SOL     OW33211   0.361   0.834   9.129 -0.2658 -0.7716 -0.0466
 7192SOL    HW133212   0.441   0.876   9.099 -1.8888  0.6852 -2.4219
 7192SOL    HW233213   0.316   0.801   9.051 -1.9855  1.0303  0.1897
 7193SOL     OW33214   1.438   1.940  12.041 -0.6224  0.3342 -0.3289
 7193SOL    HW133215   1.386   1.941  11.961 -1.2275 -0.9950  0.0416
 7193SOL    HW233216   1.364   1.957  12.099 -0.4931 -0.7299  0.1505
 7194SOL     OW33217   0.226   0.355   4.459 -0.1077  0.7495 -0.1026
 7194SOL    HW133218   0.135   0.347   4.487 -0.1963  1.4469 -0.1869
 7194SOL    HW233219   0.224   0.350   4.364 -1.6359 -1.3379  0.0488
 7195SOL     OW33220   2.279   1.218   1.973 -0.7820 -0.0619  0.0985
 7195SOL    HW133221   2.315   1.133   1.999  0.5485  0.4410 -0.0894
 7195SOL    HW233222   2.301   1.228   1.881  0.1122 -1.4120  0.1635
 7196SOL     OW33223   1.554   0.906   8.222  0.2105  0.1015 -0.0054
 7196SOL    HW133224   1.610   0.958   8.164  0.4560 -2.4860 -2.0304
 7196SOL    HW233225   1.488   0.972   8.244  2.1419  1.8573  0.6166
 7197SOL     OW33226   2.177   2.050  17.547 -0.2949 -0.0226  0.0139
 7197SOL    HW133227   2.085   2.059  17.570 -0.6962 -1.6091 -0.9785
 7197SOL    HW233228   2.184   2.120  17.481  0.1317  1.9237  2.1389
 7198SOL     OW33229   3.125   3.227   2.638  0.2839  0.2443 -0.0701
 7198SOL    HW133230   3.095   3.282   2.711  1.6770  0.7150  0.1601
 7198SOL    HW233231   3.218   3.211   2.654  0.1148 -0.4125  0.2184
 7199SOL     OW33232   1.479   0.790   2.076  0.0063  0.2270  0.5005
 7199SOL    HW133233   1.534   0.847   2.021  0.7426 -0.2199  0.7807
 7199SOL    HW233234   1.511   0.706   2.044 -0.2391  0.4256 -0.2713
 7200SOL     OW33235   4.658   1.445   4.914 -0.3502  0.1074  0.3580
 7200SOL    HW133236   0.005   1.408   4.934 -1.3404 -2.6645 -0.4762
 7200SOL    HW233237   4.673   1.537   4.934 -0.7113  0.4830 -1.1079
 7201SOL     OW33238   3.416   2.317   4.415  0.2055 -0.3173 -0.0785
 7201SOL    HW133239   3.438   2.227   4.439  2.5853  0.4250  0.5654
 7201SOL    HW233240   3.409   2.307   4.320 -0.3678  0.9855 -0.1603
 7202SOL     OW33241   0.113   3.310  10.234  0.3309 -0.8058  0.2058
 7202SOL    HW133242   0.039   3.333  10.290 -0.9723  0.7583 -2.1530
 7202SOL    HW233243   0.113   3.217  10.254 -0.6950 -0.5670  1.3200
 7203SOL     OW33244   3.442   2.031   4.907 -0.4166  0.3243  0.2701
 7203SOL    HW133245   3.418   2.031   4.814  1.2556 -1.0629 -0.1694
 7203SOL    HW233246   3.448   1.939   4.934  0.5513  0.0903 -0.6961
 7204SOL     OW33247   2.722   1.710   0.626 -0.1928  0.0226  0.7809
 7204SOL    HW133248   2.797   1.653   0.611  0.4009  0.9975  0.0452
 7204SOL    HW233249   2.758   1.789   0.586 -1.4938  1.9538  3.3855
 7205SOL     OW33250   3.618   2.069   7.398  0.2042 -0.3876 -0.1291
 7205SOL    HW133251   3.552   2.134   7.424  0.1704 -0.1178 -0.8839
 7205SOL    HW233252   3.699   2.119   7.410  0.4539 -0.7929 -0.1640
 7206SOL     OW33253   1.545   0.862   0.169  0.3923  0.2513  0.1249
 7206SOL    HW133254   1.578   0.775   0.146  0.2949  0.0050  0.9337
 7206SOL    HW233255   1.450   0.849   0.173  0.0062  2.5397 -1.3961
 7207SOL     OW33256   4.719   0.366   4.558  0.2905 -0.1311 -0.1628
 7207SOL    HW133257   4.697   0.350   4.650 -0.7125 -1.7299 -0.6705
 7207SOL    HW233258   4.690   0.456   4.546 -2.6220 -1.1681 -0.8381
 7208SOL     OW33259   2.152   1.874   0.902  0.1774  0.1995 -0.3873
 7208SOL    HW133260   2.168   1.801   0.842 -1.6170 -1.8578  1.6270
 7208SOL    HW233261   2.224   1.872   0.965 -1.7488 -0.1775  1.7685
 7209SOL     OW33262   0.321   2.141   3.567 -0.3329  0.2958 -0.5097
 7209SOL    HW133263   0.325   2.064   3.511 -0.8152  1.0029 -1.5233
 7209SOL    HW233264   0.316   2.200   3.492  3.2475 -0.5617 -1.3906
 7210SOL     OW33265   4.643   3.053  14.658  0.5287  0.1937 -0.4573
 7210SOL    HW133266   4.689   3.027  14.737  1.0457 -0.6280 -1.0250
 7210SOL    HW233267   4.690   3.127  14.621  0.0084 -0.0973 -1.7119
 7211SOL     OW33268   4.118   4.105   7.325  0.8267 -0.4380  0.2260
 7211SOL    HW133269   4.045   4.165   7.331  0.8219 -0.3728 -0.5229
 7211SOL    HW233270   4.115   4.075   7.234 -2.4120  1.0073 -0.1410
 7212SOL     OW33271   0.314   2.504   8.576 -0.3802  0.2048 -0.1115
 7212SOL    HW133272   0.266   2.528   8.655 -0.7368  0.6186 -0.4547
 7212SOL    HW233273   0.400   2.511   8.616 -0.9724  0.6201  1.0785
 7213SOL     OW33274   2.838   3.972   4.920  0.0737 -0.2053 -0.2296
 7213SOL    HW133275   2.882   4.055   4.903 -0.5776 -0.0747 -1.2533
 7213SOL    HW233276   2.829   3.939   4.831 -0.9614 -0.0189 -0.1891
 7214SOL     OW33277   2.799   4.260   4.072  0.2474 -0.2522  0.2415
 7214SOL    HW133278   2.748   4.270   3.991  0.4282 -0.4980  0.0990
 7214SOL    HW233279   2.864   4.192   4.054  1.3169  0.4156  1.5926
 7215SOL     OW33280   4.151   4.566   9.137  0.2406 -0.4090 -0.5998
 7215SOL    HW133281   4.165   4.597   9.226 -0.5171 -0.1766 -0.5601
 7215SOL    HW233282   4.172   4.646   9.087  0.4817 -0.4492 -0.5621
 7216SOL     OW33283   2.518   0.114   8.659 -0.8205 -0.1082 -0.8431
 7216SOL    HW133284   2.505   0.058   8.736 -1.1195  0.4256 -0.5032
 7216SOL    HW233285   2.597   0.074   8.623 -1.4406 -0.6620 -1.5783
 7217SOL     OW33286   3.895   3.034   6.153  0.3858  0.4856  0.5006
 7217SOL    HW133287   3.925   3.068   6.237  1.6372  2.0120 -0.5580
 7217SOL    HW233288   3.883   3.120   6.113 -0.5278  0.9926  1.8531
 7218SOL     OW33289   4.607   2.439   1.453 -0.4491  0.4126  0.0219
 7218SOL    HW133290   4.548   2.373   1.416  2.5609 -1.8282 -0.7970
 7218SOL    HW233291   4.686   2.404   1.412 -1.0298  0.1811 -0.8983
 7219SOL     OW33292   1.959   3.533   7.939  0.0770  0.1778  0.2312
 7219SOL    HW133293   2.027   3.522   8.005  0.1705 -3.7813 -0.5273
 7219SOL    HW233294   1.937   3.626   7.947 -2.3294 -0.4943  1.3879
 7220SOL     OW33295   4.131   1.823  11.445 -0.5497  0.0142 -0.0444
 7220SOL    HW133296   4.085   1.861  11.370 -1.6814  1.9907  1.6490
 7220SOL    HW233297   4.057   1.782  11.490  0.5114 -0.1325  1.5720
 7221SOL     OW33298   3.570   1.131   4.502 -0.1686 -0.1792  0.2999
 7221SOL    HW133299   3.656   1.107   4.536  0.6181  1.9670 -0.1765
 7221SOL    HW233300   3.591   1.224   4.501  0.2626 -0.2599  1.3064
 7222SOL     OW33301   0.924   4.047  13.585  0.1010  0.0805  0.4498
 7222SOL    HW133302   0.857   4.114  13.591  1.2727  1.3822 -1.1123
 7222SOL    HW233303   0.990   4.096  13.536  0.2044 -1.4824 -0.9857
 7223SOL     OW33304   2.723   0.162  16.940  0.0589 -0.0059  0.0115
 7223SOL    HW133305   2.703   0.070  16.924  0.4177  0.3161 -2.2975
 7223SOL    HW233306   2.636   0.201  16.950  0.5067  1.2379 -0.9775
 7224SOL     OW33307   4.172   3.362   5.185  0.0705  0.4211 -0.0631
 7224SOL    HW133308   4.235   3.385   5.254 -0.5417 -0.8452  0.9189
 7224SOL    HW233309   4.113   3.311   5.241 -0.1288  1.4715  0.6842
 7225SOL     OW33310   1.015   0.884  12.545 -0.1862  0.0729 -0.5783
 7225SOL    HW133311   1.005   0.848  12.633  0.2023 -0.6330 -0.8208
 7225SOL    HW233312   1.091   0.832  12.517 -0.5359 -0.2960 -0.8387
 7226SOL     OW33313   3.986   1.113  12.449 -0.1844 -0.1954  0.2057
 7226SOL    HW133314   3.916   1.171  12.418  1.7466  1.3777 -1.2341
 7226SOL    HW233315   3.937   1.034  12.469 -0.4474  0.2414  1.3112
 7227SOL     OW33316   4.140   3.049   4.935 -0.2783 -0.2000  0.0126
 7227SOL    HW133317   4.133   3.141   4.960  1.3305  0.1424 -0.8471
 7227SOL    HW233318   4.213   3.028   4.994  0.7763  0.1058 -1.1942
 7228SOL     OW33319   3.978   4.414   1.761 -0.0340  0.1221  1.1648
 7228SOL    HW133320   4.070   4.440   1.771 -1.2561  4.5006  0.8920
 7228SOL    HW233321   3.936   4.408   1.847 -0.0192  0.6049  1.2048
 7229SOL     OW33322   1.561   1.933   2.522 -0.1252  0.1135 -0.1640
 7229SOL    HW133323   1.531   1.860   2.467  1.7495 -0.1845 -0.7975
 7229SOL    HW233324   1.519   1.917   2.606 -1.4971  0.8516 -0.7057
 7230SOL     OW33325   2.582   2.125   5.438 -0.1663 -0.1525  0.3089
 7230SOL    HW133326   2.488   2.106   5.438 -0.2860  0.4370  0.6890
 7230SOL    HW233327   2.624   2.040   5.428 -1.0440 -0.5001 -0.4182
 7231SOL     OW33328   2.869   4.345   7.943  0.8502  0.6254  0.3606
 7231SOL    HW133329   2.851   4.395   8.023  0.8199  0.6555  0.3348
 7231SOL    HW233330   2.884   4.258   7.980  1.2050 -0.1644 -1.6271
 7232SOL     OW33331   1.931   3.831   3.322 -0.0305  0.0227 -0.0808
 7232SOL    HW133332   1.932   3.743   3.359  1.2218  0.7470  1.6040
 7232SOL    HW233333   2.021   3.862   3.324  0.1274 -0.3165 -1.9319
 7233SOL     OW33334   1.316   1.593   0.052 -0.2280 -0.2654  0.1741
 7233SOL    HW133335   1.332   1.499   0.048 -0.6903 -0.4234  2.0773
 7233SOL    HW233336   1.245   1.602   0.116  0.0197 -0.0760  0.4235
 7234SOL     OW33337   2.758   0.935   4.658 -0.5323 -0.0894 -0.9895
 7234SOL    HW133338   2.850   0.913   4.641 -0.0972  1.8768 -1.2510
 7234SOL    HW233339   2.729   0.969   4.573 -2.6507 -0.1940 -0.3081
 7235SOL     OW33340   0.822   1.509   2.816 -0.1797  0.3778  0.1099
 7235SOL    HW133341   0.880   1.436   2.834 -0.8777 -0.3063 -0.4174
 7235SOL    HW233342   0.808   1.513   2.721  0.1486 -1.4059  0.0029
 7236SOL     OW33343   0.731   0.402  14.988 -0.4863 -0.7208 -0.2083
 7236SOL    HW133344   0.702   0.488  14.959  0.4181 -0.1617  0.5415
 7236SOL    HW233345   0.726   0.407  15.083  1.6887  0.2626 -0.1349
 7237SOL     OW33346   3.007   4.119   4.037  0.5309  0.3656 -0.2850
 7237SOL    HW133347   3.032   4.048   3.977  1.1814  0.3367  0.0178
 7237SOL    HW233348   3.088   4.149   4.079 -0.2978  0.0917  1.4986
 7238SOL     OW33349   0.616   2.850   4.207 -0.2158  0.1495  0.0693
 7238SOL    HW133350   0.652   2.763   4.191 -0.0290  0.1847  0.2830
 7238SOL    HW233351   0.663   2.917   4.157  0.8788  0.3527  1.3675
 7239SOL     OW33352   2.476   1.652   4.774 -0.3642  0.0671  0.5293
 7239SOL    HW133353   2.463   1.578   4.833 -0.9824 -0.5032 -0.3308
 7239SOL    HW233354   2.516   1.710   4.839 -0.4595 -0.2134  0.8374
 7240SOL     OW33355   3.476   2.481   4.041 -0.2360 -0.5262  0.6713
 7240SOL    HW133356   3.541   2.542   4.075 -1.3784  1.3769 -0.5577
 7240SOL    HW233357   3.497   2.477   3.948 -1.6907  1.8110  0.2451
 7241SOL     OW33358   1.195   0.608   8.429  0.3983 -0.2649 -0.1917
 7241SOL    HW133359   1.252   0.680   8.455 -0.1161  0.2848 -0.5926
 7241SOL    HW233360   1.228   0.591   8.341  0.0720  1.7138 -0.6871
 7242SOL     OW33361   2.107   0.853   9.295 -0.4410  0.1394  0.0100
 7242SOL    HW133362   2.031   0.820   9.342 -0.2011  0.5011  0.6500
 7242SOL    HW233363   2.157   0.776   9.270 -2.0012 -1.5030  2.0158
 7243SOL     OW33364   3.825   2.335   2.752 -0.2889 -0.4714 -0.1562
 7243SOL    HW133365   3.853   2.404   2.812 -0.4876 -1.4942  1.1096
 7243SOL    HW233366   3.905   2.286   2.734  0.2577  0.2655  0.2593
 7244SOL     OW33367   0.349   1.559   0.577 -0.2379  0.0390  0.1480
 7244SOL    HW133368   0.288   1.554   0.651  0.3289 -0.9878  0.5452
 7244SOL    HW233369   0.300   1.515   0.508 -1.4560  1.5651  0.0318
 7245SOL     OW33370   3.626   1.463   8.970  0.7574 -0.2328  0.3354
 7245SOL    HW133371   3.562   1.450   8.900 -0.0452  2.7442  0.4953
 7245SOL    HW233372   3.704   1.459   8.915  0.5032 -1.7758  0.0854
 7246SOL     OW33373   1.796   4.287   6.265  0.3525 -0.0297 -0.2713
 7246SOL    HW133374   1.743   4.325   6.334  0.0965  0.5297 -0.7731
 7246SOL    HW233375   1.869   4.347   6.251  0.2469 -0.2363 -1.7412
 7247SOL     OW33376   0.409   4.668   7.056  0.2075  0.5841 -0.1659
 7247SOL    HW133377   0.468   4.733   7.095  2.2846 -1.1118 -0.4951
 7247SOL    HW233378   0.441   4.651   6.967 -0.7167 -2.6467  0.1114
 7248SOL     OW33379   1.237   1.531  16.960 -0.0863  0.1162  0.4056
 7248SOL    HW133380   1.302   1.579  17.011 -1.7437  1.1088  1.5601
 7248SOL    HW233381   1.173   1.600  16.946  0.2090  1.0988  3.9041
 7249SOL     OW33382   3.258   4.528   9.698 -0.8467 -0.1628 -0.0547
 7249SOL    HW133383   3.271   4.473   9.621 -0.3310 -1.6262  1.0702
 7249SOL    HW233384   3.343   4.530   9.742 -1.1986 -0.6307  0.6467
 7250SOL     OW33385   3.298   4.552   3.179 -0.1901  0.0248  0.0889
 7250SOL    HW133386   3.217   4.586   3.219 -1.6382 -3.1211 -0.2093
 7250SOL    HW233387   3.305   4.464   3.216 -0.0888  0.0348  0.0934
 7251SOL     OW33388   2.045   0.818   6.529  0.4097  0.2168 -0.8704
 7251SOL    HW133389   2.052   0.847   6.620 -1.1267 -1.9427 -0.0541
 7251SOL    HW233390   1.981   0.876   6.488  1.5566  1.7481 -0.5087
 7252SOL     OW33391   0.263   0.459   3.990 -0.5442 -0.0881 -0.2700
 7252SOL    HW133392   0.238   0.538   3.942  1.2366 -1.0142 -2.6677
 7252SOL    HW233393   0.356   0.470   4.008 -0.1888 -2.3518 -0.7509
 7253SOL     OW33394   3.103   3.387   3.426  0.0614 -0.5027  0.0295
 7253SOL    HW133395   3.102   3.313   3.486  2.6725 -0.5908 -0.0381
 7253SOL    HW233396   3.198   3.400   3.428 -0.0422  0.0093  1.3157
 7254SOL     OW33397   2.211   1.025  12.374  0.0196 -0.5666 -0.0628
 7254SOL    HW133398   2.162   0.943  12.360 -1.5062  0.6777 -2.0971
 7254SOL    HW233399   2.182   1.037  12.464  0.0022 -0.2884 -0.1050
 7255SOL     OW33400   1.714   3.262  14.394 -0.5062 -0.0063 -0.1009
 7255SOL    HW133401   1.784   3.207  14.428 -1.3492 -1.1618 -0.2525
 7255SOL    HW233402   1.737   3.251  14.302  0.3167 -0.0000  0.1033
 7256SOL     OW33403   0.628   1.930   4.271  0.0168  0.4776 -0.5203
 7256SOL    HW133404   0.704   1.945   4.215  1.2644  1.6463  1.5009
 7256SOL    HW233405   0.640   1.979   4.353 -0.8250  0.7462 -0.5608
 7257SOL     OW33406   1.715   3.558  14.462 -0.0514  0.3585  0.8660
 7257SOL    HW133407   1.809   3.551  14.444  0.0330  2.3134  0.5493
 7257SOL    HW233408   1.690   3.469  14.441  1.4007  0.0525  0.3932
 7258SOL     OW33409   4.393   1.094  12.316 -0.1911 -0.3490 -0.5667
 7258SOL    HW133410   4.323   1.157  12.331  0.2120  0.2982 -1.4352
 7258SOL    HW233411   4.361   1.020  12.368  2.6226 -0.9367  0.3026
 7259SOL     OW33412   3.874   3.232   7.761  0.2861 -0.7814  0.2616
 7259SOL    HW133413   3.919   3.168   7.815 -0.9413  0.4556  2.7718
 7259SOL    HW233414   3.946   3.272   7.712 -0.2940 -0.6066 -0.4477
 7260SOL     OW33415   2.540   3.776   4.979 -0.1444 -0.2879  0.2493
 7260SOL    HW133416   2.546   3.843   4.911 -1.4045 -0.3178  0.1077
 7260SOL    HW233417   2.515   3.703   4.922  0.3959 -1.6367  1.7324
 7261SOL     OW33418   3.227   3.102   7.100  0.5510  0.1260 -0.0665
 7261SOL    HW133419   3.323   3.105   7.109  0.3108 -0.2396  2.6024
 7261SOL    HW233420   3.207   3.172   7.162 -2.6238 -1.3083  0.5151
 7262SOL     OW33421   4.464   2.723   6.181  0.0302 -0.4695  0.1066
 7262SOL    HW133422   4.532   2.721   6.247  1.4020  1.7711 -1.2173
 7262SOL    HW233423   4.470   2.636   6.141 -2.0282 -0.2562 -0.7020
 7263SOL     OW33424   3.464   3.982   8.519 -0.3366  0.0873  0.3587
 7263SOL    HW133425   3.423   3.966   8.434 -1.3906  0.6898  0.7561
 7263SOL    HW233426   3.544   4.025   8.489 -1.1011 -0.8967 -3.1085
 7264SOL     OW33427   0.218   3.038   2.462  0.3487  0.1654 -0.2813
 7264SOL    HW133428   0.307   3.065   2.439  0.6491 -1.4008 -0.9535
 7264SOL    HW233429   0.173   3.089   2.394 -1.5264  0.1109  0.9140
 7265SOL     OW33430   4.485   4.090  12.544  0.2884  0.0138  0.1969
 7265SOL    HW133431   4.406   4.138  12.569 -1.9430 -3.8706  0.5274
 7265SOL    HW233432   4.522   4.072  12.630 -1.5936  0.6356  1.1498
 7266SOL     OW33433   0.964   4.262   1.802 -0.0146  0.3621  0.0587
 7266SOL    HW133434   1.026   4.334   1.790 -1.4637  1.0651 -3.1656
 7266SOL    HW233435   0.964   4.229   1.712 -1.6143  0.8438 -0.1245
 7267SOL     OW33436   1.535   2.909  15.339 -0.3110 -0.1620  0.1395
 7267SOL    HW133437   1.490   2.974  15.394  0.3378 -0.3907  0.9445
 7267SOL    HW233438   1.590   2.968  15.288 -0.6519 -0.4638 -0.5711
 7268SOL     OW33439   4.087   3.378   3.955  0.6108 -0.2146  0.2076
 7268SOL    HW133440   4.095   3.423   3.870  1.2478  0.0055  0.3844
 7268SOL    HW233441   3.992   3.380   3.968  0.8466  0.9267  1.7028
 7269SOL     OW33442   0.569   3.067   6.267 -0.4301  0.7816  0.0912
 7269SOL    HW133443   0.640   3.011   6.300 -1.4572  0.4680  1.7847
 7269SOL    HW233444   0.594   3.149   6.311 -3.0593 -0.7304  4.4480
 7270SOL     OW33445   2.228   3.935   9.946 -0.3231  0.0690  0.6002
 7270SOL    HW133446   2.205   4.024   9.972  0.0543  0.7191 -1.3261
 7270SOL    HW233447   2.203   3.952   9.855 -0.2593  0.4552  0.6555
 7271SOL     OW33448   2.702   1.344  14.039  0.0802 -0.2754  0.3496
 7271SOL    HW133449   2.722   1.314  13.950 -0.1118  0.2366  0.1372
 7271SOL    HW233450   2.610   1.319  14.035 -0.2295  0.8311  0.4726
 7272SOL     OW33451   4.046   3.161   7.523 -0.4858 -0.4066 -0.0873
 7272SOL    HW133452   4.137   3.162   7.554  0.1226  0.2458 -1.9083
 7272SOL    HW233453   4.013   3.250   7.516  3.3447  0.9909 -0.1339
 7273SOL     OW33454   4.081   2.583   8.205  0.0266  0.4296  0.1460
 7273SOL    HW133455   4.020   2.511   8.222 -2.1694  2.1962 -0.1349
 7273SOL    HW233456   4.141   2.534   8.148 -1.0500  0.1729 -0.7913
 7274SOL     OW33457   2.693   2.988  15.285  0.2594  0.6560  0.1749
 7274SOL    HW133458   2.770   2.997  15.340  0.7139 -0.3037 -0.3133
 7274SOL    HW233459   2.721   3.033  15.205 -0.5263  2.3559  0.8376
 7275SOL     OW33460   4.495   3.068   1.763 -0.3823 -0.5478 -0.0205
 7275SOL    HW133461   4.534   3.122   1.695 -1.7326  1.2546  0.6164
 7275SOL    HW233462   4.410   3.066   1.719 -1.0491  1.2768  1.1669
 7276SOL     OW33463   0.930   4.447   5.861 -0.0941 -0.8096 -0.0226
 7276SOL    HW133464   0.914   4.453   5.767 -0.1998 -0.0845  0.0452
 7276SOL    HW233465   1.011   4.497   5.861  0.7368 -2.1404 -2.0085
 7277SOL     OW33466   1.442   2.272   6.033  0.3815  0.2930 -0.1260
 7277SOL    HW133467   1.465   2.313   6.117  1.0838  1.9330 -1.1324
 7277SOL    HW233468   1.370   2.325   5.999  0.0401  1.5156  2.4769
 7278SOL     OW33469   4.648   0.991   4.979  0.0687  0.4041 -0.0146
 7278SOL    HW133470   4.646   0.895   4.979  0.4130  0.3950 -0.4411
 7278SOL    HW233471   4.704   1.018   5.052  0.4720 -1.0441  0.2044
 7279SOL     OW33472   4.686   4.678  12.154 -0.5044  0.0216 -0.1280
 7279SOL    HW133473   4.710   4.615  12.221 -0.1679  0.1117 -0.1656
 7279SOL    HW233474   4.689   4.623  12.076 -1.5544  1.2737 -1.0602
 7280SOL     OW33475   1.981   3.136  12.729  0.1824  0.4454  0.1388
 7280SOL    HW133476   1.998   3.079  12.655 -0.1496 -0.1021  0.4788
 7280SOL    HW233477   1.886   3.135  12.716  0.0474 -0.4546  1.1611
 7281SOL     OW33478   2.931   4.007   2.530  0.3815 -0.2571 -0.2811
 7281SOL    HW133479   2.879   3.981   2.606  1.3660  0.7636  0.7382
 7281SOL    HW233480   2.999   4.056   2.576  1.9611 -2.9799  0.3080
 7282SOL     OW33481   1.299   1.388   5.807 -0.2426  0.9023 -0.0684
 7282SOL    HW133482   1.288   1.463   5.749 -0.7149  0.3076 -0.7540
 7282SOL    HW233483   1.354   1.331   5.754  0.2594 -0.5297  1.9742
 7283SOL     OW33484   1.995   2.529   5.283 -0.0293  0.1259  0.2867
 7283SOL    HW133485   1.916   2.526   5.228  1.1144  1.2936 -1.4221
 7283SOL    HW233486   1.985   2.450   5.335 -1.2424 -0.7585 -1.2915
 7284SOL     OW33487   2.955   1.971   4.731 -0.2853 -0.2965 -0.5436
 7284SOL    HW133488   2.872   1.982   4.684 -0.1549  0.2360 -0.6580
 7284SOL    HW233489   2.926   1.963   4.822 -0.1937  0.6661 -0.4255
 7285SOL     OW33490   0.980   1.135   5.956 -0.1930 -0.3609 -0.1685
 7285SOL    HW133491   1.034   1.151   6.033 -0.8414 -0.0789  0.2239
 7285SOL    HW233492   0.895   1.169   5.983 -0.7625  0.5723 -3.1168
 7286SOL     OW33493   2.059   0.639  12.661  0.3924 -0.1128  0.0803
 7286SOL    HW133494   2.138   0.608  12.706  1.0618  0.4065 -0.7338
 7286SOL    HW233495   1.995   0.603  12.723 -0.1661 -2.3364 -1.7920
 7287SOL     OW33496   0.408   3.411   6.357 -0.0283  0.1292 -0.3850
 7287SOL    HW133497   0.333   3.354   6.376  0.6655 -0.1995  1.3126
 7287SOL    HW233498   0.373   3.499   6.366  2.7078  1.1618  0.0655
 7288SOL     OW33499   3.252   2.155   8.275 -0.3782  0.3387 -0.2320
 7288SOL    HW133500   3.195   2.094   8.228  1.4411 -0.7892 -0.9830
 7288SOL    HW233501   3.331   2.152   8.221 -0.8623  2.5907 -1.0217
 7289SOL     OW33502   3.189   2.095   4.989 -0.8218 -0.4863  0.3967
 7289SOL    HW133503   3.185   2.000   5.001  2.0619 -0.5633  0.7562
 7289SOL    HW233504   3.275   2.109   4.948 -0.5000 -3.1382  0.1711
 7290SOL     OW33505   2.125   0.889   2.318 -0.9361  0.0271  0.2300
 7290SOL    HW133506   2.132   0.951   2.390 -1.2833  2.2415 -1.6368
 7290SOL    HW233507   2.112   0.807   2.364 -1.0970  0.5572  1.1355
 7291SOL     OW33508   1.513   0.824   4.391  0.1537 -0.3259  0.1474
 7291SOL    HW133509   1.537   0.841   4.300  0.4728  0.6943  0.4281
 7291SOL    HW233510   1.427   0.783   4.382 -0.7336  2.4155 -3.3447
 7292SOL     OW33511   1.601   2.186   3.041 -0.0348  0.1643 -0.1691
 7292SOL    HW133512   1.663   2.134   3.092 -0.3398  0.2411  0.2839
 7292SOL    HW233513   1.592   2.259   3.102 -2.3066  0.9445 -1.4460
 7293SOL     OW33514   1.535   1.818   6.727  0.1769 -0.1759 -0.1975
 7293SOL    HW133515   1.457   1.763   6.720  0.0575 -0.0664  0.2866
 7293SOL    HW233516   1.491   1.901   6.707  1.7851  0.8492  0.5727
 7294SOL     OW33517   0.062   0.712   9.362 -0.0880  0.1979  0.7068
 7294SOL    HW133518   0.104   0.634   9.326  1.6161  3.0308 -3.4608
 7294SOL    HW233519   0.068   0.706   9.457 -1.1096 -2.2716  0.6237
 7295SOL     OW33520   4.078   1.873  16.041 -0.5288  0.1280  0.6435
 7295SOL    HW133521   4.101   1.783  16.018  1.1779  0.6364  0.3859
 7295SOL    HW233522   3.983   1.883  16.030 -0.1458 -0.3039 -3.0127
 7296SOL     OW33523   0.671   3.735  16.465 -0.2572  0.3571 -0.3249
 7296SOL    HW133524   0.670   3.812  16.408 -0.2489  0.9136  0.4254
 7296SOL    HW233525   0.757   3.741  16.504 -0.6063 -0.3792  0.5514
 7297SOL     OW33526   2.429   1.326   8.138  0.0340 -0.0265  0.3721
 7297SOL    HW133527   2.369   1.399   8.125  0.1573  0.0236  0.0924
 7297SOL    HW233528   2.491   1.373   8.193 -0.5967  0.3998  0.7215
 7298SOL     OW33529   3.781   3.908   2.752 -0.3620  0.1696  0.4122
 7298SOL    HW133530   3.695   3.871   2.772 -0.9521  0.4829 -1.4849
 7298SOL    HW233531   3.816   3.914   2.841 -0.2151  1.3719  0.2736
 7299SOL     OW33532   2.930   2.988   8.756  0.4884  0.6188  0.6583
 7299SOL    HW133533   2.881   2.930   8.814  0.0344  1.2329  0.8814
 7299SOL    HW233534   2.887   3.073   8.767  0.8217  0.9292 -0.3931
 7300SOL     OW33535   3.745   2.140  11.739  0.4073  0.2342 -0.2315
 7300SOL    HW133536   3.802   2.117  11.665  0.4238 -2.3269  0.5640
 7300SOL    HW233537   3.790   2.206  11.792 -1.4298  0.9084  0.4668
 7301SOL     OW33538   1.874   2.061   5.891 -0.4057  1.0511 -0.3731
 7301SOL    HW133539   1.851   2.148   5.924  1.7309  0.6732  2.0597
 7301SOL    HW233540   1.803   2.013   5.933  0.8967 -0.9519 -0.4808
 7302SOL     OW33541   3.316   4.030  11.370 -0.2185  0.1523  0.0808
 7302SOL    HW133542   3.378   4.091  11.329  2.5858 -1.4476  2.0013
 7302SOL    HW233543   3.280   4.090  11.435  0.5375  0.3353  0.3307
 7303SOL     OW33544   4.120   1.899  16.588  0.1365 -0.0571 -0.7377
 7303SOL    HW133545   4.108   1.978  16.639  1.2313 -1.1633  1.2330
 7303SOL    HW233546   4.145   1.932  16.501 -0.5299  1.2343 -0.4254
 7304SOL     OW33547   0.752   2.482   7.412 -0.3212 -0.1027  0.1835
 7304SOL    HW133548   0.825   2.422   7.397  0.5614  1.1261 -0.4452
 7304SOL    HW233549   0.792   2.560   7.451  0.0838  0.5146 -1.4459
 7305SOL     OW33550   0.828   3.821   9.138 -0.0802  0.1715  0.2120
 7305SOL    HW133551   0.805   3.910   9.164 -0.9308  0.3133 -1.0420
 7305SOL    HW233552   0.916   3.803   9.172 -0.1518  0.5939  0.6258
 7306SOL     OW33553   4.401   0.561   1.922  0.4915  0.4263  0.1492
 7306SOL    HW133554   4.370   0.584   1.835  1.1944 -0.1450 -0.2587
 7306SOL    HW233555   4.319   0.529   1.959  0.7747 -1.1062 -0.5484
 7307SOL     OW33556   1.138   0.363   1.685 -0.1573 -0.0343 -0.6388
 7307SOL    HW133557   1.070   0.322   1.631 -1.9900  1.9524  0.1618
 7307SOL    HW233558   1.133   0.309   1.764  0.7415 -0.5574 -0.9427
 7308SOL     OW33559   0.272   1.187   5.339 -0.2473 -0.5439 -0.2579
 7308SOL    HW133560   0.357   1.142   5.348 -0.0967  0.0063  1.0282
 7308SOL    HW233561   0.293   1.260   5.282  0.0621  0.3056  0.9349
 7309SOL     OW33562   1.635   0.973   7.302  0.1765  0.1160 -0.4239
 7309SOL    HW133563   1.723   0.982   7.266  0.2716  1.9336  0.2435
 7309SOL    HW233564   1.659   0.958   7.394  1.6081 -0.7793 -0.9403
 7310SOL     OW33565   1.785   3.290   7.081  0.1607 -0.2204  0.2414
 7310SOL    HW133566   1.797   3.385   7.080  2.5641 -0.5302  1.0846
 7310SOL    HW233567   1.709   3.287   7.022  0.0139  0.9990  0.3707
 7311SOL     OW33568   2.825   0.522   2.058 -0.1488 -0.5601  0.2021
 7311SOL    HW133569   2.911   0.564   2.053 -0.0343 -0.8369 -0.1351
 7311SOL    HW233570   2.846   0.431   2.037  2.8927 -0.1907  1.6673
 7312SOL     OW33571   0.456   1.215   8.987  0.5580 -0.2891 -0.6747
 7312SOL    HW133572   0.465   1.209   9.082  0.0523 -1.2332 -0.6908
 7312SOL    HW233573   0.440   1.309   8.976 -0.6735 -0.3602  0.5581
 7313SOL     OW33574   0.203   2.230   9.667 -0.1099  0.1777  0.1756
 7313SOL    HW133575   0.189   2.175   9.745  0.1837  2.2433  1.6856
 7313SOL    HW233576   0.117   2.250   9.630  0.8629  0.5903 -1.8266
 7314SOL     OW33577   2.980   0.214   7.476 -0.3543 -0.4083 -0.1265
 7314SOL    HW133578   2.961   0.127   7.441  1.4193 -0.3774 -1.1452
 7314SOL    HW233579   2.927   0.215   7.556  0.4857  1.4805  0.4112
 7315SOL     OW33580   3.131   2.407   1.475  0.0125 -0.6221  0.0833
 7315SOL    HW133581   3.163   2.451   1.554 -1.7284  2.0731 -0.7227
 7315SOL    HW233582   3.062   2.465   1.443  1.7152  2.3282  1.8112
 7316SOL     OW33583   3.828   0.843   4.407 -0.0167 -0.2600 -0.5430
 7316SOL    HW133584   3.778   0.800   4.477  0.2887  0.7326  0.2971
 7316SOL    HW233585   3.779   0.815   4.330  2.1949 -2.9227 -0.9444
 7317SOL     OW33586   0.756   3.371   7.228  0.0903 -0.0501 -0.0793
 7317SOL    HW133587   0.711   3.349   7.146 -0.6093  1.1198 -0.0087
 7317SOL    HW233588   0.738   3.464   7.243  2.0177  0.4388 -0.7990
 7318SOL     OW33589   1.596   1.970   6.219 -0.2981 -0.4987  0.6767
 7318SOL    HW133590   1.691   1.979   6.214 -0.3645 -1.5932 -2.4945
 7318SOL    HW233591   1.588   1.889   6.270 -0.7834 -0.3322  0.8566
 7319SOL     OW33592   1.114   3.822   9.243 -0.3064 -0.3695  0.4277
 7319SOL    HW133593   1.136   3.747   9.297 -0.6496  0.3705  1.5883
 7319SOL    HW233594   1.137   3.900   9.294  0.3839  1.1837 -2.2538
 7320SOL     OW33595   3.981   3.122   6.402  0.4501 -0.3461 -0.0354
 7320SOL    HW133596   4.051   3.181   6.429  1.3088 -0.8784 -1.0789
 7320SOL    HW233597   4.012   3.037   6.434 -0.5065 -0.1839  1.3078
 7321SOL     OW33598   2.334   3.747   2.217  0.1362 -0.2964 -0.1990
 7321SOL    HW133599   2.372   3.833   2.235  0.3645 -0.4412  0.0153
 7321SOL    HW233600   2.405   3.685   2.199  1.1727  0.4092  1.5137
 7322SOL     OW33601   2.879   1.548   7.096  0.3707  0.2068 -0.3282
 7322SOL    HW133602   2.887   1.460   7.133 -0.5739  0.7156  1.0851
 7322SOL    HW233603   2.800   1.543   7.042 -2.1030  1.3193  3.1980
 7323SOL     OW33604   3.413   3.834   7.339  0.6041 -0.0492  0.0665
 7323SOL    HW133605   3.473   3.820   7.412  0.8782 -1.1893 -0.3800
 7323SOL    HW233606   3.421   3.930   7.338  1.5255 -0.1178  0.9565
 7324SOL     OW33607   4.171   3.210   7.835  0.0686 -0.2148 -0.2809
 7324SOL    HW133608   4.157   3.115   7.831 -0.4851 -0.1810  0.7516
 7324SOL    HW233609   4.174   3.224   7.930  0.0009  0.1273 -0.3325
 7325SOL     OW33610   0.551   0.738   1.839 -0.2056  0.2060  0.1629
 7325SOL    HW133611   0.549   0.833   1.832  0.1972  0.0230 -2.6142
 7325SOL    HW233612   0.623   0.713   1.780  1.4969  1.1965  1.8239
 7326SOL     OW33613   1.601   2.733   9.318  0.2486  0.6587  0.0317
 7326SOL    HW133614   1.686   2.693   9.302  0.8073  1.7633  0.2654
 7326SOL    HW233615   1.572   2.755   9.230 -0.5545  0.4873  0.2485
 7327SOL     OW33616   1.289   2.054   4.072 -0.0934  0.0348  0.8720
 7327SOL    HW133617   1.348   2.129   4.079  0.0489  0.1155 -1.1008
 7327SOL    HW233618   1.293   2.014   4.159  0.7007  0.2255  0.9238
 7328SOL     OW33619   0.323   2.367   1.425 -0.5332 -0.1776 -0.1376
 7328SOL    HW133620   0.288   2.456   1.421  0.9907  0.4256 -0.0054
 7328SOL    HW233621   0.363   2.362   1.512  3.2733  1.9005 -1.7790
 7329SOL     OW33622   1.794   0.313  15.614 -0.4181  0.2764 -0.1801
 7329SOL    HW133623   1.745   0.233  15.631 -0.5699  0.8497  2.0203
 7329SOL    HW233624   1.870   0.293  15.668  0.6464 -0.1324 -1.8184
 7330SOL     OW33625   0.468   1.713  14.982  0.3552  0.0925  0.6939
 7330SOL    HW133626   0.381   1.709  14.943  0.6280  1.2619 -0.0181
 7330SOL    HW233627   0.507   1.627  14.965 -0.8380 -1.0067  3.4436
 7331SOL     OW33628   1.939   0.037   2.575  0.1587 -0.1909  0.1987
 7331SOL    HW133629   1.909   4.714   2.508  2.9655 -1.7942  0.4541
 7331SOL    HW233630   1.986   4.708   2.622 -1.0150  2.4118  5.0825
 7332SOL     OW33631   3.601   0.030  13.488 -0.8236 -0.4574 -0.6780
 7332SOL    HW133632   3.554   0.038  13.571  2.4809  1.4359  1.0132
 7332SOL    HW233633   3.586   0.120  13.456 -0.0302 -0.6284 -1.5055
 7333SOL     OW33634   1.819   1.164   8.275  0.2729 -0.1420 -0.0967
 7333SOL    HW133635   1.847   1.137   8.362 -0.9067 -1.8583 -0.2342
 7333SOL    HW233636   1.858   1.251   8.276 -0.5140  0.1607  3.0647
 7334SOL     OW33637   3.523   3.222   1.502  0.4258 -0.3561 -0.5796
 7334SOL    HW133638   3.478   3.302   1.528  1.7009  0.0775  0.2350
 7334SOL    HW233639   3.601   3.252   1.454  2.3115  1.1626  3.4950
 7335SOL     OW33640   2.335   2.867   3.771  0.6765 -0.2335  0.3314
 7335SOL    HW133641   2.276   2.942   3.763 -0.4614 -1.1207  0.3974
 7335SOL    HW233642   2.289   2.800   3.720 -1.9549  0.8735  1.2757
 7336SOL     OW33643   2.319   3.472   8.771 -0.5148  0.0559  0.0297
 7336SOL    HW133644   2.251   3.484   8.838 -0.5233 -0.7552  0.1720
 7336SOL    HW233645   2.384   3.438   8.832 -2.4804  0.0723  2.1505
 7337SOL     OW33646   2.507   3.994   3.718  0.4358 -0.1711  0.1794
 7337SOL    HW133647   2.424   4.004   3.672  1.5698 -0.5572 -1.9363
 7337SOL    HW233648   2.516   3.902   3.693 -0.1737  0.4066 -2.1511
 7338SOL     OW33649   4.221   0.184   8.163  0.1472  0.2574 -0.9416
 7338SOL    HW133650   4.293   0.188   8.100  2.0653  0.3668  1.2269
 7338SOL    HW233651   4.194   0.276   8.156 -0.2582  0.1130 -1.2614
 7339SOL     OW33652   2.818   3.575   2.294 -0.2793  0.1648  0.0754
 7339SOL    HW133653   2.910   3.590   2.318 -0.1128 -1.4523  0.4649
 7339SOL    HW233654   2.832   3.517   2.220  0.3918 -2.0119  1.9023
 7340SOL     OW33655   0.220   4.543  10.826  0.3552 -0.1552  0.2515
 7340SOL    HW133656   0.303   4.579  10.795 -0.1167  1.0173  0.3357
 7340SOL    HW233657   0.225   4.536  10.922  2.5973 -1.6621  0.0092
 7341SOL     OW33658   1.486   4.218   6.822 -0.6530  0.2386  0.1180
 7341SOL    HW133659   1.458   4.306   6.850  0.8860  1.1966 -1.3549
 7341SOL    HW233660   1.542   4.230   6.745  0.2365 -2.4320  0.3816
 7342SOL     OW33661   2.281   0.049   5.997  0.3595  0.2903 -0.0500
 7342SOL    HW133662   2.326   0.131   6.016  0.8358  0.3284 -1.3618
 7342SOL    HW233663   2.255   0.064   5.906 -3.6515 -1.1847  0.8696
 7343SOL     OW33664   1.904   3.113   8.751  0.4129 -0.1825 -0.3195
 7343SOL    HW133665   1.983   3.129   8.700 -0.7053  1.5728 -1.4851
 7343SOL    HW233666   1.921   3.051   8.823  0.1552  2.3819  1.9499
 7344SOL     OW33667   1.516   0.153   5.873 -0.0843 -0.4247 -0.5123
 7344SOL    HW133668   1.518   0.207   5.952 -1.8965 -3.6948  1.7624
 7344SOL    HW233669   1.471   0.220   5.822  0.5222  0.1469 -0.2917
 7345SOL     OW33670   0.675   0.446  10.667 -0.0665  0.1137  0.0150
 7345SOL    HW133671   0.744   0.414  10.609 -0.4390  1.0177 -0.9452
 7345SOL    HW233672   0.636   0.512  10.610  0.1750 -0.0878 -0.3842
 7346SOL     OW33673   1.333   4.226  10.594  0.4486  0.3600 -0.7378
 7346SOL    HW133674   1.324   4.144  10.546  0.0493  0.2921 -0.5508
 7346SOL    HW233675   1.375   4.286  10.533  0.5269  0.7874 -0.2687
 7347SOL     OW33676   3.140   1.401   8.751 -0.7308  0.5385 -0.2397
 7347SOL    HW133677   3.206   1.449   8.801  0.2731 -1.3026  0.2019
 7347SOL    HW233678   3.127   1.330   8.814 -2.3917  0.3041 -0.8583
 7348SOL     OW33679   0.742   1.554  16.436 -0.0839  0.1529 -0.4192
 7348SOL    HW133680   0.777   1.468  16.458 -0.8210  0.6824  2.8708
 7348SOL    HW233681   0.727   1.593  16.522 -1.3259 -1.0367 -0.0874
 7349SOL     OW33682   0.050   2.633   8.697 -1.0862 -0.0829 -0.3541
 7349SOL    HW133683   0.042   2.728   8.710 -1.4450 -0.2809  0.8287
 7349SOL    HW233684   0.014   2.598   8.778 -0.8834  1.8379  0.5765
 7350SOL     OW33685   2.581   0.390   5.997  0.0281  0.0596 -0.1833
 7350SOL    HW133686   2.666   0.357   6.027 -0.0388 -0.3389 -0.4356
 7350SOL    HW233687   2.622   0.427   5.919 -0.3824 -0.2207 -0.5335
 7351SOL     OW33688   0.801   0.689   0.967 -0.2565  0.5941 -0.2349
 7351SOL    HW133689   0.832   0.599   0.976 -0.1063  0.6601 -0.0998
 7351SOL    HW233690   0.874   0.745   0.941  0.1074  0.4778  0.5477
 7352SOL     OW33691   0.389   1.494   8.887 -0.0382  0.1146  0.6145
 7352SOL    HW133692   0.394   1.577   8.841 -1.7274  0.1487  0.4943
 7352SOL    HW233693   0.457   1.508   8.953  1.8128 -2.3785 -0.7591
 7353SOL     OW33694   4.061   4.545   8.773 -0.2948  0.6900 -0.6433
 7353SOL    HW133695   4.150   4.521   8.749 -1.1364 -0.7517 -2.3485
 7353SOL    HW233696   4.058   4.628   8.725 -0.4568  0.0851 -1.6812
 7354SOL     OW33697   3.376   4.466  14.985 -0.4409  0.3058  0.1824
 7354SOL    HW133698   3.444   4.402  14.962 -1.5771 -0.9529  0.3321
 7354SOL    HW233699   3.421   4.517  15.052  0.1784  1.7935 -1.3475
 7355SOL     OW33700   3.790   4.657   9.069 -0.0649 -0.0918  0.0749
 7355SOL    HW133701   3.850   4.654   9.143  2.2946  2.6011 -1.7014
 7355SOL    HW233702   3.718   4.608   9.109 -1.3763  0.5997 -1.4135
 7356SOL     OW33703   2.727   4.315   2.998  0.2355 -0.6582  0.1159
 7356SOL    HW133704   2.777   4.260   2.938 -0.1564 -0.2634 -0.5753
 7356SOL    HW233705   2.651   4.341   2.946  1.3531  2.5752  0.0809
 7357SOL     OW33706   1.102   0.882   4.723 -0.2437  1.1174 -0.0327
 7357SOL    HW133707   1.196   0.901   4.713 -0.2224  0.3614 -1.2271
 7357SOL    HW233708   1.062   0.969   4.731  1.1183  1.7568 -0.1152
 7358SOL     OW33709   2.941   0.588   7.370 -0.4768 -0.0798 -0.0576
 7358SOL    HW133710   2.928   0.682   7.366  2.8679  0.4305  0.6796
 7358SOL    HW233711   2.995   0.576   7.449 -0.1189  1.9043 -0.0033
 7359SOL     OW33712   2.957   0.412   5.270 -0.2764  0.3600 -0.2903
 7359SOL    HW133713   2.927   0.327   5.301 -0.7377 -0.0113 -1.8041
 7359SOL    HW233714   2.924   0.405   5.181 -1.4677 -0.6832  0.2506
 7360SOL     OW33715   1.847   1.180   0.822 -0.1483 -0.5350  0.1481
 7360SOL    HW133716   1.789   1.136   0.884  0.3303 -0.5811  0.5652
 7360SOL    HW233717   1.813   1.269   0.835 -0.1185 -0.7440  1.6198
 7361SOL     OW33718   3.347   1.827   3.684  0.0614 -0.0330  0.1022
 7361SOL    HW133719   3.284   1.763   3.651  0.5007 -0.1213 -0.5612
 7361SOL    HW233720   3.402   1.770   3.738  0.3669  0.6227  0.4712
 7362SOL     OW33721   3.142   4.631  17.037  0.0447 -0.2112 -0.3515
 7362SOL    HW133722   3.115   4.718  17.008 -1.4207 -0.1454  1.2177
 7362SOL    HW233723   3.235   4.641  17.017  0.5048 -3.7149  0.0401
 7363SOL     OW33724   3.697   2.025   7.901 -0.1042  0.2788 -0.2534
 7363SOL    HW133725   3.746   1.944   7.911  1.2326  1.1061 -0.2023
 7363SOL    HW233726   3.716   2.072   7.983 -1.3666  1.9825 -0.9253
 7364SOL     OW33727   3.908   2.348   4.759 -0.5291 -0.0142 -0.5203
 7364SOL    HW133728   3.826   2.318   4.797 -1.0316  0.5975 -1.0955
 7364SOL    HW233729   3.894   2.334   4.665  0.1789  1.8151 -0.9191
 7365SOL     OW33730   0.791   1.365   0.843  0.2715  0.1978 -0.1197
 7365SOL    HW133731   0.718   1.412   0.883 -0.4497  1.2030 -2.5817
 7365SOL    HW233732   0.744   1.317   0.775  1.1506 -0.5302 -0.2032
 7366SOL     OW33733   1.875   3.268   7.674  0.0021 -0.2455 -0.1668
 7366SOL    HW133734   1.959   3.285   7.718 -1.8444  1.2601  2.8120
 7366SOL    HW233735   1.890   3.184   7.631 -0.9014 -0.8364  0.6626
 7367SOL     OW33736   1.751   0.407   6.987  0.4286  0.1081 -1.1378
 7367SOL    HW133737   1.839   0.402   6.949  0.9176 -1.2981  0.1870
 7367SOL    HW233738   1.779   0.384   7.076  1.8317 -0.0852 -1.6236
 7368SOL     OW33739   3.365   0.579   2.025 -0.0969  0.3041 -0.5363
 7368SOL    HW133740   3.455   0.548   2.012 -0.3955 -0.5551 -0.5671
 7368SOL    HW233741   3.372   0.673   2.039 -0.4970  0.4648 -1.3998
 7369SOL     OW33742   2.322   0.562   0.147 -0.5213  0.0103 -0.3463
 7369SOL    HW133743   2.260   0.630   0.122  0.3793  0.2193 -1.9883
 7369SOL    HW233744   2.384   0.563   0.074 -0.6384  0.8396 -0.4391
 7370SOL     OW33745   1.749   0.315  17.265 -0.3322 -0.2431  0.0492
 7370SOL    HW133746   1.842   0.290  17.261 -0.4486 -0.4440 -1.3854
 7370SOL    HW233747   1.712   0.228  17.257 -1.7709  0.3380  0.4860
 7371SOL     OW33748   1.406   1.261   2.749 -0.0197  0.6542  0.1471
 7371SOL    HW133749   1.333   1.219   2.703  0.1720 -0.4519  0.8429
 7371SOL    HW233750   1.474   1.253   2.683  1.6682  0.6647  1.8743
 7372SOL     OW33751   1.164   3.840  15.674  0.0026 -0.3709  0.5760
 7372SOL    HW133752   1.215   3.883  15.742  1.2732 -2.4767  0.9495
 7372SOL    HW233753   1.234   3.820  15.612 -0.9284 -3.8566  0.6456
 7373SOL     OW33754   2.568   3.348   0.908  0.3045 -0.0330  0.2355
 7373SOL    HW133755   2.592   3.424   0.960  1.3286 -0.7294  0.7946
 7373SOL    HW233756   2.473   3.347   0.903  0.2510 -1.2327  1.5250
 7374SOL     OW33757   2.421   1.344   3.606  0.1674  0.2653 -0.2487
 7374SOL    HW133758   2.517   1.345   3.608  0.1897 -1.9383  0.2008
 7374SOL    HW233759   2.414   1.249   3.596 -3.0599  0.3249  1.6448
 7375SOL     OW33760   0.607   3.389  10.285 -0.2587 -0.1067 -0.0833
 7375SOL    HW133761   0.629   3.296  10.283  2.0394  0.4207  0.2453
 7375SOL    HW233762   0.513   3.387  10.270 -0.1350  0.3896 -0.9088
 7376SOL     OW33763   3.938   0.211   4.055 -0.1105  0.0090 -0.1078
 7376SOL    HW133764   3.866   0.154   4.084 -0.2535  0.4819  0.4668
 7376SOL    HW233765   4.009   0.148   4.065 -0.8478 -0.6242  1.1674
 7377SOL     OW33766   0.782   1.856   2.512  0.0975 -0.1676 -0.3527
 7377SOL    HW133767   0.853   1.797   2.489 -0.2096 -0.7042  0.0705
 7377SOL    HW233768   0.763   1.892   2.426  0.1933 -1.4679 -0.9176
 7378SOL     OW33769   1.331   0.740   2.308  0.6306 -0.1755 -0.0217
 7378SOL    HW133770   1.360   0.764   2.219 -0.1193  0.7713 -0.0046
 7378SOL    HW233771   1.400   0.788   2.354  0.0683 -1.5432  2.2073
 7379SOL     OW33772   3.942   1.880   1.943 -0.3001 -0.5884  0.7656
 7379SOL    HW133773   3.865   1.889   1.999  0.1954  1.6536  1.0556
 7379SOL    HW233774   3.954   1.971   1.920 -0.1814 -0.6074  0.7527
 7380SOL     OW33775   1.036   3.796   1.837 -0.4744  0.1222 -0.3752
 7380SOL    HW133776   0.988   3.753   1.767  2.0492 -3.6920  0.2139
 7380SOL    HW233777   0.966   3.829   1.893  0.3806  3.0935 -1.0522
 7381SOL     OW33778   3.030   0.898   4.590  0.3177  0.1475 -0.0473
 7381SOL    HW133779   3.051   0.924   4.500  0.1674  2.8570  0.7056
 7381SOL    HW233780   3.044   0.982   4.634  0.7498 -0.8283  1.6807
 7382SOL     OW33781   1.116   2.503  11.422  0.4060  0.1118  0.1227
 7382SOL    HW133782   1.141   2.589  11.456 -0.4596 -0.5223  2.3231
 7382SOL    HW233783   1.185   2.508  11.356 -0.9556  1.9072 -1.1545
 7383SOL     OW33784   3.762   1.409  15.779 -0.1009 -0.3852  0.3464
 7383SOL    HW133785   3.722   1.474  15.722 -0.8422 -0.1736  1.1146
 7383SOL    HW233786   3.804   1.351  15.715 -1.7154 -1.6572  0.4409
 7384SOL     OW33787   0.350   1.656   7.675 -0.0535  0.4074  0.4159
 7384SOL    HW133788   0.381   1.696   7.594  0.1922  0.8604  0.7359
 7384SOL    HW233789   0.337   1.565   7.648  0.4826  0.6863 -0.7671
 7385SOL     OW33790   1.843   0.075   6.707 -0.2864 -0.5142  0.0349
 7385SOL    HW133791   1.761   0.105   6.667  1.6906  2.0172 -2.1549
 7385SOL    HW233792   1.899   0.141   6.666 -0.2591  1.2809  3.0120
 7386SOL     OW33793   1.563   1.931   9.203 -0.0874 -0.1550  0.1592
 7386SOL    HW133794   1.482   1.918   9.253  1.6685 -3.7354  2.0394
 7386SOL    HW233795   1.546   1.870   9.130  0.4128 -0.5405  0.3646
 7387SOL     OW33796   3.289   4.007   8.843  0.7317  0.0749  0.5255
 7387SOL    HW133797   3.195   4.019   8.859  0.7903 -0.2252  1.1075
 7387SOL    HW233798   3.298   4.072   8.774 -0.7766  0.4098  0.6253
 7388SOL     OW33799   4.079   4.523  15.299 -0.2195  0.4845  0.1430
 7388SOL    HW133800   4.052   4.521  15.207  0.7304 -0.9405 -0.1098
 7388SOL    HW233801   4.154   4.463  15.298  0.5166  1.4050 -0.1951
 7389SOL     OW33802   2.861   1.479  13.728  0.2367  0.4667  0.2248
 7389SOL    HW133803   2.908   1.434  13.658  3.3053  5.4321 -0.8905
 7389SOL    HW233804   2.832   1.401  13.776  1.9200  0.4468  1.1686
 7390SOL     OW33805   1.947   3.203  13.468 -0.6526 -0.5111 -0.1323
 7390SOL    HW133806   1.985   3.249  13.393  0.4524 -0.1258  0.6524
 7390SOL    HW233807   1.892   3.142  13.420  0.2806 -0.2021 -1.5982
 7391SOL     OW33808   1.066   1.806  11.170  0.6408 -0.5894  0.4212
 7391SOL    HW133809   1.112   1.861  11.107  1.1467  1.6520  2.7601
 7391SOL    HW233810   1.135   1.745  11.198 -0.4310 -1.5683  0.9013
 7392SOL     OW33811   1.840   2.794  15.223 -0.3079  0.5356 -0.1218
 7392SOL    HW133812   1.750   2.799  15.193 -0.1668  4.5318  0.2229
 7392SOL    HW233813   1.839   2.808  15.318  1.7142  1.0797 -0.1867
 7393SOL     OW33814   4.354   2.606   2.644  0.2907 -0.0290 -0.4015
 7393SOL    HW133815   4.428   2.548   2.626 -2.9552 -4.0402 -0.6199
 7393SOL    HW233816   4.397   2.657   2.713 -0.7860 -2.2811  1.9051
 7394SOL     OW33817   4.384   1.508   8.140 -0.0725 -0.2303  0.2286
 7394SOL    HW133818   4.402   1.424   8.184  0.3188 -0.5014 -0.4436
 7394SOL    HW233819   4.455   1.565   8.170  0.0374 -0.8542  1.1691
 7395SOL     OW33820   3.612   1.468   2.798 -0.1128 -0.0357  0.2100
 7395SOL    HW133821   3.636   1.426   2.881  1.0550 -2.7009 -1.4611
 7395SOL    HW233822   3.523   1.433   2.791 -0.9864  2.1973  0.2228
 7396SOL     OW33823   4.631   2.699   7.545 -0.3568  0.3841 -0.1006
 7396SOL    HW133824   4.671   2.697   7.458  2.6906 -1.3086  1.3374
 7396SOL    HW233825   4.672   2.777   7.583  0.3001  0.1323 -0.2898
 7397SOL     OW33826   1.908   2.564   4.201 -0.0899 -0.3052 -0.0804
 7397SOL    HW133827   1.997   2.537   4.181 -0.0930  0.8552 -1.6189
 7397SOL    HW233828   1.915   2.659   4.197 -0.5391 -0.2851 -0.3775
 7398SOL     OW33829   2.121   0.664   5.234 -0.2197  0.0369 -0.0970
 7398SOL    HW133830   2.172   0.597   5.278  0.9117  0.9853  0.0458
 7398SOL    HW233831   2.120   0.739   5.294  0.6078 -0.8258  0.9776
 7399SOL     OW33832   3.178   2.451  17.131 -0.3274 -0.2364 -0.0769
 7399SOL    HW133833   3.198   2.375  17.185  0.6855  0.3402  0.3697
 7399SOL    HW233834   3.106   2.427  17.073 -1.0084  0.4933  0.4678
 7400SOL     OW33835   3.838   2.229  16.174 -0.0204 -0.4947 -0.0354
 7400SOL    HW133836   3.887   2.296  16.222  0.0362  0.6396 -1.6922
 7400SOL    HW233837   3.839   2.171  16.250  3.2265  1.8885  1.7671
 7401SOL     OW33838   0.489   3.804  10.043  0.1231  0.1171 -0.0064
 7401SOL    HW133839   0.495   3.727   9.987 -0.4418 -1.2061  1.7345
 7401SOL    HW233840   0.542   3.862   9.989 -0.1700 -0.7438 -1.2185
 7402SOL     OW33841   3.940   4.549   6.717  0.1403  0.5982  0.1487
 7402SOL    HW133842   4.002   4.572   6.786  0.3843  1.6915 -0.4213
 7402SOL    HW233843   3.993   4.534   6.638  0.7543  0.0871  0.6603
 7403SOL     OW33844   1.532   0.404  15.532 -0.3318 -0.0757  0.3512
 7403SOL    HW133845   1.496   0.320  15.502 -1.4541  0.6496 -0.3178
 7403SOL    HW233846   1.627   0.390  15.535 -0.7051 -2.7021  0.5328
 7404SOL     OW33847   2.048   2.972  12.511 -0.4006  0.3315  0.1780
 7404SOL    HW133848   2.126   2.921  12.530 -1.2273 -0.5491  1.2653
 7404SOL    HW233849   2.002   2.920  12.444 -0.1754 -0.7049  0.8275
 7405SOL     OW33850   1.871   4.258   7.395 -0.0478 -0.0828  0.2812
 7405SOL    HW133851   1.811   4.332   7.386 -2.5052 -2.3261 -1.5866
 7405SOL    HW233852   1.892   4.265   7.488 -0.9972 -1.6858  0.6049
 7406SOL     OW33853   3.264   2.743   4.668  0.3990  0.0966  0.0252
 7406SOL    HW133854   3.234   2.655   4.643 -1.3778  1.0308 -1.0788
 7406SOL    HW233855   3.343   2.714   4.714  0.3004 -0.8587 -0.3961
 7407SOL     OW33856   3.584   3.034   3.116  0.1400 -0.5404  0.4648
 7407SOL    HW133857   3.590   2.941   3.142 -2.5327 -1.3891 -2.0368
 7407SOL    HW233858   3.583   3.070   3.205  0.3731  0.4154  0.0786
 7408SOL     OW33859   2.400   2.846  16.387  0.6092 -0.1215  0.1538
 7408SOL    HW133860   2.451   2.877  16.462 -2.3012  1.2772  1.5236
 7408SOL    HW233861   2.400   2.917  16.322  2.3677 -0.0537  0.2105
 7409SOL     OW33862   2.061   0.943  17.007  0.3816  0.2463  0.5555
 7409SOL    HW133863   2.030   0.976  16.922  0.7998  0.3976  0.4613
 7409SOL    HW233864   2.152   0.968  17.019  1.1991 -2.0173 -0.8830
 7410SOL     OW33865   0.269   1.666   1.352  0.7962  0.4116 -0.1131
 7410SOL    HW133866   0.238   1.754   1.330 -0.3294  0.3105  1.0688
 7410SOL    HW233867   0.265   1.628   1.264 -1.8387  0.3068  0.0393
 7411SOL     OW33868   0.790   4.067   2.885 -0.6005 -0.0665  0.0068
 7411SOL    HW133869   0.790   3.989   2.829 -0.8111  1.8789 -2.6924
 7411SOL    HW233870   0.880   4.088   2.911 -0.2857 -0.4172 -0.8058
 7412SOL     OW33871   0.594   4.365   3.884 -0.2094 -0.0596  0.6815
 7412SOL    HW133872   0.668   4.310   3.861 -1.0854 -1.3485  0.9244
 7412SOL    HW233873   0.523   4.301   3.876  1.2345 -1.6408  0.5232
 7413SOL     OW33874   4.036   4.464   5.614  0.1733 -0.3531 -0.1568
 7413SOL    HW133875   4.082   4.442   5.533 -3.7072  2.2791 -3.0455
 7413SOL    HW233876   4.113   4.478   5.669  0.6864  1.7022 -1.4067
 7414SOL     OW33877   3.430   3.376   2.666 -0.5821 -0.2090  0.2312
 7414SOL    HW133878   3.511   3.418   2.694 -2.4953  1.7639  2.8237
 7414SOL    HW233879   3.385   3.457   2.644 -0.9448 -0.6022 -0.4801
 7415SOL     OW33880   3.079   1.686   4.993  0.0423 -0.1957 -0.3219
 7415SOL    HW133881   3.052   1.644   5.075 -1.4028  2.6997  0.6693
 7415SOL    HW233882   3.139   1.613   4.974 -0.4105 -0.4427 -0.8196
 7416SOL     OW33883   0.201   1.005   7.200 -0.4042  0.0082 -0.2879
 7416SOL    HW133884   0.248   0.933   7.243  1.0808  1.0179 -0.1956
 7416SOL    HW233885   0.216   0.977   7.110  2.8484 -0.2244  0.3081
 7417SOL     OW33886   1.069   2.575   8.058  0.6663  0.4843 -0.6202
 7417SOL    HW133887   0.984   2.598   8.097  0.5134 -0.0959 -0.6081
 7417SOL    HW233888   1.047   2.521   7.982 -1.0270 -0.7821  0.7449
 7418SOL     OW33889   0.440   4.348   7.487 -0.3371 -0.0772 -0.0744
 7418SOL    HW133890   0.384   4.280   7.523 -0.8285  1.1918  1.5287
 7418SOL    HW233891   0.376   4.411   7.456  1.4406  1.1513 -1.2867
 7419SOL     OW33892   4.272   1.692   5.481  0.2276  0.0971  0.1098
 7419SOL    HW133893   4.255   1.785   5.465  1.8153  0.4495  0.4999
 7419SOL    HW233894   4.205   1.650   5.427 -0.5349  0.4540  0.7852
 7420SOL     OW33895   4.690   1.463   5.451 -0.2057  0.2972  0.7322
 7420SOL    HW133896   0.004   1.530   5.494  0.5298  1.0643 -1.3737
 7420SOL    HW233897   4.611   1.515   5.434  0.4314  1.2379  0.6727
 7421SOL     OW33898   1.223   0.729   7.052 -0.3340  0.8486 -0.3899
 7421SOL    HW133899   1.281   0.789   7.099 -0.1136  0.1054  0.2860
 7421SOL    HW233900   1.159   0.718   7.123  0.3846  1.6900  0.3889
 7422SOL     OW33901   4.310   1.558   7.231  0.0539  0.6676 -0.7671
 7422SOL    HW133902   4.328   1.650   7.248 -1.9650  0.5717  1.8585
 7422SOL    HW233903   4.263   1.562   7.147 -1.4688 -0.7014  0.0238
 7423SOL     OW33904   0.439   3.215   8.204  0.2939 -0.2492 -0.6385
 7423SOL    HW133905   0.371   3.281   8.221 -1.2621 -1.9884 -0.0690
 7423SOL    HW233906   0.408   3.174   8.124 -1.3139 -2.5987  1.1869
 7424SOL     OW33907   0.106   4.520  16.550 -0.0777 -0.0351  0.8728
 7424SOL    HW133908   0.070   4.470  16.624  0.4153  0.1256  1.2160
 7424SOL    HW233909   0.049   4.596  16.547 -1.6122 -1.1851  0.4125
 7425SOL     OW33910   2.323   0.936  10.063  0.0686  0.0552 -0.2533
 7425SOL    HW133911   2.369   0.942   9.979  0.8262 -0.0623  0.1584
 7425SOL    HW233912   2.261   1.009  10.054 -0.9938 -0.9879 -1.5097
 7426SOL     OW33913   2.908   1.121   8.625 -0.0806  0.3273  0.0001
 7426SOL    HW133914   2.853   1.137   8.702 -0.3153 -0.0737 -0.0895
 7426SOL    HW233915   2.855   1.168   8.562 -2.2029 -1.4859  0.4145
 7427SOL     OW33916   1.507   2.368   8.265 -0.1554  0.6337 -0.2074
 7427SOL    HW133917   1.511   2.428   8.340  0.0053 -3.7118  3.2513
 7427SOL    HW233918   1.601   2.352   8.263 -0.3311 -0.5753  0.8235
 7428SOL     OW33919   3.716   1.889   5.432 -0.0089  0.4959 -0.5505
 7428SOL    HW133920   3.709   1.916   5.523  3.6841 -0.1873 -0.0539
 7428SOL    HW233921   3.722   1.794   5.434 -1.3199  0.4018 -1.1157
 7429SOL     OW33922   0.699   0.156   8.320 -0.2168  0.4090 -0.2302
 7429SOL    HW133923   0.670   0.068   8.343 -3.6132  1.1378 -1.6937
 7429SOL    HW233924   0.792   0.152   8.298 -0.2302  2.6165 -0.6863
 7430SOL     OW33925   3.787   3.411  16.069  0.0353  0.1413 -0.3161
 7430SOL    HW133926   3.765   3.480  16.131  1.7894 -0.5795  1.1258
 7430SOL    HW233927   3.837   3.461  16.005  0.6101 -2.0166 -1.5445
 7431SOL     OW33928   3.173   2.391   1.180  0.0443 -0.0962 -0.8597
 7431SOL    HW133929   3.191   2.437   1.262 -1.1379  0.3839 -0.8665
 7431SOL    HW233930   3.166   2.306   1.222  1.7977 -0.9102 -2.2021
 7432SOL     OW33931   2.872   4.158   7.287  0.3837  0.3372 -0.4450
 7432SOL    HW133932   2.900   4.123   7.203  0.6940 -1.0828  0.2549
 7432SOL    HW233933   2.787   4.114   7.292 -0.3022  1.7811  0.5893
 7433SOL     OW33934   3.000   2.790  11.593 -0.2072 -0.4388 -0.4918
 7433SOL    HW133935   3.062   2.861  11.607  1.5620 -1.5517 -2.5727
 7433SOL    HW233936   2.942   2.832  11.529  0.8630  0.5007 -0.8452
 7434SOL     OW33937   1.052   0.028   5.864 -0.0925 -0.3131 -0.2333
 7434SOL    HW133938   1.135   4.735   5.899  0.1659  1.6711  0.9714
 7434SOL    HW233939   1.019   0.030   5.953  0.5668  2.1292 -0.0590
 7435SOL     OW33940   0.245   3.008   5.332  0.5331 -0.2291 -0.5226
 7435SOL    HW133941   0.293   3.074   5.282 -0.0354 -1.4421 -2.6541
 7435SOL    HW233942   0.320   2.958   5.364 -0.0689 -0.2656  0.8318
 7436SOL     OW33943   0.094   0.431   9.235 -0.0146 -0.0751 -0.2033
 7436SOL    HW133944   0.045   0.348   9.228 -0.8064  0.2674  1.2130
 7436SOL    HW233945   0.160   0.415   9.302  0.2031 -1.0720 -0.6422
 7437SOL     OW33946   0.964   2.007   5.456  0.1286  0.4239  0.0206
 7437SOL    HW133947   0.997   1.925   5.419 -1.1049 -0.4431  0.8534
 7437SOL    HW233948   0.923   1.965   5.532 -0.2678 -1.8761 -1.4711
 7438SOL     OW33949   3.375   0.882   6.421 -0.3075 -0.2846 -0.4851
 7438SOL    HW133950   3.398   0.879   6.513 -0.8533 -0.8962 -0.3686
 7438SOL    HW233951   3.331   0.967   6.417  1.0101  0.4688  1.2053
 7439SOL     OW33952   0.287   0.286   2.638  0.6608 -0.6950 -0.8069
 7439SOL    HW133953   0.236   0.359   2.673  2.1235 -1.0488  2.0269
 7439SOL    HW233954   0.346   0.260   2.708 -0.6797  0.6115  0.8116
 7440SOL     OW33955   0.702   3.207  13.598  0.2954 -0.4107  0.5055
 7440SOL    HW133956   0.770   3.272  13.578  0.5323 -0.7142  0.3406
 7440SOL    HW233957   0.757   3.137  13.632 -2.2300 -2.0385  1.2458
 7441SOL     OW33958   3.808   0.108  10.067 -0.7072 -0.9276 -0.4139
 7441SOL    HW133959   3.765   0.070  10.144  0.1723  1.5943  1.3235
 7441SOL    HW233960   3.888   0.056  10.060 -1.4688 -1.7106 -3.3025
 7442SOL     OW33961   1.208   0.326   8.435  0.1366  0.2864  0.1733
 7442SOL    HW133962   1.282   0.383   8.412  0.8469 -0.8503 -0.3472
 7442SOL    HW233963   1.147   0.398   8.453 -1.2024 -1.0447  0.9283
 7443SOL     OW33964   4.647   3.149   0.227 -0.2343  0.3707  0.4671
 7443SOL    HW133965   4.711   3.083   0.202 -0.6173 -0.0536  0.6099
 7443SOL    HW233966   4.654   3.147   0.323 -1.2974 -0.1530  0.5440
 7444SOL     OW33967   4.349   2.978   3.590  0.5082  0.3835  0.1313
 7444SOL    HW133968   4.323   2.888   3.574 -0.9788  0.8558 -0.1021
 7444SOL    HW233969   4.323   3.017   3.507  1.6613  0.3231 -0.2605
 7445SOL     OW33970   0.860   3.401   0.931 -0.0689  0.5042 -0.2912
 7445SOL    HW133971   0.926   3.470   0.937 -0.2855  0.8383 -1.6732
 7445SOL    HW233972   0.903   3.328   0.885 -0.2879  1.0702 -1.4075
 7446SOL     OW33973   3.075   2.934  15.293  0.0629  0.2931  0.1834
 7446SOL    HW133974   3.070   2.942  15.198  0.2405  0.4010  0.1824
 7446SOL    HW233975   3.158   2.887  15.295 -0.3342 -0.3925  0.3572
 7447SOL     OW33976   0.686   4.635   5.123  0.0763 -0.0246 -0.3960
 7447SOL    HW133977   0.657   4.722   5.095  2.4793  0.8386 -0.1915
 7447SOL    HW233978   0.601   4.607   5.157  0.6721 -1.3446 -0.0242
 7448SOL     OW33979   4.136   4.582   7.957 -0.5218 -0.2215 -0.5260
 7448SOL    HW133980   4.072   4.598   7.888  1.0420  3.0642 -1.2300
 7448SOL    HW233981   4.203   4.647   7.934 -0.7196  0.6590  1.3723
 7449SOL     OW33982   1.207   1.180   3.662  0.2900  0.0638 -0.0815
 7449SOL    HW133983   1.153   1.200   3.738 -0.5303  1.0193 -0.9117
 7449SOL    HW233984   1.177   1.241   3.594  0.0960  0.6497  0.5312
 7450SOL     OW33985   0.039   4.328   1.929  0.1970 -0.0110 -0.2210
 7450SOL    HW133986   0.117   4.277   1.949 -0.1456 -0.6199 -0.4493
 7450SOL    HW233987   4.724   4.299   2.002  0.5043 -2.6324 -1.0401
 7451SOL     OW33988   0.638   0.575   6.082 -0.2788  0.5199 -0.6311
 7451SOL    HW133989   0.721   0.532   6.060 -0.9336 -1.3414  0.5733
 7451SOL    HW233990   0.658   0.669   6.084  1.3604  0.0917  2.5986
 7452SOL     OW33991   1.372   3.247  10.246  0.2889 -0.2019  0.1054
 7452SOL    HW133992   1.321   3.312  10.294  0.3974 -0.3213  0.3787
 7452SOL    HW233993   1.445   3.223  10.302  0.2748  1.5530  0.8742
 7453SOL     OW33994   3.043   2.957   2.598  0.2338  0.1101  0.5293
 7453SOL    HW133995   3.069   2.907   2.675  2.2904  1.2725  0.5917
 7453SOL    HW233996   3.068   3.047   2.617  2.8183 -0.6261  0.6024
 7454SOL     OW33997   2.036   0.987  15.941 -0.0140 -0.1973 -0.3488
 7454SOL    HW133998   1.975   0.955  16.008 -0.6744 -3.2129 -2.4024
 7454SOL    HW233999   1.993   0.958  15.861  0.0822 -0.2369 -0.3853
 7455SOL     OW34000   1.757   3.344   8.794 -0.1375  0.1996 -0.0280
 7455SOL    HW134001   1.814   3.284   8.746 -1.0115 -1.2408  0.7105
 7455SOL    HW234002   1.728   3.282   8.861 -1.4249  1.6829  0.8049
 7456SOL     OW34003   3.149   0.476  10.072 -0.0971 -0.2106 -0.0391
 7456SOL    HW134004   3.151   0.385  10.042 -0.0506 -0.2806  0.1727
 7456SOL    HW234005   3.242   0.486  10.050 -0.1219 -0.0281 -0.0578
 7457SOL     OW34006   2.373   2.419   3.782  0.4453  0.0609 -0.1881
 7457SOL    HW134007   2.457   2.439   3.740 -0.0894  1.7621 -0.4622
 7457SOL    HW234008   2.394   2.374   3.864  0.9017  0.2112 -0.2196
 7458SOL     OW34009   1.804   4.697   9.454 -0.6958 -0.5181 -0.2919
 7458SOL    HW134010   1.803   4.710   9.359  2.5285  1.5740 -0.0538
 7458SOL    HW234011   1.758   4.614   9.464 -0.4737 -0.7095 -0.8278
 7459SOL     OW34012   3.779   4.428  13.854  0.0678 -0.0497 -0.0239
 7459SOL    HW134013   3.706   4.434  13.792  1.4524 -0.2958 -1.6769
 7459SOL    HW234014   3.744   4.492  13.916  0.1181 -1.2117  1.2000
 7460SOL     OW34015   3.174   3.453   8.960 -0.4602  0.1139 -0.0969
 7460SOL    HW134016   3.156   3.533   9.010  2.1180 -0.5038  1.8322
 7460SOL    HW234017   3.253   3.488   8.920  1.0700 -2.4798  0.6762
 7461SOL     OW34018   4.060   3.563   2.326  0.3395  0.4457 -0.4120
 7461SOL    HW134019   4.143   3.564   2.278  2.0931 -1.1778  2.6081
 7461SOL    HW234020   3.999   3.542   2.256 -0.1454  2.1377 -0.4929
 7462SOL     OW34021   3.842   1.492   8.566  0.0266 -0.1281 -0.2125
 7462SOL    HW134022   3.869   1.535   8.484  0.6680  0.1188  0.1268
 7462SOL    HW234023   3.748   1.508   8.569  0.4656  2.5472 -0.2048
 7463SOL     OW34024   3.370   2.543  13.198  0.6946  0.1220 -0.4286
 7463SOL    HW134025   3.362   2.480  13.270 -2.2344 -1.3937 -2.0422
 7463SOL    HW234026   3.351   2.621  13.250  0.6135 -1.3054  1.6863
 7464SOL     OW34027   1.500   2.443   6.238  0.1022 -0.6302 -0.0820
 7464SOL    HW134028   1.501   2.539   6.243  1.1291 -0.6572  0.2402
 7464SOL    HW234029   1.433   2.414   6.300  0.7161 -0.4773  0.6557
 7465SOL     OW34030   3.622   1.804   7.534 -0.2704 -0.5829 -0.1540
 7465SOL    HW134031   3.615   1.890   7.494 -0.2131 -1.1912 -1.4858
 7465SOL    HW234032   3.612   1.823   7.627 -3.8074 -1.6172 -0.3175
 7466SOL     OW34033   4.241   3.041  16.218 -0.0823  0.1863  0.6982
 7466SOL    HW134034   4.150   3.015  16.231  0.2936 -0.8629  1.2216
 7466SOL    HW234035   4.271   3.000  16.136  1.1439 -1.1497  1.7974
 7467SOL     OW34036   1.631   3.393   3.186  0.2011 -0.2589  0.6756
 7467SOL    HW134037   1.623   3.360   3.276 -0.9890 -0.1009  0.6307
 7467SOL    HW234038   1.597   3.317   3.137  1.1731  1.5656 -2.7892
 7468SOL     OW34039   3.479   1.100  10.653 -0.5803  0.0723 -0.2868
 7468SOL    HW134040   3.392   1.134  10.633 -0.0343  2.8306  2.1199
 7468SOL    HW234041   3.443   1.041  10.719  0.7746  0.6189  0.9401
 7469SOL     OW34042   3.932   1.815  12.143 -0.4446  0.1799  0.1726
 7469SOL    HW134043   3.919   1.778  12.056  2.9855  1.7213 -1.0051
 7469SOL    HW234044   4.026   1.830  12.150 -0.7309  2.4397 -0.9923
 7470SOL     OW34045   3.469   2.367   4.689  0.1519 -0.2627  0.1779
 7470SOL    HW134046   3.515   2.448   4.668 -1.5360  0.2105 -1.7315
 7470SOL    HW234047   3.424   2.356   4.605  0.8679 -1.1528 -0.0866
 7471SOL     OW34048   2.290   1.081   3.728 -0.1638  0.3207  0.1726
 7471SOL    HW134049   2.298   1.012   3.793  2.5283  0.6745  0.2047
 7471SOL    HW234050   2.376   1.082   3.687  0.0739  0.3938  0.6873
 7472SOL     OW34051   1.230   2.693   5.048 -0.0840  0.3350  0.1807
 7472SOL    HW134052   1.232   2.604   5.011  2.8588 -0.1559  1.5992
 7472SOL    HW234053   1.240   2.747   4.970 -0.7662  0.9578  0.5278
 7473SOL     OW34054   1.134   3.765   6.554 -0.3298  0.1451  0.5314
 7473SOL    HW134055   1.154   3.721   6.472 -2.2281  2.2858 -1.0500
 7473SOL    HW234056   1.180   3.704   6.612 -0.4045  0.7342  1.2234
 7474SOL     OW34057   0.699   2.958  15.871  0.0971  0.4214 -0.5102
 7474SOL    HW134058   0.645   2.892  15.916  2.2177 -1.7876 -1.1989
 7474SOL    HW234059   0.656   2.963  15.786 -0.3907 -0.2538 -0.3032
 7475SOL     OW34060   3.820   4.285   1.571  0.4424 -0.0774  0.2285
 7475SOL    HW134061   3.881   4.327   1.631  3.0828 -1.0846 -1.7690
 7475SOL    HW234062   3.842   4.334   1.492 -0.5501  0.2220  0.1375
 7476SOL     OW34063   0.365   3.429   0.275 -0.3049 -0.6435  0.4735
 7476SOL    HW134064   0.325   3.513   0.252 -0.2763 -0.9476 -0.6781
 7476SOL    HW234065   0.449   3.456   0.311 -0.9601  0.9950  0.8013
 7477SOL     OW34066   0.417   1.979   3.330 -0.4674  0.1051  0.1112
 7477SOL    HW134067   0.492   1.959   3.385 -0.5746  1.2474  0.6589
 7477SOL    HW234068   0.462   2.027   3.261  1.2028 -1.7752 -0.1106
 7478SOL     OW34069   0.134   2.028   8.721  0.0584  0.4197  0.3044
 7478SOL    HW134070   0.046   2.060   8.738 -0.0741 -0.0368  0.4758
 7478SOL    HW234071   0.162   1.994   8.806 -0.3738  0.5243  0.4858
 7479SOL     OW34072   4.282   3.618  15.702 -0.4659 -0.4467 -0.8039
 7479SOL    HW134073   4.363   3.627  15.653 -1.1428 -1.8982 -2.1856
 7479SOL    HW234074   4.313   3.649  15.787 -2.5786 -1.4566  0.3563
 7480SOL     OW34075   1.732   2.527   2.891  0.0253 -0.1984  0.3747
 7480SOL    HW134076   1.644   2.512   2.856 -0.3187 -1.7452  1.8843
 7480SOL    HW234077   1.781   2.510   2.811 -0.2924  0.9807 -0.0752
 7481SOL     OW34078   1.121   2.830   5.574 -0.5789 -0.1555 -0.5989
 7481SOL    HW134079   1.078   2.905   5.533  0.2651  0.0680 -1.0800
 7481SOL    HW234080   1.113   2.851   5.667  0.4212  1.3032 -0.8403
 7482SOL     OW34081   2.286   4.117   3.636 -0.1686 -0.1210  0.3350
 7482SOL    HW134082   2.239   4.186   3.589  0.9027 -0.2570 -0.9277
 7482SOL    HW234083   2.237   4.122   3.718 -1.6633  2.0605 -0.6811
 7483SOL     OW34084   4.279   2.248  13.711 -0.5442  0.3547 -0.4620
 7483SOL    HW134085   4.331   2.262  13.790  1.4179 -2.3385 -1.2929
 7483SOL    HW234086   4.217   2.320  13.725 -2.2660 -1.2282  0.0522
 7484SOL     OW34087   3.950   3.373   8.153 -0.4055  0.1332  0.3220
 7484SOL    HW134088   4.040   3.369   8.122 -0.7047 -2.9240 -0.1618
 7484SOL    HW234089   3.949   3.299   8.214  1.3789  0.0979  0.2901
 7485SOL     OW34090   0.612   4.262   7.268 -0.4575 -1.0551 -0.5816
 7485SOL    HW134091   0.549   4.272   7.340  2.1328 -0.2658  1.5890
 7485SOL    HW234092   0.676   4.203   7.308  2.2008  1.6983 -0.7169
 7486SOL     OW34093   1.818   2.251   7.147 -0.0713  0.4914  0.0206
 7486SOL    HW134094   1.801   2.161   7.174 -0.4146  0.3816 -0.5433
 7486SOL    HW234095   1.851   2.296   7.224 -0.4542  1.8645 -0.6231
 7487SOL     OW34096   3.629   2.879   7.495 -0.7329 -0.0595  0.2266
 7487SOL    HW134097   3.539   2.845   7.491 -0.1610 -1.6777  1.1184
 7487SOL    HW234098   3.620   2.967   7.532 -0.5799  0.2738 -0.5247
 7488SOL     OW34099   2.171   0.854   3.008  0.2074  0.2342  0.3048
 7488SOL    HW134100   2.155   0.765   2.976 -0.3825  0.3862  0.1670
 7488SOL    HW234101   2.114   0.908   2.953 -0.6760  1.1857  2.1752
 7489SOL     OW34102   1.737   1.707  10.300 -0.0774  0.1407 -0.5827
 7489SOL    HW134103   1.818   1.694  10.348 -2.3071  1.3366  3.5311
 7489SOL    HW234104   1.673   1.662  10.356  3.1262  1.3563  4.0067
 7490SOL     OW34105   1.877   0.943   6.339  0.2045 -0.1016 -0.1011
 7490SOL    HW134106   1.825   0.863   6.336 -2.8200  1.7446  3.3225
 7490SOL    HW234107   1.810   1.005   6.368 -1.8366 -2.1385 -0.4679
 7491SOL     OW34108   1.389   1.511  10.908  0.2286 -0.2925 -0.4133
 7491SOL    HW134109   1.393   1.594  10.955  0.5145  0.2633 -1.4274
 7491SOL    HW234110   1.338   1.543  10.834  0.8447  0.5007 -0.4917
 7492SOL     OW34111   2.385   4.321   7.659  0.3047  0.2069  0.5010
 7492SOL    HW134112   2.477   4.345   7.673  0.1822  0.1551  1.3978
 7492SOL    HW234113   2.383   4.237   7.704  1.6437 -0.5655 -0.8596
 7493SOL     OW34114   2.268   1.798   4.608  0.4844 -0.2042 -0.1066
 7493SOL    HW134115   2.284   1.892   4.612 -2.0213  0.2632 -0.7142
 7493SOL    HW234116   2.309   1.781   4.693  2.4908 -1.7844 -1.3865
 7494SOL     OW34117   4.345   3.774   3.840 -0.1117  0.5525  0.2037
 7494SOL    HW134118   4.338   3.842   3.907  0.0713  1.1464 -0.3843
 7494SOL    HW234119   4.441   3.766   3.841 -0.0946  1.1610  2.4465
 7495SOL     OW34120   4.154   0.011   4.043 -0.0326  0.2894  0.1452
 7495SOL    HW134121   4.191   4.662   4.049  0.4330  0.4204 -0.9516
 7495SOL    HW234122   4.227   0.060   4.005 -0.2784 -0.1456 -0.8822
 7496SOL     OW34123   4.080   2.881   6.605  0.2289  0.0948  0.4243
 7496SOL    HW134124   4.117   2.821   6.540 -0.3545  1.6463 -1.3501
 7496SOL    HW234125   3.986   2.867   6.595 -0.0224 -0.4231  3.3733
 7497SOL     OW34126   2.248   2.331   9.133 -0.3769 -0.7384 -0.0296
 7497SOL    HW134127   2.262   2.261   9.070  0.5543  1.5548 -2.3732
 7497SOL    HW234128   2.295   2.406   9.097 -1.6801  1.0683  2.0442
 7498SOL     OW34129   2.123   4.168  15.631  0.8055 -0.0494  0.2059
 7498SOL    HW134130   2.175   4.096  15.668 -1.5399 -1.6436  0.3747
 7498SOL    HW234131   2.194   4.199  15.575 -0.3162 -0.2712 -1.3271
 7499SOL     OW34132   0.959   2.816   4.851  0.1073 -0.2734  0.0647
 7499SOL    HW134133   0.902   2.842   4.778  1.4093 -0.0555 -0.8900
 7499SOL    HW234134   1.008   2.745   4.809 -0.0012  0.5833 -1.5054
 7500SOL     OW34135   4.674   0.969   3.858  0.3305  0.1659  0.1962
 7500SOL    HW134136   4.590   0.925   3.866  0.5431 -0.0232  1.3892
 7500SOL    HW234137   4.634   1.054   3.878 -2.3801 -1.5691  2.1405
 7501SOL     OW34138   3.071   3.084   3.190 -0.0843  0.0926  0.4172
 7501SOL    HW134139   3.018   3.005   3.185 -1.8898  1.2383  1.2477
 7501SOL    HW234140   3.012   3.157   3.211 -1.0534 -1.3685  2.8764
 7502SOL     OW34141   2.006   1.898  12.034  0.1159  0.3748  0.2746
 7502SOL    HW134142   1.988   1.953  11.958  0.5089 -0.3700 -0.3588
 7502SOL    HW234143   2.029   1.960  12.102  0.7210  1.2480 -0.7252
 7503SOL     OW34144   1.799   0.949   9.268  0.1354  0.3647 -0.0304
 7503SOL    HW134145   1.811   0.885   9.339  2.5292  0.3255 -0.4743
 7503SOL    HW234146   1.827   1.032   9.308  0.1369 -0.0639  0.8543
 7504SOL     OW34147   1.915   1.236   9.878  0.3649 -0.7568  0.7417
 7504SOL    HW134148   1.841   1.186   9.843  1.1106  0.4386 -2.5406
 7504SOL    HW234149   1.892   1.327   9.860 -0.1865 -1.0334  0.0678
 7505SOL     OW34150   2.478   2.012   7.174  0.4596  0.0453  0.4528
 7505SOL    HW134151   2.491   2.061   7.093 -0.6801 -0.5426 -0.0846
 7505SOL    HW234152   2.551   2.048   7.226  1.0311  0.3942 -0.5937
 7506SOL     OW34153   2.180   1.311  10.861  0.3055  0.2571 -0.4640
 7506SOL    HW134154   2.112   1.372  10.836 -0.1422 -0.8391 -1.9242
 7506SOL    HW234155   2.210   1.283  10.774 -0.6520 -0.9990 -0.3879
 7507SOL     OW34156   2.334   4.088   5.714  0.0907 -0.6702 -0.2056
 7507SOL    HW134157   2.417   4.071   5.670 -1.0883 -1.1590 -2.2193
 7507SOL    HW234158   2.332   4.002   5.758  0.6658 -1.7257 -2.2389
 7508SOL     OW34159   0.784   0.028  11.904 -0.1603 -0.2906 -0.0081
 7508SOL    HW134160   0.861   4.730  11.947 -0.2391 -0.5712 -0.1072
 7508SOL    HW234161   0.762   0.104  11.957  0.0960 -1.8884  2.3822
 7509SOL     OW34162   4.293   0.840  13.953 -0.5363 -0.0256  0.2479
 7509SOL    HW134163   4.387   0.820  13.945 -0.3817  0.1926  1.5798
 7509SOL    HW234164   4.270   0.785  14.027 -0.0270  2.4970  2.2729
 7510SOL     OW34165   3.265   2.120   1.212 -0.0360 -0.1700 -0.3187
 7510SOL    HW134166   3.352   2.088   1.188  0.6100  0.7610  0.8290
 7510SOL    HW234167   3.263   2.094   1.304 -0.5104 -1.3478 -0.6613
 7511SOL     OW34168   1.016   1.259   1.841  0.4472  0.5283  0.3924
 7511SOL    HW134169   1.074   1.183   1.846 -1.6879 -1.2829 -2.5191
 7511SOL    HW234170   1.066   1.326   1.795 -0.4289  1.9515  1.5179
 7512SOL     OW34171   4.718   3.252   2.968 -0.2263 -0.4099 -0.0506
 7512SOL    HW134172   4.647   3.228   2.908  0.5990  0.1802 -1.2641
 7512SOL    HW234173   0.052   3.240   2.907  1.2858  0.7893  1.5295
 7513SOL     OW34174   0.159   2.596   8.228 -0.5668 -0.3627 -0.3946
 7513SOL    HW134175   0.183   2.504   8.223 -0.5416 -0.3993  0.4150
 7513SOL    HW234176   0.112   2.604   8.310 -1.8868 -0.5046 -1.1356
 7514SOL     OW34177   0.134   2.192   3.004  0.1518  1.1718  0.3347
 7514SOL    HW134178   0.051   2.229   3.034 -0.0072  2.2215 -1.3734
 7514SOL    HW234179   0.173   2.253   2.942 -0.2278 -0.0133 -1.0671
 7515SOL     OW34180   1.598   3.430   3.849 -0.1267  0.5271  0.0993
 7515SOL    HW134181   1.550   3.403   3.928  1.2547 -2.0894  0.0589
 7515SOL    HW234182   1.552   3.513   3.835  0.6509  1.0520  0.6737
 7516SOL     OW34183   3.705   4.734  10.287  0.6214 -0.2804 -0.0295
 7516SOL    HW134184   3.683   0.040  10.368 -0.2726 -1.2009  0.2502
 7516SOL    HW234185   3.623   4.735  10.239 -0.9488  1.6151  2.6685
 7517SOL     OW34186   2.664   3.263   8.650  0.8208  0.3854 -0.3762
 7517SOL    HW134187   2.688   3.199   8.583  0.5330 -0.3884  0.2554
 7517SOL    HW234188   2.575   3.234   8.671  1.1028 -0.6843 -0.6839
 7518SOL     OW34189   4.235   1.068   2.667  0.1978  0.0607  0.3824
 7518SOL    HW134190   4.298   1.099   2.733 -0.8797  0.1055  1.3908
 7518SOL    HW234191   4.198   0.998   2.721  1.7458 -0.8461  0.2617
 7519SOL     OW34192   2.567   1.377   9.062  0.4889  0.1846 -0.7550
 7519SOL    HW134193   2.488   1.353   9.014 -1.8348  3.3955  1.4685
 7519SOL    HW234194   2.524   1.416   9.138  0.4354 -1.1704 -0.0881
 7520SOL     OW34195   4.018   3.828  16.826 -0.2119  0.4650 -0.0762
 7520SOL    HW134196   4.056   3.882  16.896 -0.7766  0.6740  0.0654
 7520SOL    HW234197   4.068   3.868  16.755  1.5402 -1.3188  0.1425
 7521SOL     OW34198   1.833   0.908   6.834 -0.6536 -0.0816 -0.0768
 7521SOL    HW134199   1.928   0.899   6.829 -0.4743  1.5904  0.4072
 7521SOL    HW234200   1.809   0.982   6.890  0.6423 -0.5976  1.1545
 7522SOL     OW34201   3.319   1.879  13.627 -0.0665 -0.4957  0.4837
 7522SOL    HW134202   3.378   1.844  13.694 -1.1097 -0.9056  1.1931
 7522SOL    HW234203   3.363   1.843  13.550 -0.0551  1.8077 -0.5552
 7523SOL     OW34204   0.671   3.112   1.014  0.1792  0.4457  0.2609
 7523SOL    HW134205   0.606   3.088   0.947  0.3080 -1.2563  0.7288
 7523SOL    HW234206   0.744   3.057   0.984  0.0723  2.3914 -3.4647
 7524SOL     OW34207   3.269   2.991   8.188 -0.1361  0.5780  0.6177
 7524SOL    HW134208   3.323   2.928   8.236 -0.0693  0.7329  0.7469
 7524SOL    HW234209   3.321   2.995   8.108 -1.4190 -2.0025 -0.3271
 7525SOL     OW34210   0.550   4.184   5.142  0.1230  0.2691  0.0865
 7525SOL    HW134211   0.562   4.218   5.054  1.9260 -0.3784  0.0744
 7525SOL    HW234212   0.614   4.112   5.142 -0.7781 -0.5333  0.7000
 7526SOL     OW34213   2.010   1.996   6.883 -0.4827  0.5123 -0.3516
 7526SOL    HW134214   1.929   2.042   6.859 -2.3634 -0.9775  3.0118
 7526SOL    HW234215   2.072   2.036   6.823 -0.6964  0.7380 -0.4221
 7527SOL     OW34216   3.543   1.743   0.676 -0.2386  0.3253 -0.4075
 7527SOL    HW134217   3.598   1.796   0.734 -0.0750 -2.0580  1.5905
 7527SOL    HW234218   3.605   1.720   0.607  1.0653 -0.3451  1.0026
 7528SOL     OW34219   0.779   3.035   4.586  0.0517 -0.4371 -0.3733
 7528SOL    HW134220   0.792   3.098   4.515  1.9293  0.9694  1.2012
 7528SOL    HW234221   0.846   3.058   4.651 -0.3401 -0.5646  0.0736
 7529SOL     OW34222   2.995   2.283  14.927 -0.0385 -0.2274  0.1499
 7529SOL    HW134223   3.045   2.360  14.953  1.5552 -1.5879  1.0611
 7529SOL    HW234224   2.975   2.301  14.835  1.1375  1.0569  0.1512
 7530SOL     OW34225   1.531   4.410   2.119  0.3044 -0.0314  0.0077
 7530SOL    HW134226   1.554   4.475   2.053 -2.8843 -1.1912 -2.2664
 7530SOL    HW234227   1.594   4.339   2.105  2.1878  1.5408  0.4856
 7531SOL     OW34228   2.627   4.071   0.552 -0.3744 -0.1274 -0.2900
 7531SOL    HW134229   2.690   4.000   0.565  1.1940  1.4878  0.9640
 7531SOL    HW234230   2.599   4.095   0.640 -4.1507  0.8056 -1.7629
 7532SOL     OW34231   3.160   0.893   8.368  0.1201 -0.1626  0.5233
 7532SOL    HW134232   3.219   0.856   8.433 -1.5069 -2.4860  0.6709
 7532SOL    HW234233   3.144   0.977   8.411 -0.9898 -0.0341 -0.1277
 7533SOL     OW34234   3.109   0.794   8.824  0.1294  0.2213 -0.5255
 7533SOL    HW134235   3.195   0.759   8.800 -0.3894  0.0032 -2.1341
 7533SOL    HW234236   3.115   0.812   8.917 -0.9903 -0.2580 -0.3574
 7534SOL     OW34237   2.615   0.833   1.251  0.2616 -0.0278 -0.4991
 7534SOL    HW134238   2.670   0.881   1.312  0.7751  0.6117 -1.4523
 7534SOL    HW234239   2.561   0.909   1.230  1.2463  1.3022  1.7902
 7535SOL     OW34240   0.748   4.583   0.567 -0.1769 -0.4114  0.4268
 7535SOL    HW134241   0.676   4.545   0.517 -1.4662  0.7535  1.3914
 7535SOL    HW234242   0.738   4.675   0.541 -1.4009 -0.1550  1.7551
 7536SOL     OW34243   1.546   1.847   7.763  0.9861 -0.2395  0.2099
 7536SOL    HW134244   1.527   1.940   7.775 -0.9927 -0.2597 -2.5348
 7536SOL    HW234245   1.519   1.830   7.672  2.2456 -1.0570 -0.0118
 7537SOL     OW34246   0.836   1.849   7.603  0.6066  0.0267  0.4842
 7537SOL    HW134247   0.862   1.838   7.694 -0.8071 -3.7007  0.4359
 7537SOL    HW234248   0.773   1.776   7.600  4.0557 -2.9573  1.0196
 7538SOL     OW34249   2.222   0.858  11.222  0.2175 -0.3162  0.2927
 7538SOL    HW134250   2.252   0.910  11.296 -1.7621  1.6420 -0.2718
 7538SOL    HW234251   2.247   0.912  11.147  1.0857 -0.4186  0.5126
 7539SOL     OW34252   0.624   3.726  10.315  0.2078  0.0061 -0.6416
 7539SOL    HW134253   0.645   3.729  10.221 -1.2167 -1.1573 -1.0065
 7539SOL    HW234254   0.676   3.653  10.348  0.0926  1.0654  1.8676
 7540SOL     OW34255   4.262   3.989   7.535 -0.0243 -0.0210  0.7489
 7540SOL    HW134256   4.210   4.013   7.458 -0.2412 -0.6498  0.6962
 7540SOL    HW234257   4.281   3.896   7.528  1.1742  0.4115 -1.5218
 7541SOL     OW34258   2.822   3.949  13.350 -0.2919  0.1273 -0.7448
 7541SOL    HW134259   2.868   3.972  13.269 -0.4867  0.3768 -0.7819
 7541SOL    HW234260   2.755   4.015  13.366 -0.7350 -1.2511  3.0914
 7542SOL     OW34261   4.342   2.121   8.868 -0.5920 -0.1683 -0.4205
 7542SOL    HW134262   4.290   2.062   8.923 -0.2628  0.6206  0.7527
 7542SOL    HW234263   4.289   2.201   8.861 -0.9702 -0.4419 -0.6416
 7543SOL     OW34264   1.612   0.342   6.620 -0.6050  0.0288  0.1642
 7543SOL    HW134265   1.699   0.327   6.583 -0.4021 -2.2620  1.5999
 7543SOL    HW234266   1.569   0.365   6.537  0.1413  2.0047  0.3172
 7544SOL     OW34267   0.719   2.544   2.045  0.2891 -0.5675  0.1559
 7544SOL    HW134268   0.698   2.462   2.090  1.1080 -1.3469 -0.8823
 7544SOL    HW234269   0.810   2.523   2.025 -0.2398 -1.6246 -1.1474
 7545SOL     OW34270   0.750   4.595   8.363 -0.0116 -0.1466 -0.4461
 7545SOL    HW134271   0.686   4.525   8.358 -1.0785  0.6364  2.1050
 7545SOL    HW234272   0.817   4.576   8.297  0.4889 -0.8419  0.2614
 7546SOL     OW34273   2.676   4.537   2.543  0.1040 -0.2623  0.0743
 7546SOL    HW134274   2.710   4.591   2.473 -1.1136 -0.7822 -0.9214
 7546SOL    HW234275   2.749   4.559   2.601  0.2997  0.7599 -0.5750
 7547SOL     OW34276   0.352   1.276  13.441  0.7402 -0.3423 -0.2485
 7547SOL    HW134277   0.393   1.363  13.433 -0.8571  0.4812  0.4926
 7547SOL    HW234278   0.301   1.283  13.522 -1.0766 -0.0405 -1.4357
 7548SOL     OW34279   1.002   4.126  11.784  0.2435 -0.0937  0.0016
 7548SOL    HW134280   1.068   4.099  11.721  0.1113  1.7240 -0.9206
 7548SOL    HW234281   0.931   4.152  11.725 -0.5498  0.4908  1.2260
 7549SOL     OW34282   3.460   1.215   5.789  0.1506  0.1794  0.8454
 7549SOL    HW134283   3.399   1.209   5.715 -0.1842 -0.3128  1.1609
 7549SOL    HW234284   3.491   1.303   5.771 -0.0074  0.3482  1.4077
 7550SOL     OW34285   2.084   2.690   6.206 -0.3603 -0.5876  0.3476
 7550SOL    HW134286   2.150   2.675   6.138  0.6520  2.2101  0.7454
 7550SOL    HW234287   2.005   2.709   6.157  0.7123  1.0571 -0.7310
 7551SOL     OW34288   1.769   1.074   7.033 -0.2105  0.1293  0.3252
 7551SOL    HW134289   1.819   1.057   7.113  1.8128 -0.5645 -1.1102
 7551SOL    HW234290   1.793   1.166   7.025 -0.7707  0.5350  3.3689
 7552SOL     OW34291   2.369   4.099  14.952  0.3298  0.1655  0.7022
 7552SOL    HW134292   2.427   4.090  14.876  0.1013  0.7590  0.4545
 7552SOL    HW234293   2.307   4.028  14.931  0.2679 -0.2217  2.2024
 7553SOL     OW34294   1.862   4.597   9.146 -0.1000 -0.2141 -0.2009
 7553SOL    HW134295   1.797   4.532   9.171  0.8135 -1.4224 -0.9628
 7553SOL    HW234296   1.866   4.573   9.054  0.3548 -1.2536  0.0939
 7554SOL     OW34297   3.831   2.180   3.225 -0.3681 -0.7422 -0.0437
 7554SOL    HW134298   3.780   2.191   3.305 -2.1605  1.0603 -1.4562
 7554SOL    HW234299   3.811   2.268   3.195 -1.8686 -0.9586  0.3324
 7555SOL     OW34300   3.871   2.607   9.947 -0.0072 -0.1853  0.2607
 7555SOL    HW134301   3.903   2.525   9.983 -0.1495 -0.6547 -0.6580
 7555SOL    HW234302   3.786   2.574   9.915 -0.0281 -0.7714  0.9389
 7556SOL     OW34303   3.532   3.421   7.438  0.0103  0.1015 -0.0436
 7556SOL    HW134304   3.499   3.463   7.359  0.3876  1.7935  0.7054
 7556SOL    HW234305   3.569   3.494   7.487 -1.9336 -0.2184  1.9202
 7557SOL     OW34306   0.253   3.844   6.926 -0.0216 -0.1147  0.4897
 7557SOL    HW134307   0.347   3.847   6.947  0.4006 -1.4891 -1.1699
 7557SOL    HW234308   0.217   3.882   7.006 -0.3410  1.0050 -0.1946
 7558SOL     OW34309   0.554   3.150   7.670 -0.0314 -0.2683 -0.1633
 7558SOL    HW134310   0.484   3.124   7.610 -0.9460  3.7096 -0.8074
 7558SOL    HW234311   0.610   3.187   7.603 -0.9841  1.3765 -0.0606
 7559SOL     OW34312   0.889   1.393  14.216  0.1315  0.2773 -0.2100
 7559SOL    HW134313   0.870   1.371  14.124 -1.3815  0.1653  0.1289
 7559SOL    HW234314   0.898   1.488  14.214  1.3027  0.1843  0.8540
 7560SOL     OW34315   2.160   2.543  17.737  0.1444 -0.1537  0.0205
 7560SOL    HW134316   2.124   2.565   0.068 -1.6853 -2.1033 -0.2557
 7560SOL    HW234317   2.106   2.585  17.670  0.5885  0.8078  0.2546
 7561SOL     OW34318   2.551   0.770  11.995 -0.1172 -0.4707  0.4727
 7561SOL    HW134319   2.522   0.807  11.911  0.8842  2.6058  1.4948
 7561SOL    HW234320   2.487   0.792  12.062 -0.2020  1.5610 -0.2696
 7562SOL     OW34321   3.578   3.330  13.168 -0.3100  0.5356 -0.3852
 7562SOL    HW134322   3.536   3.397  13.115 -0.3313  1.5688  0.9464
 7562SOL    HW234323   3.552   3.373  13.250 -1.5375  1.4116 -1.2418
 7563SOL     OW34324   1.136   0.827   9.624  0.0752 -0.7368 -0.4363
 7563SOL    HW134325   1.197   0.794   9.559 -1.0745 -0.1095 -1.8255
 7563SOL    HW234326   1.070   0.762   9.601  1.7281 -1.9563 -1.7485
 7564SOL     OW34327   2.741   0.560   5.835  0.2073 -0.0033 -0.5223
 7564SOL    HW134328   2.717   0.645   5.796  0.1757  1.1543  1.9827
 7564SOL    HW234329   2.829   0.585   5.861  0.1157  0.3734 -0.5697
 7565SOL     OW34330   2.502   3.798   0.367  0.8429  0.0234 -0.1125
 7565SOL    HW134331   2.582   3.849   0.375  1.0165 -0.4241  1.0326
 7565SOL    HW234332   2.446   3.847   0.426 -1.3305 -1.6029 -0.8052
 7566SOL     OW34333   2.043   3.232   7.441 -0.8367  0.8251  0.4551
 7566SOL    HW134334   2.035   3.327   7.429  1.0724  0.8156 -0.7741
 7566SOL    HW234335   1.977   3.200   7.379 -0.0347 -1.8662  0.9963
 7567SOL     OW34336   3.711   3.111   1.147  0.3276  0.1848  0.2620
 7567SOL    HW134337   3.735   3.020   1.128  2.2441  0.8528 -0.4411
 7567SOL    HW234338   3.661   3.131   1.068  1.9475  0.4943 -0.6807
 7568SOL     OW34339   2.423   2.866   3.177  0.5646  0.0390  0.2235
 7568SOL    HW134340   2.338   2.822   3.168  0.3948  0.0260  1.8400
 7568SOL    HW234341   2.396   2.957   3.190 -0.7276 -0.5394  1.5744
 7569SOL     OW34342   1.992   4.487   6.240  0.2624  0.6348 -0.2931
 7569SOL    HW134343   2.087   4.494   6.230  0.3814 -0.8417 -0.1181
 7569SOL    HW234344   1.964   4.577   6.222 -0.9758 -0.3840 -3.3203
 7570SOL     OW34345   4.141   2.043  12.947 -0.4657 -0.3813  0.4524
 7570SOL    HW134346   4.217   2.008  12.995 -0.6486  0.5814  1.4493
 7570SOL    HW234347   4.067   2.030  13.006 -0.0180 -3.0408  0.4610
 7571SOL     OW34348   3.371   3.342   3.757  0.0924 -0.3916 -0.2668
 7571SOL    HW134349   3.384   3.343   3.663 -0.1962 -0.0914 -0.3036
 7571SOL    HW234350   3.344   3.251   3.771  0.3139 -0.3183  0.6484
 7572SOL     OW34351   1.860   1.944   6.267 -0.5868 -0.0549 -0.0238
 7572SOL    HW134352   1.940   1.982   6.305 -0.7049  0.7849 -0.6200
 7572SOL    HW234353   1.809   1.913   6.342  0.9005  1.5888  1.6684
 7573SOL     OW34354   3.712   2.492   5.168 -0.4124  0.3922 -0.1699
 7573SOL    HW134355   3.687   2.559   5.105  1.3605  1.3188  0.1125
 7573SOL    HW234356   3.626   2.473   5.205 -0.8615 -1.1714 -1.9707
 7574SOL     OW34357   0.961   3.191   7.742 -0.3009 -0.4447  0.5409
 7574SOL    HW134358   0.991   3.281   7.755  0.0098 -0.4759  0.0256
 7574SOL    HW234359   0.881   3.199   7.793  0.5798 -0.0029  1.8586
 7575SOL     OW34360   0.153   1.929   3.289 -0.3510 -0.4038 -0.2300
 7575SOL    HW134361   0.118   2.010   3.325 -0.6490  0.3125 -2.1443
 7575SOL    HW234362   0.242   1.945   3.318 -0.1394  0.5388 -1.4313
 7576SOL     OW34363   1.535   0.286  10.715  0.1594 -0.0587  0.2472
 7576SOL    HW134364   1.489   0.234  10.781  0.0294  0.6771  0.7359
 7576SOL    HW234365   1.613   0.231  10.720 -1.7637 -2.8620 -0.0903
 7577SOL     OW34366   2.017   3.509   9.247  0.3527 -0.3640 -0.8000
 7577SOL    HW134367   1.939   3.454   9.248 -0.4099  0.7660  1.0020
 7577SOL    HW234368   1.978   3.591   9.218  0.2904  1.2464  3.9037
 7578SOL     OW34369   3.692   0.737   5.313  0.7718 -0.3982 -0.7206
 7578SOL    HW134370   3.630   0.792   5.265 -0.4723  2.2863  3.9578
 7578SOL    HW234371   3.620   0.683   5.347  1.1458  0.0588  0.7778
 7579SOL     OW34372   3.850   0.394   9.151  0.1501  0.1363 -0.3178
 7579SOL    HW134373   3.886   0.445   9.224  1.5461  0.1057 -0.9939
 7579SOL    HW234374   3.756   0.410   9.165  0.0249  0.1625 -1.2414
 7580SOL     OW34375   0.820   1.046  12.470 -0.2097  0.5191  0.3433
 7580SOL    HW134376   0.888   0.985  12.499 -0.8211 -1.9699 -3.4655
 7580SOL    HW234377   0.873   1.116  12.433  1.3397 -0.9422 -0.1977
 7581SOL     OW34378   2.234   1.721   2.538  0.5860 -0.1832 -0.3313
 7581SOL    HW134379   2.265   1.793   2.483 -0.9446  1.4952  0.9853
 7581SOL    HW234380   2.142   1.739   2.556  0.4187 -1.1665 -0.2454
 7582SOL     OW34381   0.686   3.056   6.838 -0.2573  0.0059 -0.3406
 7582SOL    HW134382   0.714   2.965   6.836  0.9729  0.3710  0.4612
 7582SOL    HW234383   0.593   3.033   6.844  0.0036 -1.4021 -1.6280
 7583SOL     OW34384   3.117   2.184   0.286 -0.2553  0.8419 -0.1359
 7583SOL    HW134385   3.099   2.251   0.220  0.6162  1.6455  0.4431
 7583SOL    HW234386   3.206   2.207   0.312 -1.1009  2.3361  1.4856
 7584SOL     OW34387   3.750   2.272   3.495  0.8161 -0.6174 -0.2777
 7584SOL    HW134388   3.660   2.289   3.520  1.3572  1.4980  0.1956
 7584SOL    HW234389   3.788   2.360   3.501 -0.6044 -0.0318  0.0567
 7585SOL     OW34390   2.250   3.820   0.505  0.3771 -0.0465  0.4632
 7585SOL    HW134391   2.213   3.809   0.417 -0.4121  1.1319  0.6411
 7585SOL    HW234392   2.227   3.732   0.536 -3.3656  0.4194 -1.0030
 7586SOL     OW34393   2.928   3.607  11.240  0.4519 -0.4521 -0.1753
 7586SOL    HW134394   2.897   3.524  11.275 -2.3827  0.4698 -0.4706
 7586SOL    HW234395   3.021   3.587  11.249  0.6686  1.8169  2.7580
 7587SOL     OW34396   0.664   1.805  10.079  0.1766  0.3047 -0.5496
 7587SOL    HW134397   0.673   1.710  10.089  2.2395  0.4546 -0.8341
 7587SOL    HW234398   0.635   1.820   9.989  0.3192  1.0941 -0.4592
 7588SOL     OW34399   4.405   4.268   8.505 -0.1444 -0.0806  0.4452
 7588SOL    HW134400   4.326   4.321   8.499  0.5614  1.0624  1.1845
 7588SOL    HW234401   4.396   4.193   8.447 -0.8204 -0.0403  0.5050
 7589SOL     OW34402   4.037   2.397   8.687 -0.2946  0.9417  0.1740
 7589SOL    HW134403   4.103   2.390   8.756 -1.1837 -0.7655  0.8325
 7589SOL    HW234404   4.005   2.485   8.710 -1.3742  0.7186 -0.5182
 7590SOL     OW34405   0.099   2.799   4.208  0.0195 -0.8056 -0.2958
 7590SOL    HW134406   0.153   2.860   4.158 -0.5474  0.4630  0.6230
 7590SOL    HW234407   0.157   2.725   4.226  1.7727  0.7026  0.2640
 7591SOL     OW34408   1.598   1.318  17.172  0.2558 -0.2742  0.5929
 7591SOL    HW134409   1.506   1.343  17.178  0.2509  0.3031 -2.1085
 7591SOL    HW234410   1.589   1.222  17.173 -0.1510 -0.2798 -2.4940
 7592SOL     OW34411   4.059   1.714   9.171  0.3621 -0.2920 -0.1053
 7592SOL    HW134412   4.016   1.772   9.233  4.1513  3.4099 -0.9198
 7592SOL    HW234413   3.979   1.680   9.132  1.9224 -1.0602 -2.6501
 7593SOL     OW34414   0.440   1.117   2.398  0.7530 -0.3328  0.5208
 7593SOL    HW134415   0.427   1.105   2.492 -0.3002 -0.2209  0.3929
 7593SOL    HW234416   0.402   1.203   2.380 -1.2420 -1.3292  0.0385
 7594SOL     OW34417   0.436   1.347   3.842 -0.3976  0.8393  0.5972
 7594SOL    HW134418   0.507   1.391   3.890  1.0982  0.4907 -1.2810
 7594SOL    HW234419   0.467   1.364   3.753 -0.2097  2.3422  0.9528
 7595SOL     OW34420   4.699   0.135   2.398  0.3796 -0.7188 -0.0715
 7595SOL    HW134421   0.025   0.200   2.372 -0.1071 -0.2818 -0.1841
 7595SOL    HW234422   4.681   0.163   2.488 -0.2887  0.4355 -0.5584
 7596SOL     OW34423   2.241   3.647   1.518  0.2196 -0.4306 -0.3173
 7596SOL    HW134424   2.317   3.702   1.538  0.0034 -1.2067  2.7334
 7596SOL    HW234425   2.239   3.612   1.608  0.6623 -1.2127 -0.6096
 7597SOL     OW34426   3.919   3.119   9.700 -0.6537 -0.1145  0.1045
 7597SOL    HW134427   3.851   3.127   9.768  0.7044 -0.2219  1.4786
 7597SOL    HW234428   3.994   3.163   9.741  0.7963 -1.3368 -1.2258
 7598SOL     OW34429   4.302   2.030   9.285  0.1661 -0.2529  0.0454
 7598SOL    HW134430   4.308   2.095   9.355 -0.7010 -0.3234  0.1881
 7598SOL    HW234431   4.362   2.061   9.218  1.1529  1.4797  1.7325
 7599SOL     OW34432   2.192   1.530   1.933  0.0889  0.1027  0.5150
 7599SOL    HW134433   2.261   1.577   1.979 -1.3731 -0.0050  2.7857
 7599SOL    HW234434   2.189   1.575   1.848  0.3798  2.4865  1.7848
 7600SOL     OW34435   4.524   3.561   8.224  0.0666  0.1397  0.6271
 7600SOL    HW134436   4.546   3.645   8.265 -0.0759 -0.0452  1.0761
 7600SOL    HW234437   4.475   3.516   8.293 -0.7100  0.6480  0.4152
 7601SOL     OW34438   4.529   2.366   2.168  0.0700  0.0555  0.1711
 7601SOL    HW134439   4.466   2.323   2.226  1.9734 -2.1458  0.6019
 7601SOL    HW234440   4.501   2.457   2.165 -0.2587 -0.0821 -1.0920
 7602SOL     OW34441   1.693   4.074   1.554 -0.2752 -0.2786 -0.2982
 7602SOL    HW134442   1.666   4.166   1.545  0.8267  0.2709  1.9220
 7602SOL    HW234443   1.643   4.035   1.482 -1.3809 -0.8109  0.7583
 7603SOL     OW34444   0.817   1.526  16.939  0.1314 -0.0452  0.3394
 7603SOL    HW134445   0.808   1.434  16.917 -0.4384  0.0671  0.0890
 7603SOL    HW234446   0.816   1.567  16.852 -0.8846 -0.5530  0.1034
 7604SOL     OW34447   0.411   3.444   8.523  0.1669  0.6687 -0.1184
 7604SOL    HW134448   0.424   3.497   8.602 -2.6215  1.1362  0.0079
 7604SOL    HW234449   0.319   3.419   8.524  0.8457 -1.7183  0.3230
 7605SOL     OW34450   0.340   3.478   4.622 -0.5031  0.3903  0.5016
 7605SOL    HW134451   0.254   3.437   4.610 -0.6203  0.5190  0.9066
 7605SOL    HW234452   0.331   3.560   4.574 -0.1777  0.7373  1.0335
 7606SOL     OW34453   2.030   3.908  16.148 -0.2355  0.0213 -0.0003
 7606SOL    HW134454   2.027   3.817  16.177  3.0487  0.7450  2.6175
 7606SOL    HW234455   1.941   3.925  16.117 -0.4764 -0.6802  0.3346
 7607SOL     OW34456   0.369   2.534   4.881  0.2918  0.0520  0.2487
 7607SOL    HW134457   0.279   2.504   4.870  0.2947  0.6718 -1.4873
 7607SOL    HW234458   0.364   2.606   4.818 -2.1594  1.0249  1.5246
 7608SOL     OW34459   2.218   1.594  10.125 -0.1070  0.2362  0.4689
 7608SOL    HW134460   2.209   1.540  10.203 -1.0890 -1.4131 -0.7706
 7608SOL    HW234461   2.126   1.623  10.126 -0.6257 -1.3809 -0.4808
 7609SOL     OW34462   2.692   1.106   2.027  0.4494  0.3398  0.3163
 7609SOL    HW134463   2.616   1.050   2.040  0.8609  0.0643  1.5069
 7609SOL    HW234464   2.717   1.086   1.936 -0.4386 -2.8216  0.7557
 7610SOL     OW34465   3.226   4.736  12.306  0.5635  0.2965 -0.1428
 7610SOL    HW134466   3.239   4.737  12.401  0.3772  1.1954 -0.1307
 7610SOL    HW234467   3.315   0.019  12.280  1.3862 -2.3954  0.3687
 7611SOL     OW34468   2.995   1.604  14.098  0.6118  0.4933  0.1379
 7611SOL    HW134469   3.061   1.570  14.159 -0.4519 -2.2647 -0.2429
 7611SOL    HW234470   2.979   1.687  14.144 -1.4944  0.0941  0.1088
 7612SOL     OW34471   3.473   4.673   6.052 -0.1912 -0.2905 -0.0572
 7612SOL    HW134472   3.542   4.663   6.119 -0.0862 -1.3010 -0.3284
 7612SOL    HW234473   3.503   4.604   5.994  0.4620 -1.6848  1.9268
 7613SOL     OW34474   4.666   4.191   3.874 -0.8342  0.6062  0.0522
 7613SOL    HW134475   0.011   4.200   3.830 -0.7134 -2.2663 -0.3093
 7613SOL    HW234476   4.694   4.171   3.963 -2.1223 -1.9643 -0.1096
 7614SOL     OW34477   2.060   1.114   2.090  0.3538 -0.8992 -0.0061
 7614SOL    HW134478   2.004   1.116   2.012 -0.7645 -0.3860  0.8074
 7614SOL    HW234479   2.139   1.156   2.057 -0.9637  1.2246 -0.4771
 7615SOL     OW34480   2.979   0.147   5.443 -0.0053  0.1418  0.4143
 7615SOL    HW134481   3.017   0.174   5.527  0.9502 -2.8692  0.9442
 7615SOL    HW234482   3.055   0.111   5.398 -1.0385 -3.8166  1.8116
 7616SOL     OW34483   2.836   2.271   8.705  0.0754  0.4562  0.7621
 7616SOL    HW134484   2.833   2.339   8.773 -0.1856  1.5304 -0.3233
 7616SOL    HW234485   2.886   2.210   8.759 -1.6566  0.5414  2.4629
 7617SOL     OW34486   1.870   3.555   8.659  0.2718  0.0587 -0.0302
 7617SOL    HW134487   1.936   3.585   8.722  0.9441 -0.5149 -0.4721
 7617SOL    HW234488   1.835   3.474   8.695  1.5133 -0.6506 -0.4380
 7618SOL     OW34489   1.519   3.691   0.285  0.3802 -0.1484  0.2116
 7618SOL    HW134490   1.612   3.669   0.289  0.6971  1.2212  0.1722
 7618SOL    HW234491   1.509   3.746   0.208  0.1204  1.9768  1.7732
 7619SOL     OW34492   1.917   2.917  12.903  0.3109 -0.4552 -0.4268
 7619SOL    HW134493   1.850   2.910  12.835  1.2391  1.7066 -1.5520
 7619SOL    HW234494   1.980   2.974  12.860  1.3731 -2.3632 -1.3932
 7620SOL     OW34495   0.503   1.715  16.579  0.2905  0.1503 -0.7790
 7620SOL    HW134496   0.522   1.755  16.494 -1.7331  1.2274 -0.7199
 7620SOL    HW234497   0.440   1.784  16.599 -1.5597 -1.1863 -1.9951
 7621SOL     OW34498   1.561   4.284  12.374 -0.1878 -0.0382  0.2701
 7621SOL    HW134499   1.624   4.351  12.401  0.9436  0.5208 -3.7282
 7621SOL    HW234500   1.543   4.312  12.284 -2.6053  2.4649  1.5224
 7622SOL     OW34501   1.187   1.748   5.062  0.0840  0.1381 -0.1548
 7622SOL    HW134502   1.226   1.665   5.034 -1.6362 -0.2282 -1.4777
 7622SOL    HW234503   1.182   1.797   4.980 -1.1971  0.9874  0.4107
 7623SOL     OW34504   0.384   3.634   9.280 -0.6299  0.2485 -0.7333
 7623SOL    HW134505   0.418   3.714   9.319  0.4922 -0.4531 -0.2832
 7623SOL    HW234506   0.333   3.594   9.350  0.9378 -2.9985 -1.4384
 7624SOL     OW34507   0.248   2.140   1.889 -0.3580 -0.1701 -0.1039
 7624SOL    HW134508   0.296   2.213   1.929 -0.1699 -0.6550  0.5512
 7624SOL    HW234509   0.163   2.181   1.869 -0.4624 -0.4002 -0.1298
 7625SOL     OW34510   1.805   0.232   8.310  0.5911  0.4709  0.4232
 7625SOL    HW134511   1.825   0.323   8.332 -0.0538  0.5263  0.7757
 7625SOL    HW234512   1.748   0.246   8.235  1.6473 -0.6758 -0.5924
 7626SOL     OW34513   2.951   2.376  16.964  0.0585 -1.2949  0.2579
 7626SOL    HW134514   2.916   2.331  16.887 -1.0073  2.5927 -1.5286
 7626SOL    HW234515   2.963   2.457  16.915  0.1442 -1.7819 -0.5195
 7627SOL     OW34516   0.286   4.728   5.831  0.0537 -0.5602 -0.5450
 7627SOL    HW134517   0.308   4.680   5.910  1.0400  1.7161  0.5514
 7627SOL    HW234518   0.318   4.670   5.762 -1.4172 -0.8146 -1.0185
 7628SOL     OW34519   4.593   2.154   2.685  0.0876 -0.0882 -0.1630
 7628SOL    HW134520   4.613   2.190   2.771 -0.8590 -1.8867  0.8238
 7628SOL    HW234521   4.507   2.119   2.709  0.7177 -2.9173 -2.0120
 7629SOL     OW34522   0.037   3.880   3.652  0.0554 -0.4636  0.4313
 7629SOL    HW134523   4.739   3.962   3.620  3.7886  1.1543  0.1710
 7629SOL    HW234524   0.015   3.817   3.584  0.8630 -0.4305  0.1390
 7630SOL     OW34525   3.410   0.686   6.107  0.5660  0.5150 -0.0868
 7630SOL    HW134526   3.407   0.632   6.186  1.7599  2.3986  1.2476
 7630SOL    HW234527   3.424   0.776   6.135  0.3004  0.2106  1.0083
 7631SOL     OW34528   1.161   4.669   3.394 -0.0598  0.1729 -0.1070
 7631SOL    HW134529   1.233   4.611   3.421 -0.0060  1.2658  2.1582
 7631SOL    HW234530   1.207   4.727   3.334 -2.1994  1.5219 -0.3974
 7632SOL     OW34531   3.176   2.830   9.998  0.1371  0.0244  0.1394
 7632SOL    HW134532   3.178   2.855   9.906  1.6951 -0.3875  0.0544
 7632SOL    HW234533   3.190   2.735   9.995 -0.7675 -0.1430  1.4771
 7633SOL     OW34534   0.417   2.072   7.612  0.3319 -0.0312  0.2817
 7633SOL    HW134535   0.403   2.143   7.674  0.2591 -0.0927  0.3349
 7633SOL    HW234536   0.509   2.047   7.618  0.5450  0.8200  0.5253
 7634SOL     OW34537   3.583   1.994   4.228 -0.2848  0.9152 -0.1522
 7634SOL    HW134538   3.649   2.061   4.246  1.2059 -0.2852 -1.1680
 7634SOL    HW234539   3.553   2.008   4.138  1.8277  0.8890 -0.8588
 7635SOL     OW34540   0.789   4.613   2.941  0.0952 -0.1936  0.0253
 7635SOL    HW134541   0.871   4.623   2.990 -2.3778 -0.6777  4.2913
 7635SOL    HW234542   0.723   4.643   3.004  1.0834  2.4594 -0.1809
 7636SOL     OW34543   3.216   2.569   8.492 -0.0396  0.7532 -0.5037
 7636SOL    HW134544   3.132   2.614   8.499  0.2566  1.5130 -1.8336
 7636SOL    HW234545   3.263   2.607   8.566  1.7395 -0.9021 -0.7770
 7637SOL     OW34546   1.874   1.783   4.020 -0.6233 -0.8605  0.8359
 7637SOL    HW134547   1.852   1.776   3.927  0.8322 -0.1179  0.4267
 7637SOL    HW234548   1.801   1.827   4.064  0.1411  0.5098  0.7131
 7638SOL     OW34549   4.194   3.288   4.317 -0.2981 -0.3818 -0.0872
 7638SOL    HW134550   4.204   3.220   4.384  0.5663  0.3584  0.5354
 7638SOL    HW234551   4.245   3.244   4.249 -0.3139  1.0529 -1.0175
 7639SOL     OW34552   1.159   1.377   3.442  0.2271  0.0691 -0.0574
 7639SOL    HW134553   1.127   1.364   3.353  1.4025  0.2465 -0.5056
 7639SOL    HW234554   1.222   1.449   3.436 -1.9287  1.9864  0.5979
 7640SOL     OW34555   1.185   1.240   2.572  0.4357 -0.1615  0.0264
 7640SOL    HW134556   1.133   1.234   2.492 -0.1855  3.1070  0.1831
 7640SOL    HW234557   1.222   1.328   2.561  2.9381 -1.2874 -0.4823
 7641SOL     OW34558   0.396   1.609   5.528 -0.1309  0.4950  0.1320
 7641SOL    HW134559   0.316   1.661   5.521 -0.8229 -0.7080 -0.8175
 7641SOL    HW234560   0.406   1.591   5.435  1.3543  1.8662  0.0290
 7642SOL     OW34561   0.782   0.706   6.364  0.0951 -0.2620 -0.4594
 7642SOL    HW134562   0.811   0.618   6.388  0.9540 -0.5769 -2.7164
 7642SOL    HW234563   0.865   0.753   6.352  0.7054 -1.7223 -1.9868
 7643SOL     OW34564   0.919   3.467   8.307  0.2334  0.0157  0.9121
 7643SOL    HW134565   0.891   3.438   8.221  0.1037  0.9687  0.6379
 7643SOL    HW234566   0.830   3.473   8.342  0.6585 -1.4057  2.2480
 7644SOL     OW34567   3.409   2.355  11.368  0.7738  0.3775 -0.3228
 7644SOL    HW134568   3.339   2.396  11.317  0.7716 -0.0241 -0.6471
 7644SOL    HW234569   3.434   2.279  11.315  0.5705  0.1687 -0.1264
 7645SOL     OW34570   1.368   2.078   7.484 -0.3620 -0.1582 -0.1372
 7645SOL    HW134571   1.406   2.147   7.430  0.0802 -0.4687 -0.2166
 7645SOL    HW234572   1.436   2.058   7.549  0.0477  0.4270 -0.3908
 7646SOL     OW34573   0.386   3.295  17.044  0.4541 -0.0126 -0.2207
 7646SOL    HW134574   0.433   3.342  16.976 -0.8305 -1.0254 -1.8056
 7646SOL    HW234575   0.434   3.214  17.061  0.0878  0.0655  1.2677
 7647SOL     OW34576   3.571   0.496   9.155  0.2339 -0.0941  0.3799
 7647SOL    HW134577   3.557   0.457   9.242  0.1244 -0.7628  0.0601
 7647SOL    HW234578   3.614   0.577   9.184 -0.2078 -0.4331  2.0011
 7648SOL     OW34579   1.270   4.701  17.023  0.0385 -0.1962  0.3654
 7648SOL    HW134580   1.286   4.621  17.073 -0.4307 -0.8197 -0.4964
 7648SOL    HW234581   1.237   4.655  16.946 -0.1499  0.0345  0.3084
 7649SOL     OW34582   1.088   2.523   3.201 -0.0662 -0.0728  0.2572
 7649SOL    HW134583   1.038   2.510   3.120  3.3621 -0.3903 -1.8046
 7649SOL    HW234584   1.107   2.431   3.223  0.3291 -0.0395  0.0528
 7650SOL     OW34585   3.356   3.919  10.479 -1.0402 -0.4090  0.0826
 7650SOL    HW134586   3.433   3.904  10.424 -0.2566 -1.0750  1.3603
 7650SOL    HW234587   3.289   3.918  10.411  0.9314  1.3525 -1.8982
 7651SOL     OW34588   0.487   0.103  11.459  0.2764  0.7167  0.7627
 7651SOL    HW134589   0.518   0.184  11.419 -0.1685  1.8455  2.6707
 7651SOL    HW234590   0.520   0.103  11.549 -1.2388  2.7895  1.3135
 7652SOL     OW34591   2.232   2.180   8.912  0.2444  0.0511 -0.5928
 7652SOL    HW134592   2.313   2.141   8.879  1.4951 -0.2989  2.8899
 7652SOL    HW234593   2.197   2.107   8.962  0.8313  0.6060  0.6354
 7653SOL     OW34594   1.462   1.978   2.218  0.1933  0.0272  0.1538
 7653SOL    HW134595   1.499   1.892   2.202 -0.1195  0.6210 -3.7817
 7653SOL    HW234596   1.458   2.004   2.126  0.2423 -1.5739 -0.2961
 7654SOL     OW34597   1.660   1.861   1.941 -0.1302  0.0905 -0.4994
 7654SOL    HW134598   1.603   1.927   1.902 -0.9467 -0.4661 -0.2551
 7654SOL    HW234599   1.743   1.868   1.894  1.2062  0.0155  1.8651
 7655SOL     OW34600   2.668   2.919   8.756  0.1487 -0.3809  0.0131
 7655SOL    HW134601   2.626   2.838   8.726 -0.6850  0.1793 -0.3291
 7655SOL    HW234602   2.622   2.984   8.703  1.5553 -1.6906 -2.8103
 7656SOL     OW34603   4.691   1.021   4.175  0.1631 -0.1344  0.0325
 7656SOL    HW134604   0.044   1.027   4.201 -0.4744 -0.2337  2.2609
 7656SOL    HW234605   4.701   1.084   4.103  0.4193 -0.1986  0.0093
 7657SOL     OW34606   2.621   2.703   9.714  0.1034 -0.1998 -0.0983
 7657SOL    HW134607   2.613   2.614   9.680  0.2136 -0.5937  0.9331
 7657SOL    HW234608   2.711   2.696   9.745  0.6698  0.8143 -1.4878
 7658SOL     OW34609   4.564   2.249   3.193  0.7435  1.0581  0.2569
 7658SOL    HW134610   4.596   2.159   3.190  1.0621  1.1865 -0.1067
 7658SOL    HW234611   4.498   2.244   3.263 -0.3779  1.5064 -0.7683
 7659SOL     OW34612   4.478   1.795   3.943 -0.8832  0.2479  0.4878
 7659SOL    HW134613   4.401   1.821   3.894 -1.3022 -1.1933  0.3723
 7659SOL    HW234614   4.485   1.702   3.920 -0.1159  0.3095  0.4808
 7660SOL     OW34615   0.770   2.160   6.821 -0.2826  0.5406  0.0691
 7660SOL    HW134616   0.764   2.098   6.749  0.9621  1.9481 -1.2603
 7660SOL    HW234617   0.826   2.111   6.881  0.4537  1.6558  0.3081
 7661SOL     OW34618   0.844   3.548   5.061  0.4414  0.2281  0.3897
 7661SOL    HW134619   0.883   3.488   5.124 -3.4860 -0.9635  1.6933
 7661SOL    HW234620   0.784   3.604   5.111  1.0727  1.6627 -0.4574
 7662SOL     OW34621   1.957   4.589   3.206  0.1715  0.7381  0.6649
 7662SOL    HW134622   1.911   4.661   3.249  0.1903  1.8763 -1.2541
 7662SOL    HW234623   1.885   4.541   3.165  1.2189  0.1135 -0.4409
 7663SOL     OW34624   3.229   2.309   5.316 -0.4337 -0.6017 -0.0450
 7663SOL    HW134625   3.237   2.213   5.318  3.2589 -0.3307 -1.6725
 7663SOL    HW234626   3.136   2.318   5.294 -0.0161  2.1359 -0.7028
 7664SOL     OW34627   0.242   0.240  12.216 -0.0863  0.1577 -0.3834
 7664SOL    HW134628   0.238   0.224  12.122  0.8069 -1.2918 -0.1727
 7664SOL    HW234629   0.156   0.228  12.255 -1.3103  2.2393 -2.4366
 7665SOL     OW34630   1.373   2.842   7.613  0.6323  0.4217  0.7286
 7665SOL    HW134631   1.297   2.883   7.654 -1.4547  0.2936 -2.9932
 7665SOL    HW234632   1.341   2.843   7.523 -1.2590  3.2519  1.4118
 7666SOL     OW34633   2.204   3.582   8.110 -0.1415 -0.3932  0.1254
 7666SOL    HW134634   2.240   3.562   8.196  1.0281  1.1176 -0.0038
 7666SOL    HW234635   2.256   3.537   8.044 -1.3536  0.3102 -1.3151
 7667SOL     OW34636   0.205   1.951   1.373  0.0219 -0.2847 -0.1378
 7667SOL    HW134637   0.140   1.990   1.313 -1.3387  0.7247  1.9750
 7667SOL    HW234638   0.259   2.026   1.399 -1.1600  0.3353  0.5388
 7668SOL     OW34639   3.330   2.025   4.650 -0.0463  0.8949 -0.4690
 7668SOL    HW134640   3.260   2.087   4.632 -1.0029  0.5138  1.9127
 7668SOL    HW234641   3.398   2.064   4.596  0.0813  1.8364  0.3817
 7669SOL     OW34642   3.222   3.661   5.740  0.3199  0.2248  0.7109
 7669SOL    HW134643   3.232   3.612   5.658  1.4143  1.1244  0.3158
 7669SOL    HW234644   3.313   3.656   5.769  0.2427 -0.4117  0.8358
 7670SOL     OW34645   4.410   0.408   8.943  0.2104 -0.2781  0.4820
 7670SOL    HW134646   4.322   0.428   8.911 -0.1093 -2.0485  0.2877
 7670SOL    HW234647   4.457   0.491   8.942 -0.7781  0.2885  1.1193
 7671SOL     OW34648   1.375   0.384  10.939  0.4991  0.1637  0.0881
 7671SOL    HW134649   1.470   0.396  10.948  0.5440 -0.5740  0.6066
 7671SOL    HW234650   1.381   0.293  10.910  2.5176 -0.4292  2.3853
 7672SOL     OW34651   2.303   2.715  15.220 -0.6492 -0.4166  0.2294
 7672SOL    HW134652   2.395   2.732  15.202  0.2109 -5.4570 -0.1475
 7672SOL    HW234653   2.292   2.760  15.304  0.4221  0.1007  0.0885
 7673SOL     OW34654   2.508   1.511   8.791 -0.5835  0.3813  0.5251
 7673SOL    HW134655   2.426   1.555   8.811 -1.9001 -1.7145 -0.1992
 7673SOL    HW234656   2.558   1.528   8.871  0.0271  1.5071 -0.1145
 7674SOL     OW34657   0.211   3.009   3.895 -0.4243  0.5991  0.7905
 7674SOL    HW134658   0.171   2.922   3.886 -1.4249  1.0658  0.6159
 7674SOL    HW234659   0.279   3.000   3.961 -0.2559 -1.8495  0.3023
 7675SOL     OW34660   2.265   3.561  15.511  0.6069 -0.4508  0.2518
 7675SOL    HW134661   2.272   3.653  15.485  0.0162 -0.8004 -1.1345
 7675SOL    HW234662   2.355   3.536  15.493  0.6637  1.5558 -2.3078
 7676SOL     OW34663   1.062   1.845   3.212 -0.2650 -0.1136  0.0529
 7676SOL    HW134664   1.064   1.788   3.289 -0.3716  1.1068  0.9475
 7676SOL    HW234665   1.077   1.928   3.256 -1.4232  1.0773 -1.7694
 7677SOL     OW34666   2.787   2.785   4.652  0.0128  0.4584  0.2508
 7677SOL    HW134667   2.837   2.720   4.701 -1.3763 -0.0548  1.0086
 7677SOL    HW234668   2.736   2.732   4.591 -0.6382 -0.2183  1.3915
 7678SOL     OW34669   2.444   2.460   7.005 -0.0122  0.0487  0.4144
 7678SOL    HW134670   2.462   2.547   6.970  0.1901  0.1161  0.6879
 7678SOL    HW234671   2.386   2.482   7.079 -3.0740 -0.4402 -1.8605
 7679SOL     OW34672   0.556   1.295   9.999  0.9183  0.3471 -0.1528
 7679SOL    HW134673   0.539   1.238   9.924 -0.7640 -1.5370  1.6625
 7679SOL    HW234674   0.619   1.240  10.046  3.3405  1.3275 -2.2906
 7680SOL     OW34675   4.552   1.452   7.273 -0.5425 -0.1252 -0.4128
 7680SOL    HW134676   4.468   1.496   7.260 -0.2173  0.2069 -1.3872
 7680SOL    HW234677   4.564   1.444   7.179 -1.5180  0.9209 -0.6296
 7681SOL     OW34678   0.266   3.980  15.819 -0.2277 -0.5619 -0.6007
 7681SOL    HW134679   0.342   3.977  15.877 -2.1709 -0.1760  2.0029
 7681SOL    HW234680   0.250   3.889  15.793 -2.1373 -0.9545  1.9224
 7682SOL     OW34681   0.134   2.257   7.305  0.1924 -0.4164  0.1557
 7682SOL    HW134682   0.165   2.317   7.373  0.5870  0.2891 -0.6368
 7682SOL    HW234683   0.177   2.174   7.327  0.3122  0.0167  1.5649
 7683SOL     OW34684   3.695   2.557  11.220 -0.1460 -1.2105  0.4671
 7683SOL    HW134685   3.765   2.522  11.275  0.3511  0.0254  0.6412
 7683SOL    HW234686   3.685   2.485  11.158 -2.4317 -0.5805  0.0943
 7684SOL     OW34687   4.587   1.772   2.782 -0.0788  0.4604 -0.1273
 7684SOL    HW134688   4.606   1.767   2.875 -1.2157  0.8008  0.1203
 7684SOL    HW234689   4.541   1.856   2.773 -1.0082  0.3554  3.7400
 7685SOL     OW34690   0.748   2.662   5.464 -0.5318 -0.7882  0.7072
 7685SOL    HW134691   0.836   2.639   5.435 -0.1555 -1.3073  2.2682
 7685SOL    HW234692   0.754   2.653   5.559  0.2475 -0.9239  0.6414
 7686SOL     OW34693   0.878   1.531   5.558  0.2864 -0.3461  0.8635
 7686SOL    HW134694   0.894   1.468   5.487 -0.9179  0.0023  0.2648
 7686SOL    HW234695   0.896   1.471   5.630  0.5296 -1.4827 -0.1441
 7687SOL     OW34696   4.107   3.141   2.295  0.0619 -0.1914  0.8156
 7687SOL    HW134697   4.188   3.171   2.254 -1.7849 -1.0411 -3.3806
 7687SOL    HW234698   4.041   3.190   2.246 -0.6608 -1.0880  0.9039
 7688SOL     OW34699   0.661   1.694   7.092  0.1451  0.2749  0.5378
 7688SOL    HW134700   0.746   1.730   7.067  1.0206 -1.5713  0.8731
 7688SOL    HW234701   0.661   1.600   7.072  0.2752  0.6084 -1.0109
 7689SOL     OW34702   1.473   3.067  14.795 -0.0832  0.2724 -0.0153
 7689SOL    HW134703   1.520   2.990  14.829 -0.0191 -0.7002 -2.2916
 7689SOL    HW234704   1.384   3.032  14.796 -0.5260  1.4014 -0.8315
 7690SOL     OW34705   4.165   2.516   2.121 -0.6526 -0.5446  0.0556
 7690SOL    HW134706   4.166   2.456   2.195 -2.0565 -1.0881 -0.3736
 7690SOL    HW234707   4.075   2.547   2.120 -0.6987 -0.6864 -0.1508
 7691SOL     OW34708   0.298   0.032  15.659  0.5092  0.5804 -0.2762
 7691SOL    HW134709   0.215   0.041  15.612  0.4246  1.4995  0.0528
 7691SOL    HW234710   0.289   4.679  15.683  2.1925  0.0199 -1.7401
 7692SOL     OW34711   2.153   3.145   9.479 -0.3366  0.3594  0.2412
 7692SOL    HW134712   2.151   3.216   9.543  0.6534  1.0046 -0.4559
 7692SOL    HW234713   2.246   3.127   9.468 -0.7517 -0.7575 -1.5704
 7693SOL     OW34714   2.612   1.351  15.806  0.3116 -0.0263 -0.5300
 7693SOL    HW134715   2.523   1.336  15.772  0.3414  0.8645 -1.0253
 7693SOL    HW234716   2.636   1.261  15.826 -1.6109 -0.3227  0.5177
 7694SOL     OW34717   1.276   3.047   2.665 -0.3226  0.1202  0.1682
 7694SOL    HW134718   1.248   3.008   2.748  1.4187  1.0884  1.2059
 7694SOL    HW234719   1.276   2.969   2.610  4.1195 -0.2972  0.7533
 7695SOL     OW34720   0.639   0.537   3.126 -0.6528 -0.3377 -0.4633
 7695SOL    HW134721   0.731   0.554   3.106 -1.0987  1.0217 -1.3455
 7695SOL    HW234722   0.598   0.599   3.066 -0.4264  0.8541  0.6160
 7696SOL     OW34723   1.370   2.006  17.018 -0.1600 -0.0935 -0.7131
 7696SOL    HW134724   1.302   2.034  16.957  0.1379 -0.9647 -1.4499
 7696SOL    HW234725   1.342   2.050  17.098 -0.4406 -0.0736 -0.8234
 7697SOL     OW34726   2.654   1.096  17.477 -0.3942  0.0259 -0.0804
 7697SOL    HW134727   2.642   1.156  17.550  0.6782  0.3554 -0.1843
 7697SOL    HW234728   2.599   1.134  17.408  0.3006 -0.3328 -0.8308
 7698SOL     OW34729   4.278   2.099  14.262 -0.1047 -0.1561  0.0984
 7698SOL    HW134730   4.191   2.062  14.246  0.1422 -0.2570 -1.0124
 7698SOL    HW234731   4.251   2.162  14.329  1.0893 -0.3009  0.7101
 7699SOL     OW34732   3.101   3.249   6.874 -0.7729  0.1876  0.1241
 7699SOL    HW134733   3.125   3.203   6.954 -1.5245 -1.3793 -0.5493
 7699SOL    HW234734   3.169   3.220   6.813  0.4310  0.5542  1.3022
 7700SOL     OW34735   2.110   1.879   8.414 -0.3424  0.4575  0.2167
 7700SOL    HW134736   2.088   1.837   8.497  0.9906  2.0948  1.4191
 7700SOL    HW234737   2.205   1.889   8.421 -0.6032  1.8767  1.5804
 7701SOL     OW34738   3.919   0.449   0.623 -0.5707 -0.0614  0.3317
 7701SOL    HW134739   3.858   0.392   0.670  1.5725 -1.6811  1.1537
 7701SOL    HW234740   3.991   0.440   0.686  0.2397  3.3978 -0.0766
 7702SOL     OW34741   1.837   0.600   4.157 -0.0489 -0.0906  0.4376
 7702SOL    HW134742   1.799   0.675   4.113 -0.7341 -0.7989 -0.1791
 7702SOL    HW234743   1.923   0.641   4.169  0.4706 -1.3551  1.1135
 7703SOL     OW34744   3.033   0.483   5.947  0.7110  0.4316 -0.1225
 7703SOL    HW134745   3.045   0.570   5.985  1.3549 -0.4317  1.6582
 7703SOL    HW234746   3.112   0.445   5.987  1.3410 -0.2366 -2.0151
 7704SOL     OW34747   2.987   3.976   8.882  0.7965 -0.0545 -0.0470
 7704SOL    HW134748   2.948   3.971   8.795 -2.2224 -1.8100  1.4139
 7704SOL    HW234749   2.961   3.889   8.912  1.4636  0.3088  1.5586
 7705SOL     OW34750   1.385   0.737   4.118  0.4701  0.4321 -0.0313
 7705SOL    HW134751   1.309   0.776   4.162  0.2745 -0.3386  0.3025
 7705SOL    HW234752   1.354   0.720   4.029 -0.5066 -0.0448  0.4057
 7706SOL     OW34753   2.567   2.674   8.639 -0.4237  0.6899  0.2710
 7706SOL    HW134754   2.522   2.701   8.559 -0.8970 -1.1802 -0.1087
 7706SOL    HW234755   2.516   2.601   8.676 -0.4956  0.5157 -0.1754
 7707SOL     OW34756   1.003   1.327   7.149 -0.1942 -0.3235  0.0711
 7707SOL    HW134757   1.055   1.246   7.150 -1.4022 -1.0679  1.7415
 7707SOL    HW234758   0.919   1.299   7.186 -1.7268  1.2719 -2.2267
 7708SOL     OW34759   1.229   3.377  16.358  0.8430  0.0980  0.1244
 7708SOL    HW134760   1.265   3.292  16.335 -3.1916 -1.9265  1.1589
 7708SOL    HW234761   1.214   3.415  16.271  1.1777 -0.9313 -0.3721
 7709SOL     OW34762   2.199   3.289  12.391 -0.5246 -0.0241  0.3811
 7709SOL    HW134763   2.280   3.332  12.365 -0.1418 -0.2048  1.2774
 7709SOL    HW234764   2.234   3.200  12.389  0.2436  0.2529  1.9542
 7710SOL     OW34765   2.135   3.848   2.044  0.4339  0.2144  0.1760
 7710SOL    HW134766   2.201   3.885   1.984  1.2210 -0.1943  0.7922
 7710SOL    HW234767   2.183   3.806   2.115 -0.9917 -0.7461  0.5647
 7711SOL     OW34768   4.325   0.322   6.570  0.2008  0.0128  0.0524
 7711SOL    HW134769   4.257   0.378   6.607 -1.0297 -0.6063 -1.2606
 7711SOL    HW234770   4.326   0.355   6.480  0.0076 -0.6230 -0.1870
 7712SOL     OW34771   2.161   1.395   3.208  0.0962 -0.3291 -0.0033
 7712SOL    HW134772   2.082   1.431   3.250  0.1193 -1.0122  0.6408
 7712SOL    HW234773   2.131   1.304   3.198 -0.4129 -0.0995 -0.5618
 7713SOL     OW34774   2.850   2.436  14.106  0.0282  0.2717 -0.0257
 7713SOL    HW134775   2.938   2.402  14.093  0.4357  1.0154  0.7627
 7713SOL    HW234776   2.837   2.490  14.028  1.7349 -0.2575 -0.6809
 7714SOL     OW34777   3.162   2.257   8.904 -0.3218 -0.1852 -0.4580
 7714SOL    HW134778   3.166   2.345   8.867 -0.4521 -0.9718 -2.3584
 7714SOL    HW234779   3.250   2.231   8.877 -0.1167  1.6306 -1.5487
 7715SOL     OW34780   3.673   3.696  16.063  0.1494  0.1772  0.1868
 7715SOL    HW134781   3.586   3.657  16.058 -0.2412  1.7094 -4.2994
 7715SOL    HW234782   3.698   3.660  16.148  2.6296 -0.2633 -0.7318
 7716SOL     OW34783   3.616   1.254   5.359 -0.0464 -0.3287 -0.3116
 7716SOL    HW134784   3.589   1.242   5.450 -2.2118 -1.0798 -1.0601
 7716SOL    HW234785   3.642   1.167   5.330 -0.0623 -1.3002  2.6188
 7717SOL     OW34786   3.730   3.545   1.243 -0.2045 -0.6943  0.2945
 7717SOL    HW134787   3.714   3.595   1.322  2.5084  2.0958 -0.8967
 7717SOL    HW234788   3.822   3.572   1.231  0.3577 -2.7467 -0.0777
 7718SOL     OW34789   4.717   4.063   1.510  0.7008  0.7879  0.2594
 7718SOL    HW134790   4.652   4.060   1.580  0.5957  2.1872  0.2183
 7718SOL    HW234791   4.659   4.042   1.437  1.9852  0.1815 -0.5795
 7719SOL     OW34792   2.506   0.587   8.117  0.1905 -0.0539  0.1043
 7719SOL    HW134793   2.595   0.590   8.152  0.6167  0.7444 -1.0928
 7719SOL    HW234794   2.489   0.681   8.119 -0.7902 -0.2173 -0.3744
 7720SOL     OW34795   1.057   3.233  16.134  0.3745 -0.0207  0.2284
 7720SOL    HW134796   1.010   3.154  16.109 -1.1249  0.6241  0.9588
 7720SOL    HW234797   1.101   3.265  16.055 -1.4013 -1.1730 -1.2145
 7721SOL     OW34798   4.661   1.591   6.240  0.5062  0.2219 -0.3796
 7721SOL    HW134799   4.575   1.572   6.276 -0.2058 -1.5180 -2.9805
 7721SOL    HW234800   4.669   1.551   6.153  3.0689 -1.6549  0.7239
 7722SOL     OW34801   2.216   1.804   5.682  0.6522  0.0208 -0.3339
 7722SOL    HW134802   2.177   1.874   5.734  2.2380  1.1321 -0.6161
 7722SOL    HW234803   2.220   1.737   5.751  1.7029 -0.6011 -0.9933
 7723SOL     OW34804   3.121   0.876  16.035  0.0565  0.3787  0.2586
 7723SOL    HW134805   3.198   0.829  16.067  0.4998  0.7261 -0.2802
 7723SOL    HW234806   3.069   0.892  16.113  0.9853 -0.2320  1.0015
 7724SOL     OW34807   0.727   4.020  11.386  0.0522 -0.6030  0.2972
 7724SOL    HW134808   0.779   3.946  11.354  1.4462  0.8752 -0.8347
 7724SOL    HW234809   0.767   4.097  11.346  2.3922 -1.1955  1.4774
 7725SOL     OW34810   4.200   0.592   0.689  0.4540  0.2382 -0.1691
 7725SOL    HW134811   4.180   0.511   0.737  0.8562  0.2369 -0.0032
 7725SOL    HW234812   4.179   0.654   0.760 -2.1182 -0.1736 -0.5598
 7726SOL     OW34813   2.869   4.726   7.418  0.0044 -0.1948  0.0733
 7726SOL    HW134814   2.900   4.682   7.497 -0.6286 -1.5192 -0.4182
 7726SOL    HW234815   2.805   4.661   7.389  0.7222 -1.2301  0.7825
 7727SOL     OW34816   1.777   3.024  10.418 -0.6611  0.5022 -0.0110
 7727SOL    HW134817   1.782   2.952  10.480 -0.9535  0.2142 -0.3212
 7727SOL    HW234818   1.758   3.095  10.480  4.4250 -0.0797  2.1900
 7728SOL     OW34819   1.224   3.773  17.135 -0.1224  0.2971  0.4887
 7728SOL    HW134820   1.138   3.758  17.175  0.4417 -1.9210  0.9012
 7728SOL    HW234821   1.200   3.822  17.057 -0.4740  1.6828  1.4666
 7729SOL     OW34822   3.401   1.558   8.693 -0.0257 -0.1053  0.7180
 7729SOL    HW134823   3.459   1.482   8.705  1.3807  0.8595 -0.0107
 7729SOL    HW234824   3.445   1.592   8.615 -1.0783  0.8401  0.5370
 7730SOL     OW34825   2.179   4.156   3.270 -0.4431  0.0674 -0.1004
 7730SOL    HW134826   2.098   4.202   3.249 -0.3231  0.6216  0.6311
 7730SOL    HW234827   2.247   4.221   3.251  0.8871 -0.5668  2.4687
 7731SOL     OW34828   1.533   4.126   7.913  0.5870  0.6502 -0.2837
 7731SOL    HW134829   1.446   4.165   7.904  0.7125  0.4192 -2.3610
 7731SOL    HW234830   1.588   4.204   7.901  0.1313  1.0718  0.3460
 7732SOL     OW34831   3.129   1.720   4.025 -0.3940 -0.1141 -0.3034
 7732SOL    HW134832   3.140   1.706   4.119 -0.6632  0.8293 -0.1315
 7732SOL    HW234833   3.220   1.703   3.998 -0.2558 -0.1114  0.1523
 7733SOL     OW34834   1.422   0.259  10.207  0.2878  0.0220 -0.3551
 7733SOL    HW134835   1.418   0.285  10.299 -1.6152  0.6194 -0.6122
 7733SOL    HW234836   1.353   0.313  10.169 -0.4416  0.6625  1.8582
 7734SOL     OW34837   1.644   2.778   6.295  0.2918 -0.5187 -0.9085
 7734SOL    HW134838   1.553   2.760   6.273 -0.0601  0.0889  0.0765
 7734SOL    HW234839   1.628   2.867   6.325 -0.0890 -1.1651  0.7953
 7735SOL     OW34840   3.721   3.486   4.379  0.1719 -0.0243  0.5012
 7735SOL    HW134841   3.768   3.567   4.399 -2.0016  1.7410 -1.5400
 7735SOL    HW234842   3.784   3.447   4.319  0.0176 -0.4680  0.6267
 7736SOL     OW34843   2.928   4.394   0.891 -0.4477 -0.4366  0.6102
 7736SOL    HW134844   2.961   4.391   0.801 -1.0763 -0.2105  0.3662
 7736SOL    HW234845   2.955   4.481   0.922 -0.9567  0.1663 -0.6427
 7737SOL     OW34846   4.267   2.979   6.801  0.1617  0.2471 -0.0002
 7737SOL    HW134847   4.230   2.957   6.715  0.4657  1.0174 -0.3261
 7737SOL    HW234848   4.354   2.945   6.780  0.0633 -0.0233  0.0274
 7738SOL     OW34849   2.615   4.345   2.382 -0.0153 -0.2664  0.8120
 7738SOL    HW134850   2.626   4.395   2.463  0.3000  0.7120  0.1562
 7738SOL    HW234851   2.708   4.338   2.362  0.3050  0.0579  2.1908
 7739SOL     OW34852   1.598   2.829   4.910 -0.6652 -0.1455  0.4309
 7739SOL    HW134853   1.505   2.807   4.906 -0.1256 -2.5671  1.3174
 7739SOL    HW234854   1.583   2.911   4.956  5.0473  0.7232  0.7035
 7740SOL     OW34855   4.211   4.460   8.414  0.2140 -0.1317 -0.1959
 7740SOL    HW134856   4.267   4.464   8.337 -0.0755 -1.0044 -0.4565
 7740SOL    HW234857   4.191   4.553   8.415  0.7811 -0.0161 -0.0650
 7741SOL     OW34858   0.686   3.509  15.224  0.6766 -0.3436 -0.6827
 7741SOL    HW134859   0.658   3.590  15.266  1.0783 -0.7980  0.4437
 7741SOL    HW234860   0.616   3.484  15.163 -0.3947  3.1238 -0.8954
 7742SOL     OW34861   2.240   1.499   9.235 -0.2079  0.3883 -0.2741
 7742SOL    HW134862   2.183   1.438   9.187 -1.3753  0.7440  0.6696
 7742SOL    HW234863   2.273   1.438   9.301  0.0799 -0.7449 -1.4668
 7743SOL     OW34864   1.993   4.200   5.314 -0.4745  0.0844  0.4002
 7743SOL    HW134865   2.080   4.182   5.278 -0.1956  2.7346 -0.2048
 7743SOL    HW234866   1.936   4.175   5.241  1.3602  1.7897 -1.5961
 7744SOL     OW34867   4.405   2.674   5.503 -0.4452  0.2539  0.4567
 7744SOL    HW134868   4.390   2.721   5.421  1.1728 -1.0655 -0.6050
 7744SOL    HW234869   4.459   2.601   5.474 -0.9452  0.6729 -1.4867
 7745SOL     OW34870   2.065   4.241   2.999  0.2140  0.5753 -0.1483
 7745SOL    HW134871   1.997   4.292   2.955 -1.5903 -0.2696  1.6886
 7745SOL    HW234872   2.049   4.156   2.957 -1.3452 -0.0283  1.6723
 7746SOL     OW34873   4.592   0.947   7.713 -0.0311  0.2525 -0.2013
 7746SOL    HW134874   4.505   0.907   7.700  0.2195 -1.4133  3.1556
 7746SOL    HW234875   4.568   1.039   7.704 -0.7951  0.2037  1.3146
 7747SOL     OW34876   4.112   2.417   7.690 -0.5268  0.1374 -0.6373
 7747SOL    HW134877   4.089   2.324   7.682  2.1465 -0.9291  4.2389
 7747SOL    HW234878   4.082   2.428   7.780 -0.1771 -4.3278  0.0366
 7748SOL     OW34879   2.464   1.758   3.287  0.9239 -0.4013  0.2566
 7748SOL    HW134880   2.437   1.766   3.196  1.0713  0.7211  0.3120
 7748SOL    HW234881   2.379   1.726   3.318  1.2427 -0.4115  1.1021
 7749SOL     OW34882   3.747   4.686  15.301  0.3483  0.0896  0.2012
 7749SOL    HW134883   3.839   4.671  15.277 -0.8093  1.1794 -4.8693
 7749SOL    HW234884   3.754   4.702  15.395 -0.1181 -0.2128  0.2821
 7750SOL     OW34885   4.331   0.718   7.120 -0.3519  0.6937  0.2915
 7750SOL    HW134886   4.357   0.696   7.210 -0.3830 -2.5404 -0.4916
 7750SOL    HW234887   4.388   0.793   7.104  1.9029 -1.2610 -0.8871
 7751SOL     OW34888   0.189   3.581   4.956  0.2818  0.0075  0.1815
 7751SOL    HW134889   0.182   3.488   4.933 -1.6327 -0.1079  1.2146
 7751SOL    HW234890   0.114   3.582   5.015 -0.0050 -2.8464 -0.1460
 7752SOL     OW34891   3.778   0.504   1.297 -0.3028  0.6178 -0.3463
 7752SOL    HW134892   3.717   0.575   1.275 -0.2131  1.6029  2.5389
 7752SOL    HW234893   3.809   0.538   1.382  0.0212 -0.2703 -0.1102
 7753SOL     OW34894   2.314   1.620   3.044 -0.5745 -0.2929 -0.3451
 7753SOL    HW134895   2.342   1.530   3.060 -0.7034 -0.5231 -1.4072
 7753SOL    HW234896   2.220   1.614   3.029 -1.0264  2.0040  1.5582
 7754SOL     OW34897   1.185   4.334   7.348  0.0715 -0.1433  0.2713
 7754SOL    HW134898   1.136   4.335   7.266 -0.5386  2.8164  0.6903
 7754SOL    HW234899   1.191   4.428   7.365 -0.2032 -0.0558 -0.1294
 7755SOL     OW34900   3.369   0.244   1.806 -0.8782  0.3778 -0.2721
 7755SOL    HW134901   3.279   0.256   1.835 -0.5129 -0.1516  1.0633
 7755SOL    HW234902   3.393   0.336   1.789 -0.1738  0.4184  0.9164
 7756SOL     OW34903   0.118   3.898   9.198 -0.0056  0.1834  0.2258
 7756SOL    HW134904   0.162   3.872   9.279  0.7811  1.1279  0.1025
 7756SOL    HW234905   0.026   3.894   9.224 -0.6052 -1.4183 -2.1528
 7757SOL     OW34906   0.385   3.356   7.415 -0.0824 -0.0666 -0.0799
 7757SOL    HW134907   0.291   3.358   7.400 -0.2302 -1.6038  0.6411
 7757SOL    HW234908   0.405   3.269   7.381 -0.0972 -0.3177  0.5506
 7758SOL     OW34909   3.483   0.988   2.870  0.2469  0.4644 -0.9390
 7758SOL    HW134910   3.564   1.017   2.829  1.3866  2.4276  2.7384
 7758SOL    HW234911   3.493   0.892   2.867  1.1776  0.5034  1.1177
 7759SOL     OW34912   3.999   2.665   3.668  0.2463  0.0447  0.2471
 7759SOL    HW134913   4.021   2.728   3.736  1.1897  0.9213 -0.8478
 7759SOL    HW234914   3.969   2.589   3.718 -0.0939  0.5702  0.8430
 7760SOL     OW34915   1.161   3.012  13.826 -0.3895  0.1615  0.1391
 7760SOL    HW134916   1.155   2.928  13.872  0.1304 -0.4395 -0.9022
 7760SOL    HW234917   1.212   3.060  13.892  1.6444 -0.5671 -0.9250
 7761SOL     OW34918   0.076   3.023   0.684  0.3628 -0.1261  0.2920
 7761SOL    HW134919   0.060   2.968   0.761 -2.1843 -0.0364 -0.1738
 7761SOL    HW234920   0.147   2.974   0.645  1.3746  2.2502 -0.8145
 7762SOL     OW34921   2.373   4.560   8.712 -0.5476 -0.5675 -0.2609
 7762SOL    HW134922   2.388   4.533   8.621  0.9866 -1.0632  0.1276
 7762SOL    HW234923   2.327   4.643   8.705  1.5740  0.7204  1.2070
 7763SOL     OW34924   1.534   4.213   7.416  0.0850  0.3668  0.6895
 7763SOL    HW134925   1.568   4.152   7.350  1.1965 -0.2018  1.7838
 7763SOL    HW234926   1.555   4.300   7.383 -0.0198 -0.0764 -0.5546
 7764SOL     OW34927   4.132   2.440   6.420 -0.1738  0.1776 -0.6564
 7764SOL    HW134928   4.054   2.415   6.470  1.4868 -0.3054  1.6646
 7764SOL    HW234929   4.110   2.404   6.334 -0.7308  0.1446 -0.4986
 7765SOL     OW34930   3.130   4.661   9.157 -0.1194  0.0648  0.0106
 7765SOL    HW134931   3.222   4.662   9.186  0.0538 -0.4213 -0.5208
 7765SOL    HW234932   3.121   4.574   9.119 -0.8605  0.4989 -0.7938
 7766SOL     OW34933   4.019   4.152   4.201 -0.8487 -0.1995  0.0479
 7766SOL    HW134934   4.026   4.244   4.177  1.6957 -0.6618 -0.9975
 7766SOL    HW234935   4.100   4.127   4.156 -0.9630 -1.0994  0.3244
 7767SOL     OW34936   3.683   1.721   6.974  0.0955 -0.0936  0.6548
 7767SOL    HW134937   3.758   1.666   6.995 -0.4509 -1.3036 -0.5660
 7767SOL    HW234938   3.640   1.736   7.059  2.7639  0.8569  1.8327
 7768SOL     OW34939   1.200   1.853   2.606  0.3958 -0.7765 -1.0065
 7768SOL    HW134940   1.277   1.858   2.663 -1.4752 -0.4970  1.4765
 7768SOL    HW234941   1.131   1.816   2.661  0.4975 -0.4477 -0.6634
 7769SOL     OW34942   4.297   0.149   6.218 -0.0153 -0.5281  0.2192
 7769SOL    HW134943   4.224   0.127   6.275 -0.6707  0.5111 -0.2063
 7769SOL    HW234944   4.368   0.098   6.257  0.5668 -0.4992 -0.7914
 7770SOL     OW34945   4.420   0.969  11.731  0.6310  0.1971 -0.1179
 7770SOL    HW134946   4.487   1.010  11.785  2.6268 -0.8812 -1.7418
 7770SOL    HW234947   4.362   1.044  11.722  0.4486  0.2795  1.8919
 7771SOL     OW34948   4.596   0.000  16.899 -0.0587  0.3738  0.3091
 7771SOL    HW134949   4.625   4.705  16.983 -0.9641 -1.0046  0.0521
 7771SOL    HW234950   4.504   4.716  16.905 -0.0264  0.6225  1.7358
 7772SOL     OW34951   4.505   4.499   4.268 -0.1576 -0.3417 -0.2354
 7772SOL    HW134952   4.572   4.553   4.227  0.1511  1.0570  2.0729
 7772SOL    HW234953   4.468   4.563   4.329  0.0982 -0.8319  0.4257
 7773SOL     OW34954   4.427   3.912   8.486 -0.9298 -0.0352  0.4055
 7773SOL    HW134955   4.437   3.820   8.509  0.1666  0.0893  0.4394
 7773SOL    HW234956   4.413   3.955   8.570 -3.6091  2.3351 -1.2657
 7774SOL     OW34957   2.485   2.000   0.252  0.1130  0.7445 -0.8733
 7774SOL    HW134958   2.465   2.045   0.170  0.4782 -0.1207 -1.4367
 7774SOL    HW234959   2.516   2.071   0.308  0.4507  1.5626 -2.1022
 7775SOL     OW34960   2.858   2.239   4.599  0.0745 -0.0460 -0.3962
 7775SOL    HW134961   2.778   2.187   4.597 -0.7901  1.3581 -1.5657
 7775SOL    HW234962   2.913   2.187   4.659  0.3324 -1.0120 -1.4704
 7776SOL     OW34963   4.553   2.850  10.944  0.1964 -0.0422 -0.0997
 7776SOL    HW134964   4.520   2.843  10.854 -1.3666  0.6249  0.4289
 7776SOL    HW234965   4.646   2.852  10.919 -0.0061  0.9022 -0.7769
 7777SOL     OW34966   2.087   4.235  16.037  0.0973  0.2830 -0.1515
 7777SOL    HW134967   2.053   4.300  16.098  0.0402 -1.7636  1.9818
 7777SOL    HW234968   2.120   4.182  16.110 -1.5781 -0.6564 -0.0895
 7778SOL     OW34969   1.162   4.445   1.368 -0.4472  0.2626 -0.3146
 7778SOL    HW134970   1.085   4.472   1.318 -0.1585  0.8341 -0.4594
 7778SOL    HW234971   1.214   4.404   1.299 -0.3937 -0.0166 -0.1070
 7779SOL     OW34972   3.321   2.383   6.223  0.0982  0.1626 -0.5669
 7779SOL    HW134973   3.228   2.360   6.230  0.0921 -0.3196 -2.2142
 7779SOL    HW234974   3.357   2.297   6.202 -1.9758 -0.9199  0.3193
 7780SOL     OW34975   4.713   4.666   7.403  0.2876 -0.2466 -0.4947
 7780SOL    HW134976   0.048   4.690   7.347 -1.1585 -0.7088 -2.6270
 7780SOL    HW234977   4.738   4.706   7.487  0.3751  1.4663 -1.3305
 7781SOL     OW34978   0.432   2.263   5.814 -0.3982 -0.2176  0.3983
 7781SOL    HW134979   0.372   2.246   5.742 -0.4486 -0.5852  0.5265
 7781SOL    HW234980   0.369   2.287   5.881  2.6511  0.2354  3.1243
 7782SOL     OW34981   4.192   3.261   9.052  0.1016 -0.1323  0.2210
 7782SOL    HW134982   4.271   3.279   9.103  0.3579 -0.8042  0.0561
 7782SOL    HW234983   4.135   3.337   9.067 -0.9269 -0.8820  0.0541
 7783SOL     OW34984   2.943   1.065  11.765  0.4921 -0.1094  0.1874
 7783SOL    HW134985   3.005   0.999  11.733 -1.4167 -1.2595 -1.1506
 7783SOL    HW234986   2.963   1.073  11.858  1.7003  1.8940 -0.2439
 7784SOL     OW34987   3.464   2.184   8.107  0.0309  0.3874  0.6975
 7784SOL    HW134988   3.528   2.114   8.094 -0.1631  0.5789 -1.1901
 7784SOL    HW234989   3.505   2.248   8.165  2.6404 -1.5332  0.9549
 7785SOL     OW34990   1.711   2.432   4.817  0.2993 -0.3908 -0.3279
 7785SOL    HW134991   1.794   2.458   4.777 -0.1593  2.3980  0.5292
 7785SOL    HW234992   1.653   2.388   4.755 -1.4106  2.8103 -1.0360
 7786SOL     OW34993   4.511   2.458  11.249  0.0687  0.3540  0.3246
 7786SOL    HW134994   4.575   2.397  11.212 -2.5203 -2.1264 -0.0754
 7786SOL    HW234995   4.564   2.526  11.289  3.6023 -0.2121 -3.3459
 7787SOL     OW34996   0.821   3.419   4.788  0.2211 -0.3222 -0.5839
 7787SOL    HW134997   0.837   3.470   4.867 -0.9683  0.1509 -0.6600
 7787SOL    HW234998   0.728   3.415   4.769 -0.3862  2.8509  1.7209
 7788SOL     OW34999   4.384   4.431   1.372 -0.6512 -0.2185  0.1917
 7788SOL    HW135000   4.402   4.343   1.406  2.1219  0.7549  1.2262
 7788SOL    HW235001   4.423   4.492   1.434  3.4686 -1.9466 -0.7388
 7789SOL     OW35002   0.618   4.192   8.578  0.2273 -0.0902 -0.3307
 7789SOL    HW135003   0.681   4.265   8.575 -1.2052  1.2510  2.1258
 7789SOL    HW235004   0.541   4.233   8.618  0.2440 -1.3415  0.9775
 7790SOL     OW35005   3.317   2.670   6.197  0.1175  0.2376  0.6436
 7790SOL    HW135006   3.369   2.686   6.119 -0.5447 -0.6085  0.0345
 7790SOL    HW235007   3.312   2.574   6.198  0.9287  0.1843 -0.0375
 7791SOL     OW35008   1.857   1.474   1.575  0.5510 -0.1868 -0.3195
 7791SOL    HW135009   1.939   1.504   1.537  0.2761  1.3617  0.3205
 7791SOL    HW235010   1.803   1.552   1.564  2.0575  0.7645 -0.9066
 7792SOL     OW35011   2.219   3.961  15.824 -0.2377  0.3979 -0.1143
 7792SOL    HW135012   2.134   3.962  15.868  0.2313 -0.1015  0.7982
 7792SOL    HW235013   2.231   3.868  15.803 -0.2004  0.3345  0.1908
 7793SOL     OW35014   0.227   1.721   0.861  0.6831 -0.2556  0.3526
 7793SOL    HW135015   0.231   1.625   0.856 -0.7381 -0.1414 -2.6068
 7793SOL    HW235016   0.255   1.743   0.950 -2.1888  1.1180  0.9078
 7794SOL     OW35017   3.017   1.682  17.699  0.0614  0.3327 -0.2465
 7794SOL    HW135018   3.109   1.688  17.675 -0.0660  0.7106 -0.6420
 7794SOL    HW235019   2.983   1.708  17.613 -0.8326  0.5595  0.1759
 7795SOL     OW35020   3.363   0.534   9.886  0.6472  0.1178  0.1312
 7795SOL    HW135021   3.425   0.594   9.844  1.1103  0.1955  0.9287
 7795SOL    HW235022   3.274   0.556   9.860  0.4489  1.0133  1.5897
 7796SOL     OW35023   2.226   2.456  15.238  0.6226  0.0028  0.3972
 7796SOL    HW135024   2.227   2.550  15.218 -3.2514  0.4970  2.6587
 7796SOL    HW235025   2.165   2.450  15.311  2.0824  2.2752  1.8129
 7797SOL     OW35026   2.799   0.375   5.060  0.1776  0.2476 -0.0796
 7797SOL    HW135027   2.778   0.288   5.025  2.1297  0.2481 -1.2238
 7797SOL    HW235028   2.854   0.420   4.996  1.9831  0.6338  1.7577
 7798SOL     OW35029   4.297   3.878   3.588 -0.0003 -0.1073 -0.2304
 7798SOL    HW135030   4.311   3.851   3.679  4.2031  0.5710 -0.6629
 7798SOL    HW235031   4.352   3.956   3.594 -0.2332  0.1223 -1.1605
 7799SOL     OW35032   3.650   0.519   8.012 -0.3823 -0.3924 -0.6574
 7799SOL    HW135033   3.689   0.601   7.983 -0.7627 -0.3262 -0.9860
 7799SOL    HW235034   3.585   0.514   7.942  0.9994 -1.0923 -1.9000
 7800SOL     OW35035   3.787   1.055   5.471  0.0121 -0.2960  0.4365
 7800SOL    HW135036   3.806   1.099   5.554  2.2888  1.3153 -0.9628
 7800SOL    HW235037   3.700   1.014   5.477  0.1216 -0.3005  2.0345
 7801SOL     OW35038   4.330   0.883  12.088 -0.3598 -0.1946  0.8079
 7801SOL    HW135039   4.334   0.887  12.183 -0.1934  1.0541  0.7527
 7801SOL    HW235040   4.304   0.969  12.054 -1.3189 -0.2113  1.5045
 7802SOL     OW35041   1.471   1.785  17.472  0.3589  0.1765  0.4869
 7802SOL    HW135042   1.385   1.824  17.486 -0.5430 -1.3800 -0.6562
 7802SOL    HW235043   1.526   1.862  17.455 -0.2544  0.2528 -1.1954
 7803SOL     OW35044   1.473   0.520   7.182  0.2511 -0.0065 -0.1200
 7803SOL    HW135045   1.559   0.495   7.216  0.0898 -0.2347  0.1105
 7803SOL    HW235046   1.482   0.611   7.153 -0.0654 -0.2495 -0.9785
 7804SOL     OW35047   0.556   3.033   3.273  0.1287  0.5151  0.0808
 7804SOL    HW135048   0.623   3.097   3.297  1.3900 -0.8944  0.3220
 7804SOL    HW235049   0.493   3.090   3.228 -1.0191  1.5842  3.0316
 7805SOL     OW35050   4.564   4.527   1.988 -0.8393 -0.0586  0.7095
 7805SOL    HW135051   4.639   4.475   1.959 -0.7582 -1.2225  3.0742
 7805SOL    HW235052   4.569   4.599   1.925 -1.3221 -0.6059  0.0434
 7806SOL     OW35053   0.887   0.668   8.261  0.5393  0.0825  0.2224
 7806SOL    HW135054   0.869   0.746   8.208 -0.7896 -0.7251 -0.5257
 7806SOL    HW235055   0.939   0.616   8.200  0.7107  0.1725  0.2924
 7807SOL     OW35056   2.935   4.219   4.880 -0.0010 -0.4688  0.0332
 7807SOL    HW135057   2.909   4.308   4.854  1.6616  0.0061  0.0000
 7807SOL    HW235058   2.981   4.233   4.963 -0.3124  1.4586 -0.1242
 7808SOL     OW35059   4.172   4.561  11.641 -0.2068  0.2231 -0.0994
 7808SOL    HW135060   4.110   4.615  11.691  0.7803  1.7924 -0.5502
 7808SOL    HW235061   4.223   4.621  11.586  1.2118  1.0094  2.0501
 7809SOL     OW35062   3.019   0.116  16.978  0.5372  0.0945  0.2682
 7809SOL    HW135063   3.033   0.210  16.965 -0.3479  0.2338  0.3401
 7809SOL    HW235064   2.925   0.125  16.991  1.1580  2.0844  3.5480
 7810SOL     OW35065   2.106   0.014   9.452  0.0942  0.0027  0.2143
 7810SOL    HW135066   2.077   0.004   9.362 -2.8113 -1.3217  1.3186
 7810SOL    HW235067   2.180   4.693   9.439 -1.5152 -1.4400 -2.2044
 7811SOL     OW35068   1.683   1.649   8.062  0.0038  0.1235 -0.6549
 7811SOL    HW135069   1.698   1.606   8.147 -1.7043  1.1792  0.1806
 7811SOL    HW235070   1.697   1.581   7.995 -0.8605 -0.2096 -0.4934
 7812SOL     OW35071   3.105   0.503  11.246  0.3942  0.3408 -0.0088
 7812SOL    HW135072   3.027   0.487  11.192 -0.6953 -0.0212  1.6838
 7812SOL    HW235073   3.141   0.416  11.230 -0.7922 -0.2140  0.3213
 7813SOL     OW35074   0.743   3.777   3.258 -0.3825 -0.1099  0.3675
 7813SOL    HW135075   0.677   3.723   3.214  0.0916 -1.5848  1.4597
 7813SOL    HW235076   0.709   3.866   3.245 -1.6680 -0.6740 -0.1309
 7814SOL     OW35077   4.195   0.289  14.147  0.6002 -0.1748  0.2235
 7814SOL    HW135078   4.113   0.266  14.190  1.6017 -2.6969  0.7621
 7814SOL    HW235079   4.155   0.345  14.080  2.1290  0.5205 -0.0983
 7815SOL     OW35080   3.280   1.096   8.734  0.2377 -0.5608 -0.5336
 7815SOL    HW135081   3.305   1.006   8.759 -0.2242 -0.7532 -0.7635
 7815SOL    HW235082   3.211   1.114   8.799 -0.3729  1.4063 -1.7420
 7816SOL     OW35083   3.199   2.122   7.565  0.2148 -0.0252  0.4410
 7816SOL    HW135084   3.244   2.142   7.647  1.9931 -1.7860 -0.0885
 7816SOL    HW235085   3.106   2.128   7.584  0.6664  0.9894  2.3033
 7817SOL     OW35086   3.626   4.642   7.540 -0.1848  0.1038 -0.3800
 7817SOL    HW135087   3.682   4.672   7.468 -2.4799  2.8223 -1.0443
 7817SOL    HW235088   3.642   4.709   7.606 -0.4090  1.9333 -2.1703
 7818SOL     OW35089   2.752   2.150   6.403  0.6005  0.0474  0.0012
 7818SOL    HW135090   2.812   2.097   6.350  0.3277  0.5594 -0.8053
 7818SOL    HW235091   2.679   2.088   6.414  1.0586 -0.7343 -1.3315
 7819SOL     OW35092   3.091   2.762   6.582 -0.4262  0.4396  0.4786
 7819SOL    HW135093   3.185   2.747   6.588 -0.8276 -2.2132  0.0200
 7819SOL    HW235094   3.078   2.765   6.487  0.0872  0.3464  0.4097
 7820SOL     OW35095   0.908   1.765   8.147 -0.6068  0.2407  0.1834
 7820SOL    HW135096   0.847   1.785   8.218 -1.3326 -1.2620 -0.0416
 7820SOL    HW235097   0.987   1.807   8.183  0.3935 -2.1477  0.7275
 7821SOL     OW35098   0.433   0.917   4.136  0.2837  0.2530  0.4387
 7821SOL    HW135099   0.400   0.919   4.226 -0.4248  1.1142  0.1685
 7821SOL    HW235100   0.461   1.007   4.119  1.5195  0.2145  2.3736
 7822SOL     OW35101   2.576   3.527   0.348 -0.6413  0.1466  0.0100
 7822SOL    HW135102   2.545   3.618   0.348  0.0003  0.3685  0.8836
 7822SOL    HW235103   2.567   3.514   0.443  0.0127 -0.6813 -0.0430
 7823SOL     OW35104   2.841   1.565   2.332  0.4506 -0.1799  0.0740
 7823SOL    HW135105   2.832   1.493   2.270 -3.3890  0.5899 -0.2431
 7823SOL    HW235106   2.764   1.617   2.312  0.7380  0.8098  1.5132
 7824SOL     OW35107   4.214   0.034  12.049 -0.2295 -0.7446 -0.3172
 7824SOL    HW135108   4.181   0.113  12.006  1.2611  0.9902  1.6462
 7824SOL    HW235109   4.137   4.721  12.070  0.8169 -2.1343  0.0605
 7825SOL     OW35110   4.510   0.495  14.240  0.3564  0.1955  0.1209
 7825SOL    HW135111   4.554   0.529  14.318 -0.7319 -0.4276  1.0116
 7825SOL    HW235112   4.558   0.422  14.201  0.2473  1.8008 -2.9906
 7826SOL     OW35113   3.512   3.058   1.839 -0.2379  0.1726  0.9888
 7826SOL    HW135114   3.570   3.127   1.806  2.0634 -2.5034 -0.5579
 7826SOL    HW235115   3.474   3.100   1.916 -0.3621  0.7110  0.6288
 7827SOL     OW35116   4.500   2.407  11.668 -0.0169 -0.8263 -0.4227
 7827SOL    HW135117   4.574   2.346  11.674  0.1850 -0.3235  2.2481
 7827SOL    HW235118   4.480   2.440  11.756  2.7047 -1.9434  0.6177
 7828SOL     OW35119   0.217   3.212  12.343 -0.0802  0.5616  0.2507
 7828SOL    HW135120   0.286   3.198  12.278 -0.2901 -0.7171  0.3038
 7828SOL    HW235121   0.209   3.307  12.348 -0.3822  0.7572 -4.0428
 7829SOL     OW35122   2.288   3.263  11.522  0.0288 -0.5791 -0.0299
 7829SOL    HW135123   2.252   3.332  11.578  1.0203 -0.8490  0.9388
 7829SOL    HW235124   2.263   3.299  11.437  0.4873  3.6011  1.5652
 7830SOL     OW35125   3.419   2.807   7.666  0.4888 -0.2842 -0.1467
 7830SOL    HW135126   3.392   2.899   7.671 -2.7012 -1.1008 -1.9745
 7830SOL    HW235127   3.362   2.780   7.738 -0.1398  1.5719  0.0409
 7831SOL     OW35128   0.663   0.193  13.720 -0.3406  0.0291  0.6139
 7831SOL    HW135129   0.735   0.172  13.779  0.2680 -0.0484 -0.1600
 7831SOL    HW235130   0.706   0.232  13.644 -1.3836  1.3291  0.6799
 7832SOL     OW35131   3.026   1.631   3.197  0.4307  0.0262 -0.1430
 7832SOL    HW135132   2.946   1.637   3.249  1.3095 -0.0979  1.2341
 7832SOL    HW235133   3.075   1.563   3.244  1.8847  1.0580 -0.1750
 7833SOL     OW35134   0.845   0.423   4.018 -0.2115  0.4581  0.1721
 7833SOL    HW135135   0.829   0.454   4.107  0.3896  1.1031  0.0514
 7833SOL    HW235136   0.820   0.332   4.034  2.0014 -0.0213  0.9469
 7834SOL     OW35137   1.651   4.339   3.379 -0.0494  0.5359  0.2786
 7834SOL    HW135138   1.659   4.430   3.409  1.5523 -0.0699  1.6617
 7834SOL    HW235139   1.693   4.345   3.293  0.0846  0.5237  0.3434
 7835SOL     OW35140   0.244   1.900   5.066  0.0010 -0.0139 -0.2568
 7835SOL    HW135141   0.257   1.937   5.153 -0.9524  0.5730 -0.3668
 7835SOL    HW235142   0.314   1.835   5.053  0.4147  0.4020 -0.1329
 7836SOL     OW35143   4.695   3.348   9.665  0.0882 -0.3729  0.0090
 7836SOL    HW135144   4.640   3.296   9.606 -0.3669  0.6651 -0.4822
 7836SOL    HW235145   4.695   3.288   9.739 -2.9785 -0.6744 -0.2231
 7837SOL     OW35146   1.084   2.751  12.446 -0.1994 -0.0774 -0.3177
 7837SOL    HW135147   0.989   2.743  12.442 -0.3527  0.8776  1.2163
 7837SOL    HW235148   1.104   2.710  12.362  0.9831  1.0283 -0.5887
 7838SOL     OW35149   4.503   1.377  14.001  0.1006  0.3034 -0.4062
 7838SOL    HW135150   4.541   1.289  14.009  1.3347  1.0249  1.5803
 7838SOL    HW235151   4.489   1.398  14.093 -0.2828 -0.9948 -0.1611
 7839SOL     OW35152   0.054   4.439  12.023 -0.6265 -0.1024  0.5188
 7839SOL    HW135153   0.068   4.479  11.937  0.7299  0.5313  1.0258
 7839SOL    HW235154   0.134   4.387  12.034 -0.9469 -1.0574 -1.7385
 7840SOL     OW35155   3.113   0.586   7.622  0.1193 -0.3157  0.2751
 7840SOL    HW135156   3.188   0.643   7.638 -0.2998  0.6015 -0.9818
 7840SOL    HW235157   3.059   0.591   7.702 -1.7209 -0.5437 -0.9483
 7841SOL     OW35158   2.595   0.152   6.839  0.0512 -0.4210  0.0006
 7841SOL    HW135159   2.601   0.062   6.869 -0.8490 -0.7940 -0.9220
 7841SOL    HW235160   2.522   0.143   6.778  0.4741  0.3642 -0.6247
 7842SOL     OW35161   4.103   2.099  10.708  0.9116 -0.3201  0.2106
 7842SOL    HW135162   4.154   2.102  10.627 -0.5204 -0.1933 -0.6885
 7842SOL    HW235163   4.022   2.055  10.682  0.0552  0.7123  1.1165
 7843SOL     OW35164   3.825   3.718   4.291  0.4166  0.5957 -0.5389
 7843SOL    HW135165   3.895   3.680   4.237 -0.2717  2.6976 -2.8903
 7843SOL    HW235166   3.863   3.805   4.300  0.4792  0.5717 -0.5639
 7844SOL     OW35167   0.981   2.025   4.465 -0.6191  0.0455  0.0641
 7844SOL    HW135168   1.060   2.078   4.476  0.0889 -0.9824 -0.1178
 7844SOL    HW235169   1.019   1.941   4.441  1.9176  1.9342 -2.5941
 7845SOL     OW35170   2.098   4.134   8.281  0.1216 -0.0258 -0.4661
 7845SOL    HW135171   2.042   4.096   8.349  1.1343  0.9225  0.8690
 7845SOL    HW235172   2.034   4.159   8.215 -0.1912  0.4417  0.0198
 7846SOL     OW35173   0.805   1.702   3.830  0.3264 -0.1750 -0.8129
 7846SOL    HW135174   0.723   1.696   3.781  1.2862  0.2117 -2.4449
 7846SOL    HW235175   0.838   1.612   3.837 -0.4091 -0.4715 -1.0811
 7847SOL     OW35176   4.626   1.283  17.661 -0.2163 -0.0798 -0.0370
 7847SOL    HW135177   4.713   1.270  17.624  0.0576  0.4705  0.4260
 7847SOL    HW235178   4.577   1.212  17.618 -0.5622  1.3670 -2.0489
 7848SOL     OW35179   1.356   1.978   3.016  0.1234 -0.0287 -0.9115
 7848SOL    HW135180   1.339   1.984   3.110  0.4905 -1.4803 -0.7460
 7848SOL    HW235181   1.450   1.994   3.008  1.1507 -4.8756  1.0647
 7849SOL     OW35182   4.691   4.120   6.984 -0.5978  0.2147 -0.0686
 7849SOL    HW135183   0.033   4.102   7.033  0.8919  0.6110 -2.3691
 7849SOL    HW235184   4.690   4.215   6.981 -2.9176  0.1570 -0.7955
 7850SOL     OW35185   3.916   0.634   1.508 -0.0542  0.0537  0.2318
 7850SOL    HW135186   3.950   0.662   1.593  4.0237 -1.7912 -0.7829
 7850SOL    HW235187   3.829   0.672   1.503  0.8394  2.1422  0.6856
 7851SOL     OW35188   0.459   1.473   2.717  0.0384  0.1327  0.4244
 7851SOL    HW135189   0.496   1.386   2.729  1.3479  0.5927 -0.3252
 7851SOL    HW235190   0.521   1.507   2.653 -0.2197 -0.3443 -0.0856
 7852SOL     OW35191   0.379   3.700   3.377  0.1381  0.3871 -0.3885
 7852SOL    HW135192   0.409   3.738   3.460 -0.5788  1.5220 -0.6454
 7852SOL    HW235193   0.360   3.779   3.328 -0.3138  0.0002 -0.8424
 7853SOL     OW35194   1.695   2.315   5.940 -0.2572  0.0810  0.0857
 7853SOL    HW135195   1.682   2.315   5.845  1.4186  1.6889 -0.1378
 7853SOL    HW235196   1.610   2.291   5.976 -0.2841  1.0395  0.6734
 7854SOL     OW35197   2.848   0.164   9.728 -0.4102  0.4260  0.1256
 7854SOL    HW135198   2.903   0.088   9.713  0.7882  1.2591  0.2820
 7854SOL    HW235199   2.856   0.164   9.823 -1.2671 -0.7851  0.2005
 7855SOL     OW35200   0.534   1.143  12.438  0.3669  0.6913 -0.3728
 7855SOL    HW135201   0.500   1.116  12.524  0.5324  0.6195 -0.3315
 7855SOL    HW235202   0.621   1.105  12.436 -0.5058 -1.3669  0.4494
 7856SOL     OW35203   3.223   2.048   5.300  0.8975 -0.1920  0.8223
 7856SOL    HW135204   3.313   2.039   5.331  1.4083  0.0837 -0.5772
 7856SOL    HW235205   3.223   1.989   5.225 -0.8474 -1.8998  2.1646
 7857SOL     OW35206   3.449   3.939   4.974 -0.7887  0.4984  0.1953
 7857SOL    HW135207   3.510   3.891   4.918 -1.8210 -1.3805  0.6697
 7857SOL    HW235208   3.451   4.021   4.924 -0.8926  1.9453  2.5516
 7858SOL     OW35209   2.262   3.991   4.125 -0.6107  0.0784  0.2499
 7858SOL    HW135210   2.357   3.983   4.115 -0.4208  0.6757  1.6254
 7858SOL    HW235211   2.235   3.909   4.084 -0.6350  0.4238 -0.4202
 7859SOL     OW35212   3.419   1.344   3.606 -0.3897  0.6861 -0.3589
 7859SOL    HW135213   3.445   1.316   3.693  1.2455  1.8680 -0.4596
 7859SOL    HW235214   3.334   1.301   3.603  0.8239 -1.7625  0.4562
 7860SOL     OW35215   0.553   2.505  15.880  0.2259  0.4000 -0.1763
 7860SOL    HW135216   0.564   2.486  15.787  0.7133 -0.5490  0.0775
 7860SOL    HW235217   0.481   2.568  15.872  0.1217  0.1558 -1.1381
 7861SOL     OW35218   2.354   2.481   6.649  0.3148 -0.5931 -0.1402
 7861SOL    HW135219   2.440   2.478   6.608  0.2336  0.4570 -0.4013
 7861SOL    HW235220   2.294   2.466   6.576 -2.4897 -0.7388  2.2029
 7862SOL     OW35221   1.354   2.741   4.534  0.0268 -0.8985  0.5861
 7862SOL    HW135222   1.263   2.725   4.510 -0.5373  3.7534 -0.2784
 7862SOL    HW235223   1.400   2.719   4.453 -0.1784  2.3706 -0.3986
 7863SOL     OW35224   1.610   4.604   1.922 -0.7588 -0.7129  0.0601
 7863SOL    HW135225   1.546   4.621   1.853 -1.7779  0.1454  1.2037
 7863SOL    HW235226   1.609   4.686   1.972  3.1368 -1.2102  0.9473
 7864SOL     OW35227   3.822   2.740   4.711  0.2347 -0.0148 -0.1584
 7864SOL    HW135228   3.822   2.778   4.799  0.2814  1.5592 -0.8471
 7864SOL    HW235229   3.907   2.697   4.711 -0.2081 -0.9027  0.7707
 7865SOL     OW35230   0.573   0.892  12.566  0.0670  0.4041  0.8211
 7865SOL    HW135231   0.607   0.804  12.551  0.1870  0.8347 -1.5708
 7865SOL    HW235232   0.650   0.938  12.534 -0.0651  1.6554  2.3136
 7866SOL     OW35233   0.141   0.464   2.007  0.1698 -0.0246  0.1447
 7866SOL    HW135234   0.069   0.498   1.954  0.9306 -1.3762 -1.7247
 7866SOL    HW235235   0.113   0.373   2.015 -1.2540  0.1685 -2.5619
 7867SOL     OW35236   0.053   2.207   1.633 -0.1894  0.3368 -0.3112
 7867SOL    HW135237   4.739   2.129   1.617  1.4966 -0.8852 -0.0312
 7867SOL    HW235238   0.072   2.231   1.542 -1.4882  0.8345 -0.4520
 7868SOL     OW35239   3.585   1.373  10.604  0.6072  0.0128 -0.0868
 7868SOL    HW135240   3.674   1.361  10.571 -0.5447 -1.4648 -2.6753
 7868SOL    HW235241   3.566   1.282  10.626  0.5818  0.3854  1.4251
 7869SOL     OW35242   4.555   2.900   2.672 -0.4476 -0.0113  0.0532
 7869SOL    HW135243   4.639   2.888   2.628  0.3752  1.5212  1.1795
 7869SOL    HW235244   4.554   2.991   2.701  0.4248 -0.6317  2.0351
 7870SOL     OW35245   2.329   0.899   6.062 -0.1645 -0.2325  0.5783
 7870SOL    HW135246   2.235   0.904   6.081 -0.3350  3.4497 -1.2314
 7870SOL    HW235247   2.361   0.813   6.090  0.1446 -0.2927  0.0232
 7871SOL     OW35248   1.049   1.851  16.508 -0.2545 -0.3706 -0.0827
 7871SOL    HW135249   1.129   1.858  16.559  0.2944 -2.0905 -0.6835
 7871SOL    HW235250   1.065   1.768  16.461  0.4823  0.0341 -0.5432
 7872SOL     OW35251   0.224   4.410   5.435  0.5279 -0.5149 -0.2233
 7872SOL    HW135252   0.278   4.332   5.422 -0.0022 -0.8271 -0.5289
 7872SOL    HW235253   0.157   4.373   5.492 -1.2087  1.3903 -1.0612
 7873SOL     OW35254   2.439   3.310   7.518  0.0460 -0.0429 -0.4570
 7873SOL    HW135255   2.403   3.364   7.447 -3.3813 -1.1764  0.4235
 7873SOL    HW235256   2.433   3.220   7.486  2.0009  0.0697 -1.1017
 7874SOL     OW35257   0.649   3.632   7.266  0.2482  0.4142 -0.9636
 7874SOL    HW135258   0.595   3.702   7.303  1.3555  0.5917  0.3139
 7874SOL    HW235259   0.704   3.625   7.344  0.7418  1.2945 -1.2275
 7875SOL     OW35260   4.144   0.736   7.814 -0.4290  0.1333  0.6433
 7875SOL    HW135261   4.231   0.702   7.838 -0.0703  2.1267  2.1671
 7875SOL    HW235262   4.132   0.813   7.870  0.6602 -0.6370  1.9633
 7876SOL     OW35263   2.459   3.080   2.222 -0.1000  0.4366  0.2477
 7876SOL    HW135264   2.386   3.099   2.282 -0.9314  0.6180 -0.8306
 7876SOL    HW235265   2.530   3.127   2.266 -0.1511  1.6422 -0.9842
 7877SOL     OW35266   0.018   0.137  10.002  0.1876  0.5628 -0.2493
 7877SOL    HW135267   4.731   0.118   9.912 -1.8249  0.3139  0.3893
 7877SOL    HW235268   4.708   0.069  10.049 -0.3618  1.9769  1.2219
 7878SOL     OW35269   0.312   0.421  10.985 -0.2037  0.7540  0.0634
 7878SOL    HW135270   0.308   0.443  11.078  1.9982 -0.1273  0.3804
 7878SOL    HW235271   0.219   0.409  10.966  0.1075  0.6419 -1.4287
 7879SOL     OW35272   2.974   3.917  11.583  0.3143 -0.3459  0.2010
 7879SOL    HW135273   2.887   3.883  11.560  0.1529  2.2655 -3.1131
 7879SOL    HW235274   2.973   3.891  11.675  1.3888 -0.0908  0.2799
 7880SOL     OW35275   3.688   4.149   7.611  0.3919  0.0135  0.0675
 7880SOL    HW135276   3.626   4.222   7.609  2.5377  1.7514 -3.0714
 7880SOL    HW235277   3.747   4.179   7.542  2.2245  0.3635  1.7797
 7881SOL     OW35278   3.219   2.641   9.603 -0.1003  0.2174 -0.2741
 7881SOL    HW135279   3.168   2.671   9.679  0.4202 -0.7009  0.4350
 7881SOL    HW235280   3.208   2.726   9.560 -2.3972  0.8806  1.5867
 7882SOL     OW35281   2.189   2.758   4.456 -0.3904 -0.2779  0.2267
 7882SOL    HW135282   2.116   2.768   4.517  0.1931  2.9254  0.3561
 7882SOL    HW235283   2.151   2.800   4.379  0.3940  2.0251  1.0942
 7883SOL     OW35284   1.318   0.677  10.217 -0.0839  0.0411  0.2141
 7883SOL    HW135285   1.281   0.639  10.296  0.2877 -0.5610  0.1012
 7883SOL    HW235286   1.238   0.671  10.164  0.7606 -0.2804 -1.0269
 7884SOL     OW35287   2.155   1.067   4.580 -0.3125  0.3645 -0.0201
 7884SOL    HW135288   2.209   0.996   4.616 -2.1482 -0.1205  1.7438
 7884SOL    HW235289   2.114   1.095   4.661 -1.2802  0.6608 -0.6128
 7885SOL     OW35290   3.436   0.831   7.820 -0.2764 -0.0910  0.0295
 7885SOL    HW135291   3.357   0.884   7.819 -0.9754 -1.1071  0.8965
 7885SOL    HW235292   3.500   0.898   7.843  1.6453 -1.9437  0.1254
 7886SOL     OW35293   1.675   1.177  16.564  0.3290  0.6293 -0.1438
 7886SOL    HW135294   1.683   1.082  16.559 -0.2290  0.6297 -1.1752
 7886SOL    HW235295   1.659   1.200  16.472 -2.6787  0.6852  0.3757
 7887SOL     OW35296   0.431   1.946   6.688  0.0071 -0.1760 -0.0948
 7887SOL    HW135297   0.453   1.891   6.764  1.9436  0.0217 -0.5085
 7887SOL    HW235298   0.411   2.021   6.746  0.2306  0.3819 -0.7431
 7888SOL     OW35299   4.491   2.890   7.057 -0.4341  0.3099  0.6283
 7888SOL    HW135300   4.516   2.800   7.035  0.5233  1.2954 -2.2940
 7888SOL    HW235301   4.519   2.932   6.976  2.9445 -1.6899  0.7489
 7889SOL     OW35302   1.476   2.953  10.514  0.2334 -0.4243 -0.2795
 7889SOL    HW135303   1.482   2.939  10.420 -1.0876  0.8258 -0.5462
 7889SOL    HW235304   1.506   3.042  10.533  1.1735 -1.0278  1.1275
 7890SOL     OW35305   4.392   0.784   7.596 -0.7920 -0.5213  0.2048
 7890SOL    HW135306   4.436   0.749   7.518 -0.0296 -0.7130  0.7121
 7890SOL    HW235307   4.309   0.811   7.559 -0.0842  0.1546 -0.8950
 7891SOL     OW35308   1.905   2.091  16.856 -0.2896  0.2457  0.4420
 7891SOL    HW135309   1.811   2.077  16.842 -0.0027 -2.9068  1.7401
 7891SOL    HW235310   1.940   2.078  16.768 -2.2432  0.7962 -0.4179
 7892SOL     OW35311   0.630   3.551   1.765  0.4654  0.2836 -0.3973
 7892SOL    HW135312   0.603   3.573   1.676  1.2756  1.4403 -0.3595
 7892SOL    HW235313   0.726   3.561   1.764  0.3522  1.2055 -1.8196
 7893SOL     OW35314   4.494   4.011   8.019  0.3871  0.0211  0.3419
 7893SOL    HW135315   4.436   4.028   7.945  0.3887 -2.2467 -0.1807
 7893SOL    HW235316   4.515   4.102   8.042 -0.0483  0.2171 -0.0501
 7894SOL     OW35317   3.118   1.946  11.894 -0.0660  0.2453 -0.1889
 7894SOL    HW135318   3.084   2.033  11.872  0.9711  0.6171 -0.3262
 7894SOL    HW235319   3.034   1.901  11.904 -0.2809  0.4394 -1.0325
 7895SOL     OW35320   1.309   2.943  16.358 -0.3493 -0.0244  0.3090
 7895SOL    HW135321   1.365   3.012  16.321 -0.7821  0.4126  0.4632
 7895SOL    HW235322   1.232   2.999  16.367 -0.6209 -0.9480  3.6440
 7896SOL     OW35323   4.028   0.789   9.820 -0.3603 -0.0767 -0.0132
 7896SOL    HW135324   4.051   0.824   9.734 -1.6054  1.3190  0.2142
 7896SOL    HW235325   3.992   0.707   9.787  0.8409 -0.4582 -0.4019
 7897SOL     OW35326   2.266   4.505   6.017 -0.0887 -0.0878 -0.1866
 7897SOL    HW135327   2.269   4.597   6.044  1.6393 -0.5839  1.3262
 7897SOL    HW235328   2.220   4.514   5.933  0.9971 -0.1946 -0.7828
 7898SOL     OW35329   3.692   2.072  12.052 -0.1175  0.4719 -0.0022
 7898SOL    HW135330   3.753   2.057  12.125  0.0108  0.7836 -0.0452
 7898SOL    HW235331   3.736   2.127  11.988 -0.3483  1.6627  0.8590
 7899SOL     OW35332   0.480   3.657   4.031  0.0851  0.1028  0.1115
 7899SOL    HW135333   0.396   3.660   3.985  0.3257  0.7925 -0.2798
 7899SOL    HW235334   0.505   3.749   4.025  0.7444  0.0678  2.4261
 7900SOL     OW35335   1.230   2.030  12.208  0.1407  0.2254 -0.4515
 7900SOL    HW135336   1.219   2.122  12.230  0.5778 -0.0252  0.8217
 7900SOL    HW235337   1.144   2.008  12.171  0.2627 -0.9701 -0.0417
 7901SOL     OW35338   3.688   1.637   5.508 -0.1399 -0.2816 -0.3949
 7901SOL    HW135339   3.765   1.665   5.558  0.9266 -1.7135 -1.2319
 7901SOL    HW235340   3.733   1.567   5.462  1.0543  2.1098 -2.8841
 7902SOL     OW35341   3.687   3.403   5.997  0.5292 -0.0841  0.5327
 7902SOL    HW135342   3.674   3.317   6.035 -2.1551 -0.3101 -0.9292
 7902SOL    HW235343   3.675   3.395   5.903 -2.4851 -1.6955  1.0581
 7903SOL     OW35344   3.380   2.632   7.413  0.0388 -0.2981  0.2479
 7903SOL    HW135345   3.386   2.687   7.491  3.0859 -0.5631  0.1972
 7903SOL    HW235346   3.320   2.563   7.442 -1.6048  1.0429  0.0537
 7904SOL     OW35347   1.770   0.445  10.493  0.1934  0.1647  0.4417
 7904SOL    HW135348   1.796   0.393  10.569 -1.6517 -1.1083  0.2140
 7904SOL    HW235349   1.717   0.512  10.537 -1.0614  0.2788 -1.2309
 7905SOL     OW35350   0.824   3.598  14.559 -0.1054 -0.4197  0.5919
 7905SOL    HW135351   0.849   3.515  14.600 -1.1743 -1.3176 -0.5521
 7905SOL    HW235352   0.735   3.603  14.594  0.2467  2.3092  1.0466
 7906SOL     OW35353   1.824   3.259   3.030  0.1618 -0.1970  0.0623
 7906SOL    HW135354   1.770   3.221   2.961  1.1015  1.8878 -1.8114
 7906SOL    HW235355   1.785   3.345   3.049  1.2614  0.4644 -0.7055
 7907SOL     OW35356   4.378   1.005  17.699 -0.1872 -0.1890 -0.4754
 7907SOL    HW135357   4.361   1.099  17.695  3.0177  0.5450  2.8452
 7907SOL    HW235358   4.437   1.004   0.021 -1.4319 -0.0573  0.4901
 7908SOL     OW35359   2.814   2.193   9.513 -0.0463 -0.2579 -0.2354
 7908SOL    HW135360   2.790   2.235   9.596  2.0067  0.2025  0.1163
 7908SOL    HW235361   2.859   2.257   9.458  1.5348 -2.1313 -1.1194
 7909SOL     OW35362   2.404   1.428   4.925  0.0582  0.2284 -0.4807
 7909SOL    HW135363   2.389   1.395   4.836  0.8847  0.2666 -0.6362
 7909SOL    HW235364   2.329   1.486   4.935 -0.5599 -0.4562 -1.1418
 7910SOL     OW35365   4.280   1.380   1.849 -0.4414 -0.2736 -0.0903
 7910SOL    HW135366   4.254   1.471   1.834  1.7195  0.2691 -0.6664
 7910SOL    HW235367   4.363   1.383   1.801 -0.1086 -2.0000  0.3879
 7911SOL     OW35368   3.814   4.564   4.082 -0.3050  0.2643 -0.6884
 7911SOL    HW135369   3.766   4.531   4.157 -1.2216 -2.5085 -2.4676
 7911SOL    HW235370   3.767   4.645   4.065 -0.9370 -0.1832 -1.0688
 7912SOL     OW35371   0.154   1.447   6.013 -0.1487 -0.5280 -0.1338
 7912SOL    HW135372   0.071   1.429   6.057 -0.5490  2.3241  0.2677
 7912SOL    HW235373   0.149   1.538   5.985 -5.2621 -0.3935  1.3531
 7913SOL     OW35374   4.557   2.953   0.540  0.0927 -0.3404 -0.3081
 7913SOL    HW135375   4.643   2.983   0.572 -0.3037  1.3380 -0.8632
 7913SOL    HW235376   4.530   3.041   0.514 -0.5307 -0.1430  0.9672
 7914SOL     OW35377   3.708   3.650   4.706  0.2030  0.7690  0.1693
 7914SOL    HW135378   3.683   3.562   4.678 -1.1404  1.9272 -2.2588
 7914SOL    HW235379   3.631   3.695   4.672 -0.2864 -0.1645  0.0432
 7915SOL     OW35380   1.774   2.190  15.181  0.0180 -0.3158 -0.3712
 7915SOL    HW135381   1.856   2.238  15.186  0.0576 -0.3685 -0.4974
 7915SOL    HW235382   1.774   2.153  15.269  0.5661  0.1430 -0.1843
 7916SOL     OW35383   2.482   0.652   6.115  0.0011  0.1220  0.1701
 7916SOL    HW135384   2.562   0.703   6.122 -0.0562  0.1587  0.5533
 7916SOL    HW235385   2.515   0.564   6.095 -0.1605  0.2740 -0.7644
 7917SOL     OW35386   3.045   0.178   2.608 -0.3435  0.4031 -0.7594
 7917SOL    HW135387   2.996   0.227   2.541 -0.9805 -0.2081 -0.7419
 7917SOL    HW235388   3.036   0.086   2.585  0.7462  0.5399 -1.6980
 7918SOL     OW35389   0.653   2.829   1.653  0.4059  0.2067  0.4634
 7918SOL    HW135390   0.684   2.915   1.625  1.3433 -0.2713  0.0668
 7918SOL    HW235391   0.560   2.850   1.669  0.3279  0.4246 -0.2784
 7919SOL     OW35392   0.133   4.015   6.151  0.1329 -0.8329 -0.2732
 7919SOL    HW135393   0.111   4.096   6.196  0.3823 -0.8835 -0.0608
 7919SOL    HW235394   0.202   4.034   6.087  0.4929  1.7678  0.8923
 7920SOL     OW35395   2.273   1.088   8.153  1.0845 -0.0757  0.6278
 7920SOL    HW135396   2.208   1.104   8.221 -2.5023  0.8326 -2.9535
 7920SOL    HW235397   2.311   1.176   8.147  0.2266  0.2599  0.0621
 7921SOL     OW35398   2.487   2.417  15.218 -0.0970 -0.5391 -0.4727
 7921SOL    HW135399   2.503   2.511  15.224 -0.4662 -0.6066  1.4190
 7921SOL    HW235400   2.392   2.412  15.225 -0.0428 -0.1433  0.4278
 7922SOL     OW35401   4.255   3.185   6.998 -0.0448 -0.1140 -0.0157
 7922SOL    HW135402   4.274   3.095   6.972  0.0050 -0.7738  2.2804
 7922SOL    HW235403   4.244   3.187   7.093 -1.8271  0.4905 -0.2215
 7923SOL     OW35404   2.350   4.180   9.585  0.1988 -0.2449  0.5200
 7923SOL    HW135405   2.417   4.125   9.543  0.7855  0.0980  1.0070
 7923SOL    HW235406   2.393   4.201   9.668 -2.4033  1.3120  1.4862
 7924SOL     OW35407   4.352   1.237  11.585 -0.0215  0.0951 -0.2913
 7924SOL    HW135408   4.440   1.205  11.567 -0.1309 -0.0494 -0.5645
 7924SOL    HW235409   4.317   1.258  11.498  1.5745  0.3466 -0.8663
 7925SOL     OW35410   1.398   3.780  16.716 -0.0826 -0.4086 -0.4366
 7925SOL    HW135411   1.351   3.720  16.659 -0.4156  1.2926 -1.9649
 7925SOL    HW235412   1.406   3.737  16.800 -1.0560 -0.0712 -0.1787
 7926SOL     OW35413   3.369   0.468   7.381  0.3407  0.5094  0.3430
 7926SOL    HW135414   3.315   0.406   7.430 -0.0052 -0.7014 -1.5756
 7926SOL    HW235415   3.306   0.524   7.336  0.7304  0.4499 -0.2734
 7927SOL     OW35416   2.254   1.642   0.774 -0.6045 -0.2070  0.6028
 7927SOL    HW135417   2.297   1.648   0.690  1.6041 -1.8627  1.6118
 7927SOL    HW235418   2.181   1.581   0.760  0.5793 -2.0597  2.3946
 7928SOL     OW35419   2.599   2.174   5.177  0.5680 -0.1200  0.0115
 7928SOL    HW135420   2.603   2.136   5.265  2.9327  0.6103  0.2229
 7928SOL    HW235421   2.505   2.192   5.168  0.5951 -0.2211 -0.4530
 7929SOL     OW35422   3.017   1.419   4.700 -0.5475  0.5463  0.7945
 7929SOL    HW135423   3.006   1.506   4.659  1.5495  0.2091 -0.4949
 7929SOL    HW235424   2.955   1.415   4.773 -0.5179  1.5314  0.8810
 7930SOL     OW35425   1.978   0.284  10.616  0.1501  0.0180  0.0381
 7930SOL    HW135426   1.992   0.193  10.589 -3.2022  0.1967 -2.3527
 7930SOL    HW235427   2.063   0.316  10.588  0.2879  0.1462  0.5968
 7931SOL     OW35428   1.134   4.587   1.984  0.1495  0.2580 -0.1950
 7931SOL    HW135429   1.156   4.495   1.998 -0.2063  0.0654 -0.8802
 7931SOL    HW235430   1.109   4.580   1.891  1.0493  0.0354 -0.4197
 7932SOL     OW35431   0.741   2.041   9.830  0.2047  0.5083 -0.6448
 7932SOL    HW135432   0.705   2.128   9.812  0.7247  0.8936  0.1412
 7932SOL    HW235433   0.801   2.069   9.899  0.4161 -1.0643 -0.1924
 7933SOL     OW35434   0.907   0.862   4.295  0.2687 -0.2000 -0.0707
 7933SOL    HW135435   0.929   0.772   4.271 -1.1548 -1.0643  1.9033
 7933SOL    HW235436   0.814   0.851   4.315  0.1843  1.2910  0.3517
 7934SOL     OW35437   2.956   3.607   5.007  0.1305 -0.1289  0.0433
 7934SOL    HW135438   2.923   3.683   5.055 -0.5632  0.3201 -1.1440
 7934SOL    HW235439   2.972   3.538   5.072  0.3623 -0.5918 -0.5033
 7935SOL     OW35440   3.335   3.905  16.005 -0.0915 -0.4686 -0.3466
 7935SOL    HW135441   3.243   3.891  15.984 -0.6878  0.7779  1.3735
 7935SOL    HW235442   3.336   3.994  16.040  0.6381 -0.5050 -0.2640
 7936SOL     OW35443   0.190   3.646   0.246 -1.0103  0.0842  0.1207
 7936SOL    HW135444   0.247   3.705   0.297 -0.6837 -1.0610  1.0853
 7936SOL    HW235445   0.190   3.705   0.171 -1.4897  0.4658  0.4217
 7937SOL     OW35446   3.326   3.611   2.629 -0.6733  0.3657  0.1029
 7937SOL    HW135447   3.331   3.688   2.685 -0.3125  0.8022 -0.5304
 7937SOL    HW235448   3.237   3.583   2.651 -1.0636  1.3236 -0.2776
 7938SOL     OW35449   1.241   4.166   3.371  0.8330 -0.4933 -0.0001
 7938SOL    HW135450   1.280   4.221   3.302 -1.9756 -0.2826 -1.4248
 7938SOL    HW235451   1.272   4.202   3.454  0.1334 -3.0038  1.3295
 7939SOL     OW35452   2.439   1.183   7.576  0.8590 -0.1091 -0.5892
 7939SOL    HW135453   2.362   1.211   7.625 -0.4357 -1.0641 -2.0504
 7939SOL    HW235454   2.430   1.238   7.498 -0.5005  0.1506 -0.2522
 7940SOL     OW35455   1.502   4.659  12.194  0.4581 -0.1727 -0.1081
 7940SOL    HW135456   1.485   4.565  12.182  0.2997 -0.2250  0.5082
 7940SOL    HW235457   1.438   4.689  12.257  0.7766  1.2654 -0.4755
 7941SOL     OW35458   4.697   3.241   4.783  0.4405  0.4042  0.8742
 7941SOL    HW135459   0.039   3.267   4.828  2.1636 -0.5924 -1.6571
 7941SOL    HW235460   4.633   3.243   4.855 -0.2869  1.4864  0.1991
 7942SOL     OW35461   1.493   4.545   7.621  0.1178  0.2131 -0.2451
 7942SOL    HW135462   1.421   4.542   7.558  1.0255 -0.5074 -1.2389
 7942SOL    HW235463   1.561   4.603   7.587  1.0306  0.1999  1.5473
 7943SOL     OW35464   0.025   2.691   7.317  0.6448 -0.0042  0.0844
 7943SOL    HW135465   0.116   2.664   7.329  0.1771 -1.5967  0.0777
 7943SOL    HW235466   4.733   2.623   7.257  0.8765  0.5484 -0.6660
 7944SOL     OW35467   2.279   1.246   2.625 -0.0716 -0.1262 -0.0150
 7944SOL    HW135468   2.242   1.318   2.573 -3.3000 -0.1427  2.2667
 7944SOL    HW235469   2.369   1.252   2.592 -0.3805 -1.1468 -1.0007
 7945SOL     OW35470   0.950   2.537  14.746 -0.1009  0.2009  0.0522
 7945SOL    HW135471   0.935   2.545  14.652 -2.0689 -1.1782  0.2576
 7945SOL    HW235472   0.906   2.620  14.767 -0.4353 -0.6984  2.9594
 7946SOL     OW35473   1.069   3.804   6.980  0.0603  0.2382 -0.6556
 7946SOL    HW135474   1.157   3.818   6.947 -0.1277 -1.2313 -1.8081
 7946SOL    HW235475   1.028   3.890   6.991 -0.4574 -0.0536 -0.2813
 7947SOL     OW35476   1.915   2.195   4.243  0.1517 -0.6800  0.6944
 7947SOL    HW135477   1.999   2.175   4.202  0.3742 -0.3520  0.9832
 7947SOL    HW235478   1.941   2.259   4.309 -1.3687 -0.2526  0.8755
 7948SOL     OW35479   2.701   1.267   4.692 -0.0838  0.3618  0.5388
 7948SOL    HW135480   2.749   1.317   4.758 -0.5626  0.1652  1.0365
 7948SOL    HW235481   2.642   1.209   4.741 -0.3938 -0.6910 -1.0723
 7949SOL     OW35482   3.372   2.911  16.573  0.2753 -0.4451  0.1114
 7949SOL    HW135483   3.315   2.981  16.541  1.0134  0.8143  1.5735
 7949SOL    HW235484   3.424   2.899  16.494  0.8567  1.0047  0.2682
 7950SOL     OW35485   2.645   1.884   1.512 -0.0765  0.0525  0.2152
 7950SOL    HW135486   2.616   1.820   1.577  0.3896  2.2185  2.5810
 7950SOL    HW235487   2.576   1.950   1.512 -0.4526 -0.3508  4.0452
 7951SOL     OW35488   1.558   2.118   7.666  0.6131  0.1309 -0.3875
 7951SOL    HW135489   1.649   2.100   7.643  0.2707 -2.6097  0.3632
 7951SOL    HW235490   1.569   2.210   7.692 -1.2907  0.1616  0.3131
 7952SOL     OW35491   3.646   1.394   6.635  0.3033  0.2005  0.5861
 7952SOL    HW135492   3.558   1.358   6.623  1.1069 -1.8156  0.6944
 7952SOL    HW235493   3.628   1.418   6.726  1.5388  0.3133  0.7935
 7953SOL     OW35494   0.655   2.604   7.798 -0.3545 -0.1151  0.4461
 7953SOL    HW135495   0.697   2.536   7.851 -1.3434 -0.3244  0.9547
 7953SOL    HW235496   0.738   2.643   7.771 -0.0899 -1.8896 -1.2819
 7954SOL     OW35497   4.348   3.443   2.917  0.2283  0.2056  0.2071
 7954SOL    HW135498   4.410   3.510   2.948  0.4231 -0.5599  1.4493
 7954SOL    HW235499   4.362   3.381   2.988  0.3014 -0.3961 -0.3283
 7955SOL     OW35500   3.562   1.053  12.448 -0.3711  0.1687  0.0264
 7955SOL    HW135501   3.514   1.125  12.488  2.4999  0.3767  3.1508
 7955SOL    HW235502   3.651   1.076  12.475 -0.0560 -0.1517 -0.7541
 7956SOL     OW35503   1.808   1.390   0.402  0.5674  0.4708  0.1860
 7956SOL    HW135504   1.867   1.365   0.331  0.0737 -1.3534  0.4123
 7956SOL    HW235505   1.825   1.317   0.462 -2.4440 -0.9388 -0.6855
 7957SOL     OW35506   4.619   3.275  12.134  0.8690 -0.5947  0.2461
 7957SOL    HW135507   4.709   3.307  12.140  0.8442 -0.5197  0.2150
 7957SOL    HW235508   4.609   3.258  12.040 -3.1317 -2.3657  0.9879
 7958SOL     OW35509   1.592   3.420   2.252  0.1346 -0.0645  0.2775
 7958SOL    HW135510   1.545   3.420   2.168  0.5277  1.3017  0.0608
 7958SOL    HW235511   1.641   3.337   2.260  0.2085  0.1350  1.9170
 7959SOL     OW35512   0.821   0.142   8.898 -0.1047  0.3352  0.1695
 7959SOL    HW135513   0.787   0.184   8.977 -0.7070  0.2872 -0.0675
 7959SOL    HW235514   0.826   0.049   8.918  0.8747  0.4322  0.4050
 7960SOL     OW35515   0.342   3.664  12.116 -0.3426 -0.0572 -0.1035
 7960SOL    HW135516   0.391   3.745  12.100  0.5438 -0.2085  1.8288
 7960SOL    HW235517   0.294   3.639  12.037 -1.2326 -0.7857  0.6807
 7961SOL     OW35518   1.647   4.278   1.881  0.6762 -0.4801 -0.0745
 7961SOL    HW135519   1.572   4.219   1.874  0.8753 -0.6136 -1.0636
 7961SOL    HW235520   1.707   4.220   1.928  0.8535 -0.7571 -0.6363
 7962SOL     OW35521   3.768   0.712   9.186  0.5720  0.4240  0.3010
 7962SOL    HW135522   3.744   0.691   9.096  2.0900  0.5545 -0.1286
 7962SOL    HW235523   3.841   0.651   9.192  1.5013  1.5000 -0.1569
 7963SOL     OW35524   1.682   4.536   4.091 -0.3587 -0.1424 -0.5302
 7963SOL    HW135525   1.633   4.503   4.016 -1.7867  1.8712 -0.4565
 7963SOL    HW235526   1.674   4.630   4.078  2.4648  0.1769 -0.0788
 7964SOL     OW35527   3.622   0.274  11.106  0.3061 -0.1724 -0.6992
 7964SOL    HW135528   3.691   0.255  11.170 -1.3180 -0.9593  0.8083
 7964SOL    HW235529   3.603   0.184  11.077 -2.9078  0.0645  0.6546
 7965SOL     OW35530   4.153   3.284   3.179 -0.1719 -0.2887 -0.3517
 7965SOL    HW135531   4.061   3.277   3.205 -0.2977 -0.6960 -0.9007
 7965SOL    HW235532   4.157   3.376   3.154  1.0062  0.4360  2.5550
 7966SOL     OW35533   3.792   4.301   4.355 -0.0010  0.6511 -0.1578
 7966SOL    HW135534   3.833   4.293   4.440 -1.5452  0.4881  0.5705
 7966SOL    HW235535   3.867   4.265   4.309 -0.5971  0.7111 -1.1842
 7967SOL     OW35536   2.623   3.768   6.396  0.2365  0.0735  0.4294
 7967SOL    HW135537   2.620   3.823   6.318  0.1229  0.4100  0.6643
 7967SOL    HW235538   2.706   3.796   6.437  0.6375  2.2302 -1.8688
 7968SOL     OW35539   3.978   1.547  13.314  0.6645  0.3016 -0.2402
 7968SOL    HW135540   3.990   1.452  13.316  0.9406  0.3478  0.3385
 7968SOL    HW235541   4.066   1.579  13.332 -0.7715  3.6828  0.7176
 7969SOL     OW35542   4.158   0.508   5.447 -0.1206  0.5645 -0.6357
 7969SOL    HW135543   4.152   0.568   5.372 -0.0025 -0.2863 -1.3263
 7969SOL    HW235544   4.252   0.492   5.446 -0.5472 -1.8935  0.0824
 7970SOL     OW35545   2.846   3.901   4.656  0.8371  0.2644  0.0158
 7970SOL    HW135546   2.920   3.928   4.601  0.6283  1.7327  0.4659
 7970SOL    HW235547   2.837   3.810   4.626 -0.6076  0.4945 -0.2520
 7971SOL     OW35548   0.039   3.785   1.297  0.4559 -0.4074 -0.5723
 7971SOL    HW135549   0.094   3.725   1.348  0.8485  0.5120  0.0828
 7971SOL    HW235550   0.024   3.730   1.220 -3.4847  0.1223 -0.1828
 7972SOL     OW35551   4.082   1.904  13.982 -0.2585 -0.2619  0.9857
 7972SOL    HW135552   4.067   1.814  13.954 -1.3924 -0.3220  1.7792
 7972SOL    HW235553   4.168   1.919  13.942 -0.0738  1.6302  2.1249
 7973SOL     OW35554   2.206   4.168   5.139 -0.1709  0.6509 -0.0124
 7973SOL    HW135555   2.261   4.089   5.141 -2.6462 -1.1491 -2.9928
 7973SOL    HW235556   2.260   4.226   5.086 -0.6249  0.3137 -0.8433
 7974SOL     OW35557   1.061   4.398   8.494  0.1359 -0.6514  0.4504
 7974SOL    HW135558   1.150   4.391   8.526 -0.3701 -1.1131  1.7340
 7974SOL    HW235559   1.080   4.409   8.400 -2.5802  2.3761  0.2591
 7975SOL     OW35560   3.308   2.043   7.047  0.2202  0.8570  0.2194
 7975SOL    HW135561   3.329   2.010   7.135  2.4386 -0.1502 -0.7130
 7975SOL    HW235562   3.333   1.967   6.996  1.7902  0.7402  1.1869
 7976SOL     OW35563   0.501   2.517   2.576  0.4837  0.0396 -0.3967
 7976SOL    HW135564   0.423   2.521   2.520 -1.3887  1.5223  2.3169
 7976SOL    HW235565   0.492   2.423   2.596 -1.2858  0.0567 -1.1228
 7977SOL     OW35566   2.688   3.107   2.653 -0.1345  0.4537 -0.0142
 7977SOL    HW135567   2.607   3.114   2.703 -0.1906  0.1393 -0.0558
 7977SOL    HW235568   2.748   3.148   2.716 -1.8873  1.4575  0.9912
 7978SOL     OW35569   2.508   0.676  12.717  0.0263 -0.4387  0.0617
 7978SOL    HW135570   2.571   0.734  12.759  0.1048 -0.7521  0.3676
 7978SOL    HW235571   2.476   0.732  12.646  2.0510 -1.9213 -1.9904
 7979SOL     OW35572   1.232   1.076   4.092 -0.3321  0.0675  0.3095
 7979SOL    HW135573   1.241   1.009   4.160 -1.7361  0.7951  1.2091
 7979SOL    HW235574   1.248   1.022   4.015 -0.7879 -0.6338  0.7041
 7980SOL     OW35575   4.380   2.377  15.132 -0.5000  0.4980 -0.3956
 7980SOL    HW135576   4.402   2.299  15.081 -1.4659 -0.8882  1.3234
 7980SOL    HW235577   4.450   2.363  15.195 -0.0176  1.7851 -0.6340
 7981SOL     OW35578   3.683   1.534  13.244 -0.3040  0.1124 -0.6648
 7981SOL    HW135579   3.728   1.450  13.239  0.2166  0.3293  0.3625
 7981SOL    HW235580   3.745   1.583  13.298 -0.2921 -0.6471  0.0168
 7982SOL     OW35581   2.949   0.114   4.954  0.2360  0.3589 -0.0468
 7982SOL    HW135582   2.875   0.059   4.927  0.8081 -0.2728 -0.3207
 7982SOL    HW235583   2.958   0.106   5.049  2.2493 -2.3335 -0.4528
 7983SOL     OW35584   2.892   2.188  12.834  0.2067  0.6378  0.4283
 7983SOL    HW135585   2.876   2.120  12.900  0.5303 -0.3943 -0.5631
 7983SOL    HW235586   2.988   2.189  12.836  0.1595 -0.2774  3.9590
 7984SOL     OW35587   2.615   2.809   3.838 -0.0401 -0.8683  0.7977
 7984SOL    HW135588   2.520   2.819   3.833  0.0893  0.2495  0.5147
 7984SOL    HW235589   2.638   2.880   3.898 -0.3325 -0.5893  0.5804
 7985SOL     OW35590   3.309   1.701   2.023  0.1851  0.4409  0.1300
 7985SOL    HW135591   3.374   1.705   2.093 -1.2497  0.3986  1.4362
 7985SOL    HW235592   3.232   1.744   2.059 -1.6344 -1.9821 -0.8771
 7986SOL     OW35593   0.852   2.411  11.407 -0.2182  0.8349 -0.1087
 7986SOL    HW135594   0.930   2.448  11.449 -0.6517  1.7506 -0.1066
 7986SOL    HW235595   0.851   2.464  11.327  0.5428 -0.8770 -1.2438
 7987SOL     OW35596   2.244   1.473  16.851 -0.6465 -0.5645 -0.3152
 7987SOL    HW135597   2.330   1.500  16.882 -0.3912 -1.3688 -0.3521
 7987SOL    HW235598   2.211   1.421  16.924 -1.2170 -1.6448 -1.3485
 7988SOL     OW35599   1.737   0.641  16.360  0.1760 -0.2413 -0.2709
 7988SOL    HW135600   1.795   0.597  16.422 -0.9912  1.1400  1.8313
 7988SOL    HW235601   1.767   0.604  16.277  1.6543  0.9440 -0.2590
 7989SOL     OW35602   3.301   2.312   1.687 -0.0036 -0.3689 -0.8201
 7989SOL    HW135603   3.240   2.373   1.728  1.1966  1.4358 -1.7306
 7989SOL    HW235604   3.250   2.239   1.651 -1.3524  0.5918 -0.8613
 7990SOL     OW35605   1.601   0.071  15.319 -0.3887  0.0811  0.0981
 7990SOL    HW135606   1.694   0.084  15.302 -0.1049 -1.4993  0.4109
 7990SOL    HW235607   1.556   0.113  15.245  0.4670  0.3335 -0.2759
 7991SOL     OW35608   2.949   0.715   6.613  0.5075  0.1797  0.1552
 7991SOL    HW135609   2.861   0.749   6.632 -0.2858 -1.1890 -1.0943
 7991SOL    HW235610   2.958   0.642   6.674 -1.1543 -1.2594 -1.3185
 7992SOL     OW35611   0.022   4.035   3.237 -0.0777 -0.0876 -0.8095
 7992SOL    HW135612   4.685   4.019   3.181  1.9977 -1.7751 -3.1675
 7992SOL    HW235613   4.721   4.000   3.316  1.5073 -0.5629 -0.2158
 7993SOL     OW35614   0.920   4.668   3.284  0.2874 -1.1918 -0.3487
 7993SOL    HW135615   1.006   4.663   3.325  0.4615  0.6036 -0.5106
 7993SOL    HW235616   0.913   4.575   3.262 -2.4360 -1.0713  0.0688
 7994SOL     OW35617   0.582   1.647   3.276 -0.5337  0.2898 -0.1614
 7994SOL    HW135618   0.615   1.653   3.187 -1.4926 -1.1598 -0.6175
 7994SOL    HW235619   0.637   1.575   3.306  0.1124  0.7895 -0.1537
 7995SOL     OW35620   1.964   3.760   9.985  0.2718 -0.1850 -0.1140
 7995SOL    HW135621   2.043   3.802   9.953  0.0513 -0.5982 -1.2046
 7995SOL    HW235622   1.969   3.770  10.080  0.4824  0.1570 -0.1614
 7996SOL     OW35623   0.287   2.436   5.526 -0.3865 -0.3139 -0.3918
 7996SOL    HW135624   0.382   2.442   5.526 -0.4582  0.6827  2.3788
 7996SOL    HW235625   0.267   2.514   5.577 -1.3890 -1.5763  1.1637
 7997SOL     OW35626   0.928   1.296   6.463  0.5598 -0.6549 -0.0579
 7997SOL    HW135627   1.021   1.279   6.446  0.2836 -0.0961 -2.2033
 7997SOL    HW235628   0.925   1.339   6.548 -3.4710  0.4013 -0.7610
 7998SOL     OW35629   4.598   2.848   8.834  1.1574 -0.1855  0.1860
 7998SOL    HW135630   4.648   2.831   8.914  3.6116  1.2310 -1.0553
 7998SOL    HW235631   4.671   2.879   8.780  0.5248 -2.2217 -1.8808
 7999SOL     OW35632   1.567   1.071   0.608  0.7439 -0.1557  0.7276
 7999SOL    HW135633   1.556   0.986   0.651  2.6556  0.4923  2.5293
 7999SOL    HW235634   1.622   1.050   0.532  1.7649 -1.5748  1.8553
 8000SOL     OW35635   4.492   3.854  15.116  0.0510 -0.2978 -0.2413
 8000SOL    HW135636   4.445   3.912  15.056  1.8324  2.3126  0.8725
 8000SOL    HW235637   4.475   3.769  15.075 -0.7947 -0.1878 -0.1217
 8001SOL     OW35638   3.357   3.433   6.554  0.0367 -0.0766  0.4872
 8001SOL    HW135639   3.334   3.345   6.524  2.7124 -0.8499  0.6974
 8001SOL    HW235640   3.442   3.446   6.512 -0.2804 -0.7242 -0.3396
 8002SOL     OW35641   0.356   4.639   3.507 -0.0675 -0.4767  0.5570
 8002SOL    HW135642   0.368   4.682   3.592  2.8229  0.5324 -0.3670
 8002SOL    HW235643   0.444   4.605   3.488  1.6818  2.8843  2.7323
 8003SOL     OW35644   4.409   1.481   4.142 -0.2534  0.1162  0.0425
 8003SOL    HW135645   4.375   1.567   4.168 -0.1211 -0.0100  0.6357
 8003SOL    HW235646   4.424   1.502   4.050  1.9436 -0.4051  0.2978
 8004SOL     OW35647   2.974   1.737   5.322 -0.2357 -0.3956  0.2339
 8004SOL    HW135648   2.948   1.829   5.328 -0.3981 -0.4123 -0.2219
 8004SOL    HW235649   3.000   1.729   5.414 -3.5197  0.2145  1.2230
 8005SOL     OW35650   2.146   1.363   6.511  0.1191 -0.4529  0.2936
 8005SOL    HW135651   2.224   1.356   6.567 -0.2912 -3.4216  0.4998
 8005SOL    HW235652   2.092   1.428   6.554  0.3586 -0.6620  0.9095
 8006SOL     OW35653   0.713   0.057   8.067 -0.4256  0.0893 -0.7682
 8006SOL    HW135654   0.764   0.106   8.003  0.3967  0.2525  0.0056
 8006SOL    HW235655   0.681   0.119   8.132  1.7184  0.8386 -0.4030
 8007SOL     OW35656   1.535   1.756   9.012  0.0773 -0.0899 -0.0439
 8007SOL    HW135657   1.595   1.753   8.937  2.1717  1.9889  1.5623
 8007SOL    HW235658   1.451   1.724   8.980 -0.2193  0.3254  0.3309
 8008SOL     OW35659   3.795   4.007   4.555  0.0571  0.1851 -0.1356
 8008SOL    HW135660   3.851   3.949   4.505  0.8225  0.3889  0.4851
 8008SOL    HW235661   3.858   4.074   4.583 -0.0258 -0.1808  0.9378
 8009SOL     OW35662   4.212   0.735   8.135  0.1904 -0.3949  0.1939
 8009SOL    HW135663   4.183   0.814   8.089  1.2167 -0.0314  0.1796
 8009SOL    HW235664   4.148   0.739   8.206  0.9095  1.1878  0.7340
 8010SOL     OW35665   1.954   3.499  14.376 -0.0722  0.5112 -0.0868
 8010SOL    HW135666   1.980   3.412  14.346 -0.2446  0.1456  0.8396
 8010SOL    HW235667   2.009   3.539  14.308 -3.5755  0.9210 -2.7126
 8011SOL     OW35668   0.688   0.625   4.853  0.0991 -0.1188  0.5762
 8011SOL    HW135669   0.609   0.612   4.800 -0.9631  0.1956  2.0500
 8011SOL    HW235670   0.722   0.537   4.863  0.0590 -0.3730 -1.4877
 8012SOL     OW35671   2.985   0.389  15.561 -0.2425  0.4083 -0.1227
 8012SOL    HW135672   3.073   0.426  15.550  1.5198 -2.8806  2.8706
 8012SOL    HW235673   2.942   0.450  15.622  0.6433 -0.4004  1.3183
 8013SOL     OW35674   4.412   2.390   4.061  0.2031 -0.1651 -0.5172
 8013SOL    HW135675   4.438   2.298   4.061  1.9015  0.3163  1.3025
 8013SOL    HW235676   4.486   2.435   4.020 -1.1841  1.5029 -1.1913
 8014SOL     OW35677   3.788   3.829  13.821  0.4007 -0.7108 -0.2822
 8014SOL    HW135678   3.869   3.879  13.829 -0.7875  0.9126  1.6270
 8014SOL    HW235679   3.722   3.891  13.854  0.0315 -0.8021 -0.8623
 8015SOL     OW35680   0.732   4.346   7.035 -0.6175 -0.3237 -0.0577
 8015SOL    HW135681   0.669   4.406   6.996 -1.1769 -0.5115  0.5537
 8015SOL    HW235682   0.670   4.305   7.095 -1.0352  0.6316  0.1638
 8016SOL     OW35683   0.764   0.167  11.635  0.0305  0.6235  0.1958
 8016SOL    HW135684   0.826   0.162  11.708 -2.0799 -0.2223  1.9344
 8016SOL    HW235685   0.682   0.167  11.683  0.3446 -0.3179  0.7339
 8017SOL     OW35686   0.118   3.806   5.911  0.4848 -0.1191  0.4545
 8017SOL    HW135687   0.169   3.773   5.985  1.3055 -0.9735 -0.5103
 8017SOL    HW235688   0.030   3.813   5.948  0.2358  2.8607 -0.6942
 8018SOL     OW35689   2.138   4.521  15.543  0.3882 -0.4794 -0.1586
 8018SOL    HW135690   2.182   4.600  15.511  0.4906 -0.6023 -0.3154
 8018SOL    HW235691   2.198   4.494  15.612 -0.9524 -3.6663 -0.2589
 8019SOL     OW35692   2.148   4.370   3.562  0.7650 -0.7291  0.3057
 8019SOL    HW135693   2.053   4.353   3.556  0.5735  1.0669 -1.9717
 8019SOL    HW235694   2.141   4.462   3.585 -1.3128 -0.5489 -1.0089
 8020SOL     OW35695   1.136   0.098  13.846  0.5495  0.2117 -0.1696
 8020SOL    HW135696   1.043   0.079  13.836  0.3049 -0.1810  2.9907
 8020SOL    HW235697   1.165   0.025  13.900  0.3987 -0.9559 -1.6505
 8021SOL     OW35698   4.179   0.925  10.438  0.1457 -0.6626 -0.5127
 8021SOL    HW135699   4.258   0.957  10.395 -1.0728  1.2263 -1.3660
 8021SOL    HW235700   4.123   0.999  10.414  1.1340  1.2097  2.9090
 8022SOL     OW35701   3.394   3.837   3.156 -0.1272 -0.3621 -0.4170
 8022SOL    HW135702   3.420   3.795   3.238  0.3355  1.4510  0.3634
 8022SOL    HW235703   3.321   3.778   3.137 -1.3596  1.0907 -0.2409
 8023SOL     OW35704   1.076   0.462   6.159  0.5661  0.9162  0.3923
 8023SOL    HW135705   1.053   0.548   6.124 -0.5730 -0.4416 -2.1335
 8023SOL    HW235706   0.989   0.423   6.152  1.7801 -1.7113 -0.1906
 8024SOL     OW35707   3.242   3.205   4.890 -0.2804  0.5841  0.2013
 8024SOL    HW135708   3.312   3.189   4.827 -1.5836  3.4004 -1.9150
 8024SOL    HW235709   3.191   3.125   4.875  0.5023  0.1491 -0.1812
 8025SOL     OW35710   0.638   2.501   0.154  0.1681  0.1709 -0.0839
 8025SOL    HW135711   0.551   2.474   0.182  1.4532 -3.6368  0.2233
 8025SOL    HW235712   0.685   2.417   0.153 -0.6258 -0.2774  0.6363
 8026SOL     OW35713   4.475   3.642   8.864  0.1842 -0.7495 -1.0624
 8026SOL    HW135714   4.512   3.554   8.873 -1.1974 -1.0771  1.5742
 8026SOL    HW235715   4.527   3.705   8.914 -1.0379 -0.5987  0.0347
 8027SOL     OW35716   4.107   0.828   5.489  0.3651  0.8523 -0.3462
 8027SOL    HW135717   4.126   0.780   5.409  0.6175  1.6732 -0.7773
 8027SOL    HW235718   4.029   0.777   5.512 -0.4129 -0.2165 -5.3584
 8028SOL     OW35719   0.608   2.555   1.550  0.3874 -0.0558 -0.0637
 8028SOL    HW135720   0.555   2.504   1.611 -0.5599  2.4317  1.2295
 8028SOL    HW235721   0.649   2.615   1.613 -0.4217  0.5312 -0.0969
 8029SOL     OW35722   1.948   1.375   0.120  0.0156 -0.0789  0.0340
 8029SOL    HW135723   1.886   1.315   0.078  0.4649 -0.3164 -0.2912
 8029SOL    HW235724   1.939   1.449   0.060  0.6176 -1.6048 -1.9532
 8030SOL     OW35725   0.035   3.528  13.214  0.1864 -0.0215 -0.1310
 8030SOL    HW135726   4.725   3.552  13.291 -0.2488  0.3790 -0.5354
 8030SOL    HW235727   0.112   3.497  13.263 -0.6077 -0.3538  0.8907
 8031SOL     OW35728   3.058   0.903   0.333 -0.5236 -0.1230  0.6590
 8031SOL    HW135729   3.038   0.995   0.348  0.5975  0.6194 -2.3748
 8031SOL    HW235730   3.107   0.916   0.252 -0.2014 -0.5341  0.7851
 8032SOL     OW35731   1.511   3.578   2.444  0.0004  0.7235 -0.3520
 8032SOL    HW135732   1.544   3.524   2.515 -0.6535  1.2774  0.3694
 8032SOL    HW235733   1.545   3.540   2.363  0.3693  1.8884 -0.7503
 8033SOL     OW35734   4.106   3.930  10.624  0.3107  0.1899  0.4144
 8033SOL    HW135735   4.116   3.941  10.529 -0.8922  1.3825  0.4204
 8033SOL    HW235736   4.010   3.934  10.623  0.3537  0.7518 -1.3592
 8034SOL     OW35737   3.654   3.709   6.547 -0.4307 -0.4319  0.1407
 8034SOL    HW135738   3.615   3.758   6.474  1.8793  1.2453  0.0196
 8034SOL    HW235739   3.693   3.636   6.499  1.9596  0.3140  0.9456
 8035SOL     OW35740   0.730   0.080   3.444  0.0339 -0.0223 -0.0619
 8035SOL    HW135741   0.797   0.058   3.380  0.5745  0.5235  0.3156
 8035SOL    HW235742   0.677   0.001   3.443  0.3058 -0.2085  0.3983
 8036SOL     OW35743   4.612   4.487  15.994 -0.1054  0.2339  0.7951
 8036SOL    HW135744   4.633   4.394  15.991 -1.1656  0.0527 -0.7838
 8036SOL    HW235745   4.690   4.524  16.037  0.0210 -1.0538  1.6446
 8037SOL     OW35746   3.975   0.730   5.789 -0.3707  0.1496 -0.2091
 8037SOL    HW135747   3.955   0.725   5.696  1.9134 -0.0688 -0.6969
 8037SOL    HW235748   3.958   0.642   5.821 -1.8559 -0.6001 -3.1326
 8038SOL     OW35749   1.055   4.042   6.547  0.8045  0.5655  0.3886
 8038SOL    HW135750   1.130   4.060   6.604 -1.7293 -0.5582  4.0971
 8038SOL    HW235751   1.070   3.950   6.525 -1.5948  0.0024  1.0268
 8039SOL     OW35752   3.379   4.544   4.460 -0.7557 -0.0667  0.0839
 8039SOL    HW135753   3.359   4.635   4.441 -0.3042 -0.2450 -1.2507
 8039SOL    HW235754   3.298   4.505   4.427  0.0013  0.0436 -1.8933
 8040SOL     OW35755   1.127   1.597   0.288  0.3386 -0.3677 -0.0006
 8040SOL    HW135756   1.083   1.529   0.339  0.5146  0.1079  0.7904
 8040SOL    HW235757   1.217   1.585   0.319 -1.3935 -2.2353  4.3361
 8041SOL     OW35758   0.850   1.142  16.629  0.1460 -0.5705  0.0252
 8041SOL    HW135759   0.866   1.206  16.559  2.5610 -0.5170  0.6045
 8041SOL    HW235760   0.785   1.089  16.584  0.5056 -1.2914  0.3516
 8042SOL     OW35761   3.462   1.769   4.668 -0.7602  0.2134  0.0106
 8042SOL    HW135762   3.494   1.791   4.756 -2.6485 -1.3275  1.0790
 8042SOL    HW235763   3.418   1.852   4.650 -0.5776  0.3416  0.1483
 8043SOL     OW35764   2.817   4.069   8.014  0.0174 -0.1922 -0.7253
 8043SOL    HW135765   2.771   3.986   7.999  1.2584 -0.9990 -0.0473
 8043SOL    HW235766   2.888   4.048   7.954  1.5362  3.6907 -0.2659
 8044SOL     OW35767   0.595   1.232  15.544 -0.1997  0.2498  0.2689
 8044SOL    HW135768   0.686   1.253  15.562 -0.6001  1.0114  1.4626
 8044SOL    HW235769   0.580   1.286  15.467  1.7075  1.6703  0.9055
 8045SOL     OW35770   0.297   4.137  11.618  0.2597 -0.0746 -0.0928
 8045SOL    HW135771   0.306   4.067  11.554 -1.4629 -1.1911  0.8908
 8045SOL    HW235772   0.356   4.200  11.576  0.9320 -0.6083  0.0454
 8046SOL     OW35773   4.178   3.935  10.883  0.1847  0.1455  0.9380
 8046SOL    HW135774   4.102   3.880  10.902  1.2145 -0.8052  2.2707
 8046SOL    HW235775   4.171   3.931  10.788  3.4796  0.9045  0.6667
 8047SOL     OW35776   2.697   0.885   6.166  0.2436 -0.4081 -0.1387
 8047SOL    HW135777   2.769   0.848   6.218  0.8428  0.3227 -0.4608
 8047SOL    HW235778   2.738   0.955   6.115 -0.8220  0.3170  0.0152
 8048SOL     OW35779   3.520   1.995  16.372  0.1715 -0.4141  0.2821
 8048SOL    HW135780   3.434   2.020  16.404 -0.1976 -0.2404 -0.8406
 8048SOL    HW235781   3.521   1.905  16.404  0.2526 -0.4509  0.1787
 8049SOL     OW35782   1.011   1.575  11.725 -0.1135 -0.2472 -0.8439
 8049SOL    HW135783   1.011   1.596  11.631 -1.4734 -0.1812 -0.8387
 8049SOL    HW235784   1.094   1.529  11.727 -0.2672 -0.5445 -1.4137
 8050SOL     OW35785   2.034   1.820  14.591 -0.0124 -0.0431  0.0985
 8050SOL    HW135786   1.962   1.861  14.542  1.0498  2.3882  0.5750
 8050SOL    HW235787   1.988   1.737  14.597 -0.2367 -0.0013 -1.0872
 8051SOL     OW35788   3.997   1.070   2.913 -0.3514 -0.1061  0.1226
 8051SOL    HW135789   4.013   1.150   2.964  0.5209  0.6455 -1.3426
 8051SOL    HW235790   3.924   1.099   2.858 -0.1694  2.1550  1.0441
 8052SOL     OW35791   0.599   3.007   8.079 -0.2270 -0.2018 -0.2580
 8052SOL    HW135792   0.555   2.922   8.075  1.1019 -0.8798 -0.5268
 8052SOL    HW235793   0.561   3.053   8.153 -1.0960  1.4577 -1.7479
 8053SOL     OW35794   3.770   3.870   9.672 -0.1611  0.0682 -0.2014
 8053SOL    HW135795   3.773   3.777   9.692 -0.8657 -0.1870 -1.2896
 8053SOL    HW235796   3.743   3.875   9.580 -0.0881 -2.0139 -0.3368
 8054SOL     OW35797   0.146   0.849  13.894 -0.5915  0.6389  0.3539
 8054SOL    HW135798   0.111   0.762  13.874  2.5519 -0.6207  0.3470
 8054SOL    HW235799   0.223   0.858  13.838 -1.5018  0.1876 -0.9800
 8055SOL     OW35800   4.452   3.401   0.319  0.0599 -0.5178  0.3724
 8055SOL    HW135801   4.394   3.476   0.332  0.4825 -0.1992  0.4359
 8055SOL    HW235802   4.537   3.444   0.308 -0.1988  0.3228  1.6558
 8056SOL     OW35803   1.895   1.080   8.540 -0.3229 -0.3503 -0.8037
 8056SOL    HW135804   1.860   1.109   8.625 -1.5021 -2.3030 -0.6161
 8056SOL    HW235805   1.850   0.997   8.526  1.7994 -1.8277  1.0704
 8057SOL     OW35806   2.723   0.838   7.173  0.2073  0.8197  0.2246
 8057SOL    HW135807   2.721   0.834   7.269  2.4909 -1.5724  0.1823
 8057SOL    HW235808   2.793   0.775   7.155  1.0051  1.4725  1.0436
 8058SOL     OW35809   2.912   2.351   8.146 -0.3538 -0.5199 -0.0139
 8058SOL    HW135810   2.970   2.339   8.221 -0.3002  1.5256  0.2711
 8058SOL    HW235811   2.957   2.429   8.115  1.2884 -1.1739  0.7083
 8059SOL     OW35812   2.358   1.693  13.363 -0.0028 -0.1864 -0.0401
 8059SOL    HW135813   2.450   1.680  13.388  0.2214  2.8701  0.7084
 8059SOL    HW235814   2.350   1.786  13.344 -2.0775  0.2846  3.1118
 8060SOL     OW35815   0.703   1.038   2.368 -0.6024 -0.1548 -0.0317
 8060SOL    HW135816   0.609   1.055   2.375 -0.9808 -2.2473 -0.1895
 8060SOL    HW235817   0.711   0.943   2.364 -2.5535 -0.2267 -2.7894
 8061SOL     OW35818   1.388   0.154   8.261  0.8011 -0.4182 -0.3261
 8061SOL    HW135819   1.463   0.145   8.321 -0.9613  0.6891  2.0255
 8061SOL    HW235820   1.323   0.195   8.318 -2.0456 -2.4832 -2.1047
 8062SOL     OW35821   3.706   2.411  12.097  0.0839 -0.3733  0.1551
 8062SOL    HW135822   3.722   2.501  12.125  0.4631 -0.5920  0.6301
 8062SOL    HW235823   3.625   2.425  12.048  0.1581 -0.7273 -0.0663
 8063SOL     OW35824   0.324   0.929  14.738  0.0207 -0.5584  0.5702
 8063SOL    HW135825   0.376   0.922  14.818  0.9177  2.1745  0.2074
 8063SOL    HW235826   0.371   0.996  14.690  0.1767 -0.3560  1.0095
 8064SOL     OW35827   3.044   3.735   7.573  0.1427 -0.6346  0.1225
 8064SOL    HW135828   3.127   3.694   7.598  0.3822  0.1977  0.7040
 8064SOL    HW235829   3.081   3.790   7.504  0.1469  0.3441  0.9062
 8065SOL     OW35830   3.779   1.142   5.124  1.0715  0.4931 -0.2566
 8065SOL    HW135831   3.717   1.175   5.059  2.1512  2.8157 -0.1048
 8065SOL    HW235832   3.828   1.224   5.129  1.8082  0.1794 -2.5736
 8066SOL     OW35833   0.886   1.898  13.772 -0.1703  0.2029 -0.1647
 8066SOL    HW135834   0.809   1.950  13.751  0.0785  0.5130 -0.3047
 8066SOL    HW235835   0.942   1.917  13.696  0.0520 -0.8678 -0.2695
 8067SOL     OW35836   0.872   2.478   5.096  0.3529 -0.4890 -0.3679
 8067SOL    HW135837   0.823   2.396   5.094 -0.4532  0.0195 -1.3997
 8067SOL    HW235838   0.947   2.473   5.037 -0.7012  2.3671 -1.9141
 8068SOL     OW35839   4.338   1.822   0.281  0.1443  0.2186  0.8390
 8068SOL    HW135840   4.260   1.862   0.242  0.0523 -1.0591 -0.2677
 8068SOL    HW235841   4.299   1.787   0.361  1.3644  0.2172  1.4347
 8069SOL     OW35842   0.757   4.151   3.800 -0.1657 -0.8717 -0.2425
 8069SOL    HW135843   0.805   4.131   3.719 -0.8918 -1.6701 -0.4739
 8069SOL    HW235844   0.801   4.099   3.868 -0.2126  1.0105  1.2226
 8070SOL     OW35845   0.699   4.302   6.500  0.2277 -0.3331 -0.5345
 8070SOL    HW135846   0.692   4.388   6.541  0.4198 -0.0690 -1.0560
 8070SOL    HW235847   0.776   4.271   6.547  0.5609  0.0362 -0.8356
 8071SOL     OW35848   2.234   2.245   5.459 -0.5758  0.3861 -0.2613
 8071SOL    HW135849   2.212   2.155   5.437 -1.2671  0.7640 -1.1343
 8071SOL    HW235850   2.148   2.267   5.497  0.8373  2.5892  1.7173
 8072SOL     OW35851   3.065   2.599   2.306  0.5048  0.1854  0.0520
 8072SOL    HW135852   3.127   2.648   2.253  0.3451  0.1014 -0.2114
 8072SOL    HW235853   3.051   2.659   2.380 -2.0072  1.1191 -1.1890
 8073SOL     OW35854   3.493   3.742  14.043 -0.7816  0.4311  0.4448
 8073SOL    HW135855   3.490   3.674  13.976 -2.1120  1.3541 -0.4329
 8073SOL    HW235856   3.501   3.827  13.999 -0.4316 -1.2202 -2.6495
 8074SOL     OW35857   4.315   3.822   8.066 -0.3603 -0.5828 -0.1295
 8074SOL    HW135858   4.369   3.893   8.031 -0.6093 -0.6853 -0.7211
 8074SOL    HW235859   4.253   3.872   8.120  1.3574  1.3119  0.1012
 8075SOL     OW35860   1.878   0.247   7.478 -0.0957  0.2362  0.0511
 8075SOL    HW135861   1.885   0.337   7.510  1.4116 -0.2582  1.1423
 8075SOL    HW235862   1.931   0.208   7.548  0.1274 -2.0545 -1.3978
 8076SOL     OW35863   4.528   1.208   1.725 -0.3257 -0.3361 -0.2870
 8076SOL    HW135864   4.576   1.154   1.788 -0.9164  0.1323  0.5617
 8076SOL    HW235865   4.599   1.271   1.713 -1.3866  0.7208 -0.9813
 8077SOL     OW35866   3.471   1.754  13.431  0.1119 -0.5228 -0.3250
 8077SOL    HW135867   3.554   1.709  13.448  0.1603  1.1701  3.8770
 8077SOL    HW235868   3.488   1.811  13.356 -1.7312 -0.8394 -1.0057
 8078SOL     OW35869   1.338   1.109   6.656  0.5285 -0.5808  0.0847
 8078SOL    HW135870   1.427   1.126   6.689 -0.1186 -2.3631  2.7518
 8078SOL    HW235871   1.279   1.134   6.727  1.3927  0.0675  0.5798
 8079SOL     OW35872   0.695   3.579   2.872  0.9503 -0.8482 -0.0342
 8079SOL    HW135873   0.769   3.601   2.815  2.1834 -1.7693  1.2136
 8079SOL    HW235874   0.743   3.560   2.953  0.1109 -0.4330  0.5647
 8080SOL     OW35875   0.978   4.074   3.315  0.3817  0.1678  0.4534
 8080SOL    HW135876   0.985   3.979   3.305 -0.5090  0.0797  0.6169
 8080SOL    HW235877   1.064   4.111   3.333  0.2736  0.4422  0.4061
 8081SOL     OW35878   2.729   2.884   7.148  0.0089  0.1190 -0.4200
 8081SOL    HW135879   2.681   2.958   7.111  0.3750 -1.5473 -4.2153
 8081SOL    HW235880   2.808   2.907   7.100  0.4458  0.0343  0.2573
 8082SOL     OW35881   4.166   2.930   6.073 -0.0158  0.5431 -0.6025
 8082SOL    HW135882   4.099   2.997   6.059  1.1617  1.4465 -1.9018
 8082SOL    HW235883   4.214   2.960   6.150 -0.4467  0.6095 -0.3574
 8083SOL     OW35884   3.983   4.363  11.305  0.4427 -0.2293  0.0365
 8083SOL    HW135885   4.066   4.320  11.325 -1.4401 -4.4977 -1.4505
 8083SOL    HW235886   3.993   4.411  11.223  0.2515 -1.5555 -0.7711
 8084SOL     OW35887   4.379   0.224  15.101 -0.3350 -0.2869  0.3358
 8084SOL    HW135888   4.331   0.184  15.173  0.9428  0.3589  1.5473
 8084SOL    HW235889   4.384   0.148  15.043 -1.9080 -1.4560  1.7132
 8085SOL     OW35890   2.791   2.643   5.988  0.0166  0.2814 -0.0395
 8085SOL    HW135891   2.877   2.677   5.962  0.0010  1.6308  1.6615
 8085SOL    HW235892   2.818   2.583   6.057  0.7173  1.7501  0.9851
 8086SOL     OW35893   2.269   3.932   1.830  0.3231 -0.1833 -0.1559
 8086SOL    HW135894   2.349   3.968   1.870 -0.1404  0.4684  0.1718
 8086SOL    HW235895   2.208   4.005   1.838 -1.6000 -1.9358  1.1577
 8087SOL     OW35896   3.250   0.108   6.558  0.1569 -0.0586 -0.3887
 8087SOL    HW135897   3.281   0.109   6.649  0.0299 -1.4096 -0.3413
 8087SOL    HW235898   3.325   0.150   6.516 -0.3492  0.6327 -0.6037
 8088SOL     OW35899   0.172   1.641   4.617 -0.0214  0.4603 -0.7372
 8088SOL    HW135900   0.081   1.621   4.637  0.1705  0.0218 -0.3006
 8088SOL    HW235901   0.219   1.596   4.687  0.5247 -0.9546 -1.9924
 8089SOL     OW35902   3.722   2.774   3.970 -0.3414 -0.0144 -0.1211
 8089SOL    HW135903   3.777   2.710   4.016  0.3888  0.4116 -0.3915
 8089SOL    HW235904   3.774   2.854   3.973  0.7900 -0.7052 -0.7602
 8090SOL     OW35905   3.632   4.621   2.012  0.2198 -0.1367  0.1759
 8090SOL    HW135906   3.649   4.698   2.067  0.0938 -0.0756  0.1290
 8090SOL    HW235907   3.723   4.603   1.987 -0.2498 -0.8857 -1.0320
 8091SOL     OW35908   0.208   4.096  12.494 -0.5065  0.1978  0.1560
 8091SOL    HW135909   0.302   4.099  12.479 -0.3555  1.2672  1.3452
 8091SOL    HW235910   0.191   4.188  12.515  0.2529  0.0830  1.2768
 8092SOL     OW35911   1.444   0.745  15.238  0.2773  0.1486  0.3325
 8092SOL    HW135912   1.484   0.659  15.232 -3.0839 -1.3521 -0.8144
 8092SOL    HW235913   1.520   0.803  15.234  1.8145 -1.9299 -0.7376
 8093SOL     OW35914   2.392   0.819  13.771 -0.3201 -0.1597  0.1667
 8093SOL    HW135915   2.360   0.810  13.681 -2.4483 -4.1174  1.3032
 8093SOL    HW235916   2.368   0.738  13.816 -1.7686  0.8621  1.1934
 8094SOL     OW35917   1.969   0.889  10.969 -0.4271  0.4220  0.5940
 8094SOL    HW135918   2.056   0.884  10.929 -1.1754 -2.2987 -0.6678
 8094SOL    HW235919   1.953   0.981  10.990  1.4569  0.9103 -0.1185
 8095SOL     OW35920   0.170   0.585   7.197 -0.1508 -0.2166 -0.0426
 8095SOL    HW135921   0.144   0.525   7.267  1.8926 -2.5585 -1.2949
 8095SOL    HW235922   0.086   0.606   7.156 -0.8119 -0.2326  1.3116
 8096SOL     OW35923   2.592   3.344  12.744  0.3746  0.3404  0.2047
 8096SOL    HW135924   2.542   3.426  12.747  0.7885  0.6156 -0.4036
 8096SOL    HW235925   2.663   3.361  12.806  1.7760 -0.8640 -1.0882
 8097SOL     OW35926   1.556   4.192   9.115  0.6504 -0.0494  0.9181
 8097SOL    HW135927   1.487   4.137   9.152 -1.2101  1.4210 -0.3815
 8097SOL    HW235928   1.545   4.171   9.022 -0.2136  2.4813  0.4317
 8098SOL     OW35929   2.478   1.588  15.573 -0.5637 -0.2336 -0.1986
 8098SOL    HW135930   2.438   1.662  15.527 -1.2236 -2.1362 -2.6837
 8098SOL    HW235931   2.409   1.523  15.565 -1.1319  0.2116  1.1051
 8099SOL     OW35932   1.185   4.598   8.151 -0.5639  0.2427  0.1426
 8099SOL    HW135933   1.209   4.506   8.136 -0.5423  0.0280  1.4082
 8099SOL    HW235934   1.271   4.633   8.175  0.2948 -0.8712 -1.2587
 8100SOL     OW35935   4.358   2.022   2.758  0.3981  0.0524  0.1577
 8100SOL    HW135936   4.286   1.961   2.745 -1.3104  2.1145  0.0039
 8100SOL    HW235937   4.361   2.018   2.854 -0.9970 -0.9771  0.1554
 8101SOL     OW35938   1.096   2.628   8.456 -0.3665 -0.0295 -0.2508
 8101SOL    HW135939   1.150   2.577   8.396  1.0420  0.2532  0.7679
 8101SOL    HW235940   1.020   2.653   8.404 -0.2181  1.9199  0.4689
 8102SOL     OW35941   2.872   2.076  14.034 -0.4667  0.3543  0.1855
 8102SOL    HW135942   2.862   2.124  13.952 -0.8090 -0.0410 -0.0057
 8102SOL    HW235943   2.790   2.092  14.081 -0.5914 -0.6389  0.3025
 8103SOL     OW35944   0.742   4.519  16.154 -0.2767 -0.4468 -0.0368
 8103SOL    HW135945   0.739   4.507  16.249  1.8141  1.3590  0.2615
 8103SOL    HW235946   0.652   4.547  16.139 -0.8856 -2.4514 -0.1008
 8104SOL     OW35947   2.120   2.675  13.505 -0.1236 -0.7124  0.0131
 8104SOL    HW135948   2.164   2.754  13.475  0.7034 -1.4022 -0.6180
 8104SOL    HW235949   2.137   2.623  13.426  0.6587  2.5274 -1.9389
 8105SOL     OW35950   4.314   0.035   7.866 -0.6021 -0.0819 -0.6038
 8105SOL    HW135951   4.395   0.070   7.902 -0.9496 -0.5460  0.6219
 8105SOL    HW235952   4.267   0.117   7.848 -0.6276 -0.0557 -0.4142
 8106SOL     OW35953   0.891   3.664   5.403 -0.0666 -0.2877 -0.5216
 8106SOL    HW135954   0.950   3.592   5.384  0.6167  0.1288  0.0288
 8106SOL    HW235955   0.930   3.712   5.476 -1.3894 -2.0772  1.3340
 8107SOL     OW35956   3.450   4.406   2.348  0.1825 -0.4608 -0.5697
 8107SOL    HW135957   3.475   4.485   2.397 -0.6215  0.9757 -2.4780
 8107SOL    HW235958   3.413   4.356   2.421 -1.1363 -1.6655 -2.0635
 8108SOL     OW35959   0.491   2.811   3.403  0.0473  0.7417  0.1857
 8108SOL    HW135960   0.453   2.843   3.322  1.7545  0.1415 -0.8434
 8108SOL    HW235961   0.531   2.896   3.421  1.8616  0.1087 -0.9512
 8109SOL     OW35962   4.380   3.069  12.423  0.0019  0.4601 -0.3830
 8109SOL    HW135963   4.298   3.084  12.377 -1.0846 -0.5784  1.2149
 8109SOL    HW235964   4.361   3.126  12.498  0.5250 -0.9386  0.8129
 8110SOL     OW35965   2.056   1.280   6.256  0.0780 -0.0282 -0.2981
 8110SOL    HW135966   2.085   1.302   6.345  1.0713 -0.9258 -0.4062
 8110SOL    HW235967   1.966   1.249   6.270  1.2745 -2.6620  1.5769
 8111SOL     OW35968   0.500   1.697   1.495 -0.0341 -0.5403 -0.1822
 8111SOL    HW135969   0.441   1.689   1.420  1.9419 -0.5510 -1.7538
 8111SOL    HW235970   0.440   1.748   1.549 -1.7683 -0.0987 -2.5195
 8112SOL     OW35971   3.073   0.076   4.239  0.2590 -0.2329  0.0558
 8112SOL    HW135972   3.075   0.032   4.324 -2.1362  0.0384  0.2454
 8112SOL    HW235973   3.159   0.046   4.209  0.0685  0.5661 -1.2988
 8113SOL     OW35974   1.882   0.546   9.522  0.8745 -0.1530  0.7943
 8113SOL    HW135975   1.879   0.561   9.617  0.9712 -1.0600  0.9435
 8113SOL    HW235976   1.922   0.460   9.510 -1.0528 -1.0633  0.8376
 8114SOL     OW35977   4.158   2.229  15.141 -0.1366  0.5867 -0.5469
 8114SOL    HW135978   4.203   2.149  15.112 -3.3872 -2.1670  1.9564
 8114SOL    HW235979   4.228   2.291  15.121  0.5622 -0.1708 -0.4369
 8115SOL     OW35980   2.692   4.681  14.333  0.2925 -0.0111  0.0220
 8115SOL    HW135981   2.601   4.693  14.360  0.6327 -0.2627  1.2644
 8115SOL    HW235982   2.680   4.706  14.241 -2.8748  1.1260  0.7389
 8116SOL     OW35983   4.736   0.111   5.295  0.0286  0.4628  0.2498
 8116SOL    HW135984   4.657   0.098   5.347  0.5026  0.0304  0.8578
 8116SOL    HW235985   0.035   0.023   5.292 -1.6062 -0.1466 -2.3081
 8117SOL     OW35986   2.330   3.514   7.092  0.4726 -0.3467 -0.1367
 8117SOL    HW135987   2.303   3.602   7.064  0.2014  0.3346  2.2433
 8117SOL    HW235988   2.320   3.455   7.018 -0.3266 -0.7871  0.3244
 8118SOL     OW35989   0.229   4.486   7.376 -0.0084 -0.1589 -0.6986
 8118SOL    HW135990   0.138   4.497   7.402 -0.4016 -1.5991 -1.4693
 8118SOL    HW235991   0.246   4.546   7.302  0.0287 -0.6888 -1.1170
 8119SOL     OW35992   2.084   4.521   5.837 -0.0777  0.3045  0.1886
 8119SOL    HW135993   2.028   4.577   5.783  0.8584  0.4560 -0.6352
 8119SOL    HW235994   2.044   4.436   5.819 -0.0158  0.2194  0.4475
 8120SOL     OW35995   3.579   2.788   2.628 -0.1062 -0.4155  0.1576
 8120SOL    HW135996   3.599   2.735   2.551 -1.4741 -0.3148 -0.2652
 8120SOL    HW235997   3.534   2.720   2.678 -0.7341  0.6901  1.1024
 8121SOL     OW35998   4.456   4.669   8.222  0.0521  0.1430 -0.0547
 8121SOL    HW135999   4.362   4.687   8.228  0.3029  0.3613  3.4593
 8121SOL    HW236000   4.451   4.580   8.185 -0.8887 -0.1830  0.8437
 8122SOL     OW36001   2.623   1.540   8.544 -0.2409  0.0551  0.2480
 8122SOL    HW136002   2.575   1.508   8.621  0.1536 -3.3308 -0.9201
 8122SOL    HW236003   2.662   1.614   8.590  0.2118 -0.2581  0.3751
 8123SOL     OW36004   3.039   4.004   7.869 -0.0093  0.4478 -0.1378
 8123SOL    HW136005   3.067   3.914   7.856 -2.7700 -0.3830 -0.3122
 8123SOL    HW236006   3.097   4.050   7.809  1.2043  0.1953  0.8320
 8124SOL     OW36007   4.132   2.849   5.201  0.0504  0.1229 -0.2989
 8124SOL    HW136008   4.116   2.875   5.292  0.5638  1.4619 -0.5881
 8124SOL    HW236009   4.216   2.803   5.198 -1.3000 -2.3209 -0.9455
 8125SOL     OW36010   3.545   3.070   8.947 -0.1534 -0.0845  0.0929
 8125SOL    HW136011   3.528   3.142   8.886 -2.5004  0.8324  1.8034
 8125SOL    HW236012   3.468   3.020   8.918  0.1735 -0.3824 -0.2521
 8126SOL     OW36013   2.966   2.982   6.080  0.0311 -0.1808  0.1729
 8126SOL    HW136014   3.012   3.064   6.061 -1.2014  0.5635  0.3498
 8126SOL    HW236015   2.876   3.016   6.078  0.0795  0.0042  1.1840
 8127SOL     OW36016   1.561   0.682   7.563  1.0242  0.0351 -0.3421
 8127SOL    HW136017   1.507   0.755   7.533  0.5568 -0.3044 -0.3425
 8127SOL    HW236018   1.496   0.623   7.602  0.4313  0.8556 -0.0796
 8128SOL     OW36019   0.956   1.992   6.988 -0.1224  0.2325  0.4344
 8128SOL    HW136020   1.000   1.958   6.910 -0.2488 -0.1034  0.5109
 8128SOL    HW236021   0.967   1.923   7.054 -1.5276 -0.8809 -0.5104
 8129SOL     OW36022   4.281   4.210  16.909 -1.3154  0.2278 -0.2966
 8129SOL    HW136023   4.198   4.167  16.929 -1.3875 -0.0316 -1.1408
 8129SOL    HW236024   4.253   4.271  16.840  1.9984 -0.8562 -2.6440
 8130SOL     OW36025   0.356   2.359  17.470  0.0655 -0.1178  0.5949
 8130SOL    HW136026   0.287   2.302  17.503 -0.0937  0.1116  0.6553
 8130SOL    HW236027   0.341   2.352  17.376 -1.6360  0.6889  0.8126
 8131SOL     OW36028   2.338   4.356  14.999  0.3487  0.5713  0.2300
 8131SOL    HW136029   2.263   4.379  14.945 -0.5953  2.9191  2.5356
 8131SOL    HW236030   2.355   4.264  14.978 -1.9816 -0.0149  0.9412
 8132SOL     OW36031   1.932   1.953  12.973  0.6800 -0.3771 -0.0656
 8132SOL    HW136032   1.860   1.902  13.010  0.5005  0.2577  0.4685
 8132SOL    HW236033   1.950   1.898  12.898  0.6126 -0.9628  0.3500
 8133SOL     OW36034   1.313   1.687   7.452 -0.4980  0.3091 -0.4343
 8133SOL    HW136035   1.288   1.770   7.412  0.2025 -0.1835 -1.9215
 8133SOL    HW236036   1.247   1.631   7.409  0.5330 -1.5196  0.3861
 8134SOL     OW36037   1.339   3.780   7.789  0.1913 -0.8133  0.5564
 8134SOL    HW136038   1.413   3.812   7.840  0.7575  0.0531 -0.7829
 8134SOL    HW236039   1.370   3.784   7.698  1.6882 -2.0473  1.0049
 8135SOL     OW36040   0.297   0.220   8.987 -0.2962 -0.0171 -0.5196
 8135SOL    HW136041   0.350   0.155   8.940 -0.1326 -0.5076  0.3398
 8135SOL    HW236042   0.347   0.225   9.069 -1.3852  2.6692 -0.0134
 8136SOL     OW36043   1.947   4.204   9.657 -0.2577  0.0108  0.3139
 8136SOL    HW136044   1.973   4.296   9.647 -1.2045  0.2660  0.1983
 8136SOL    HW236045   2.001   4.173   9.730 -0.2336 -0.8949 -0.0955
 8137SOL     OW36046   2.158   4.158   9.390  0.1364  0.2005  0.5094
 8137SOL    HW136047   2.162   4.245   9.350 -1.1642  0.4069  0.8085
 8137SOL    HW236048   2.157   4.190   9.481  0.9200 -2.4758  1.4489
 8138SOL     OW36049   2.655   0.906  11.078 -0.1200 -0.2373 -0.1775
 8138SOL    HW136050   2.614   0.865  11.154  0.5596  0.3602  0.5080
 8138SOL    HW236051   2.731   0.849  11.063 -0.2175  0.0372 -1.6645
 8139SOL     OW36052   4.522   3.256   4.260  0.2800  0.3884  0.0758
 8139SOL    HW136053   4.511   3.161   4.248  0.0306  0.4079  0.1371
 8139SOL    HW236054   4.472   3.290   4.185  1.3080  4.8143  1.3971
 8140SOL     OW36055   4.324   3.202   0.725 -0.0418  0.6406 -0.2735
 8140SOL    HW136056   4.386   3.208   0.652  0.5850  0.9536  0.2769
 8140SOL    HW236057   4.388   3.195   0.796 -0.9236  1.7354  0.6423
 8141SOL     OW36058   0.965   2.959   8.929 -0.6015  0.5854 -0.4665
 8141SOL    HW136059   0.942   3.029   8.867 -2.5255 -1.8248 -2.4328
 8141SOL    HW236060   0.975   2.997   9.017  1.2630  1.0800 -0.8845
 8142SOL     OW36061   0.122   1.233  17.261 -0.0742  0.0099  0.0482
 8142SOL    HW136062   0.207   1.209  17.224 -0.4625  1.2401 -1.6789
 8142SOL    HW236063   0.129   1.328  17.249 -3.7159  0.6355  3.0234
 8143SOL     OW36064   1.500   1.603   4.543 -0.1255  0.4747 -0.0110
 8143SOL    HW136065   1.580   1.552   4.533 -0.2205  0.1922  0.6845
 8143SOL    HW236066   1.457   1.572   4.623 -1.1471 -0.2989 -0.8624
 8144SOL     OW36067   4.609   3.345   6.140  0.0693 -0.0022 -0.1296
 8144SOL    HW136068   4.620   3.439   6.158 -0.2597  0.0355 -0.1234
 8144SOL    HW236069   4.685   3.318   6.089  2.4777  2.4846  2.1634
 8145SOL     OW36070   2.443   0.725   7.190 -0.1682  0.3914  0.2516
 8145SOL    HW136071   2.400   0.650   7.231 -0.5964  1.5432  1.9092
 8145SOL    HW236072   2.492   0.760   7.264 -0.4386 -0.8643  1.0240
 8146SOL     OW36073   1.318   2.146  10.051 -0.5097 -0.0552 -0.2517
 8146SOL    HW136074   1.373   2.210  10.007 -0.6398 -0.3635 -0.8609
 8146SOL    HW236075   1.249   2.129   9.987 -0.7303 -1.9526  0.4856
 8147SOL     OW36076   0.449   2.385   1.738  0.0086  0.2708  0.0014
 8147SOL    HW136077   0.467   2.379   1.832  0.3572 -0.2544 -0.1003
 8147SOL    HW236078   0.354   2.383   1.746  0.1550 -1.3187  1.1859
 8148SOL     OW36079   3.633   2.250   2.009  0.2009 -1.4186 -0.5781
 8148SOL    HW136080   3.723   2.237   1.976  0.7372  0.6649  0.0591
 8148SOL    HW236081   3.644   2.334   2.053 -3.3345 -0.8327 -0.8127
 8149SOL     OW36082   3.760   0.174   5.673 -0.2986 -0.4504  0.1472
 8149SOL    HW136083   3.768   0.079   5.663  0.7357 -0.5293  1.7570
 8149SOL    HW236084   3.848   0.206   5.653 -0.2136 -0.5420  0.3868
 8150SOL     OW36085   0.918   3.187  12.624  0.1441 -0.3161  0.1606
 8150SOL    HW136086   0.948   3.117  12.682  2.6088  0.6297  0.0519
 8150SOL    HW236087   0.992   3.248  12.627 -0.2784  0.1534  0.9815
 8151SOL     OW36088   1.855   3.722   3.717  0.5205 -0.6960  0.1134
 8151SOL    HW136089   1.852   3.669   3.797  1.0794  0.4007  0.8592
 8151SOL    HW236090   1.783   3.784   3.728  0.1158 -1.3915  1.3356
 8152SOL     OW36091   4.169   1.406   3.854 -0.4253  0.1426  0.0813
 8152SOL    HW136092   4.188   1.329   3.801  2.6403  0.3551  0.8990
 8152SOL    HW236093   4.131   1.368   3.932 -0.0986  0.9965  0.6550
 8153SOL     OW36094   2.784   1.651   7.822 -0.0380 -0.0459  0.4736
 8153SOL    HW136095   2.702   1.610   7.849 -0.3094 -0.0819 -0.3995
 8153SOL    HW236096   2.795   1.623   7.731  2.0092  1.0854  0.3611
 8154SOL     OW36097   2.250   2.511   7.502 -0.4336 -0.4240  0.0477
 8154SOL    HW136098   2.184   2.461   7.549  0.1252 -0.3823  0.8838
 8154SOL    HW236099   2.316   2.523   7.570  0.0630 -0.4594 -0.4200
 8155SOL     OW36100   0.641   3.425   8.361 -0.5311  0.2344  0.0071
 8155SOL    HW136101   0.615   3.371   8.287  0.7681 -2.5289  1.5839
 8155SOL    HW236102   0.557   3.428   8.408 -0.9713 -2.2977 -0.6467
 8156SOL     OW36103   3.623   0.288  10.278  0.0591 -0.6289  0.6307
 8156SOL    HW136104   3.560   0.358  10.264 -0.1357 -0.5582  1.8644
 8156SOL    HW236105   3.662   0.282  10.191  1.3848 -0.0404  1.1732
 8157SOL     OW36106   2.493   3.569  12.457 -0.2443  0.3046  0.5045
 8157SOL    HW136107   2.444   3.500  12.412 -1.1676  0.7647  0.8187
 8157SOL    HW236108   2.562   3.593  12.395 -2.5077 -1.9657 -2.8850
 8158SOL     OW36109   2.260   3.272   0.089 -0.1558 -0.3955 -0.4514
 8158SOL    HW136110   2.355   3.258   0.089 -0.2369 -0.8834 -1.8341
 8158SOL    HW236111   2.218   3.203   0.037  0.4543 -0.3281 -1.0222
 8159SOL     OW36112   4.519   1.333   5.809  0.2102 -0.4663  0.5253
 8159SOL    HW136113   4.540   1.371   5.723  3.6083 -1.3868  0.9522
 8159SOL    HW236114   4.427   1.306   5.808  0.2795 -0.6073 -2.2686
 8160SOL     OW36115   2.692   1.926   5.874  0.0776  0.4389  0.5832
 8160SOL    HW136116   2.619   1.940   5.814 -0.6864  1.1850  1.6745
 8160SOL    HW236117   2.770   1.949   5.823 -1.6744 -0.1967 -2.3317
 8161SOL     OW36118   1.538   3.914  15.322  0.2595 -0.3737 -0.4004
 8161SOL    HW136119   1.490   3.888  15.244  0.9104 -0.2188 -0.8574
 8161SOL    HW236120   1.493   3.998  15.326  1.5610  0.2643  1.0404
 8162SOL     OW36121   0.125   1.838   2.078  0.2551 -0.2273 -0.5019
 8162SOL    HW136122   0.075   1.876   2.005  1.5601  2.5049  0.0280
 8162SOL    HW236123   0.057   1.830   2.146  1.7430  0.0028  1.0079
 8163SOL     OW36124   1.336   3.960   3.236 -0.1519 -0.3204  0.2954
 8163SOL    HW136125   1.266   3.895   3.248  0.3910 -0.8553  0.5629
 8163SOL    HW236126   1.312   4.029   3.297  0.4971  1.3095 -1.3006
 8164SOL     OW36127   1.911   3.876   0.210 -0.1842  0.2513 -0.1109
 8164SOL    HW136128   1.890   3.875   0.117  1.4662  2.5201 -0.5005
 8164SOL    HW236129   1.869   3.791   0.229 -0.5171  0.2134 -0.9874
 8165SOL     OW36130   1.133   2.850   1.525  0.3635 -0.3750 -0.0188
 8165SOL    HW136131   1.164   2.798   1.599 -3.5063  0.3756  2.1573
 8165SOL    HW236132   1.098   2.921   1.579  0.8141 -1.3980  1.6525
 8166SOL     OW36133   3.882   2.040   5.123  0.5294  0.0442 -0.0588
 8166SOL    HW136134   3.952   2.065   5.182  0.9741  0.8162 -0.9139
 8166SOL    HW236135   3.821   2.106   5.157 -0.2607 -1.1584  0.8692
 8167SOL     OW36136   1.869   1.963   1.789 -0.4058 -0.4497  0.1459
 8167SOL    HW136137   1.871   2.053   1.820  0.8113 -1.3463  2.6807
 8167SOL    HW236138   1.960   1.939   1.808 -0.1380  0.2866 -0.2141
 8168SOL     OW36139   0.017   4.496   9.184 -0.4483  0.3140  0.0945
 8168SOL    HW136140   0.033   4.409   9.221  2.4970  1.1842  0.8734
 8168SOL    HW236141   0.064   4.494   9.100  0.0981  1.0417  0.3803
 8169SOL     OW36142   4.421   2.804   0.833  0.2073  0.3290 -0.0999
 8169SOL    HW136143   4.478   2.881   0.823 -2.9366  2.5149 -1.2978
 8169SOL    HW236144   4.328   2.824   0.818  0.4270  0.9992 -0.5670
 8170SOL     OW36145   1.617   2.037  15.407 -0.0940 -0.9142  0.4441
 8170SOL    HW136146   1.563   2.116  15.396 -0.1337 -0.8821  0.8721
 8170SOL    HW236147   1.597   1.989  15.326 -0.6116  1.1499 -0.6614
 8171SOL     OW36148   2.141   2.390   8.791 -0.0963 -0.3345 -0.2965
 8171SOL    HW136149   2.118   2.360   8.703  1.0861 -1.8886 -0.0746
 8171SOL    HW236150   2.153   2.306   8.835 -0.7561 -0.2808 -0.0230
 8172SOL     OW36151   3.354   3.896  11.145 -0.0303  0.2953  0.5941
 8172SOL    HW136152   3.325   3.805  11.153  0.1786 -0.1894 -3.9273
 8172SOL    HW236153   3.332   3.943  11.225  1.5113  0.4822  0.8976
 8173SOL     OW36154   4.638   3.700   2.048  0.3519 -0.7364 -0.7097
 8173SOL    HW136155   4.558   3.666   2.008 -2.2022  0.7550  3.0171
 8173SOL    HW236156   4.621   3.693   2.142  0.3124 -0.4694 -0.6965
 8174SOL     OW36157   1.020   0.219   2.908  0.1210  0.1709 -0.5464
 8174SOL    HW136158   0.930   0.211   2.875 -0.4521 -0.6171  1.1810
 8174SOL    HW236159   1.061   0.275   2.843 -0.1280 -1.4328 -2.0970
 8175SOL     OW36160   3.622   4.147   9.140 -0.0235 -0.3356 -0.1678
 8175SOL    HW136161   3.712   4.128   9.166 -0.6467 -1.1752  1.3992
 8175SOL    HW236162   3.591   4.056   9.132 -2.7932  0.6270 -0.3488
 8176SOL     OW36163   1.471   3.544   5.845  0.3019  0.0393  0.3962
 8176SOL    HW136164   1.540   3.478   5.832 -1.2630 -1.8405  1.5665
 8176SOL    HW236165   1.466   3.551   5.941  2.8428 -1.4238  0.6325
 8177SOL     OW36166   2.464   2.365   8.464  0.1262 -0.2693 -0.5209
 8177SOL    HW136167   2.553   2.330   8.475  1.0535  2.4317  0.7253
 8177SOL    HW236168   2.443   2.389   8.554  1.0103 -2.1764  0.1858
 8178SOL     OW36169   3.695   0.179   0.492 -0.2210 -0.6423 -0.0390
 8178SOL    HW136170   3.645   0.201   0.570  0.9386  1.5402  0.0927
 8178SOL    HW236171   3.728   0.094   0.520  0.7030  0.0455  1.0011
 8179SOL     OW36172   4.214   3.507   9.673  0.4039  0.8311 -0.3101
 8179SOL    HW136173   4.285   3.506   9.608  0.7013  1.0702  0.0090
 8179SOL    HW236174   4.142   3.506   9.611 -0.2988  2.1799  0.4893
 8180SOL     OW36175   3.399   1.710   1.562  0.1968  0.0397  0.2373
 8180SOL    HW136176   3.422   1.618   1.551  2.9849  1.1003 -2.7870
 8180SOL    HW236177   3.395   1.722   1.657  2.1788  1.1042  0.1830
 8181SOL     OW36178   0.057   3.829  10.014  0.2053  0.2334  0.3588
 8181SOL    HW136179   0.070   3.901  10.076  1.0663 -0.2232  0.6922
 8181SOL    HW236180   4.718   3.783  10.045 -0.7946  1.8744  0.3052
 8182SOL     OW36181   3.330   4.202   4.554 -0.5183 -0.2412 -0.3713
 8182SOL    HW136182   3.359   4.265   4.620 -0.7217 -0.2956 -0.2287
 8182SOL    HW236183   3.410   4.149   4.559  0.0793  0.7076 -0.0479
 8183SOL     OW36184   0.182   1.668  15.173 -0.4503  0.0046  1.0786
 8183SOL    HW136185   0.177   1.575  15.152 -1.6646 -0.0243  1.5182
 8183SOL    HW236186   0.275   1.670  15.197 -0.4698  0.2704  1.1293
 8184SOL     OW36187   1.626   0.837  14.088  0.0083 -0.3147 -0.1259
 8184SOL    HW136188   1.716   0.813  14.111  0.3392 -0.6099 -1.7123
 8184SOL    HW236189   1.638   0.890  14.009  1.0416  0.1628  0.3499
 8185SOL     OW36190   0.898   0.877   0.546 -0.1219  0.3801  0.0327
 8185SOL    HW136191   0.840   0.813   0.504 -0.1322  0.5183 -0.1634
 8185SOL    HW236192   0.920   0.933   0.472 -1.7051  0.9234 -0.0103
 8186SOL     OW36193   4.132   1.542  16.434  0.3759 -0.3297 -0.2607
 8186SOL    HW136194   4.192   1.590  16.377 -1.8290  1.0464 -1.4603
 8186SOL    HW236195   4.172   1.456  16.440 -1.5846 -1.1660  0.7763
 8187SOL     OW36196   0.564   3.943   3.143  0.5570  0.5563 -0.5848
 8187SOL    HW136197   0.542   3.866   3.090 -0.4410  0.2167  0.3231
 8187SOL    HW236198   0.477   3.980   3.155  0.2892  0.2621 -1.5960
 8188SOL     OW36199   1.400   0.123  10.923 -0.0312 -0.4581 -0.3597
 8188SOL    HW136200   1.402   0.038  10.879  0.6692 -0.8344  0.3979
 8188SOL    HW236201   1.395   0.089  11.012  2.6713  0.3492  0.1148
 8189SOL     OW36202   4.267   3.203   8.758 -0.3467  0.5454  0.3874
 8189SOL    HW136203   4.258   3.208   8.854 -0.6941  0.2437  0.3704
 8189SOL    HW236204   4.268   3.293   8.724  0.8700  0.6977  0.8325
 8190SOL     OW36205   2.327   4.316   4.721  0.7170  0.1594 -0.1701
 8190SOL    HW136206   2.256   4.259   4.693 -0.8729  2.3035 -0.4625
 8190SOL    HW236207   2.390   4.305   4.650 -1.8915  0.7692 -2.5443
 8191SOL     OW36208   2.435   1.370   5.285 -0.0409 -0.3055 -0.6625
 8191SOL    HW136209   2.374   1.313   5.237 -1.6071 -0.6558  1.7048
 8191SOL    HW236210   2.451   1.315   5.363  0.7670  3.1731  1.6038
 8192SOL     OW36211   0.588   1.223   2.697  0.2160  0.6784 -0.2489
 8192SOL    HW136212   0.564   1.132   2.679  0.4181  0.6174 -0.2172
 8192SOL    HW236213   0.664   1.232   2.638  0.4121 -0.2347 -0.1406
 8193SOL     OW36214   4.136   0.722   5.224 -0.0626  0.1709 -0.4018
 8193SOL    HW136215   4.160   0.705   5.133 -0.0952 -0.7764 -0.2336
 8193SOL    HW236216   4.063   0.779   5.202 -0.4924 -0.6667 -1.1442
 8194SOL     OW36217   0.703   2.770   0.729 -0.1563  0.1955  0.0749
 8194SOL    HW136218   0.645   2.787   0.803 -0.5194  0.8352 -0.3622
 8194SOL    HW236219   0.679   2.679   0.708  0.6308 -0.3466  1.5236
 8195SOL     OW36220   2.249   2.420   4.177  0.1443 -0.3091  0.1639
 8195SOL    HW136221   2.270   2.352   4.241 -1.8061 -0.8397  0.2491
 8195SOL    HW236222   2.310   2.486   4.207  1.7168 -1.7104  0.0640
 8196SOL     OW36223   4.422   2.239  10.039 -0.3948  0.0911  0.4302
 8196SOL    HW136224   4.480   2.169  10.071 -2.2245 -1.5232  0.2459
 8196SOL    HW236225   4.341   2.228  10.089 -0.8221  1.5613  0.0448
 8197SOL     OW36226   0.661   2.496   0.648 -0.2124 -0.0213  0.3376
 8197SOL    HW136227   0.739   2.445   0.624 -0.6658 -1.1077  1.1338
 8197SOL    HW236228   0.596   2.433   0.617  1.2514 -0.8640 -1.0454
 8198SOL     OW36229   0.055   1.751  17.424 -0.2997  0.5652  0.1928
 8198SOL    HW136230   0.012   1.667  17.438 -1.2937  1.0852  0.3125
 8198SOL    HW236231   0.070   1.754  17.329  1.1274  2.0115  0.4677
 8199SOL     OW36232   0.545   2.011  10.964  0.2288 -0.5567 -0.3180
 8199SOL    HW136233   0.609   2.026  10.894 -0.7430 -0.8525 -1.2701
 8199SOL    HW236234   0.543   1.917  10.951  3.3386 -0.6790  0.0536
 8200SOL     OW36235   1.401   1.503  17.470  0.1232  0.0956 -1.2034
 8200SOL    HW136236   1.419   1.597  17.470 -1.9164  0.5015  0.5697
 8200SOL    HW236237   1.487   1.463  17.462  0.8648  1.3202  0.6678
 8201SOL     OW36238   2.692   2.039   4.365 -0.1251  0.2154 -0.3830
 8201SOL    HW136239   2.674   2.131   4.346 -2.2860  0.3368  2.2463
 8201SOL    HW236240   2.740   2.018   4.285 -2.3995  1.8662 -2.1820
 8202SOL     OW36241   0.803   0.371  15.632  0.1346  0.2826  0.3807
 8202SOL    HW136242   0.722   0.348  15.677 -1.0909  0.1774 -1.8909
 8202SOL    HW236243   0.779   0.430  15.561  1.2157  0.6317  0.2991
 8203SOL     OW36244   3.529   3.487   2.005  0.3087 -0.0655  0.2059
 8203SOL    HW136245   3.534   3.448   2.092 -1.1497 -0.5148  0.0969
 8203SOL    HW236246   3.475   3.565   2.022  0.1710  0.4496 -2.6339
 8204SOL     OW36247   2.672   3.500   9.333 -0.0127  0.3440  0.4920
 8204SOL    HW136248   2.717   3.477   9.414 -0.4035 -0.1285  0.5723
 8204SOL    HW236249   2.591   3.453   9.352 -0.9752  2.2400  1.1542
 8205SOL     OW36250   2.186   3.782   5.154 -0.4868  0.6328 -0.0350
 8205SOL    HW136251   2.111   3.819   5.107 -2.8612 -0.8736  2.5564
 8205SOL    HW236252   2.184   3.687   5.146 -1.1875  0.3841  3.1051
 8206SOL     OW36253   0.283   2.919   8.475 -0.2831 -0.2019 -0.0712
 8206SOL    HW136254   0.306   2.883   8.390 -1.2935 -0.7994 -0.0858
 8206SOL    HW236255   0.311   3.010   8.467 -0.1309 -0.1289  1.2446
 8207SOL     OW36256   3.537   4.045  10.658 -0.3946  0.8017  0.1972
 8207SOL    HW136257   3.501   4.106  10.723 -0.1132  1.3616 -0.1728
 8207SOL    HW236258   3.457   4.007  10.620  0.7959  1.5009 -2.9170
 8208SOL     OW36259   4.590   0.720   7.380  0.2627 -0.3027 -0.0097
 8208SOL    HW136260   4.641   0.651   7.422 -0.8022 -1.1978 -0.1999
 8208SOL    HW236261   4.612   0.710   7.287 -0.3612 -1.8211  0.0084
 8209SOL     OW36262   1.784   0.024   0.251  0.0434 -0.3001 -0.5155
 8209SOL    HW136263   1.775   0.118   0.269  2.4173 -0.3864  1.0933
 8209SOL    HW236264   1.747   4.728   0.331 -0.8115 -0.7914 -1.1294
 8210SOL     OW36265   3.706   0.158   6.788  0.2778 -0.5293 -0.2591
 8210SOL    HW136266   3.665   0.073   6.807 -0.8905  0.1693  0.3998
 8210SOL    HW236267   3.799   0.137   6.792  0.3941 -0.3480 -2.3803
 8211SOL     OW36268   1.778   2.257   8.250  0.0862  0.8299 -0.0607
 8211SOL    HW136269   1.857   2.283   8.297  0.3193  0.5025 -0.2734
 8211SOL    HW236270   1.819   2.248   8.164  1.7087 -0.0959  0.8047
 8212SOL     OW36271   3.209   2.503   8.151  0.3546  0.8694 -0.1210
 8212SOL    HW136272   3.188   2.508   8.058  0.3121  3.3116  0.0260
 8212SOL    HW236273   3.140   2.562   8.183 -1.8279 -2.3404  1.1316
 8213SOL     OW36274   1.031   2.130   3.939  0.3646 -0.3715  0.1629
 8213SOL    HW136275   1.117   2.099   3.969  0.6052  0.6682  0.5376
 8213SOL    HW236276   1.051   2.175   3.856 -0.3162 -0.3162  0.0296
 8214SOL     OW36277   0.010   0.525   8.387 -0.1127  0.0587  0.3887
 8214SOL    HW136278   0.092   0.476   8.379 -0.8380 -0.9155 -1.0311
 8214SOL    HW236279   4.729   0.522   8.481 -0.5410 -0.4466  0.2818
 8215SOL     OW36280   2.825   1.370   4.910  0.6280  0.0129 -0.3500
 8215SOL    HW136281   2.746   1.363   4.963  0.4832 -0.5059 -0.6391
 8215SOL    HW236282   2.891   1.361   4.978 -0.3288  0.3351  0.6265
 8216SOL     OW36283   1.071   1.598   3.074 -0.1067  0.0708 -0.0088
 8216SOL    HW136284   1.011   1.536   3.116  0.2831 -1.0754 -1.1476
 8216SOL    HW236285   1.067   1.669   3.137  2.6735  1.4789 -1.4220
 8217SOL     OW36286   2.399   0.251  14.696 -0.0034 -0.5437 -0.0366
 8217SOL    HW136287   2.463   0.238  14.626 -1.7023 -0.1862 -1.6579
 8217SOL    HW236288   2.360   0.166  14.674 -1.6169 -0.4132  2.3534
 8218SOL     OW36289   0.162   1.239  14.114 -0.5643  0.1752  0.4170
 8218SOL    HW136290   0.164   1.147  14.142  0.0555 -0.8703 -3.0475
 8218SOL    HW236291   0.160   1.231  14.018  0.3240 -1.1861  0.5119
 8219SOL     OW36292   3.510   1.463   5.203  0.4675 -0.2172  0.5268
 8219SOL    HW136293   3.417   1.443   5.192  0.7008 -0.7531 -0.5242
 8219SOL    HW236294   3.544   1.386   5.248  2.5434  1.3253  1.5596
 8220SOL     OW36295   0.530   1.607   4.074  0.2243  0.2920  0.1250
 8220SOL    HW136296   0.542   1.672   4.005 -0.9048  1.3025  0.8772
 8220SOL    HW236297   0.522   1.667   4.148 -2.1530  1.0153 -0.6979
 8221SOL     OW36298   0.046   3.461  10.018  0.1458 -0.1466 -0.0703
 8221SOL    HW136299   0.011   3.380   9.981 -1.1676 -0.0565  0.9889
 8221SOL    HW236300   0.087   3.429  10.098 -1.5066 -0.5579  0.5995
 8222SOL     OW36301   1.584   1.585  17.721 -0.1595  0.2393  0.3257
 8222SOL    HW136302   1.490   1.572  17.736 -0.6796  2.9662 -0.4550
 8222SOL    HW236303   1.597   1.533  17.642  1.6082  2.0668 -0.5824
 8223SOL     OW36304   1.811   2.124   7.606 -0.2573  0.1406 -0.8190
 8223SOL    HW136305   1.864   2.110   7.527 -3.0547  1.1416 -2.8876
 8223SOL    HW236306   1.809   2.219   7.614  0.3723  0.2162 -1.4857
 8224SOL     OW36307   3.133   0.456   8.558  0.4121  0.7721  0.0701
 8224SOL    HW136308   3.089   0.486   8.637  0.6609 -1.9843  1.2847
 8224SOL    HW236309   3.186   0.392   8.606 -1.2356  0.5132  1.5006
 8225SOL     OW36310   1.510   2.753  17.232  0.2139 -0.0715  0.0090
 8225SOL    HW136311   1.575   2.820  17.253  1.2988 -1.0026 -0.3949
 8225SOL    HW236312   1.441   2.798  17.183 -0.2980 -0.4073  0.4163
 8226SOL     OW36313   0.550   2.135   3.132  0.5647  0.0502 -0.3924
 8226SOL    HW136314   0.489   2.205   3.154  0.3527 -0.4658  0.6997
 8226SOL    HW236315   0.636   2.171   3.155 -0.2479  1.1863  0.8175
 8227SOL     OW36316   1.019   2.405   6.409  0.1270 -0.0075  0.4718
 8227SOL    HW136317   0.982   2.409   6.497 -1.2892 -2.4297 -0.0248
 8227SOL    HW236318   0.950   2.455   6.366  1.3601 -0.4111 -2.0327
 8228SOL     OW36319   1.751   3.875   9.057 -0.4265  0.2906  0.2671
 8228SOL    HW136320   1.688   3.812   9.021 -0.6399  0.5490  0.1934
 8228SOL    HW236321   1.802   3.899   8.980 -0.3121  0.0559  0.2677
 8229SOL     OW36322   2.725   3.280  16.173 -0.5908  0.5987 -0.1747
 8229SOL    HW136323   2.710   3.370  16.203 -0.8611  1.0197 -1.5645
 8229SOL    HW236324   2.751   3.288  16.081 -1.8535  1.7513 -0.4269
 8230SOL     OW36325   4.699   2.474   6.580  0.2437 -0.3300 -0.4127
 8230SOL    HW136326   0.052   2.453   6.561  0.2557 -1.7444  1.2162
 8230SOL    HW236327   4.701   2.445   6.671 -0.8227 -0.1001 -0.3185
 8231SOL     OW36328   2.949   2.720  13.248 -0.2109  0.0842 -0.7229
 8231SOL    HW136329   2.863   2.757  13.227 -0.4958 -1.0559 -1.5586
 8231SOL    HW236330   2.938   2.629  13.220 -1.2214 -0.1994  0.5404
 8232SOL     OW36331   1.209   3.128   2.957  0.2308  0.2132  0.6132
 8232SOL    HW136332   1.144   3.159   2.895 -0.2638  0.3755  1.2125
 8232SOL    HW236333   1.168   3.135   3.043 -1.9882  3.5912 -0.7260
 8233SOL     OW36334   0.907   1.422   4.167  0.4166 -0.1982  0.8652
 8233SOL    HW136335   0.869   1.438   4.254 -0.7768  1.5060  0.0197
 8233SOL    HW236336   0.958   1.341   4.171 -1.3490 -1.3347 -0.0948
 8234SOL     OW36337   0.207   1.398   2.525  0.2339 -0.4135 -0.0430
 8234SOL    HW136338   0.148   1.458   2.479  0.8153 -0.5003 -0.9176
 8234SOL    HW236339   0.269   1.466   2.552 -0.9140  0.8894 -0.7190
 8235SOL     OW36340   0.481   0.423   2.480  0.7247 -0.2193  0.2366
 8235SOL    HW136341   0.455   0.410   2.572  0.4294  1.3412  0.3766
 8235SOL    HW236342   0.437   0.353   2.433 -0.6234  2.0002 -1.8080
 8236SOL     OW36343   1.289   3.559  16.587 -0.4705  0.3737  0.1154
 8236SOL    HW136344   1.278   3.521  16.499 -0.0903  0.9297 -0.1725
 8236SOL    HW236345   1.239   3.500  16.643 -1.4220 -0.1681 -1.3026
 8237SOL     OW36346   2.142   0.778   0.053 -0.0787 -0.3499 -0.6317
 8237SOL    HW136347   2.063   0.750   0.006  0.0733  0.7660 -1.5656
 8237SOL    HW236348   2.162   0.849  17.745  1.8795 -0.6445 -0.3169
 8238SOL     OW36349   0.649   3.680   7.709  0.1876 -0.1731  0.3940
 8238SOL    HW136350   0.624   3.621   7.780 -1.3898 -0.9643 -0.8153
 8238SOL    HW236351   0.744   3.692   7.718  0.4747 -0.8642 -1.7874
 8239SOL     OW36352   0.316   4.617   0.958 -0.4183 -0.2120  0.5903
 8239SOL    HW136353   0.404   4.578   0.954 -1.2551 -1.5661 -4.8837
 8239SOL    HW236354   0.320   4.654   1.046 -0.9085  1.6766 -0.1724
 8240SOL     OW36355   2.512   0.455  11.750  0.4535  0.0185 -0.0263
 8240SOL    HW136356   2.523   0.511  11.673 -3.1899  0.7229 -0.0275
 8240SOL    HW236357   2.438   0.403  11.719 -0.1175  0.8228 -0.0025
 8241SOL     OW36358   1.246   3.150  11.284  0.4340  0.0367 -0.4568
 8241SOL    HW136359   1.160   3.148  11.241  0.4966 -2.0811 -0.4869
 8241SOL    HW236360   1.214   3.159  11.374 -1.5551  2.0326 -1.3640
 8242SOL     OW36361   2.580   0.601   1.533  0.0126  0.7317 -0.3043
 8242SOL    HW136362   2.525   0.679   1.544  0.4045  0.8365  0.9343
 8242SOL    HW236363   2.546   0.551   1.608  2.5927 -0.2956  0.1593
 8243SOL     OW36364   4.281   2.252   6.148 -0.1364 -0.2185  0.0087
 8243SOL    HW136365   4.200   2.291   6.114  0.3117 -1.4181 -2.4004
 8243SOL    HW236366   4.290   2.168   6.102 -0.1041 -0.6180  0.7467
 8244SOL     OW36367   0.136   1.679   7.880  0.4608 -0.4211 -0.6377
 8244SOL    HW136368   0.123   1.714   7.791 -0.3935  0.4928 -0.1638
 8244SOL    HW236369   0.231   1.670   7.878  0.4665  0.1734 -3.9326
 8245SOL     OW36370   1.710   0.215   9.437  0.1809 -0.2219 -0.2415
 8245SOL    HW136371   1.744   0.128   9.458  2.6752  0.9758  0.6898
 8245SOL    HW236372   1.762   0.244   9.362 -0.0725  0.6194 -0.0920
 8246SOL     OW36373   1.748   0.500   3.475  0.1401 -0.0772 -0.1615
 8246SOL    HW136374   1.704   0.580   3.446  1.4078 -0.1445 -2.2069
 8246SOL    HW236375   1.837   0.529   3.456  0.5466 -1.9222 -1.0096
 8247SOL     OW36376   1.389   2.636   9.033 -0.8810  0.1106 -0.2332
 8247SOL    HW136377   1.380   2.568   9.100  0.8187  0.0708 -0.0301
 8247SOL    HW236378   1.305   2.631   8.988 -1.2397  0.3651  0.4030
 8248SOL     OW36379   3.715   0.108  13.136 -0.0404  0.0322  0.1149
 8248SOL    HW136380   3.630   0.150  13.138  0.2632  0.6184  0.7814
 8248SOL    HW236381   3.773   0.176  13.101 -0.5633  0.0321 -0.7467
 8249SOL     OW36382   1.800   0.980   5.633 -0.0150 -0.5529 -0.3077
 8249SOL    HW136383   1.842   0.896   5.649 -1.2058 -0.7768  1.6904
 8249SOL    HW236384   1.834   0.995   5.545 -0.8235  1.0117 -0.3541
 8250SOL     OW36385   1.141   1.599  16.437 -0.9036 -0.0174  0.1931
 8250SOL    HW136386   1.115   1.575  16.347 -0.5140  1.7706 -0.3933
 8250SOL    HW236387   1.200   1.526  16.456 -0.0069  0.9319  1.0105
 8251SOL     OW36388   2.486   3.566   3.528 -0.6098 -0.5245  0.4582
 8251SOL    HW136389   2.548   3.506   3.569  0.6322 -0.5790 -1.4746
 8251SOL    HW236390   2.471   3.615   3.609  0.2485  1.4835 -0.6007
 8252SOL     OW36391   2.974   2.615  17.376  0.3213 -0.0656 -0.1876
 8252SOL    HW136392   2.993   2.704  17.406  0.7796 -0.6681  1.3055
 8252SOL    HW236393   2.897   2.625  17.320  0.0826 -0.6695  0.0333
 8253SOL     OW36394   4.035   2.338  15.874 -0.2018 -0.2588  0.4268
 8253SOL    HW136395   3.965   2.369  15.817  1.0427 -0.6581 -1.2894
 8253SOL    HW236396   3.985   2.281  15.932  0.0748  0.0861  1.0134
 8254SOL     OW36397   4.053   2.198   2.721  0.4448  0.5061 -0.2001
 8254SOL    HW136398   4.109   2.268   2.754  0.4975  0.5414 -0.3670
 8254SOL    HW236399   4.024   2.169   2.808  1.0654 -0.5486 -0.3460
 8255SOL     OW36400   0.826   2.213   0.023 -0.6138  0.2977  0.4650
 8255SOL    HW136401   0.828   2.297  17.730 -1.8729 -0.3018 -0.6708
 8255SOL    HW236402   0.777   2.156  17.718  0.0449  0.1419  0.0697
 8256SOL     OW36403   0.902   1.611   7.381  0.2095 -0.2649 -1.0292
 8256SOL    HW136404   0.882   1.700   7.411 -2.1539 -1.5658  1.3033
 8256SOL    HW236405   0.897   1.557   7.461  0.2731  1.1314 -0.0864
 8257SOL     OW36406   0.280   1.128   3.883 -0.5473 -0.2892 -0.4030
 8257SOL    HW136407   0.344   1.198   3.885 -0.9152  0.0192  1.2505
 8257SOL    HW236408   0.237   1.151   3.966 -1.9042  2.9824 -2.0081
 8258SOL     OW36409   1.870   1.668   7.241  0.0680 -0.4035 -0.3312
 8258SOL    HW136410   1.912   1.731   7.300  0.7302 -1.4217  0.2723
 8258SOL    HW236411   1.845   1.593   7.295  1.2631 -0.7940 -0.3169
 8259SOL     OW36412   4.706   4.289  12.706  0.2006  0.2350 -0.7545
 8259SOL    HW136413   4.697   4.197  12.729 -2.2475  0.5274 -0.5647
 8259SOL    HW236414   0.015   4.330  12.779 -0.8820 -2.2192  1.3327
 8260SOL     OW36415   2.651   0.770   3.249 -0.0300 -0.1284 -0.4001
 8260SOL    HW136416   2.565   0.786   3.211  0.5593  0.2721 -1.5546
 8260SOL    HW236417   2.708   0.788   3.175  0.9074  1.0760  0.6001
 8261SOL     OW36418   1.575   4.015   2.811 -0.2584  0.7469 -0.2940
 8261SOL    HW136419   1.624   3.971   2.742  2.0444  2.3350  0.3312
 8261SOL    HW236420   1.487   3.984   2.789 -0.3366  1.1503 -0.5527
 8262SOL     OW36421   2.907   4.130  10.034  0.8677 -0.0647  0.0916
 8262SOL    HW136422   2.916   4.036  10.022  1.2072 -0.1861  1.3140
 8262SOL    HW236423   2.879   4.154   9.946 -2.4927 -0.8879  0.9305
 8263SOL     OW36424   0.785   0.294   8.655  0.1501  0.4081 -0.6232
 8263SOL    HW136425   0.879   0.306   8.645  0.2189  0.8593  0.6409
 8263SOL    HW236426   0.787   0.228   8.724  1.3003 -0.5147 -1.5377
 8264SOL     OW36427   3.340   3.623  12.917 -0.1663  0.4124  0.5079
 8264SOL    HW136428   3.370   3.538  12.886  2.8847  1.1656  1.3204
 8264SOL    HW236429   3.358   3.616  13.011  2.3503  1.6486  0.1418
 8265SOL     OW36430   0.092   4.286   7.718 -0.1231  0.0424  0.3439
 8265SOL    HW136431   0.089   4.377   7.748 -0.5130  0.4921 -1.0352
 8265SOL    HW236432   0.010   4.272   7.670 -0.1739 -0.7890  0.6867
 8266SOL     OW36433   1.934   0.402   2.329 -0.0016  0.1525  0.4675
 8266SOL    HW136434   1.897   0.348   2.259 -0.9680  1.8050 -0.2836
 8266SOL    HW236435   1.871   0.389   2.400  2.7073 -0.0875  2.8254
 8267SOL     OW36436   4.175   2.444   3.438 -0.4610 -0.3347 -0.0288
 8267SOL    HW136437   4.180   2.428   3.532 -1.7913  1.4350  0.3411
 8267SOL    HW236438   4.240   2.378   3.414  1.2776  1.0948  0.8141
 8268SOL     OW36439   1.903   3.455  13.706  0.5244  0.5701  0.2750
 8268SOL    HW136440   1.975   3.438  13.646  1.3561  0.7930  1.2113
 8268SOL    HW236441   1.825   3.431  13.656 -0.4102  1.1446  1.4337
 8269SOL     OW36442   2.796   2.395   4.027  0.2869 -0.0967  0.2831
 8269SOL    HW136443   2.734   2.322   4.020  0.3210  0.0772 -1.6642
 8269SOL    HW236444   2.809   2.410   3.934 -0.5844  1.5827  0.4250
 8270SOL     OW36445   0.763   0.859   2.036 -0.4307  0.6214 -0.3332
 8270SOL    HW136446   0.695   0.909   2.081  0.0238  1.5363 -0.6758
 8270SOL    HW236447   0.801   0.928   1.982  2.0009  1.0316  1.8305
 8271SOL     OW36448   1.805   2.494   2.238 -0.0451 -0.0972  0.1263
 8271SOL    HW136449   1.712   2.513   2.247 -0.3007 -1.7230  0.9863
 8271SOL    HW236450   1.843   2.576   2.270 -0.2789  0.8087 -1.8950
 8272SOL     OW36451   3.933   2.183   1.997 -0.0927 -0.4613 -0.3090
 8272SOL    HW136452   3.981   2.168   2.078  1.2060 -2.3153 -1.4078
 8272SOL    HW236453   3.992   2.239   1.947  1.2700 -2.3111 -0.7583
 8273SOL     OW36454   3.984   3.290   2.081 -0.0644 -0.3597  0.5993
 8273SOL    HW136455   3.927   3.360   2.114 -0.4018  1.0076 -2.8530
 8273SOL    HW236456   4.043   3.344   2.028 -0.0980  0.3403  1.2749
 8274SOL     OW36457   3.260   2.696   2.156 -0.3508 -0.5200 -0.5228
 8274SOL    HW136458   3.321   2.661   2.091  1.0654  0.3574  0.3375
 8274SOL    HW236459   3.248   2.784   2.119 -2.3125 -1.0801 -1.2471
 8275SOL     OW36460   3.862   3.006   4.418  0.2573  0.4549  0.3777
 8275SOL    HW136461   3.918   2.943   4.373 -0.6341 -0.4690  0.5683
 8275SOL    HW236462   3.921   3.021   4.492  2.5594 -1.2253 -1.1208
 8276SOL     OW36463   3.284   1.142   6.468 -0.1197  0.1109 -0.3321
 8276SOL    HW136464   3.316   1.199   6.399  3.1113 -2.0280 -0.5793
 8276SOL    HW236465   3.199   1.111   6.434  0.4165 -0.9017 -0.7528
 8277SOL     OW36466   3.227   3.429  10.343  0.0419  0.1611 -0.3060
 8277SOL    HW136467   3.305   3.379  10.368 -0.1456 -0.8707 -1.7897
 8277SOL    HW236468   3.156   3.369  10.367 -0.6349  2.4996  3.5396
 8278SOL     OW36469   3.257   1.283   3.231  0.4855 -0.0673 -0.1923
 8278SOL    HW136470   3.219   1.341   3.298 -0.0265 -0.3668 -0.2217
 8278SOL    HW236471   3.316   1.342   3.183 -0.8600  2.8087  1.6688
 8279SOL     OW36472   2.004   1.158   6.692 -0.4337 -0.2180  0.0257
 8279SOL    HW136473   2.032   1.162   6.783  2.0003  2.2544 -0.8219
 8279SOL    HW236474   2.089   1.152   6.648 -1.4839 -1.0547 -1.9041
 8280SOL     OW36475   0.286   3.942   3.275 -0.0628  0.9143 -0.0904
 8280SOL    HW136476   0.197   3.977   3.267 -0.6056 -0.3998  0.2076
 8280SOL    HW236477   0.321   4.004   3.338 -1.5378  2.0020 -0.3359
 8281SOL     OW36478   1.412   2.208   4.940  0.1044 -0.0620 -0.2794
 8281SOL    HW136479   1.392   2.125   4.983  0.3524 -0.1808 -0.3881
 8281SOL    HW236480   1.484   2.181   4.883 -0.4909  1.1329 -1.5894
 8282SOL     OW36481   0.296   3.054   8.003 -0.2202 -0.1642  0.4987
 8282SOL    HW136482   0.308   2.997   7.928 -1.5189  1.6492 -1.0846
 8282SOL    HW236483   0.289   2.992   8.075  3.6992 -0.4276  0.6723
 8283SOL     OW36484   3.058   1.448   6.454  0.1281  0.0319  0.0835
 8283SOL    HW136485   3.051   1.460   6.359 -2.3903 -0.1854  0.2541
 8283SOL    HW236486   2.972   1.409   6.468  0.2634  0.1790  1.3366
 8284SOL     OW36487   1.628   4.266   2.914  0.3645 -0.5037 -0.4073
 8284SOL    HW136488   1.612   4.177   2.883 -0.6049 -0.5682  0.3052
 8284SOL    HW236489   1.537   4.288   2.930  0.6917  0.2984  0.3519
 8285SOL     OW36490   1.465   1.817   0.953  0.1056  0.2776 -0.1611
 8285SOL    HW136491   1.394   1.827   1.017  0.0665  0.8926 -0.2975
 8285SOL    HW236492   1.414   1.802   0.873 -1.0172  1.4883  0.3173
 8286SOL     OW36493   0.647   4.325   7.673 -0.0711 -0.1727  0.4572
 8286SOL    HW136494   0.643   4.237   7.710  1.1763 -0.2208  0.4651
 8286SOL    HW236495   0.575   4.330   7.610  0.1469 -0.5930  0.1756
 8287SOL     OW36496   3.461   0.251   6.500 -0.1647 -0.3907 -0.3719
 8287SOL    HW136497   3.484   0.261   6.593  0.4235 -3.2001 -0.1939
 8287SOL    HW236498   3.545   0.220   6.467 -0.2665  1.2247 -2.1038
 8288SOL     OW36499   3.966   3.868   3.969  0.7319 -0.4828 -0.5407
 8288SOL    HW136500   4.025   3.937   3.999  0.9380 -0.1886 -1.6435
 8288SOL    HW236501   4.004   3.795   4.018 -0.0850 -0.1771  0.5511
 8289SOL     OW36502   1.866   3.661   4.468 -0.0091  0.2761 -0.0445
 8289SOL    HW136503   1.898   3.596   4.406 -3.0715  0.3357 -1.7017
 8289SOL    HW236504   1.784   3.687   4.425  0.1804  0.5914 -0.2102
 8290SOL     OW36505   2.219   0.039   5.057 -0.2817 -0.2348  0.2454
 8290SOL    HW136506   2.238   4.718   5.129  1.5809 -0.7770 -0.6972
 8290SOL    HW236507   2.146   4.736   5.013  0.2312  0.2763 -1.0713
 8291SOL     OW36508   0.824   3.505   6.109  0.4218 -0.2978 -0.1567
 8291SOL    HW136509   0.755   3.514   6.176  0.3345 -0.3812 -0.2356
 8291SOL    HW236510   0.832   3.595   6.077 -0.3340 -0.8253 -1.8337
 8292SOL     OW36511   3.176   3.785  11.426 -0.4066 -0.0984 -0.2469
 8292SOL    HW136512   3.095   3.809  11.472  1.1613 -0.0177  2.5119
 8292SOL    HW236513   3.214   3.873  11.433  3.7667 -1.9772  0.4141
 8293SOL     OW36514   2.636   4.602   5.667 -0.8688  0.5508 -0.0152
 8293SOL    HW136515   2.708   4.662   5.686 -1.6575  1.1458  1.1321
 8293SOL    HW236516   2.582   4.612   5.746  0.7807 -1.8425  1.4280
 8294SOL     OW36517   0.752   1.320   7.331 -0.2273  0.0080 -0.6372
 8294SOL    HW136518   0.735   1.251   7.395  2.1797  0.8240  0.9060
 8294SOL    HW236519   0.698   1.388   7.372  3.5611  3.0267 -0.6396
 8295SOL     OW36520   4.466   3.442   3.663 -0.3220 -0.8011 -0.3051
 8295SOL    HW136521   4.477   3.352   3.693 -0.2432 -0.9955 -0.9314
 8295SOL    HW236522   4.559   3.462   3.673 -0.6225 -0.0254  1.0411
 8296SOL     OW36523   2.329   2.639   2.761 -0.0542  0.4658 -0.3737
 8296SOL    HW136524   2.294   2.693   2.691  1.5479  0.7335 -0.9732
 8296SOL    HW236525   2.421   2.665   2.762  0.5999 -1.7877 -0.3682
 8297SOL     OW36526   1.395   3.564   8.523 -0.1336  0.5118  0.6075
 8297SOL    HW136527   1.408   3.490   8.583 -0.6455 -0.4923 -0.5256
 8297SOL    HW236528   1.329   3.522   8.468  1.3524  0.2364 -0.9667
 8298SOL     OW36529   1.915   4.321   7.680  0.1745 -1.0493  0.1620
 8298SOL    HW136530   1.911   4.235   7.721  1.9584 -2.2882 -2.2833
 8298SOL    HW236531   1.987   4.364   7.728 -1.1621  1.7999 -0.3577
 8299SOL     OW36532   4.130   0.888  16.131 -0.3085  1.0121  0.5254
 8299SOL    HW136533   4.138   0.930  16.217  1.4592  1.6718  0.0374
 8299SOL    HW236534   4.060   0.946  16.098 -1.1956  1.4986  3.2306
 8300SOL     OW36535   3.273   0.304   9.248 -0.0896  0.5432  0.5764
 8300SOL    HW136536   3.346   0.242   9.252  0.4241  0.9862 -1.7629
 8300SOL    HW236537   3.215   0.259   9.186 -1.5236  1.5440  1.1909
 8301SOL     OW36538   2.292   0.937   9.645 -0.3765  0.6344  0.5354
 8301SOL    HW136539   2.250   0.853   9.664 -1.0527  1.0039  0.6714
 8301SOL    HW236540   2.234   0.992   9.698 -0.1260  0.2709  1.1945
 8302SOL     OW36541   2.363   3.467   2.401 -0.6005  0.0076  0.2050
 8302SOL    HW136542   2.414   3.493   2.325  0.3610 -1.7184  0.2625
 8302SOL    HW236543   2.440   3.470   2.457 -1.0703  0.1260  0.8515
 8303SOL     OW36544   3.450   2.258   5.065 -0.3603  0.8635  0.2856
 8303SOL    HW136545   3.450   2.187   5.002  0.5751  0.3509  0.8634
 8303SOL    HW236546   3.392   2.219   5.130  0.0503 -1.5641 -0.8082
 8304SOL     OW36547   2.393   3.898   5.479  0.2516  0.4915  0.2373
 8304SOL    HW136548   2.416   3.929   5.391 -0.7070 -2.4241 -1.0444
 8304SOL    HW236549   2.463   3.944   5.525  1.6680 -2.4653  0.9824
 8305SOL     OW36550   4.568   3.918   3.027  0.2294 -0.4494 -0.0029
 8305SOL    HW136551   4.485   3.966   3.019  0.4490 -0.3541 -1.9253
 8305SOL    HW236552   4.627   3.971   2.972  0.3969  0.0917  0.6964
 8306SOL     OW36553   2.456   0.858   8.102  0.3603  0.5601 -0.1041
 8306SOL    HW136554   2.506   0.893   8.029 -1.2038  3.0877  0.0277
 8306SOL    HW236555   2.393   0.929   8.116 -0.6402 -0.6407  1.5479
 8307SOL     OW36556   0.139   2.795   3.200  0.2442 -0.1676 -0.3192
 8307SOL    HW136557   0.162   2.876   3.155  0.8876  0.9818  2.1091
 8307SOL    HW236558   0.076   2.815   3.270  0.1519  0.3835 -0.5600
 8308SOL     OW36559   4.107   1.181  11.849 -0.0137 -0.6459  0.1785
 8308SOL    HW136560   4.056   1.114  11.896 -1.5674 -0.4569 -1.2375
 8308SOL    HW236561   4.188   1.168  11.898  0.2580  1.6103  0.2946
 8309SOL     OW36562   4.417   0.289  13.285  0.0315 -0.0233  0.3397
 8309SOL    HW136563   4.494   0.323  13.331  1.1857 -0.5181 -1.1919
 8309SOL    HW236564   4.380   0.230  13.349 -0.0802  0.4777  0.7354
 8310SOL     OW36565   4.523   1.684   6.678 -0.0783 -0.5944  0.2438
 8310SOL    HW136566   4.609   1.713   6.647 -0.5502  0.1184 -0.3691
 8310SOL    HW236567   4.453   1.723   6.626  0.8985 -0.6862 -1.1279
 8311SOL     OW36568   3.900   3.915   2.010  0.2270  0.0421 -0.3438
 8311SOL    HW136569   3.893   3.947   1.920 -1.5030  0.1271 -0.1856
 8311SOL    HW236570   3.941   3.991   2.050  0.1264 -0.6022  0.9959
 8312SOL     OW36571   1.526   1.356   7.771  0.3337 -0.2075  0.8692
 8312SOL    HW136572   1.503   1.377   7.681  2.9525  1.4204  0.6175
 8312SOL    HW236573   1.441   1.363   7.814 -0.2335  0.8918 -0.4399
 8313SOL     OW36574   3.782   2.947   9.084 -0.1660 -0.9523 -0.1331
 8313SOL    HW136575   3.826   2.869   9.051 -0.9251 -0.7957 -1.5556
 8313SOL    HW236576   3.720   2.984   9.021 -0.1320 -1.7083 -0.6138
 8314SOL     OW36577   4.583   3.794   0.304  0.5051  0.7279 -0.6802
 8314SOL    HW136578   4.594   3.889   0.296 -1.6563  1.0393  0.2505
 8314SOL    HW236579   4.523   3.791   0.378 -1.3108  1.1469 -2.1606
 8315SOL     OW36580   4.399   4.635   6.456  0.1632  0.4995 -0.0442
 8315SOL    HW136581   4.486   4.646   6.418  0.1968 -0.0225 -0.1199
 8315SOL    HW236582   4.391   4.542   6.477  3.4647  0.4295  0.7825
 8316SOL     OW36583   0.718   2.188   4.355 -0.3431  0.4240 -0.1895
 8316SOL    HW136584   0.750   2.267   4.311  0.7762  0.2318  0.2678
 8316SOL    HW236585   0.800   2.149   4.386 -0.3183  1.5693  1.2038
 8317SOL     OW36586   2.832   0.259   4.631  0.0570  0.1109 -0.4313
 8317SOL    HW136587   2.778   0.180   4.639  0.7005 -0.2232  0.5793
 8317SOL    HW236588   2.872   0.258   4.544 -0.7671 -0.0459 -0.8130
 8318SOL     OW36589   1.400   4.252   3.990 -0.0794  0.1427  0.2387
 8318SOL    HW136590   1.449   4.330   3.963 -0.0425 -0.1537 -0.5454
 8318SOL    HW236591   1.461   4.207   4.048  2.1741  1.5737 -1.0074
 8319SOL     OW36592   2.318   0.267   3.697  0.3476 -0.1926  0.0137
 8319SOL    HW136593   2.293   0.175   3.682 -1.7476  0.2098  0.9709
 8319SOL    HW236594   2.246   0.311   3.652  1.2231 -0.8822 -2.0507
 8320SOL     OW36595   2.486   1.744  13.993 -0.6319 -0.4651 -0.6183
 8320SOL    HW136596   2.577   1.750  14.022 -1.0438 -1.7522  0.9352
 8320SOL    HW236597   2.434   1.734  14.072 -2.8579  1.6989 -1.8047
 8321SOL     OW36598   1.387   4.559   5.347  0.1141 -0.6034 -0.4076
 8321SOL    HW136599   1.294   4.537   5.344  0.9070 -4.2151  1.6047
 8321SOL    HW236600   1.412   4.519   5.431  1.9328  0.9628 -0.1884
 8322SOL     OW36601   1.963   4.264   9.057  0.9091  0.5716  0.0661
 8322SOL    HW136602   2.034   4.205   9.031  0.2157  0.0076 -0.5342
 8322SOL    HW236603   1.918   4.275   8.973 -0.9205 -1.0320  0.8392
 8323SOL     OW36604   1.016   2.716   3.662 -0.5493 -0.1886 -0.0265
 8323SOL    HW136605   1.058   2.648   3.610 -0.6952 -1.2308  1.2274
 8323SOL    HW236606   1.050   2.697   3.750 -1.9699 -0.2807  0.5031
 8324SOL     OW36607   2.986   0.478   3.058 -0.0915  0.4413  0.1245
 8324SOL    HW136608   3.023   0.549   3.111  2.5580  1.0374 -2.5125
 8324SOL    HW236609   3.005   0.507   2.968  1.5921 -2.0708 -0.3332
 8325SOL     OW36610   2.533   2.556  14.467 -0.1470  0.2755  0.1008
 8325SOL    HW136611   2.565   2.540  14.555 -1.0725 -1.6977  0.0780
 8325SOL    HW236612   2.473   2.628  14.486  1.1802  0.9460  1.7617
 8326SOL     OW36613   0.720   0.939   7.396 -0.2192  0.1439 -0.0462
 8326SOL    HW136614   0.670   0.858   7.410  0.3959 -0.2723 -0.2837
 8326SOL    HW236615   0.806   0.900   7.410 -1.1992 -2.1785 -0.6170
 8327SOL     OW36616   3.652   4.331  11.941  0.0437 -0.2486  0.5054
 8327SOL    HW136617   3.743   4.351  11.919 -1.0066  1.9615 -1.8679
 8327SOL    HW236618   3.669   4.295  12.028 -0.2358  0.6563  0.9303
 8328SOL     OW36619   3.165   0.617  11.749  0.3000  0.5102  0.3800
 8328SOL    HW136620   3.216   0.545  11.712  2.7779  2.8560 -0.7578
 8328SOL    HW236621   3.175   0.586  11.840 -1.8461 -2.0709 -0.2427
 8329SOL     OW36622   3.771   4.226   0.394  1.3363 -0.4362  0.2811
 8329SOL    HW136623   3.797   4.135   0.410 -0.2043 -0.7123  1.2241
 8329SOL    HW236624   3.763   4.240   0.300  2.2442 -1.9379 -0.0171
 8330SOL     OW36625   1.437   1.724   1.778 -0.0080  0.3281 -0.2432
 8330SOL    HW136626   1.505   1.760   1.836  0.0386  0.3910 -0.3373
 8330SOL    HW236627   1.410   1.652   1.835  0.1144  1.4274  1.2021
 8331SOL     OW36628   2.293   4.687   2.743  0.2175  0.1923  0.2101
 8331SOL    HW136629   2.228   4.672   2.811  0.3262  0.9783  0.4925
 8331SOL    HW236630   2.371   4.650   2.785 -0.0368 -1.8721 -1.1535
 8332SOL     OW36631   2.006   4.081   5.658  0.4547 -0.5365  0.0918
 8332SOL    HW136632   1.974   4.131   5.583 -1.1566  1.2870  2.0179
 8332SOL    HW236633   2.066   4.026   5.607  2.1592 -0.1559  1.6782
 8333SOL     OW36634   4.715   0.985   5.594 -0.0132  0.3331  0.1650
 8333SOL    HW136635   4.704   1.059   5.534  1.9574 -1.1429 -2.0213
 8333SOL    HW236636   0.052   1.016   5.643 -0.9444  0.7605  1.3170
 8334SOL     OW36637   3.475   1.293   1.226 -0.4556  0.0775  0.3621
 8334SOL    HW136638   3.447   1.264   1.313  0.0191 -0.2931  0.3864
 8334SOL    HW236639   3.564   1.258   1.224 -0.4997  0.0181 -0.7038
 8335SOL     OW36640   3.821   4.304   3.051  0.6190 -0.1752  0.3016
 8335SOL    HW136641   3.857   4.311   2.963  0.0654 -1.7877 -0.0600
 8335SOL    HW236642   3.818   4.396   3.076  2.2893 -0.2850  0.9560
 8336SOL     OW36643   3.543   3.267   4.074 -0.3972  0.4803 -0.5314
 8336SOL    HW136644   3.497   3.185   4.056  0.7708 -0.3886  0.4596
 8336SOL    HW236645   3.473   3.307   4.125  0.3903 -1.0718  1.7481
 8337SOL     OW36646   0.151   1.326   4.975  0.2713  0.0342 -0.0036
 8337SOL    HW136647   0.134   1.241   4.935  1.9247 -1.0841  1.6912
 8337SOL    HW236648   0.178   1.303   5.064  1.7320  2.2150  0.1129
 8338SOL     OW36649   3.808   2.932   2.899  0.7617 -0.2244 -0.4316
 8338SOL    HW136650   3.795   3.007   2.957 -0.7232 -0.6805 -0.1807
 8338SOL    HW236651   3.735   2.877   2.926  0.5576  0.0253 -0.4760
 8339SOL     OW36652   3.658   2.683  10.978 -0.5673  0.8763  0.2561
 8339SOL    HW136653   3.735   2.731  10.949 -0.7800  0.7941 -0.4641
 8339SOL    HW236654   3.681   2.653  11.066 -0.4219 -1.5044 -0.5849
 8340SOL     OW36655   2.050   1.504   4.701  0.0686 -0.3633 -0.3012
 8340SOL    HW136656   2.021   1.413   4.709 -0.3000 -0.0752  1.6639
 8340SOL    HW236657   2.117   1.496   4.633 -0.6900  1.6257 -1.2848
 8341SOL     OW36658   0.838   0.002  13.484  0.1425  0.1009 -0.1002
 8341SOL    HW136659   0.924   4.711  13.512 -0.6909 -3.5755 -1.4797
 8341SOL    HW236660   0.851   0.003  13.389 -2.1711 -0.2927 -0.4358
 8342SOL     OW36661   3.403   0.805   8.949 -0.3802  0.4120 -0.0649
 8342SOL    HW136662   3.474   0.763   8.997 -3.3472 -2.3621  1.8364
 8342SOL    HW236663   3.373   0.739   8.886  1.6011 -0.0645 -0.5032
 8343SOL     OW36664   0.530   0.307  15.699  0.0654  0.0847 -0.0681
 8343SOL    HW136665   0.573   0.280  15.780  0.2508 -2.5216 -1.0363
 8343SOL    HW236666   0.440   0.316  15.729 -0.8536 -2.4110 -2.1349
 8344SOL     OW36667   1.072   2.361   6.705  0.5997 -0.3055  0.3449
 8344SOL    HW136668   1.144   2.408   6.663 -0.8554 -0.6229 -2.4453
 8344SOL    HW236669   1.078   2.402   6.791 -1.6508 -1.7103  1.1679
 8345SOL     OW36670   3.609   4.424   5.928  0.1664 -0.4338 -0.5286
 8345SOL    HW136671   3.699   4.393   5.914  0.7318  0.3175  1.4048
 8345SOL    HW236672   3.583   4.389   6.013 -0.0976  1.7378  0.2866
 8346SOL     OW36673   0.489   1.121   6.004 -0.2869 -0.6818  0.3419
 8346SOL    HW136674   0.428   1.128   5.930  0.5555 -2.4270 -0.5197
 8346SOL    HW236675   0.560   1.077   5.958 -1.5312  0.4565 -2.7120
 8347SOL     OW36676   3.211   4.065   3.149  0.1108 -0.2460 -0.0413
 8347SOL    HW136677   3.165   3.993   3.192 -1.7232  0.3922 -0.9299
 8347SOL    HW236678   3.292   4.018   3.127 -0.6494 -0.7671 -1.7478
 8348SOL     OW36679   2.439   2.504  11.618  0.8793  0.0138  0.3010
 8348SOL    HW136680   2.532   2.513  11.638  0.2818  0.1490  2.9950
 8348SOL    HW236681   2.415   2.570  11.553 -2.5712 -0.4636  1.0693
 8349SOL     OW36682   4.428   4.403   3.923 -1.0071  0.0516  0.6631
 8349SOL    HW136683   4.484   4.463   3.874 -0.6850  0.4136  1.4673
 8349SOL    HW236684   4.485   4.329   3.943  0.6475  0.7723 -1.3865
 8350SOL     OW36685   1.538   1.911   3.447  0.2576  0.2694 -0.6415
 8350SOL    HW136686   1.586   1.847   3.499 -3.0161  0.8545  3.1136
 8350SOL    HW236687   1.549   1.875   3.359  0.6286 -1.3614  0.0667
 8351SOL     OW36688   4.535   1.434   7.557  0.5755 -0.3451  0.2911
 8351SOL    HW136689   4.574   1.519   7.578 -0.2749  0.0438  0.2758
 8351SOL    HW236690   4.548   1.430   7.462 -2.1337 -0.2022 -0.0858
 8352SOL     OW36691   0.187   2.416  16.392 -0.1178 -0.5068 -0.0340
 8352SOL    HW136692   0.092   2.416  16.385 -0.3481 -1.1650  3.1725
 8352SOL    HW236693   0.205   2.427  16.485  2.0589  1.2403 -0.6312
 8353SOL     OW36694   1.509   0.194   5.442  0.2998  0.1072  0.1948
 8353SOL    HW136695   1.600   0.191   5.472  0.5584  0.5046 -0.5512
 8353SOL    HW236696   1.458   0.193   5.524  0.1887  0.7235  0.1295
 8354SOL     OW36697   2.563   4.431  13.497 -0.9122 -0.0165 -0.6281
 8354SOL    HW136698   2.612   4.351  13.516 -0.0684  0.5460 -0.4801
 8354SOL    HW236699   2.579   4.487  13.573 -0.9974  0.9513 -1.3303
 8355SOL     OW36700   1.992   3.907   8.414  0.5428 -0.0997 -0.6947
 8355SOL    HW136701   1.927   3.838   8.421 -0.5290  1.1786  1.7343
 8355SOL    HW236702   2.027   3.882   8.328 -1.5325 -0.5972 -1.3901
 8356SOL     OW36703   2.692   4.052   8.667  0.6742  0.3286 -0.3278
 8356SOL    HW136704   2.663   4.140   8.643 -0.1211  0.6104  1.6360
 8356SOL    HW236705   2.692   4.056   8.762  3.4444  0.7184 -0.3611
 8357SOL     OW36706   2.506   1.863   4.226  0.0504  0.5973  0.0649
 8357SOL    HW136707   2.578   1.806   4.198 -0.3722 -0.1132  0.4356
 8357SOL    HW236708   2.558   1.913   4.290 -1.0277  1.2635  0.4282
 8358SOL     OW36709   1.994   1.549   6.112 -0.5241 -0.3557 -0.0855
 8358SOL    HW136710   1.978   1.468   6.161  0.4563 -0.9417 -0.7266
 8358SOL    HW236711   1.908   1.573   6.077 -0.5816 -0.3218  0.0805
 8359SOL     OW36712   0.495   0.963   2.666  0.2900  0.0107  0.9748
 8359SOL    HW136713   0.425   0.979   2.729 -1.2456 -0.9100 -0.5129
 8359SOL    HW236714   0.475   0.872   2.642 -2.0959  1.1175 -1.1441
 8360SOL     OW36715   1.223   1.369  16.553 -0.1923 -0.4142 -0.1561
 8360SOL    HW136716   1.236   1.368  16.648  0.1277 -0.2091 -0.1969
 8360SOL    HW236717   1.243   1.278  16.532  0.5948 -0.2457 -0.1360
 8361SOL     OW36718   4.616   1.972   3.162 -0.4476  0.4000 -0.7685
 8361SOL    HW136719   4.688   1.978   3.224 -0.4721 -0.0635 -0.6973
 8361SOL    HW236720   4.644   1.896   3.112  0.3328  0.9968 -1.2253
 8362SOL     OW36721   2.099   3.589   9.731  0.0968  0.1512 -0.0402
 8362SOL    HW136722   2.145   3.672   9.741 -0.9277  0.4464  2.1859
 8362SOL    HW236723   2.111   3.557   9.820  0.1529  0.2947  0.0049
 8363SOL     OW36724   2.939   2.856   2.120  0.1236 -0.1286  0.1071
 8363SOL    HW136725   3.023   2.894   2.147 -1.6539  1.3714  3.5754
 8363SOL    HW236726   2.905   2.833   2.207  1.8560  0.5507  0.9724
 8364SOL     OW36727   4.499   3.067   9.624 -0.9615  0.1468  0.5973
 8364SOL    HW136728   4.412   3.065   9.663 -0.7465 -3.0166  0.9470
 8364SOL    HW236729   4.564   3.024   9.680  0.2033  0.9704 -0.1213
 8365SOL     OW36730   0.101   0.816   8.633  0.2004 -0.5229  0.1534
 8365SOL    HW136731   0.033   0.859   8.684 -2.1418 -1.1886 -2.4661
 8365SOL    HW236732   0.056   0.796   8.551 -0.8084 -1.2878  0.8949
 8366SOL     OW36733   3.041   2.706   1.594  0.0517  0.0757 -0.2922
 8366SOL    HW136734   2.953   2.738   1.613 -0.8367 -3.0559  0.8700
 8366SOL    HW236735   3.061   2.747   1.510  2.0212 -0.4379 -0.0771
 8367SOL     OW36736   0.037   3.843   8.730  0.2980 -0.3514  0.1730
 8367SOL    HW136737   4.707   3.805   8.675 -0.8584  0.7211  0.8799
 8367SOL    HW236738   0.051   3.777   8.798 -1.3380  0.1783  1.0244
 8368SOL     OW36739   2.388   1.540  11.882  0.2136  0.1663  0.1601
 8368SOL    HW136740   2.372   1.473  11.948 -0.5174 -1.4217 -1.6150
 8368SOL    HW236741   2.310   1.536  11.826  1.8529 -2.5684 -1.9618
 8369SOL     OW36742   0.221   0.958  17.102  0.2465 -0.2573 -0.3468
 8369SOL    HW136743   0.125   0.958  17.102  0.2526  1.5358  0.4625
 8369SOL    HW236744   0.244   1.051  17.107  0.0471 -0.2370  0.1376
 8370SOL     OW36745   2.733   1.900   5.472  0.2798 -0.2025  0.0495
 8370SOL    HW136746   2.741   1.879   5.565 -1.4860 -2.9188 -0.4034
 8370SOL    HW236747   2.709   1.814   5.439 -1.0108 -0.3740  1.4766
 8371SOL     OW36748   2.548   3.999   4.785 -0.2611  0.2514  0.0843
 8371SOL    HW136749   2.585   4.086   4.770 -0.5792  0.0875 -1.7314
 8371SOL    HW236750   2.534   3.965   4.696 -1.9293 -1.0689  0.8637
 8372SOL     OW36751   2.240   3.174  17.038  0.2392 -0.4843  0.0498
 8372SOL    HW136752   2.275   3.242  16.980 -1.3788  1.7489  1.7023
 8372SOL    HW236753   2.297   3.176  17.114 -0.7495 -1.7147  0.8311
 8373SOL     OW36754   0.336   1.271   8.308 -0.2363  0.0704  0.0743
 8373SOL    HW136755   0.279   1.270   8.385 -0.1566  0.5918  0.1410
 8373SOL    HW236756   0.291   1.207   8.253  1.0269 -0.9264  0.2033
 8374SOL     OW36757   2.095   4.638   2.971  0.1973  0.6938 -0.3610
 8374SOL    HW136758   2.061   4.614   3.057 -0.7442  2.4082 -0.2712
 8374SOL    HW236759   2.015   4.623   2.921 -0.1747  0.7420  0.2231
 8375SOL     OW36760   0.306   1.805  17.516 -0.0649  0.4185 -0.2029
 8375SOL    HW136761   0.284   1.824  17.607  1.2126  1.0545 -0.0128
 8375SOL    HW236762   0.232   1.756  17.481  1.2000 -1.1880 -0.5899
 8376SOL     OW36763   3.573   1.887   6.468 -0.4579  0.8591 -0.0835
 8376SOL    HW136764   3.601   1.837   6.545 -3.1594 -0.2254  0.1662
 8376SOL    HW236765   3.564   1.978   6.497 -0.9488  0.7755  0.0123
 8377SOL     OW36766   4.544   0.012   1.799  0.4332  0.0570 -0.4712
 8377SOL    HW136767   4.586   0.089   1.761 -0.5572  1.4328  1.1837
 8377SOL    HW236768   4.453   0.040   1.790 -0.2911 -2.1424  0.0326
 8378SOL     OW36769   3.904   4.473  13.560 -0.6298 -0.1360 -0.1214
 8378SOL    HW136770   3.928   4.400  13.617 -0.7386 -1.1480 -1.3616
 8378SOL    HW236771   3.819   4.503  13.594 -0.1844  2.2664 -1.1245
 8379SOL     OW36772   0.247   2.347  12.003 -0.3322  0.4315 -0.8432
 8379SOL    HW136773   0.237   2.434  12.040 -2.9867 -0.4157  0.4430
 8379SOL    HW236774   0.168   2.342  11.950 -1.0993 -1.2051  0.4523
 8380SOL     OW36775   1.516   3.229  10.522 -0.9633 -0.0905 -0.2192
 8380SOL    HW136776   1.485   3.301  10.577  0.7971 -0.3831  1.1352
 8380SOL    HW236777   1.605   3.260  10.511  0.4281 -3.5071  1.3486
 8381SOL     OW36778   1.290   1.338   4.097  0.5579  0.2318 -0.2386
 8381SOL    HW136779   1.316   1.312   4.186  0.8036  0.2499 -0.3058
 8381SOL    HW236780   1.244   1.256   4.083  2.9844 -1.0574 -0.5725
 8382SOL     OW36781   1.417   3.105   7.272 -0.1264 -0.0384  0.2522
 8382SOL    HW136782   1.335   3.153   7.260 -1.3030 -1.7287  1.5903
 8382SOL    HW236783   1.430   3.088   7.179 -1.8836 -0.2424  0.0383
 8383SOL     OW36784   0.028   4.519   3.017 -0.0531 -0.2269  0.2096
 8383SOL    HW136785   4.691   4.470   2.985  0.3169 -1.6246  1.4516
 8383SOL    HW236786   0.081   4.531   2.939 -0.6115  1.3773  0.0767
 8384SOL     OW36787   0.921   4.448  16.550  0.2695  0.1095  0.2026
 8384SOL    HW136788   0.827   4.467  16.541 -0.3217 -2.3314  1.1521
 8384SOL    HW236789   0.943   4.431  16.459  1.7463  1.3130  0.3439
 8385SOL     OW36790   3.833   2.372   4.487 -0.0032 -0.3127 -0.4349
 8385SOL    HW136791   3.897   2.365   4.417  1.2402  3.5757  0.2929
 8385SOL    HW236792   3.785   2.450   4.459 -1.1427 -0.0915  2.0690
 8386SOL     OW36793   0.425   1.821   7.460 -0.4984  0.5317  0.2978
 8386SOL    HW136794   0.445   1.894   7.518  2.4556  1.2708 -1.6613
 8386SOL    HW236795   0.492   1.825   7.392 -0.0155  1.5753  0.8384
 8387SOL     OW36796   1.844   0.110  16.177 -0.0196  0.0725  0.0138
 8387SOL    HW136797   1.821   0.019  16.159 -1.2514 -0.2572  3.2610
 8387SOL    HW236798   1.831   0.142  16.088  0.3441  0.3789  0.0688
 8388SOL     OW36799   3.379   0.827   9.326 -0.3498 -0.5899 -0.2477
 8388SOL    HW136800   3.319   0.869   9.264 -0.0451 -0.0061 -0.1549
 8388SOL    HW236801   3.362   0.735   9.308  1.0054 -1.0550  0.8563
 8389SOL     OW36802   1.059   2.305  13.082 -0.5407 -0.3494  0.2386
 8389SOL    HW136803   1.066   2.338  12.993 -2.3543 -0.4591  0.0678
 8389SOL    HW236804   1.059   2.211  13.062 -1.4700 -0.4687  0.8150
 8390SOL     OW36805   1.166   1.596   1.052 -0.3298  0.4088  0.4437
 8390SOL    HW136806   1.128   1.526   1.000  0.8306  1.7603 -2.2358
 8390SOL    HW236807   1.139   1.670   0.997  0.3188 -0.9041 -1.6465
 8391SOL     OW36808   4.458   2.564   0.304 -0.1479  0.2731 -0.1073
 8391SOL    HW136809   4.399   2.606   0.242 -1.9510 -1.1326  0.6723
 8391SOL    HW236810   4.542   2.609   0.299 -0.3552  0.6517 -0.1213
 8392SOL     OW36811   3.313   0.527   1.402 -0.0532 -0.1510 -0.5883
 8392SOL    HW136812   3.223   0.513   1.371 -0.5216  0.5548  0.4690
 8392SOL    HW236813   3.308   0.543   1.496  1.8724  1.6354 -0.7987
 8393SOL     OW36814   0.051   0.859   4.638  0.1780  0.4653  0.4091
 8393SOL    HW136815   0.145   0.871   4.644  0.3387 -0.1765 -0.8076
 8393SOL    HW236816   0.022   0.943   4.603 -1.4469  0.3249  1.3779
 8394SOL     OW36817   4.071   4.697   4.320  0.2261  0.0264  0.2602
 8394SOL    HW136818   4.141   4.645   4.357  0.3989  0.3764  0.4254
 8394SOL    HW236819   4.097   4.714   4.230 -1.0548  0.8125  0.0279
 8395SOL     OW36820   3.665   3.333   1.838  0.4488 -0.4211 -0.6338
 8395SOL    HW136821   3.683   3.401   1.772  0.5440  0.6396  0.4766
 8395SOL    HW236822   3.604   3.383   1.893  0.5319 -3.1022  1.8642
 8396SOL     OW36823   3.499   2.047   5.308  0.1477 -0.2845  0.3489
 8396SOL    HW136824   3.571   2.108   5.294 -1.5708  1.1860 -2.0767
 8396SOL    HW236825   3.550   1.966   5.311  2.1099  0.9618  0.6828
 8397SOL     OW36826   0.595   0.295   6.822  0.0157 -0.2201 -0.0468
 8397SOL    HW136827   0.558   0.382   6.808  1.1701  0.5722  1.8105
 8397SOL    HW236828   0.589   0.283   6.917  0.1115  0.7700  0.0815
 8398SOL     OW36829   2.170   3.106   5.149 -0.4733  0.1853  1.0233
 8398SOL    HW136830   2.223   3.103   5.228  1.0030 -1.2427 -0.0099
 8398SOL    HW236831   2.132   3.192   5.167  0.2115  0.5342  0.7822
 8399SOL     OW36832   4.176   0.951   6.729 -0.3569  0.1593 -0.4420
 8399SOL    HW136833   4.189   0.870   6.777  2.0437  1.5871  1.2774
 8399SOL    HW236834   4.100   0.985   6.776 -0.9806 -1.6345 -0.1583
 8400SOL     OW36835   4.047   1.765   7.319  0.1325  0.4040  0.2344
 8400SOL    HW136836   3.963   1.811   7.315  1.2228  2.1768 -2.2877
 8400SOL    HW236837   4.102   1.805   7.252  1.2327 -0.3587  0.6939
 8401SOL     OW36838   1.710   4.713   5.724  0.3202  1.1421  0.6402
 8401SOL    HW136839   1.803   4.736   5.733  0.5301  0.4901  0.1580
 8401SOL    HW236840   1.668   0.039   5.781  0.7237  0.8507  1.2728
 8402SOL     OW36841   4.662   0.592  16.877 -0.2734  0.0813  0.2176
 8402SOL    HW136842   4.726   0.586  16.947  0.6170  3.7244 -0.2861
 8402SOL    HW236843   4.621   0.505  16.874 -1.2042  0.6030 -2.6828
 8403SOL     OW36844   1.176   4.323   2.108 -0.2236  0.1473 -0.3436
 8403SOL    HW136845   1.153   4.233   2.086 -2.6012  0.9353 -1.1677
 8403SOL    HW236846   1.261   4.313   2.150  0.9813 -0.6314 -2.9828
 8404SOL     OW36847   4.174   1.877   6.860  0.4829 -0.0278 -0.8055
 8404SOL    HW136848   4.185   1.908   6.950 -0.2630  0.1037 -0.7612
 8404SOL    HW236849   4.226   1.798   6.850  0.7682  0.0718 -0.0918
 8405SOL     OW36850   3.766   1.158   6.308  0.4317  0.0466  0.2650
 8405SOL    HW136851   3.824   1.081   6.307  1.4600  0.8111  1.5048
 8405SOL    HW236852   3.680   1.118   6.325 -0.1416  0.8292 -0.8342
 8406SOL     OW36853   0.749   2.342   3.194  0.5351  0.3265 -0.0135
 8406SOL    HW136854   0.789   2.361   3.279 -0.9451 -0.4833  0.8704
 8406SOL    HW236855   0.737   2.429   3.155  0.2566  1.0042  1.5864
 8407SOL     OW36856   1.882   4.224   8.791  0.1775  0.0760  0.5936
 8407SOL    HW136857   1.901   4.316   8.810 -1.0412  0.1894  1.2162
 8407SOL    HW236858   1.926   4.218   8.706  0.9009  2.9643  0.7385
 8408SOL     OW36859   0.192   2.416   1.762  0.5467  0.1710 -0.4667
 8408SOL    HW136860   0.139   2.494   1.778  2.0367  0.7577  1.6063
 8408SOL    HW236861   0.118   2.358   1.749  0.4152  0.0896  0.6539
 8409SOL     OW36862   1.353   2.355   2.409 -0.1392  0.0829 -0.5969
 8409SOL    HW136863   1.348   2.259   2.404 -0.6119  0.1737 -1.8299
 8409SOL    HW236864   1.448   2.356   2.409 -0.1712  2.0250 -0.6095
 8410SOL     OW36865   0.251   2.287  10.783  0.0088 -0.1950  0.3206
 8410SOL    HW136866   0.281   2.201  10.814 -0.9529 -0.6415  0.0020
 8410SOL    HW236867   0.316   2.303  10.715  0.6305  1.5784  1.3269
 8411SOL     OW36868   4.673   1.422   0.378  0.5254 -0.1915 -0.1924
 8411SOL    HW136869   4.638   1.508   0.402  1.3062 -0.1370  0.7655
 8411SOL    HW236870   4.633   1.418   0.291  0.8704 -0.5682 -0.3341
 8412SOL     OW36871   3.694   0.097   4.041  0.0386  0.1324  0.1421
 8412SOL    HW136872   3.653   0.083   3.956  1.7874  0.8326 -0.8174
 8412SOL    HW236873   3.622   0.121   4.100 -0.0456 -0.6118  0.3380
 8413SOL     OW36874   1.504   1.095  15.439 -0.2669  0.1341 -0.1148
 8413SOL    HW136875   1.472   1.006  15.449  0.7025 -0.0520  1.3236
 8413SOL    HW236876   1.421   1.142  15.437 -1.2188 -1.5306  0.3620
 8414SOL     OW36877   4.613   4.635   8.823 -0.1542  0.1805  0.2831
 8414SOL    HW136878   4.706   4.633   8.802  0.0099  0.2270  1.0005
 8414SOL    HW236879   4.573   4.635   8.736 -0.8938 -0.0891  0.6280
 8415SOL     OW36880   3.838   2.517   1.360  0.2673  0.3290  0.2200
 8415SOL    HW136881   3.898   2.471   1.300  0.6142  0.6903  0.2913
 8415SOL    HW236882   3.755   2.472   1.343 -0.6779  2.3824 -0.6852
 8416SOL     OW36883   2.692   3.807   1.879  0.1502 -0.0144 -0.2244
 8416SOL    HW136884   2.705   3.716   1.851 -1.2370  0.1911 -1.5261
 8416SOL    HW236885   2.770   3.823   1.934  0.1259  0.3132 -0.2855
 8417SOL     OW36886   0.263   3.193   4.448 -0.1985  0.0146 -0.0449
 8417SOL    HW136887   0.208   3.256   4.495  0.1022  1.1745 -1.2597
 8417SOL    HW236888   0.204   3.127   4.412  0.2308 -1.6176  2.2515
 8418SOL     OW36889   2.968   2.642  13.782 -0.2431 -0.1270 -0.2264
 8418SOL    HW136890   2.885   2.626  13.828 -0.2820  2.8095  0.7340
 8418SOL    HW236891   3.009   2.688  13.855 -0.3113  1.4056 -1.1777
 8419SOL     OW36892   4.323   3.806   4.987 -0.9473  0.3962  0.1180
 8419SOL    HW136893   4.353   3.879   4.932 -1.4329 -0.0335 -0.7239
 8419SOL    HW236894   4.239   3.796   4.942 -1.6475  0.5247  1.3997
 8420SOL     OW36895   0.536   0.493   3.995  0.0262  0.0635 -0.0037
 8420SOL    HW136896   0.615   0.454   3.958 -1.3820 -1.2060 -1.7223
 8420SOL    HW236897   0.567   0.576   4.031 -1.2862 -0.1991  1.6956
 8421SOL     OW36898   3.598   4.143  13.686  0.3913 -0.1191  0.1036
 8421SOL    HW136899   3.649   4.220  13.708 -0.5631  0.4157  0.4296
 8421SOL    HW236900   3.627   4.118  13.599 -2.2017 -2.6274 -0.0781
 8422SOL     OW36901   0.034   0.207   2.011 -0.0484  0.0787 -0.6019
 8422SOL    HW136902   0.024   0.189   1.918 -1.7684 -2.1688  0.0077
 8422SOL    HW236903   4.682   0.222   2.038 -0.7434 -1.7786 -1.9294
 8423SOL     OW36904   3.828   2.243   9.444 -0.3470 -0.6760 -0.1310
 8423SOL    HW136905   3.815   2.182   9.517 -2.4518 -0.7433 -0.5566
 8423SOL    HW236906   3.903   2.205   9.399 -0.5066  0.4561 -1.3620
 8424SOL     OW36907   1.529   3.401   6.331  0.5542 -0.1521 -0.4132
 8424SOL    HW136908   1.623   3.389   6.345  0.9566  0.7589 -2.3241
 8424SOL    HW236909   1.518   3.327   6.271  0.1401 -0.2387 -0.2366
 8425SOL     OW36910   1.755   2.914  12.679 -0.1198  0.5815 -0.3618
 8425SOL    HW136911   1.687   2.849  12.661  2.1719 -1.8683 -0.2389
 8425SOL    HW236912   1.704   2.994  12.670  1.7284  1.4980 -2.7663
 8426SOL     OW36913   1.224   3.402   7.598 -0.1279 -0.8280 -0.1007
 8426SOL    HW136914   1.306   3.394   7.548 -1.0093 -0.1570 -1.6554
 8426SOL    HW236915   1.261   3.421   7.684 -1.0594 -1.3845  0.4110
 8427SOL     OW36916   0.118   3.395   7.473  0.5657  0.4116 -0.3064
 8427SOL    HW136917   0.030   3.413   7.442  0.1730  0.5159  0.8694
 8427SOL    HW236918   0.110   3.396   7.569 -1.9120  0.7490 -0.5336
 8428SOL     OW36919   4.694   0.351   1.607  0.5236  0.2180 -0.1324
 8428SOL    HW136920   4.678   0.365   1.514 -0.3128 -0.5593 -0.1021
 8428SOL    HW236921   0.016   0.278   1.604 -0.2309 -0.4647  0.9419
 8429SOL     OW36922   3.777   4.362  12.449 -0.0283  0.1160  0.2741
 8429SOL    HW136923   3.868   4.336  12.464 -1.0166 -2.2969  2.0430
 8429SOL    HW236924   3.724   4.326  12.519  2.9439 -1.8583  1.4996
 8430SOL     OW36925   3.099   4.699  10.017 -0.6886 -0.3710  0.4575
 8430SOL    HW136926   3.160   0.028   9.989 -1.1885 -0.4120 -0.7238
 8430SOL    HW236927   3.015   4.733   9.986  1.6328  2.9645 -2.1329
 8431SOL     OW36928   1.182   2.869   8.610  0.3514 -0.5761 -0.3978
 8431SOL    HW136929   1.185   2.830   8.697  0.8950 -1.5019 -0.8207
 8431SOL    HW236930   1.175   2.791   8.554 -0.2186 -1.2792  0.6497
 8432SOL     OW36931   2.169   0.803   4.995 -0.1467 -0.3839  0.3383
 8432SOL    HW136932   2.244   0.760   4.952 -0.9931 -1.0317 -0.5052
 8432SOL    HW236933   2.158   0.729   5.055  0.4209  0.2432  1.2040
 8433SOL     OW36934   2.209   3.887  14.862  0.0971  0.6021 -0.4180
 8433SOL    HW136935   2.179   3.957  14.803  0.0564 -0.2499 -1.4116
 8433SOL    HW236936   2.250   3.834  14.793  0.8436  2.3459 -1.3236
 8434SOL     OW36937   1.074   4.329   4.969 -0.2577 -0.0551  0.4077
 8434SOL    HW136938   1.002   4.353   5.026 -0.2243 -1.2850  0.9713
 8434SOL    HW236939   1.030   4.267   4.909  0.5579 -0.6407  0.4135
 8435SOL     OW36940   1.729   4.036   3.081 -0.0931  0.3290  0.2956
 8435SOL    HW136941   1.652   4.082   3.115  0.7206  1.8426  0.0734
 8435SOL    HW236942   1.697   4.054   2.993  1.0838 -1.5840 -0.5395
 8436SOL     OW36943   0.455   3.309  13.526 -0.2041  0.3496 -0.5736
 8436SOL    HW136944   0.536   3.291  13.574 -1.2970 -0.1983  1.0897
 8436SOL    HW236945   0.440   3.224  13.486  0.4329 -0.0115 -0.0605
 8437SOL     OW36946   4.322   2.258  13.980 -0.2203 -0.4318  0.4175
 8437SOL    HW136947   4.255   2.261  14.048  2.1420  1.6154  2.6843
 8437SOL    HW236948   4.382   2.189  14.009 -0.0189 -0.6787 -0.5983
 8438SOL     OW36949   0.815   0.713   1.694 -0.5592 -0.2339  0.1668
 8438SOL    HW136950   0.901   0.706   1.734 -0.6321 -0.0185  0.3697
 8438SOL    HW236951   0.827   0.765   1.615  3.0631 -3.2514 -1.2321
 8439SOL     OW36952   0.357   1.214   7.218  0.4895 -0.0678 -0.6151
 8439SOL    HW136953   0.415   1.196   7.293  1.8352  0.7009 -1.4659
 8439SOL    HW236954   0.304   1.136   7.235 -0.8009  0.4044 -2.5816
 8440SOL     OW36955   0.850   1.649   2.208 -0.3983  0.4007  0.2925
 8440SOL    HW136956   0.756   1.658   2.196 -0.5614 -0.7942  0.6513
 8440SOL    HW236957   0.865   1.622   2.117  2.8482  3.6578 -0.1290
 8441SOL     OW36958   4.732   2.310  11.102  0.3762 -0.0326 -0.0968
 8441SOL    HW136959   0.056   2.276  11.165  0.0202 -0.0570  0.2451
 8441SOL    HW236960   4.698   2.237  11.050 -1.0355  0.3115  0.3481
 8442SOL     OW36961   2.239   3.559   0.539  0.1446 -0.1647  0.5495
 8442SOL    HW136962   2.218   3.540   0.447 -0.7383  0.1053  0.6911
 8442SOL    HW236963   2.158   3.538   0.586  0.5431  2.3691  2.3203
 8443SOL     OW36964   2.680   2.988   1.833  0.0250 -0.0224 -0.0932
 8443SOL    HW136965   2.774   2.994   1.843  0.2357 -2.2835 -0.7448
 8443SOL    HW236966   2.643   3.069   1.869 -1.1981  0.0550 -1.5010
 8444SOL     OW36967   2.003   3.261   4.043 -0.3877  0.0602  0.3881
 8444SOL    HW136968   2.090   3.222   4.049 -0.1459  0.4570 -0.4833
 8444SOL    HW236969   1.949   3.190   4.009 -2.2393  0.5354  2.3620
 8445SOL     OW36970   1.938   3.543  12.725  0.5815  0.2871  0.1941
 8445SOL    HW136971   1.849   3.576  12.710  0.0487 -0.5269  1.5328
 8445SOL    HW236972   1.973   3.553  12.636 -1.8536 -0.8840 -0.9364
 8446SOL     OW36973   1.886   2.964   8.008  0.5250 -0.1395 -0.3868
 8446SOL    HW136974   1.957   2.910   8.042  0.2913 -1.4992 -2.0189
 8446SOL    HW236975   1.901   2.942   7.916  0.9897 -0.1847 -0.2986
 8447SOL     OW36976   2.751   2.654  13.972  0.1910  0.3570  0.3513
 8447SOL    HW136977   2.689   2.716  13.934  0.1381  0.2880  0.3243
 8447SOL    HW236978   2.721   2.658  14.062 -0.2937 -2.2587  0.3240
 8448SOL     OW36979   4.408   3.749  10.048 -0.1615 -0.0753 -0.2130
 8448SOL    HW136980   4.464   3.802   9.992 -2.4974  0.1839 -2.3116
 8448SOL    HW236981   4.473   3.690  10.087 -1.4548 -0.9145  0.6641
 8449SOL     OW36982   1.735   3.970   5.086 -0.0368 -0.0298 -0.4020
 8449SOL    HW136983   1.754   4.064   5.088  1.5534 -0.3333 -0.6998
 8449SOL    HW236984   1.816   3.929   5.054 -1.1335 -1.1101 -1.7724
 8450SOL     OW36985   3.276   4.637  10.624 -0.1456 -0.2146  0.1237
 8450SOL    HW136986   3.340   4.584  10.577 -1.8856 -1.7809 -0.4870
 8450SOL    HW236987   3.198   4.627  10.570 -0.0483  0.1632 -0.0853
 8451SOL     OW36988   1.396   1.409   4.742 -0.6652 -0.1878 -0.9227
 8451SOL    HW136989   1.322   1.412   4.682 -0.1842 -3.7753 -1.6700
 8451SOL    HW236990   1.387   1.323   4.783  1.9015  0.1430  0.3131
 8452SOL     OW36991   0.547   2.734   4.435 -0.2753 -0.3961  0.1213
 8452SOL    HW136992   0.561   2.642   4.411 -1.4957 -0.6389  0.3233
 8452SOL    HW236993   0.579   2.781   4.358 -1.1765 -1.4853 -0.9263
 8453SOL     OW36994   2.075   0.957  16.307 -0.9241 -0.5620  0.3485
 8453SOL    HW136995   2.014   0.919  16.245 -2.2888 -0.6815  1.7512
 8453SOL    HW236996   2.103   1.027  16.248 -2.2969 -2.3304 -2.3356
 8454SOL     OW36997   4.660   3.160   8.525 -0.1644  0.6919  0.0880
 8454SOL    HW136998   4.577   3.208   8.519 -1.2347 -1.1321  0.2888
 8454SOL    HW236999   4.715   3.209   8.586  0.9177  1.4305 -1.4817
 8455SOL     OW37000   3.775   3.549   9.342 -0.3752 -0.4948  0.1763
 8455SOL    HW137001   3.716   3.599   9.285  0.0080  0.6669  0.7960
 8455SOL    HW237002   3.749   3.458   9.327 -1.0235 -0.5179  1.4642
 8456SOL     OW37003   1.646   0.811   3.937  0.2130  0.4638  0.0181
 8456SOL    HW137004   1.661   0.898   3.902 -2.4585  0.6802 -0.5936
 8456SOL    HW237005   1.665   0.828   4.030 -0.5713  2.0973 -0.1295
 8457SOL     OW37006   3.040   0.838   9.864 -0.3359 -0.0868  0.2864
 8457SOL    HW137007   3.051   0.896   9.789  1.7239 -0.4521  0.2958
 8457SOL    HW237008   2.993   0.907   9.910  0.1642  0.7368 -0.4349
 8458SOL     OW37009   3.561   2.347   1.577 -0.6006 -0.1855  0.1200
 8458SOL    HW137010   3.572   2.258   1.543 -2.0658 -1.0797  1.9979
 8458SOL    HW237011   3.474   2.339   1.616 -0.5909 -1.0499 -0.0351
 8459SOL     OW37012   0.018   2.073   7.995  0.8499  0.1362 -0.6086
 8459SOL    HW137013   4.672   2.067   7.951  0.4081  2.2796 -0.0329
 8459SOL    HW237014   0.013   1.998   8.055 -0.8755 -0.4756 -1.5302
 8460SOL     OW37015   1.801   3.638   0.285 -0.0687  0.2988 -0.5659
 8460SOL    HW137016   1.820   3.570   0.220 -0.0931 -1.2830  1.1028
 8460SOL    HW237017   1.866   3.612   0.351 -1.4873  1.7410  1.3965
 8461SOL     OW37018   3.323   4.498   5.483 -0.7382 -0.1143 -0.7419
 8461SOL    HW137019   3.262   4.436   5.443 -0.4723  0.4022 -1.9309
 8461SOL    HW237020   3.406   4.456   5.461 -0.0027 -0.5086  2.7509
 8462SOL     OW37021   4.040   1.241  16.867 -0.1119  0.2314 -0.3919
 8462SOL    HW137022   4.007   1.280  16.786 -1.8054  0.2445  0.2834
 8462SOL    HW237023   4.133   1.254  16.854 -0.0418 -0.8980 -1.0086
 8463SOL     OW37024   1.513   2.876   2.533  0.2952 -0.2951 -0.4236
 8463SOL    HW137025   1.586   2.825   2.497  0.3109 -1.5180  1.3688
 8463SOL    HW237026   1.508   2.956   2.479  0.6991  0.8455  1.2342
 8464SOL     OW37027   4.216   0.682   4.965 -0.4652 -0.2639  0.1813
 8464SOL    HW137028   4.228   0.595   4.928  0.5370 -0.2847  0.5710
 8464SOL    HW237029   4.309   0.698   4.980 -0.4943 -2.0447  2.2705
 8465SOL     OW37030   2.737   3.881  11.484 -0.5426  0.2366  0.0583
 8465SOL    HW137031   2.724   3.859  11.392 -2.3843 -1.7531  0.8148
 8465SOL    HW237032   2.696   3.967  11.485 -2.1752 -0.5730  2.3552
 8466SOL     OW37033   3.862   1.147   5.739 -0.2300  0.2333 -0.2068
 8466SOL    HW137034   3.841   1.192   5.821 -0.9349  0.0403 -0.2826
 8466SOL    HW237035   3.943   1.114   5.776 -1.5135 -1.5729  0.9524
 8467SOL     OW37036   2.372   0.094   8.100  0.0299  0.2514  0.3496
 8467SOL    HW137037   2.429   0.090   8.023 -0.5621  2.1802 -0.1913
 8467SOL    HW237038   2.408   0.157   8.163  1.2176 -0.4888  0.4135
 8468SOL     OW37039   2.071   0.202   8.811  0.1749  0.0912 -0.4808
 8468SOL    HW137040   2.066   0.285   8.764 -0.0111  0.8916  0.9405
 8468SOL    HW237041   2.090   0.233   8.899 -0.4686 -1.1049  0.0875
 8469SOL     OW37042   0.418   3.942   2.436 -0.6835  0.4275  0.2502
 8469SOL    HW137043   0.476   3.877   2.474 -1.3768  0.3083  1.0933
 8469SOL    HW237044   0.353   3.894   2.385 -1.8954  1.9780  0.3238
 8470SOL     OW37045   4.335   2.345  12.880 -0.8673 -0.0368 -0.1967
 8470SOL    HW137046   4.421   2.376  12.854  0.0284 -0.2694  2.5200
 8470SOL    HW237047   4.318   2.278  12.814 -2.7316  0.5098 -0.2704
 8471SOL     OW37048   4.144   2.880   9.325 -0.0438  0.1655  0.3885
 8471SOL    HW137049   4.162   2.848   9.414  1.9022  0.1448 -0.0165
 8471SOL    HW237050   4.065   2.929   9.349  0.2574  0.1568  1.4107
 8472SOL     OW37051   2.925   1.508   7.594 -0.2776  0.0786  0.1612
 8472SOL    HW137052   2.987   1.554   7.537  1.6294 -1.6145  0.8589
 8472SOL    HW237053   2.852   1.494   7.534  1.4082 -2.2797 -1.3692
 8473SOL     OW37054   1.632   0.059   4.028 -0.1386 -0.2805  0.6916
 8473SOL    HW137055   1.702   0.085   3.968  0.1316 -1.2101  0.5899
 8473SOL    HW237056   1.562   0.108   3.987 -0.8287 -0.7336  1.3341
 8474SOL     OW37057   0.133   0.027  14.231 -0.5670 -0.1454  0.5814
 8474SOL    HW137058   0.048   0.001  14.195 -1.1994  0.9099  1.3023
 8474SOL    HW237059   0.149   4.684  14.277 -1.3175  0.7955  2.5816
 8475SOL     OW37060   0.866   2.026   0.562 -0.4413  0.2870  0.6737
 8475SOL    HW137061   0.872   1.930   0.562  0.9323  0.3904 -1.4876
 8475SOL    HW237062   0.875   2.044   0.469  0.2096 -1.3133  0.4167
 8476SOL     OW37063   0.252   1.951   0.034  0.1544  1.0730  0.1533
 8476SOL    HW137064   0.328   2.007   0.049  0.2939  1.0156 -0.3474
 8476SOL    HW237065   0.181   2.015   0.029 -1.0563 -0.2409  0.5770
 8477SOL     OW37066   1.025   1.055   9.500  0.6981 -0.0517  0.7780
 8477SOL    HW137067   0.988   1.081   9.584  1.6762 -0.1388  1.2396
 8477SOL    HW237068   1.079   0.981   9.529  3.3705  0.9482 -1.6928
 8478SOL     OW37069   3.298   4.406   7.654  0.0007  0.3307 -0.0104
 8478SOL    HW137070   3.260   4.403   7.742 -0.6872  1.3938 -0.2659
 8478SOL    HW237071   3.270   4.326   7.609 -0.6755 -0.5602  1.9799
 8479SOL     OW37072   1.692   1.734  14.900 -0.0270 -0.4820 -0.3920
 8479SOL    HW137073   1.694   1.826  14.873  0.9892 -1.0830 -2.3770
 8479SOL    HW237074   1.783   1.708  14.911 -0.6389 -2.4635 -0.0968
 8480SOL     OW37075   3.343   1.054   5.285 -0.4149 -0.3955  0.4612
 8480SOL    HW137076   3.389   0.971   5.272  0.7556  0.2954  0.1751
 8480SOL    HW237077   3.384   1.107   5.217 -1.0232  0.9332  1.1206
 8481SOL     OW37078   0.447   1.176  11.431 -0.2396  0.0929  0.2275
 8481SOL    HW137079   0.453   1.262  11.388  1.3830 -0.8146 -1.3429
 8481SOL    HW237080   0.526   1.133  11.399 -1.7587 -1.4677 -1.4180
 8482SOL     OW37081   0.146   3.895  10.819 -0.8699  0.2073 -0.2510
 8482SOL    HW137082   0.236   3.921  10.835 -0.9929 -0.5700  1.6039
 8482SOL    HW237083   0.158   3.821  10.759 -1.2856  2.0611 -2.6480
 8483SOL     OW37084   1.075   3.488   6.264  0.0313  0.1899  0.3968
 8483SOL    HW137085   1.028   3.444   6.193  0.7763 -0.0354  0.0383
 8483SOL    HW237086   1.047   3.579   6.255 -0.9174 -0.2654 -1.2035
 8484SOL     OW37087   1.677   2.284  14.939  0.1600  0.7579 -0.0579
 8484SOL    HW137088   1.703   2.276  15.031 -0.9402  1.1575  0.2989
 8484SOL    HW237089   1.582   2.294  14.937  0.2068  1.0258 -1.0703
 8485SOL     OW37090   2.310   2.860   7.722 -0.7139  0.1786 -0.3228
 8485SOL    HW137091   2.373   2.836   7.655  0.5960  0.1068  0.9396
 8485SOL    HW237092   2.226   2.865   7.676 -0.4383  1.5922 -0.6620
 8486SOL     OW37093   2.868   3.559  13.521 -0.0542 -0.0518  0.2959
 8486SOL    HW137094   2.815   3.483  13.500 -0.5467  0.1253  0.9126
 8486SOL    HW237095   2.884   3.529  13.611  0.5150  1.2153  0.6216
 8487SOL     OW37096   4.122   0.489   8.758 -0.0447  0.6407  0.4407
 8487SOL    HW137097   4.105   0.441   8.677  1.0304  0.4274  0.3435
 8487SOL    HW237098   4.211   0.523   8.746 -0.4646  2.1803  1.6428
 8488SOL     OW37099   1.416   1.233   1.959 -0.0157 -0.1802  0.2124
 8488SOL    HW137100   1.342   1.178   1.984 -1.2304  1.2956 -0.1285
 8488SOL    HW237101   1.441   1.180   1.883 -2.5214  0.5155 -1.1188
 8489SOL     OW37102   2.006   1.266  16.319  0.2535  0.4074 -0.0261
 8489SOL    HW137103   2.068   1.236  16.252  1.8730 -0.0951  1.7007
 8489SOL    HW237104   2.043   1.233  16.401  0.3544  2.5692  0.7943
 8490SOL     OW37105   4.059   3.599   2.899 -0.2245 -0.3712  0.6543
 8490SOL    HW137106   4.011   3.575   2.820  0.2677 -3.1694  1.1940
 8490SOL    HW237107   4.127   3.651   2.856 -1.1421  0.6715  0.4524
 8491SOL     OW37108   3.827   3.952   7.287  0.2943 -0.4292 -0.3953
 8491SOL    HW137109   3.761   3.915   7.228 -0.5275  1.5130 -0.6852
 8491SOL    HW237110   3.826   4.042   7.253 -2.0228  0.5072  2.1396
 8492SOL     OW37111   1.192   0.717   3.097 -0.1659 -0.7961  0.1887
 8492SOL    HW137112   1.208   0.778   3.025 -1.5276  0.4337  0.9301
 8492SOL    HW237113   1.191   0.632   3.053 -0.7652 -1.1407  0.8638
 8493SOL     OW37114   2.303   4.729  12.452 -0.5718  0.2950  0.0009
 8493SOL    HW137115   2.342   0.070  12.416 -2.2274  1.2873  0.4076
 8493SOL    HW237116   2.231   0.032  12.500 -0.0049 -0.4836  1.5339
 8494SOL     OW37117   3.907   3.762   3.323  0.1164 -0.0848  0.2375
 8494SOL    HW137118   3.966   3.823   3.368  0.1259  1.0434 -1.2864
 8494SOL    HW237119   3.827   3.792   3.367 -1.6558 -2.7272 -1.1916
 8495SOL     OW37120   3.694   2.320   7.813 -0.4734  0.2224  0.1086
 8495SOL    HW137121   3.689   2.341   7.906 -2.1085  0.5070 -0.0476
 8495SOL    HW237122   3.613   2.358   7.780  0.0255 -0.0676 -1.4504
 8496SOL     OW37123   4.165   0.100   9.226  0.1852 -0.3858  0.1234
 8496SOL    HW137124   4.094   0.087   9.164  0.3068 -0.3373 -0.0243
 8496SOL    HW237125   4.121   0.081   9.309  1.2942 -2.4772  0.2362
 8497SOL     OW37126   4.420   2.539   7.615 -0.0216 -0.2196 -0.6326
 8497SOL    HW137127   4.363   2.539   7.692  0.4817  1.1009 -0.2636
 8497SOL    HW237128   4.498   2.581   7.651 -0.6414 -0.3653  0.9066
 8498SOL     OW37129   2.908   1.892   5.688  0.2670  0.2159 -0.4098
 8498SOL    HW137130   2.978   1.827   5.693  0.7142  1.0404  4.3954
 8498SOL    HW237131   2.932   1.951   5.617 -0.7448 -0.0151 -0.9378
 8499SOL     OW37132   4.132   4.696  13.423  0.7131 -0.1390 -0.1641
 8499SOL    HW137133   4.136   0.039  13.472  2.3119  0.0810 -0.6763
 8499SOL    HW237134   4.044   4.697  13.385  0.8173 -0.2145 -0.4106
 8500SOL     OW37135   1.092   0.952   2.250  0.3327  0.0447 -0.4704
 8500SOL    HW137136   1.094   0.893   2.174 -1.3340 -1.7851  0.9117
 8500SOL    HW237137   1.026   0.911   2.305  0.3585 -0.1170 -0.5578
 8501SOL     OW37138   1.491   3.839   5.115  0.5170  0.8253  0.1411
 8501SOL    HW137139   1.577   3.867   5.084  0.7619 -1.3615 -1.2040
 8501SOL    HW237140   1.502   3.835   5.210  0.5635  1.9631  0.1812
 8502SOL     OW37141   4.443   3.172  10.313 -0.0305  0.3921  0.0537
 8502SOL    HW137142   4.466   3.247  10.367 -0.6030  0.1816  0.5910
 8502SOL    HW237143   4.403   3.104  10.367  1.9053 -1.0914 -0.3774
 8503SOL     OW37144   3.465   4.508   1.804  0.1124  0.2788  0.2628
 8503SOL    HW137145   3.416   4.498   1.885  1.9711 -1.0254  1.2417
 8503SOL    HW237146   3.531   4.571   1.834 -0.6255 -0.5418  3.5454
 8504SOL     OW37147   4.280   3.793   2.040 -0.0829 -0.2758  0.0511
 8504SOL    HW137148   4.204   3.742   2.066  0.8862 -2.6499 -1.8256
 8504SOL    HW237149   4.275   3.784   1.945  0.6052 -1.2257  0.1122
 8505SOL     OW37150   2.641   0.694   2.448  0.4050 -0.1476 -0.2360
 8505SOL    HW137151   2.599   0.613   2.475 -0.9812  0.3412 -0.9541
 8505SOL    HW237152   2.577   0.756   2.482  1.4774  2.0107 -2.1538
 8506SOL     OW37153   1.634   2.583   5.030 -0.0875 -0.5087  0.2972
 8506SOL    HW137154   1.650   2.549   4.942  1.1137  0.9703 -0.0536
 8506SOL    HW237155   1.652   2.674   5.008  1.2471 -1.3651 -2.2035
 8507SOL     OW37156   3.591   0.297  16.353 -0.0215 -0.1561 -0.2102
 8507SOL    HW137157   3.523   0.252  16.303  2.1506 -0.1176 -3.2307
 8507SOL    HW237158   3.537   0.354  16.408  1.4952  1.9855 -0.9340
 8508SOL     OW37159   0.405   4.553   1.733 -0.5307  0.3693 -0.4564
 8508SOL    HW137160   0.324   4.541   1.783 -0.0598  0.8835  0.4192
 8508SOL    HW237161   0.380   4.504   1.655 -2.1059 -0.5530  0.6252
 8509SOL     OW37162   3.131   4.030   4.780 -0.0777 -0.4683 -0.3512
 8509SOL    HW137163   3.050   4.082   4.786  1.4154  1.9710 -1.1403
 8509SOL    HW237164   3.136   4.025   4.685  0.6374 -2.1173 -0.2230
 8510SOL     OW37165   3.933   0.426   5.834  0.0844  0.1968 -0.4154
 8510SOL    HW137166   3.846   0.443   5.799  0.4843  0.1440 -1.4510
 8510SOL    HW237167   3.975   0.381   5.760 -1.5153 -0.2633 -1.0498
 8511SOL     OW37168   4.403   2.923   2.430 -0.0789 -0.9562 -0.4038
 8511SOL    HW137169   4.363   2.841   2.400  0.7885 -1.6985  0.4516
 8511SOL    HW237170   4.409   2.897   2.522  1.4637 -1.7477 -0.7182
 8512SOL     OW37171   0.242   3.617   0.995 -0.2142  0.1487  0.1807
 8512SOL    HW137172   0.294   3.559   1.050 -0.8465 -0.1485  0.4676
 8512SOL    HW237173   0.210   3.559   0.926  1.8887  0.5251 -1.0951
 8513SOL     OW37174   1.498   2.235  17.327 -0.1017  0.8393  0.0364
 8513SOL    HW137175   1.463   2.299  17.389  1.0098  0.5503  0.9622
 8513SOL    HW237176   1.422   2.177  17.333 -0.7249  1.4134 -2.0525
 8514SOL     OW37177   0.721   4.065   9.238  0.2240 -0.2112 -0.2664
 8514SOL    HW137178   0.713   4.139   9.178 -0.6134  2.1873  2.7838
 8514SOL    HW237179   0.650   4.089   9.297  1.2261 -0.0752  0.8903
 8515SOL     OW37180   4.082   1.331   5.589  0.2089 -0.1893 -0.3565
 8515SOL    HW137181   4.040   1.388   5.524  0.0303 -0.6496 -0.6509
 8515SOL    HW237182   4.075   1.242   5.553  1.0549 -1.4851  2.6593
 8516SOL     OW37183   0.842   1.368   3.187 -0.2945  0.5173  0.4751
 8516SOL    HW137184   0.916   1.310   3.170  0.4794  1.3666  0.9487
 8516SOL    HW237185   0.777   1.345   3.120  0.2797 -1.6184  0.6511
 8517SOL     OW37186   1.131   0.395  16.423 -0.5977  0.3829 -0.2504
 8517SOL    HW137187   1.188   0.469  16.442  0.1358 -0.0373 -0.8014
 8517SOL    HW237188   1.148   0.333  16.494  0.5897  0.0109 -0.8513
 8518SOL     OW37189   0.772   2.713   3.827 -0.1817 -0.0819 -0.3479
 8518SOL    HW137190   0.760   2.806   3.844 -0.6794 -0.3103  0.5439
 8518SOL    HW237191   0.828   2.710   3.749 -0.1177  1.2349 -0.3463
 8519SOL     OW37192   3.777   1.875   4.956 -0.0660 -0.2569 -0.3558
 8519SOL    HW137193   3.847   1.903   4.897 -0.6023 -0.5586 -1.1314
 8519SOL    HW237194   3.800   1.934   5.028 -0.5660 -0.4881 -0.0022
 8520SOL     OW37195   1.830   2.840   4.323  0.2519  0.1941 -0.0382
 8520SOL    HW137196   1.889   2.914   4.309  0.2617 -0.0983 -1.4887
 8520SOL    HW237197   1.809   2.844   4.416  1.5746  1.8982  0.1884
 8521SOL     OW37198   0.321   4.621   6.071  0.0282 -0.3960  0.0086
 8521SOL    HW137199   0.370   4.555   6.120  1.2650 -0.2580 -1.0603
 8521SOL    HW237200   0.248   4.646   6.129 -2.0812 -1.6546 -2.1290
 8522SOL     OW37201   1.735   0.470  17.019  0.8584  0.1968  0.1243
 8522SOL    HW137202   1.650   0.491  17.058  0.1714  1.4717 -2.0697
 8522SOL    HW237203   1.770   0.433  17.100  0.9858  0.0111 -0.0141
 8523SOL     OW37204   3.262   2.903   3.062 -0.3293 -0.3728 -0.3641
 8523SOL    HW137205   3.355   2.926   3.067 -0.4954  0.2184 -0.1074
 8523SOL    HW237206   3.228   2.914   3.151  0.8479 -1.6117  0.2461
 8524SOL     OW37207   0.999   0.501   9.371 -0.5436 -0.1311 -0.0833
 8524SOL    HW137208   0.962   0.413   9.367  0.9415 -0.6798 -1.4513
 8524SOL    HW237209   1.093   0.483   9.367 -0.4524  0.3646 -0.1414
 8525SOL     OW37210   2.625   2.529   2.900  0.1203  0.6515 -0.7921
 8525SOL    HW137211   2.538   2.497   2.922  0.9221 -1.0985 -0.2308
 8525SOL    HW237212   2.645   2.458   2.839  1.0876  0.3496 -0.1201
 8526SOL     OW37213   3.759   2.316  14.143 -0.3225  0.2495 -0.6489
 8526SOL    HW137214   3.778   2.401  14.183  0.0700  0.3406 -1.0314
 8526SOL    HW237215   3.733   2.336  14.053 -1.5159  0.3879 -0.2796
 8527SOL     OW37216   1.281   0.683   4.462 -0.1788  0.2318 -0.0033
 8527SOL    HW137217   1.225   0.611   4.431 -2.3250  1.1084  1.8774
 8527SOL    HW237218   1.294   0.640   4.546 -0.3973 -1.3190 -0.7569
 8528SOL     OW37219   2.194   0.171  14.940 -0.1201 -0.4221  0.1953
 8528SOL    HW137220   2.217   0.081  14.916 -1.5485 -0.7889  0.2339
 8528SOL    HW237221   2.275   0.222  14.933 -0.2899 -0.1360  0.3192
 8529SOL     OW37222   0.879   0.506  12.531  0.3944  0.3339 -0.1021
 8529SOL    HW137223   0.918   0.516  12.445  0.8314  0.8430  0.1598
 8529SOL    HW237224   0.954   0.500  12.590 -0.5900 -0.1857  1.1238
 8530SOL     OW37225   4.039   3.602   5.156  0.0014  0.4084  0.1752
 8530SOL    HW137226   4.082   3.519   5.178  0.4130  0.2803 -1.1395
 8530SOL    HW237227   3.962   3.582   5.211  0.1944 -2.9850 -0.7946
 8531SOL     OW37228   1.740   0.507  15.114  0.0687  0.2704 -0.3822
 8531SOL    HW137229   1.651   0.535  15.096 -0.8926 -2.0579  0.7330
 8531SOL    HW237230   1.794   0.555  15.052  0.0713  2.6274  1.4507
 8532SOL     OW37231   0.640   3.561   0.898  0.3822 -0.1764  0.1152
 8532SOL    HW137232   0.699   3.615   0.845  0.0322 -0.2423 -0.3381
 8532SOL    HW237233   0.703   3.494   0.923  0.4740 -0.7470 -1.7057
 8533SOL     OW37234   1.286   0.363   3.619  0.3365 -0.4077  0.1914
 8533SOL    HW137235   1.296   0.454   3.647 -1.1746 -0.0361 -0.4847
 8533SOL    HW237236   1.376   0.332   3.633  0.5359  0.9520  1.8647
 8534SOL     OW37237   2.109   0.331   3.522  0.4506  0.2166 -0.5076
 8534SOL    HW137238   2.055   0.404   3.493 -0.3106 -0.4581 -0.8062
 8534SOL    HW237239   2.117   0.286   3.438  0.5987  2.1005 -1.5001
 8535SOL     OW37240   2.853   0.523   9.092  0.0682  0.0183 -0.5742
 8535SOL    HW137241   2.810   0.494   9.173 -0.4783 -0.7473 -1.1440
 8535SOL    HW237242   2.795   0.487   9.025 -1.1097  0.4888  0.1940
 8536SOL     OW37243   4.631   3.582   9.795 -0.3315  0.1387  0.2804
 8536SOL    HW137244   4.638   3.563   9.888  2.2209 -0.2836 -0.0076
 8536SOL    HW237245   4.666   3.502   9.755  1.6268  1.5919 -0.8536
 8537SOL     OW37246   4.448   1.878  13.601 -0.0724  0.5411  0.7483
 8537SOL    HW137247   4.447   1.952  13.540  4.7673 -0.6953 -0.8548
 8537SOL    HW237248   4.516   1.824  13.562  1.1513  1.7293  1.2204
 8538SOL     OW37249   3.547   4.293   1.684  0.2414  0.3539  0.4269
 8538SOL    HW137250   3.631   4.313   1.643  0.6175 -1.5798  0.2278
 8538SOL    HW237251   3.531   4.372   1.736 -2.6967  0.4219 -0.5720
 8539SOL     OW37252   3.687   0.084   3.135 -0.1312  0.1128 -0.5164
 8539SOL    HW137253   3.691   0.061   3.228 -0.0713  1.3259 -0.2244
 8539SOL    HW237254   3.730   0.169   3.147  0.8535 -0.4132 -0.3294
 8540SOL     OW37255   4.629   3.799   3.872  0.2389  0.3292  0.1572
 8540SOL    HW137256   4.685   3.836   3.804 -0.5964 -0.3832 -0.9268
 8540SOL    HW237257   4.661   3.710   3.887 -2.1337 -0.5107  0.3672
 8541SOL     OW37258   2.235   1.823   3.621 -0.3157 -0.0098  0.2102
 8541SOL    HW137259   2.248   1.776   3.539 -1.7645 -3.2922  1.8919
 8541SOL    HW237260   2.218   1.760   3.691 -1.3718  0.7046  0.6033
 8542SOL     OW37261   1.166   0.535   4.928  0.2218  0.0405 -1.2630
 8542SOL    HW137262   1.075   0.514   4.907 -0.3080  1.4449 -0.4359
 8542SOL    HW237263   1.150   0.543   5.022 -0.0615 -0.0798 -1.3024
 8543SOL     OW37264   1.004   0.241   5.508  0.5908  0.3666 -0.1052
 8543SOL    HW137265   0.978   0.154   5.538  0.7693  0.3084 -0.1221
 8543SOL    HW237266   0.999   0.284   5.593 -2.8302  1.2677 -0.7466
 8544SOL     OW37267   0.622   1.966   7.758 -0.4676 -0.1779 -0.3004
 8544SOL    HW137268   0.696   1.910   7.734  0.6779  0.1759  2.3321
 8544SOL    HW237269   0.653   1.984   7.847  1.5598  0.6930 -1.1831
 8545SOL     OW37270   4.439   2.413   0.767  0.3131 -0.0497  0.1543
 8545SOL    HW137271   4.424   2.507   0.777  1.0667  0.1061 -0.1785
 8545SOL    HW237272   4.412   2.399   0.676 -0.9953 -0.1015  0.5503
 8546SOL     OW37273   0.497   2.302   5.260  0.4532  0.1366  0.5444
 8546SOL    HW137274   0.442   2.361   5.207  2.1244  0.8832 -0.3754
 8546SOL    HW237275   0.505   2.348   5.343 -1.3556 -0.3339  0.9717
 8547SOL     OW37276   4.525   3.952   9.871 -1.0321 -0.0775  0.0065
 8547SOL    HW137277   4.473   3.993   9.802 -0.7670 -0.3071 -0.3316
 8547SOL    HW237278   4.545   4.021   9.934 -0.3625  0.0605 -0.3551
 8548SOL     OW37279   2.230   2.739   5.966 -0.2190  0.0515 -0.0989
 8548SOL    HW137280   2.324   2.719   5.964 -0.2408  0.0042 -0.7055
 8548SOL    HW237281   2.191   2.671   5.910  0.1899 -2.6169  2.8460
 8549SOL     OW37282   3.270   2.577  11.867  0.1680 -0.0943 -0.3078
 8549SOL    HW137283   3.205   2.638  11.901  0.4592  0.9844 -1.6768
 8549SOL    HW237284   3.255   2.581  11.772 -2.4730  0.3445  0.1563
 8550SOL     OW37285   0.818   3.147  10.514 -0.3104 -0.4905 -0.0510
 8550SOL    HW137286   0.806   3.229  10.561 -0.0196  0.4433 -1.6226
 8550SOL    HW237287   0.913   3.134  10.507 -0.0960  2.0575 -1.6792
 8551SOL     OW37288   1.379   4.148   4.592 -0.1577 -0.5621  0.3546
 8551SOL    HW137289   1.428   4.095   4.655 -1.2616  0.8676  2.3870
 8551SOL    HW237290   1.381   4.236   4.629 -1.2311 -0.5546  0.3783
 8552SOL     OW37291   4.380   2.477   4.306  0.3834 -0.2076  0.1077
 8552SOL    HW137292   4.473   2.475   4.328  0.8609 -0.8859 -2.0264
 8552SOL    HW237293   4.377   2.416   4.233  0.8205  1.8221 -1.5959
 8553SOL     OW37294   0.605   1.959   1.525  0.1481  0.3821  0.2104
 8553SOL    HW137295   0.587   1.866   1.510  1.5877  0.0189  0.7335
 8553SOL    HW237296   0.519   1.995   1.549  0.1109  0.3963  0.0559
 8554SOL     OW37297   0.717   1.873  11.150 -0.3219 -0.1338  0.0047
 8554SOL    HW137298   0.676   1.864  11.064 -2.7243 -2.7564  1.4176
 8554SOL    HW237299   0.645   1.916  11.197  0.9088  2.2615 -0.3009
 8555SOL     OW37300   3.121   2.901   9.707  0.3546  0.0217 -0.1461
 8555SOL    HW137301   3.133   2.915   9.613 -0.1028 -1.2227 -0.4012
 8555SOL    HW237302   3.123   2.989   9.742 -1.5938  0.4762 -1.1539
 8556SOL     OW37303   3.722   0.166  10.510 -0.4027 -0.4946 -0.3839
 8556SOL    HW137304   3.690   0.220  10.439  1.3735  2.8670  1.3854
 8556SOL    HW237305   3.739   0.240  10.568  0.6480 -0.0362 -1.2991
 8557SOL     OW37306   2.607   1.849  14.259  0.2959 -0.4111 -0.1661
 8557SOL    HW137307   2.661   1.863  14.337 -1.4852  1.0982  0.7891
 8557SOL    HW237308   2.600   1.941  14.234  1.0852  0.1734  1.7259
 8558SOL     OW37309   0.252   2.993   8.948  0.0290 -0.1165 -0.4102
 8558SOL    HW137310   0.252   2.902   8.979  0.6261 -0.3460 -1.0997
 8558SOL    HW237311   0.317   2.984   8.878  1.0351  0.2127  0.4784
 8559SOL     OW37312   3.406   1.684   5.532  0.1830  0.4490 -0.0210
 8559SOL    HW137313   3.494   1.648   5.539  1.3354  3.0809 -0.7793
 8559SOL    HW237314   3.414   1.775   5.562 -5.1580  1.8762 -2.8574
 8560SOL     OW37315   3.859   1.582   7.790 -0.4162 -0.4308 -0.0377
 8560SOL    HW137316   3.904   1.605   7.708 -0.6051 -0.1977 -0.0781
 8560SOL    HW237317   3.780   1.537   7.759 -1.5197  1.5156 -0.0429
 8561SOL     OW37318   0.162   2.080   4.804 -0.4601  0.5939  0.6617
 8561SOL    HW137319   0.257   2.083   4.805 -0.4403 -0.2043  1.3233
 8561SOL    HW237320   0.141   1.990   4.829 -1.5136  0.9466  1.0545
 8562SOL     OW37321   2.352   2.783   9.572 -0.3907 -0.0595  0.8076
 8562SOL    HW137322   2.361   2.783   9.477 -1.2716  1.5203  0.7313
 8562SOL    HW237323   2.439   2.748   9.591  0.1818 -0.1476 -2.0114
 8563SOL     OW37324   2.206   4.619  14.978  0.2866  0.2567  0.5591
 8563SOL    HW137325   2.162   4.544  14.938  0.3789 -0.9985  2.8513
 8563SOL    HW237326   2.143   4.644  15.046  0.7430 -1.6826  1.6899
 8564SOL     OW37327   0.397   2.568   0.878 -0.0921 -0.6701  0.3508
 8564SOL    HW137328   0.488   2.566   0.907 -0.3115  1.8545  1.2034
 8564SOL    HW237329   0.355   2.622   0.945  1.0073 -1.1606  1.4286
 8565SOL     OW37330   2.313   2.294   4.411  0.7583 -0.0921  0.2374
 8565SOL    HW137331   2.277   2.340   4.487 -0.0481  1.8252 -1.3414
 8565SOL    HW237332   2.339   2.214   4.458  1.0500 -0.5902 -0.7846
 8566SOL     OW37333   3.049   3.983   4.495 -0.0957  0.1757  0.8309
 8566SOL    HW137334   3.119   3.920   4.477 -0.5601 -0.5971  1.8005
 8566SOL    HW237335   3.079   4.057   4.441 -0.3672  0.5272  1.1606
 8567SOL     OW37336   0.282   3.398   9.150 -0.3661 -0.4989  0.2350
 8567SOL    HW137337   0.266   3.362   9.238 -1.7943 -0.3982  0.0153
 8567SOL    HW237338   0.331   3.474   9.180 -0.7706  0.3982 -1.3973
 8568SOL     OW37339   0.852   1.983  17.066  0.7060  0.4773 -0.0753
 8568SOL    HW137340   0.792   1.982  17.140 -1.6414 -0.0667 -1.9857
 8568SOL    HW237341   0.791   1.964  16.995 -1.4933 -2.2120  2.5441
 8569SOL     OW37342   4.181   3.191  17.226  0.1851 -0.6438  0.4201
 8569SOL    HW137343   4.203   3.241  17.304  0.1267  1.5275 -0.9499
 8569SOL    HW237344   4.266   3.189  17.182 -0.3438  1.5620 -0.6785
 8570SOL     OW37345   4.009   1.384   7.931  0.2429  0.2341  0.2332
 8570SOL    HW137346   3.941   1.450   7.917 -0.6620 -0.3303  1.9211
 8570SOL    HW237347   3.981   1.309   7.878 -0.1468 -0.3790  1.3007
 8571SOL     OW37348   2.330   3.105   7.917 -0.6427 -0.4417  0.5229
 8571SOL    HW137349   2.316   3.031   7.857  1.3490 -1.0735  0.8239
 8571SOL    HW237350   2.425   3.106   7.927 -0.3967  0.0115 -1.6655
 8572SOL     OW37351   0.115   3.173   1.706 -0.0939  0.3593  0.6471
 8572SOL    HW137352   0.150   3.262   1.718 -1.3691  0.8866  0.4521
 8572SOL    HW237353   0.081   3.159   1.795  1.3953 -0.7168  1.0543
 8573SOL     OW37354   0.377   3.825   0.341  0.5535 -0.4102 -0.6454
 8573SOL    HW137355   0.435   3.839   0.415 -0.3098 -0.8997  0.1284
 8573SOL    HW237356   0.304   3.880   0.369  0.4364  0.1327 -2.0211
 8574SOL     OW37357   0.605   0.001   3.127 -0.3423 -0.1849  0.3628
 8574SOL    HW137358   0.529   4.719   3.182 -0.8223  0.2764 -0.1261
 8574SOL    HW237359   0.577   0.089   3.104  0.2757 -0.6172 -2.0743
 8575SOL     OW37360   4.003   4.683  11.798 -0.2517  0.6060  0.0023
 8575SOL    HW137361   3.976   0.036  11.792 -1.5497  0.2720  0.7096
 8575SOL    HW237362   4.003   4.688  11.894  0.7715  1.7866 -0.0445
 8576SOL     OW37363   1.590   4.011  12.377  0.6065  0.0706  0.2108
 8576SOL    HW137364   1.626   4.005  12.289  1.3686 -0.2853  0.5453
 8576SOL    HW237365   1.575   4.106  12.384 -0.1176 -0.0847  0.7857
 8577SOL     OW37366   1.941   2.311  17.161  0.1917  0.1440 -0.3367
 8577SOL    HW137367   1.862   2.292  17.111  0.3151  3.3472 -1.7477
 8577SOL    HW237368   1.920   2.261  17.241  0.8773  1.0488  0.4067
 8578SOL     OW37369   0.249   1.676   0.277 -0.0444 -0.4612 -0.0795
 8578SOL    HW137370   0.164   1.660   0.238 -1.0328 -0.5616  2.1048
 8578SOL    HW237371   0.300   1.639   0.205  2.3404  0.5550  1.0582
 8579SOL     OW37372   1.420   1.235   3.003  0.4112 -0.0225 -0.6260
 8579SOL    HW137373   1.411   1.262   2.912  0.1331 -0.0980 -0.6211
 8579SOL    HW237374   1.498   1.181   2.995 -1.4325 -2.7977 -0.1526
 8580SOL     OW37375   2.523   0.643  11.557 -0.3874  0.1613 -0.8370
 8580SOL    HW137376   2.617   0.661  11.566 -0.5018  0.5533 -0.4326
 8580SOL    HW237377   2.525   0.660  11.463 -1.0519 -4.9240 -1.7991
 8581SOL     OW37378   2.875   4.047  15.538  0.0613 -0.1814 -0.0020
 8581SOL    HW137379   2.827   4.103  15.477  0.3097  0.7475  0.6597
 8581SOL    HW237380   2.946   4.105  15.564  0.5906 -0.4863 -0.7828
 8582SOL     OW37381   3.788   2.595   5.702 -0.3820 -0.2047 -0.4084
 8582SOL    HW137382   3.716   2.588   5.639  0.6291 -1.4374 -1.4216
 8582SOL    HW237383   3.790   2.512   5.750  0.7089 -0.4767 -0.9202
 8583SOL     OW37384   2.201   3.874   6.503  0.5817 -0.1675 -0.6096
 8583SOL    HW137385   2.222   3.829   6.421  1.1011 -0.8796 -0.0894
 8583SOL    HW237386   2.234   3.816   6.572  0.1415 -0.7075 -0.8531
 8584SOL     OW37387   3.876   2.676   5.314 -0.0927 -0.4370 -0.3140
 8584SOL    HW137388   3.831   2.611   5.260 -0.2437 -1.6366  1.2467
 8584SOL    HW237389   3.962   2.635   5.324  0.0951  0.4031  1.4464
 8585SOL     OW37390   2.786   0.696  12.136  0.1677 -0.5643  0.5200
 8585SOL    HW137391   2.705   0.729  12.095  1.1146 -0.3738 -1.1885
 8585SOL    HW237392   2.816   0.655  12.056  0.7282 -1.4993  1.2177
 8586SOL     OW37393   0.281   2.588   4.272 -0.0525  0.1618 -0.5420
 8586SOL    HW137394   0.264   2.524   4.341  0.5175 -0.5900 -1.0979
 8586SOL    HW237395   0.369   2.569   4.240  0.5965 -0.5444  1.6562
 8587SOL     OW37396   4.135   3.383  15.671  0.4717  0.3853  0.0074
 8587SOL    HW137397   4.171   3.471  15.655 -1.7589  1.6621  1.9324
 8587SOL    HW237398   4.056   3.408  15.719  0.6673  0.6356  0.2051
 8588SOL     OW37399   1.904   0.574   9.804 -0.4449  0.4280 -0.0996
 8588SOL    HW137400   1.853   0.598   9.881  0.9933  1.3113  0.5741
 8588SOL    HW237401   1.936   0.490   9.836 -0.7334  1.2256  2.2882
 8589SOL     OW37402   3.959   0.611  15.078 -0.2292  0.2203  0.4975
 8589SOL    HW137403   4.054   0.617  15.063  0.3007  0.1649  3.9813
 8589SOL    HW237404   3.942   0.532  15.128 -0.6542 -0.5923 -0.9146
 8590SOL     OW37405   0.534   3.681   5.673 -0.4973  0.4698 -0.2706
 8590SOL    HW137406   0.442   3.707   5.677 -0.1451  1.4806  1.5542
 8590SOL    HW237407   0.580   3.731   5.742 -0.4951  1.9918 -1.3744
 8591SOL     OW37408   3.696   2.871   7.861 -0.0909 -0.2244 -0.0492
 8591SOL    HW137409   3.638   2.874   7.784  2.2159  0.2371 -1.7695
 8591SOL    HW237410   3.742   2.789   7.846  0.2045 -0.0175 -0.2893
 8592SOL     OW37411   3.728   4.082  14.336  0.0755  0.2160 -0.4426
 8592SOL    HW137412   3.747   4.105  14.245 -3.3453  0.1698 -1.1569
 8592SOL    HW237413   3.709   3.989  14.343 -0.3920  0.2534 -1.3285
 8593SOL     OW37414   2.821   0.812   4.273 -0.5077 -0.6965  0.6008
 8593SOL    HW137415   2.837   0.904   4.295 -1.2020 -0.9176  2.0437
 8593SOL    HW237416   2.827   0.820   4.178  1.4290 -0.6369  0.7393
 8594SOL     OW37417   3.094   3.233   6.494  0.3109  0.4377  0.8354
 8594SOL    HW137418   3.136   3.168   6.550 -1.4054 -2.3143 -1.0201
 8594SOL    HW237419   3.085   3.315   6.543  1.2840  0.7982  0.4008
 8595SOL     OW37420   0.470   3.690   2.014 -0.2949  0.2937 -0.1394
 8595SOL    HW137421   0.400   3.657   1.957  1.9198  0.5074 -2.9804
 8595SOL    HW237422   0.545   3.640   1.983 -1.4304 -1.2594 -0.3681
 8596SOL     OW37423   0.720   1.050   8.448  0.0799  0.1203 -0.1822
 8596SOL    HW137424   0.798   1.088   8.489 -0.6582  0.1656  1.1862
 8596SOL    HW237425   0.715   0.963   8.486  0.5254  0.6816  1.1630
 8597SOL     OW37426   3.338   3.704   2.067 -0.3719 -0.2240  0.0986
 8597SOL    HW137427   3.257   3.753   2.082  0.3725  1.1500 -0.4344
 8597SOL    HW237428   3.363   3.688   2.158  0.8510  1.9646  0.1399
 8598SOL     OW37429   0.153   3.651   7.723  0.2860  0.1672  0.5905
 8598SOL    HW137430   0.105   3.570   7.705 -0.0334  0.6076 -0.5333
 8598SOL    HW237431   0.242   3.639   7.689 -0.7346 -0.9311 -1.6611
 8599SOL     OW37432   4.074   3.614   7.356 -0.0365  0.0433 -1.0106
 8599SOL    HW137433   4.122   3.576   7.282  0.5157  1.1473 -1.2207
 8599SOL    HW237434   4.141   3.669   7.398  0.0084 -1.4220  0.8401
 8600SOL     OW37435   3.419   2.357  14.540 -0.2196  0.1045  0.4543
 8600SOL    HW137436   3.418   2.281  14.482  1.0928 -0.6450  1.4233
 8600SOL    HW237437   3.502   2.395  14.513  0.2726 -1.9598 -0.8382
 8601SOL     OW37438   0.597   1.288  11.794 -0.3769 -0.0739  0.5279
 8601SOL    HW137439   0.560   1.332  11.870 -2.4428  0.6998 -0.9135
 8601SOL    HW237440   0.685   1.271  11.827 -0.8342 -1.5782  0.9707
 8602SOL     OW37441   3.325   1.891   0.026 -0.4245  0.7324 -0.1209
 8602SOL    HW137442   3.295   1.828  17.715  1.1944 -0.6004  0.4006
 8602SOL    HW237443   3.408   1.844   0.040 -1.1048 -0.2232  0.6957
 8603SOL     OW37444   2.559   2.003  15.288 -0.0357 -0.2359 -0.3516
 8603SOL    HW137445   2.497   2.045  15.229 -0.0931  1.8247  1.1635
 8603SOL    HW237446   2.618   2.076  15.307 -1.2171  1.0399 -1.6487
 8604SOL     OW37447   3.686   0.195   2.038 -0.3383 -0.1731  0.3450
 8604SOL    HW137448   3.723   0.281   2.020 -1.1254  0.1507  0.2825
 8604SOL    HW237449   3.692   0.188   2.133  0.9193  2.1655  0.4410
 8605SOL     OW37450   4.453   2.328   2.503  0.6381 -0.3995 -0.0754
 8605SOL    HW137451   4.513   2.400   2.524 -2.8969  2.4637  0.1674
 8605SOL    HW237452   4.501   2.266   2.558  0.4961 -1.0515 -0.6947
 8606SOL     OW37453   0.566   0.469  10.410  0.1035  0.1473  0.3856
 8606SOL    HW137454   0.605   0.386  10.381 -0.0267  0.4888 -0.7402
 8606SOL    HW237455   0.473   0.457  10.393  0.4869 -1.3325 -0.7090
 8607SOL     OW37456   0.877   1.801  15.454 -0.0136 -0.2809 -0.2408
 8607SOL    HW137457   0.851   1.855  15.379 -1.7363  1.5574  1.6676
 8607SOL    HW237458   0.963   1.839  15.474 -0.5693  0.5847  0.4923
 8608SOL     OW37459   3.105   4.319   2.104  0.1553 -0.6188  0.1126
 8608SOL    HW137460   3.109   4.373   2.183  1.2872  1.8359 -1.6273
 8608SOL    HW237461   3.148   4.369   2.035  2.2614 -1.3913  0.8606
 8609SOL     OW37462   1.497   4.255   5.303 -0.4694  0.2562 -0.2748
 8609SOL    HW137463   1.459   4.218   5.383 -0.9157  2.1539  0.3838
 8609SOL    HW237464   1.433   4.323   5.283 -0.6953 -0.2028 -1.1047
 8610SOL     OW37465   4.009   0.031   3.252 -0.2177 -0.0314  0.5646
 8610SOL    HW137466   4.012   0.124   3.275 -1.4129 -0.0362  0.7154
 8610SOL    HW237467   3.987   0.036   3.159 -2.0747 -2.2385  0.8864
 8611SOL     OW37468   4.603   3.218   9.003 -0.6388  0.0781  0.7636
 8611SOL    HW137469   4.689   3.199   8.966 -1.5412 -0.4139 -1.1075
 8611SOL    HW237470   4.612   3.215   9.098  2.1082  1.6518  0.5575
 8612SOL     OW37471   3.018   1.222   7.591 -0.1599  0.3411  0.3014
 8612SOL    HW137472   3.050   1.268   7.668 -0.4404  0.3357  0.4194
 8612SOL    HW237473   3.026   1.290   7.525  0.9225  1.6994  1.8345
 8613SOL     OW37474   3.621   0.875  16.516 -0.2142 -0.3041 -0.3566
 8613SOL    HW137475   3.685   0.935  16.476  1.1810 -1.8451 -0.4126
 8613SOL    HW237476   3.684   0.813  16.552 -0.7112 -0.8313 -0.3990
 8614SOL     OW37477   2.201   0.721  15.361  0.1296  0.0683 -0.3441
 8614SOL    HW137478   2.130   0.679  15.410 -1.3304  1.2299 -1.4954
 8614SOL    HW237479   2.261   0.647  15.354  0.0531 -0.2691  2.4448
 8615SOL     OW37480   2.954   3.280   1.910  0.3706 -0.0874 -0.1482
 8615SOL    HW137481   2.937   3.186   1.904 -0.4044 -0.1542  3.2346
 8615SOL    HW237482   3.029   3.269   1.969  0.1903  1.8776  0.4414
 8616SOL     OW37483   0.827   2.480  15.915 -0.2849 -0.2308  0.2765
 8616SOL    HW137484   0.732   2.492  15.918 -0.2497  0.2025 -0.2405
 8616SOL    HW237485   0.837   2.385  15.911 -0.2637 -0.1353 -1.8602
 8617SOL     OW37486   1.515   0.293  16.911 -0.0607  0.3396  0.6493
 8617SOL    HW137487   1.604   0.261  16.928  0.7557  1.1704 -1.9487
 8617SOL    HW237488   1.495   0.343  16.990 -0.3131  0.5349  0.4616
 8618SOL     OW37489   4.554   3.375   8.755  0.4169 -0.0441 -0.5756
 8618SOL    HW137490   4.649   3.378   8.744  1.0377 -1.5266  4.3847
 8618SOL    HW237491   4.544   3.328   8.838 -0.8411 -1.1988 -1.3718
 8619SOL     OW37492   3.856   4.468   8.028 -1.1507 -0.5119 -0.3754
 8619SOL    HW137493   3.822   4.549   7.988  0.1310  0.4384  0.4444
 8619SOL    HW237494   3.841   4.405   7.958 -0.1359 -1.6478  0.4250
 8620SOL     OW37495   2.533   3.813  14.626 -0.0530 -0.1798  0.3458
 8620SOL    HW137496   2.523   3.902  14.660 -1.6453  0.8192 -2.8062
 8620SOL    HW237497   2.444   3.779  14.618 -0.1730  0.2279 -0.0616
 8621SOL     OW37498   3.470   0.293  14.808 -0.2393 -0.7110  0.0070
 8621SOL    HW137499   3.379   0.323  14.811 -0.3300 -1.0075  0.1202
 8621SOL    HW237500   3.513   0.376  14.833 -2.4945  0.5302 -0.2507
 8622SOL     OW37501   3.770   1.204   6.894  0.2532  0.1894  0.6545
 8622SOL    HW137502   3.758   1.255   6.974  1.1307 -0.4179  1.1741
 8622SOL    HW237503   3.681   1.201   6.858  1.5624 -0.5974 -2.5998
 8623SOL     OW37504   1.633   0.123   2.023 -0.2854 -0.1796 -0.3620
 8623SOL    HW137505   1.575   0.199   2.016  0.8322  0.6347 -0.7349
 8623SOL    HW237506   1.671   0.111   1.936  0.2484  3.3829 -0.5953
 8624SOL     OW37507   0.598   3.784  12.018 -0.7216  0.1579 -0.3226
 8624SOL    HW137508   0.687   3.755  12.036  0.1391  1.0580 -3.2303
 8624SOL    HW237509   0.616   3.877  12.015  0.0791  0.0633  1.6935
 8625SOL     OW37510   1.108   3.324   5.026 -0.4708  0.4077  0.1599
 8625SOL    HW137511   1.189   3.273   5.018 -0.2654  0.5706  1.1637
 8625SOL    HW237512   1.081   3.292   5.112  2.0121  1.8701  1.5038
 8626SOL     OW37513   3.842   2.413  11.599  0.0341  0.1670  0.4727
 8626SOL    HW137514   3.873   2.449  11.682 -0.6297  2.1260 -0.1495
 8626SOL    HW237515   3.924   2.377  11.564  0.3795 -0.5242  2.0249
 8627SOL     OW37516   4.104   0.883  13.755  0.2947 -0.2092  0.4143
 8627SOL    HW137517   4.178   0.878  13.816  0.4056 -3.6577 -0.0182
 8627SOL    HW237518   4.057   0.956  13.797 -0.4989 -1.2115  1.2488
 8628SOL     OW37519   0.860   1.959   1.434  0.1176 -0.2242 -0.3124
 8628SOL    HW137520   0.914   1.998   1.502  0.5547 -0.7752 -0.3438
 8628SOL    HW237521   0.770   1.952   1.467  0.8383 -0.9365  1.5070
 8629SOL     OW37522   3.156   4.373  17.074  0.2853 -0.0666 -0.2533
 8629SOL    HW137523   3.212   4.373  17.152 -0.2267  1.7564  0.1191
 8629SOL    HW237524   3.131   4.465  17.069  2.4547  0.5800  0.7394
 8630SOL     OW37525   1.322   0.878  12.137  0.1487 -0.3231 -0.0039
 8630SOL    HW137526   1.299   0.826  12.060 -0.2781 -3.0935  1.9939
 8630SOL    HW237527   1.395   0.825  12.168 -0.6545  0.0609  2.5566
 8631SOL     OW37528   2.624   1.119   9.238  0.0769 -0.5115  0.2748
 8631SOL    HW137529   2.614   1.210   9.265  1.2873 -0.6187  1.0849
 8631SOL    HW237530   2.570   1.071   9.301  0.0482 -0.9378 -0.0706
 8632SOL     OW37531   3.112   0.971   5.203  0.0021  0.5466 -0.6717
 8632SOL    HW137532   3.120   0.882   5.237  2.2999  0.8439 -0.4292
 8632SOL    HW237533   3.189   1.011   5.244 -0.4659 -0.3592  1.1242
 8633SOL     OW37534   4.302   4.290   7.950  0.6320  0.4989  0.0579
 8633SOL    HW137535   4.307   4.357   7.883  0.8721  0.2845 -0.1359
 8633SOL    HW237536   4.298   4.213   7.894 -1.2517  0.4103  0.3060
 8634SOL     OW37537   3.623   3.407   8.561 -0.1569  0.4162 -0.0919
 8634SOL    HW137538   3.633   3.495   8.597  0.1933  0.6958 -0.8737
 8634SOL    HW237539   3.713   3.390   8.533 -0.6028 -1.1802 -0.5912
 8635SOL     OW37540   3.042   1.180   3.842 -0.0956  0.0926 -0.2571
 8635SOL    HW137541   2.965   1.159   3.895 -0.7274  1.7220 -0.5213
 8635SOL    HW237542   3.072   1.090   3.846 -0.8919 -0.1793 -0.3440
 8636SOL     OW37543   3.034   2.626   7.566 -0.3806  0.6100 -0.1009
 8636SOL    HW137544   3.109   2.588   7.520  0.4010  0.6351  1.1578
 8636SOL    HW237545   3.055   2.719   7.556  0.9414  0.2290 -0.8167
 8637SOL     OW37546   2.543   0.849   5.365  0.3345 -0.1815  0.6608
 8637SOL    HW137547   2.599   0.923   5.343  1.7610 -1.3834  0.2923
 8637SOL    HW237548   2.580   0.772   5.324 -0.9655 -1.6997  2.3424
 8638SOL     OW37549   2.075   4.683   7.638 -0.4883 -0.3341  0.5669
 8638SOL    HW137550   2.142   4.632   7.591 -0.9065  0.9826 -1.4676
 8638SOL    HW237551   2.062   4.618   7.707 -2.2238 -2.1155 -1.4352
 8639SOL     OW37552   4.031   3.573   3.160  0.0752 -0.6307 -0.4154
 8639SOL    HW137553   4.031   3.609   3.071  0.6116  1.6637  0.4998
 8639SOL    HW237554   3.987   3.642   3.209  0.8915 -0.3463 -0.0712
 8640SOL     OW37555   1.560   2.118   7.935  0.2169  0.5205 -0.3500
 8640SOL    HW137556   1.584   2.141   7.845  1.6578  0.2859 -0.0251
 8640SOL    HW237557   1.485   2.175   7.948 -0.5615 -0.5085 -0.3929
 8641SOL     OW37558   0.700   0.015   5.639 -0.6243  0.1134 -0.1315
 8641SOL    HW137559   0.792   0.010   5.611 -0.7270 -2.0077 -0.1296
 8641SOL    HW237560   0.697   4.690   5.711 -0.7168 -1.3510 -1.4417
 8642SOL     OW37561   1.263   1.895   1.122  0.0750 -0.1820  0.2403
 8642SOL    HW137562   1.253   1.961   1.191 -1.4931 -1.1692  0.9566
 8642SOL    HW237563   1.207   1.823   1.151 -3.8523  2.5022 -0.7133
 8643SOL     OW37564   3.402   1.195   1.475  0.0853  0.2618  0.1436
 8643SOL    HW137565   3.444   1.240   1.549  0.5891 -2.0568  1.2733
 8643SOL    HW237566   3.326   1.157   1.519 -2.0978  2.2727 -1.8941
 8644SOL     OW37567   1.292   0.094   4.943 -0.0159  0.0373  0.0230
 8644SOL    HW137568   1.263   0.004   4.926  1.0346 -0.6246  1.7537
 8644SOL    HW237569   1.346   0.090   5.022  1.9014  0.4637 -1.2679
 8645SOL     OW37570   1.998   1.997   7.435  0.1197 -0.0914 -0.0555
 8645SOL    HW137571   1.972   1.908   7.458  0.5531 -1.0563 -3.3046
 8645SOL    HW237572   1.991   1.980   7.341  1.4583  2.5455 -0.6307
 8646SOL     OW37573   2.797   2.179   2.370  0.1386  0.1678  0.6856
 8646SOL    HW137574   2.879   2.181   2.420  0.6231  3.0039 -0.2734
 8646SOL    HW237575   2.779   2.272   2.380  0.3795  0.3379 -0.5513
 8647SOL     OW37576   0.924   1.558   5.080  0.1790 -0.0027  0.3081
 8647SOL    HW137577   0.897   1.628   5.140 -1.6988 -0.6441  0.2312
 8647SOL    HW237578   0.927   1.597   4.993  2.2282 -0.4799  0.1660
 8648SOL     OW37579   4.163   1.878  16.329 -0.4643  0.2702  0.0841
 8648SOL    HW137580   4.076   1.842  16.349  0.0952 -1.7195 -1.0067
 8648SOL    HW237581   4.153   1.878  16.233  1.0259  1.8584 -0.0535
 8649SOL     OW37582   4.072   4.311   6.352 -0.2771 -0.3798  0.1744
 8649SOL    HW137583   4.014   4.248   6.310 -0.9119  0.3682 -0.0832
 8649SOL    HW237584   4.107   4.246   6.413 -1.1293 -0.8768  0.1323
 8650SOL     OW37585   1.508   1.605   4.106  0.0299 -0.1103  0.1393
 8650SOL    HW137586   1.419   1.615   4.072  0.5022  2.4902 -0.2844
 8650SOL    HW237587   1.534   1.690   4.140  1.6096  1.1618 -4.2654
 8651SOL     OW37588   4.653   0.774  14.399 -0.5974  0.4518  0.2335
 8651SOL    HW137589   4.621   0.692  14.438 -1.1901 -0.4005 -2.0565
 8651SOL    HW237590   4.722   0.734  14.347 -0.0557  0.5499  0.8849
 8652SOL     OW37591   1.504   2.287   5.249  0.0901 -0.2108  0.3590
 8652SOL    HW137592   1.441   2.310   5.317 -1.3065  0.7636 -1.2461
 8652SOL    HW237593   1.458   2.214   5.209 -2.9989  1.4082  0.9942
 8653SOL     OW37594   0.200   3.459  10.573  0.3283 -0.3282 -0.0854
 8653SOL    HW137595   0.144   3.401  10.626 -0.1643  1.2009  1.0822
 8653SOL    HW237596   0.254   3.394  10.529  0.3415  0.8840 -1.8265
 8654SOL     OW37597   4.320   4.237   1.769 -0.1206 -0.2678  0.6496
 8654SOL    HW137598   4.304   4.329   1.747  1.7083 -0.1937 -0.4043
 8654SOL    HW237599   4.305   4.242   1.864  1.1407  3.9958  0.6392
 8655SOL     OW37600   3.400   1.491   4.657 -0.2954 -0.0545 -0.6148
 8655SOL    HW137601   3.403   1.587   4.663  1.6032 -0.2496  1.4133
 8655SOL    HW237602   3.493   1.467   4.651  0.4952  3.0191 -1.0336
 8656SOL     OW37603   1.201   2.554   2.513 -0.1368  0.4354  0.3003
 8656SOL    HW137604   1.250   2.532   2.592 -0.0981 -1.0828 -0.1493
 8656SOL    HW237605   1.275   2.543   2.453 -0.6383  1.2828 -0.4634
 8657SOL     OW37606   1.453   4.191  16.190  0.1034  1.0067 -0.3124
 8657SOL    HW137607   1.495   4.106  16.186  0.3362  1.0716  0.8525
 8657SOL    HW237608   1.522   4.254  16.166  0.9459 -0.6535 -2.2278
 8658SOL     OW37609   2.664   1.063  11.390  0.3377 -0.1494  0.0414
 8658SOL    HW137610   2.743   1.010  11.378  1.0044  0.9024 -0.2500
 8658SOL    HW237611   2.655   1.112  11.308  0.4950 -0.6068 -0.2471
 8659SOL     OW37612   2.359   3.590  13.437  0.6601 -0.1357  0.0957
 8659SOL    HW137613   2.325   3.675  13.407  0.5815 -0.9777 -2.2017
 8659SOL    HW237614   2.447   3.626  13.450  0.1527  0.5423  1.6613
 8660SOL     OW37615   0.098   3.133   6.744 -0.1023  0.0352  0.1495
 8660SOL    HW137616   0.075   3.200   6.679  0.5698  2.1797  2.0995
 8660SOL    HW237617   0.091   3.190   6.821 -2.9395 -0.3223  0.1384
 8661SOL     OW37618   4.052   2.857   8.498 -0.1916 -0.0334  0.4112
 8661SOL    HW137619   4.052   2.949   8.524 -1.2842  0.7280 -2.2646
 8661SOL    HW237620   4.146   2.836   8.501  0.9578  4.4488 -3.2705
 8662SOL     OW37621   0.611   0.139   4.445  0.6818  0.0406  0.1738
 8662SOL    HW137622   0.569   0.225   4.449 -0.4856 -0.5898  1.4647
 8662SOL    HW237623   0.639   0.124   4.535 -1.2049 -1.4414  0.5142
 8663SOL     OW37624   1.156   3.484   2.751  0.1726 -0.0354 -0.0332
 8663SOL    HW137625   1.166   3.400   2.707 -1.9608  0.0215 -0.6346
 8663SOL    HW237626   1.168   3.459   2.842  2.7512  1.7468  0.1180
 8664SOL     OW37627   2.913   0.711  11.346  0.1049 -0.0579  0.7037
 8664SOL    HW137628   2.938   0.655  11.273 -2.0115 -0.8051  0.5637
 8664SOL    HW237629   2.853   0.654  11.394  1.7887 -2.5645 -0.1751
 8665SOL     OW37630   0.679   1.316   6.297  0.6267 -0.0285 -0.4327
 8665SOL    HW137631   0.592   1.315   6.336  1.0825  0.0198  0.5956
 8665SOL    HW237632   0.740   1.319   6.371 -0.8392  2.2850  0.6795
 8666SOL     OW37633   4.409   0.580  12.679 -0.4257 -0.0911  0.4817
 8666SOL    HW137634   4.493   0.571  12.634 -1.0793  0.5745 -0.9085
 8666SOL    HW237635   4.421   0.658  12.733  0.7777  0.7925 -1.0483
 8667SOL     OW37636   0.427   3.721   8.190  0.4240 -0.1842  0.1175
 8667SOL    HW137637   0.375   3.798   8.212  0.5034 -0.4890  1.3945
 8667SOL    HW237638   0.476   3.759   8.117  0.3798  0.3871  0.3837
 8668SOL     OW37639   0.458   3.779  16.986  0.7852 -0.4207 -0.4322
 8668SOL    HW137640   0.443   3.867  17.020 -1.9930 -0.0710 -2.5695
 8668SOL    HW237641   0.479   3.802  16.895 -1.3673 -0.7256 -0.9977
 8669SOL     OW37642   1.086   0.037   5.209  0.4548  0.0935  0.3097
 8669SOL    HW137643   1.052   0.126   5.220 -0.8820 -0.1374 -2.0424
 8669SOL    HW237644   1.097   0.047   5.115 -0.7851 -0.3541  0.1170
 8670SOL     OW37645   0.453   4.410   2.918  0.3312 -0.3788 -0.0112
 8670SOL    HW137646   0.536   4.394   2.874  0.6683  0.1356  0.4396
 8670SOL    HW237647   0.397   4.377   2.848 -1.0275 -1.2078  1.4342
 8671SOL     OW37648   2.336   1.675   4.382  0.0543  0.0997 -0.0579
 8671SOL    HW137649   2.309   1.709   4.467  0.9920  3.1110 -0.9552
 8671SOL    HW237650   2.383   1.746   4.340 -0.3053  0.6549  0.4822
 8672SOL     OW37651   1.493   0.412   6.367  0.6977 -0.5862  0.6578
 8672SOL    HW137652   1.462   0.499   6.343  1.1415 -0.8616 -0.9071
 8672SOL    HW237653   1.411   0.366   6.383  0.2417 -0.5595 -1.6302
 8673SOL     OW37654   1.627   3.301   5.753 -0.4591  0.3808 -0.1879
 8673SOL    HW137655   1.670   3.254   5.682 -1.0647 -0.4294 -0.0216
 8673SOL    HW237656   1.701   3.303   5.815 -0.6540  0.7776  0.0354
 8674SOL     OW37657   4.436   3.946  11.312  0.8667  0.1225 -0.4951
 8674SOL    HW137658   4.397   3.886  11.248  1.8029 -0.9662 -0.0537
 8674SOL    HW237659   4.374   4.017  11.300 -0.8724 -1.3953 -0.6246
 8675SOL     OW37660   4.299   4.569  11.888  0.0129  0.1869 -0.0338
 8675SOL    HW137661   4.254   4.653  11.901  1.9423  1.2830 -0.3784
 8675SOL    HW237662   4.228   4.515  11.854  0.9745  0.7601 -2.9588
 8676SOL     OW37663   1.043   0.577   7.724  0.3940  0.3566  0.4846
 8676SOL    HW137664   1.046   0.662   7.768 -0.4041  1.6535 -1.9097
 8676SOL    HW237665   0.953   0.591   7.695  1.3218 -0.0929 -2.6886
 8677SOL     OW37666   3.044   1.163   3.132 -0.5800 -0.3685 -0.2778
 8677SOL    HW137667   3.129   1.203   3.146 -1.6291  2.0426 -0.7939
 8677SOL    HW237668   3.071   1.081   3.090 -1.2167 -0.5125 -0.4034
 8678SOL     OW37669   0.847   2.871   8.055  0.0756 -0.0385 -0.4139
 8678SOL    HW137670   0.844   2.833   7.967 -0.8529 -1.5260  0.2553
 8678SOL    HW237671   0.778   2.936   8.041  0.1168 -0.0887 -0.8717
 8679SOL     OW37672   3.226   3.596   9.438  0.4267  0.7855 -0.6217
 8679SOL    HW137673   3.314   3.631   9.454  0.5273  1.7397 -3.3075
 8679SOL    HW237674   3.241   3.509   9.402 -0.0779  0.2454  0.4723
 8680SOL     OW37675   3.566   2.362   9.409 -0.5919 -0.5651  0.1583
 8680SOL    HW137676   3.586   2.452   9.434 -3.1068  0.5294 -1.9182
 8680SOL    HW237677   3.654   2.324   9.402  0.4320  1.5950  1.4790
 8681SOL     OW37678   2.577   1.352   0.331 -1.0691 -0.3685  0.1563
 8681SOL    HW137679   2.534   1.403   0.262 -0.8081 -0.1331  0.1676
 8681SOL    HW237680   2.555   1.406   0.407 -2.9238 -0.2436 -0.4756
 8682SOL     OW37681   4.401   2.629  11.022 -0.3076 -0.0247  0.4777
 8682SOL    HW137682   4.478   2.658  10.974 -1.5371  1.5579 -0.5401
 8682SOL    HW237683   4.431   2.546  11.059 -0.5837  0.3194  1.4824
 8683SOL     OW37684   4.001   0.669   8.953  0.4399  0.5421  0.1806
 8683SOL    HW137685   4.037   0.623   8.877 -0.8158 -3.2394  1.8884
 8683SOL    HW237686   3.960   0.740   8.904  0.1150  1.2366  1.4624
 8684SOL     OW37687   2.720   4.124   3.331 -0.4558  0.2615  0.0758
 8684SOL    HW137688   2.673   4.206   3.320  2.8814  1.6244 -3.8003
 8684SOL    HW237689   2.704   4.079   3.248 -1.1839  2.2259 -0.8394
 8685SOL     OW37690   0.191   1.349   9.714  0.1050  0.5303 -0.5012
 8685SOL    HW137691   0.193   1.308   9.628  3.6133 -1.4393  0.4914
 8685SOL    HW237692   0.136   1.285   9.760 -0.5319  0.6915 -1.0510
 8686SOL     OW37693   1.283   3.774   5.808  0.1042  0.3746  0.1654
 8686SOL    HW137694   1.364   3.723   5.800  0.3762  0.8458 -0.0244
 8686SOL    HW237695   1.244   3.730   5.884 -2.1369  0.3647 -0.9775
 8687SOL     OW37696   3.712   4.585   4.783  0.6677  0.5183 -0.7500
 8687SOL    HW137697   3.720   4.598   4.689 -1.4354 -0.5226 -1.0848
 8687SOL    HW237698   3.760   4.502   4.793 -0.8131  0.0510  2.5365
 8688SOL     OW37699   1.097   4.388  10.380 -0.1117  0.1476  0.4390
 8688SOL    HW137700   1.090   4.371  10.286 -0.3491  2.1248  0.1054
 8688SOL    HW237701   1.032   4.331  10.421  0.1514  0.2578  0.9966
 8689SOL     OW37702   3.733   0.279  15.706  0.1521  0.2337 -0.2597
 8689SOL    HW137703   3.797   0.293  15.776  1.9709 -0.6998 -1.7153
 8689SOL    HW237704   3.715   0.369  15.679 -2.7508 -0.2584  0.0286
 8690SOL     OW37705   1.953   3.130  10.236 -0.3370  0.0254  0.4928
 8690SOL    HW137706   2.031   3.080  10.211  0.2023  0.7961  0.6315
 8690SOL    HW237707   1.925   3.080  10.313  0.9853 -0.3725  0.7181
 8691SOL     OW37708   0.079   0.270   6.409  0.2617  0.2462 -0.0474
 8691SOL    HW137709   0.095   0.334   6.340  0.7969 -1.0139 -1.0960
 8691SOL    HW237710   0.040   0.321   6.480  0.1991 -1.3861  1.0857
 8692SOL     OW37711   1.680   4.583   4.497 -0.3443  0.3396 -0.0264
 8692SOL    HW137712   1.630   4.617   4.571  0.7856 -1.0482  1.3435
 8692SOL    HW237713   1.639   4.631   4.425  2.6166 -1.0942 -2.6569
 8693SOL     OW37714   0.630   3.289   3.674 -0.5230  0.0980 -0.6000
 8693SOL    HW137715   0.671   3.349   3.737 -2.2857  1.0162 -0.3231
 8693SOL    HW237716   0.557   3.341   3.640 -1.2168 -0.5264 -0.0389
 8694SOL     OW37717   2.560   1.838   4.987  0.2738  0.3527  0.3073
 8694SOL    HW137718   2.485   1.838   5.047 -0.8766  0.7365 -1.1313
 8694SOL    HW237719   2.623   1.780   5.029 -0.4257 -0.6833 -0.0905
 8695SOL     OW37720   2.005   0.570   3.470 -0.3617  0.1157  0.1700
 8695SOL    HW137721   2.034   0.614   3.390 -1.4189  1.8911  0.7716
 8695SOL    HW237722   2.043   0.634   3.529 -0.9242  0.6495 -0.0415
 8696SOL     OW37723   0.302   2.919   7.370  0.1839  0.8545 -0.0809
 8696SOL    HW137724   0.269   2.830   7.354  1.2309  0.5397 -0.4956
 8696SOL    HW237725   0.360   2.923   7.294  1.2947 -1.4915  0.6546
 8697SOL     OW37726   2.138   0.763  12.426  0.3898  0.6084 -0.1589
 8697SOL    HW137727   2.105   0.729  12.510  0.0717  1.1818 -0.0520
 8697SOL    HW237728   2.205   0.695  12.415 -0.4837 -0.3257  0.2850
 8698SOL     OW37729   4.722   1.750   4.925  0.2529  0.0377 -0.2702
 8698SOL    HW137730   4.630   1.776   4.932  0.2155 -0.6097  1.7340
 8698SOL    HW237731   0.029   1.797   4.995  0.9012  1.4968 -1.6628
 8699SOL     OW37732   0.771   0.609   3.823  0.0824 -0.9900 -0.3895
 8699SOL    HW137733   0.789   0.555   3.901 -0.4684  1.0696  1.1768
 8699SOL    HW237734   0.836   0.572   3.763  1.3756  0.1677  0.2943
 8700SOL     OW37735   3.197   3.663   3.585 -0.2125 -0.0812 -0.1574
 8700SOL    HW137736   3.272   3.698   3.537  0.0418 -1.4237 -0.7477
 8700SOL    HW237737   3.128   3.716   3.547 -0.4507 -0.1654  0.1546
 8701SOL     OW37738   0.333   1.802   6.458 -0.3008  0.4883 -0.1152
 8701SOL    HW137739   0.372   1.722   6.493  1.1651  1.2305 -0.0556
 8701SOL    HW237740   0.357   1.866   6.525 -0.6805  0.3595  0.1472
 8702SOL     OW37741   1.960   3.275   2.071 -0.0680  0.0831 -0.6078
 8702SOL    HW137742   2.022   3.274   2.144  1.5754 -2.7045 -2.0273
 8702SOL    HW237743   1.935   3.365   2.054  1.4233  0.6539  0.1514
 8703SOL     OW37744   2.653   2.066   3.445 -0.2035  0.1281 -0.3913
 8703SOL    HW137745   2.583   2.079   3.508  2.1825 -0.8076  2.4549
 8703SOL    HW237746   2.673   2.157   3.420  0.9742  0.5893  2.2718
 8704SOL     OW37747   1.626   1.832   8.737 -0.2624  0.1768 -0.3646
 8704SOL    HW137748   1.592   1.745   8.714 -1.4342  0.2283  1.1115
 8704SOL    HW237749   1.580   1.889   8.677 -0.5362 -2.1199 -2.3449
 8705SOL     OW37750   4.315   1.951   3.562  0.4487 -0.2982 -0.0686
 8705SOL    HW137751   4.332   2.004   3.640 -0.4066  0.2049 -0.2257
 8705SOL    HW237752   4.385   1.886   3.567  0.2983 -0.4981 -0.5936
 8706SOL     OW37753   2.696   2.357  14.329  0.0428 -0.3069 -0.1230
 8706SOL    HW137754   2.653   2.433  14.368  1.0422  0.1394  0.1151
 8706SOL    HW237755   2.751   2.393  14.259 -1.8583 -0.1681 -1.5239
 8707SOL     OW37756   0.519   3.535  16.549  0.0593 -0.5390 -0.5749
 8707SOL    HW137757   0.535   3.510  16.458  1.2932 -0.4994 -0.3709
 8707SOL    HW237758   0.582   3.607  16.542  2.4717 -2.7498 -1.4820
 8708SOL     OW37759   1.594   2.376   7.737 -0.0918 -0.5873 -0.5446
 8708SOL    HW137760   1.670   2.423   7.702 -0.3037  1.7340  2.1326
 8708SOL    HW237761   1.517   2.430   7.716 -0.0026 -0.3765 -0.3269
 8709SOL     OW37762   2.599   0.063   5.408  0.0513  0.1437  0.4637
 8709SOL    HW137763   2.682   0.016   5.418  0.5353  1.2313  1.5455
 8709SOL    HW237764   2.562   0.029   5.489  4.2019  1.9457  3.1220
 8710SOL     OW37765   1.729   1.402   1.840  0.3217  0.0752  0.2203
 8710SOL    HW137766   1.757   1.435   1.756 -2.3266  0.2497 -0.5935
 8710SOL    HW237767   1.755   1.310   1.832  0.8369  0.1227  1.3194
 8711SOL     OW37768   0.006   3.085   1.075  0.0893 -0.3145 -0.2290
 8711SOL    HW137769   4.715   2.997   1.096 -2.2722  0.3689 -0.7136
 8711SOL    HW237770   4.688   3.140   1.128 -0.5224 -1.9546  0.7903
 8712SOL     OW37771   1.481   2.147  17.616  0.3697 -0.0278 -0.3226
 8712SOL    HW137772   1.532   2.207  17.671  0.2090 -1.3508  1.2833
 8712SOL    HW237773   1.493   2.190  17.532 -0.2726 -1.9771 -1.4010
 8713SOL     OW37774   0.125   1.431   7.624  0.1718  0.2084 -0.6438
 8713SOL    HW137775   0.101   1.521   7.602  2.5127  1.1783  0.7870
 8713SOL    HW237776   0.098   1.385   7.545 -2.7584 -3.0940  2.2726
 8714SOL     OW37777   3.752   1.135  10.446  0.3663 -0.8051  0.4112
 8714SOL    HW137778   3.776   1.224  10.418 -0.7311 -0.4781  0.5117
 8714SOL    HW237779   3.833   1.118  10.495 -0.0996  1.0019  1.7891
 8715SOL     OW37780   3.978   0.822   3.528 -0.0408  0.2582 -0.1946
 8715SOL    HW137781   3.905   0.785   3.577  0.3897 -1.5952 -0.9531
 8715SOL    HW237782   3.966   0.917   3.530 -2.1671 -0.0682  1.6585
 8716SOL     OW37783   0.604   2.708   6.606  0.3163 -0.1553  0.2589
 8716SOL    HW137784   0.650   2.713   6.690  1.4701  3.4202 -0.5998
 8716SOL    HW237785   0.572   2.618   6.602  1.1634 -0.4310 -0.4106
 8717SOL     OW37786   1.044   0.409  15.807 -0.7493 -0.0647 -0.3351
 8717SOL    HW137787   1.113   0.373  15.751  1.2065  1.9408  0.7412
 8717SOL    HW237788   0.960   0.403  15.763 -0.7147 -3.4304  0.1037
 8718SOL     OW37789   0.221   0.538   8.600  0.1536  0.2062 -0.1667
 8718SOL    HW137790   0.151   0.508   8.658 -0.7962  0.1467 -1.3404
 8718SOL    HW237791   0.205   0.632   8.591  0.1149  0.1954 -0.2120
 8719SOL     OW37792   1.906   2.731  14.822  0.2391  0.0092  0.7148
 8719SOL    HW137793   1.949   2.732  14.908  1.8031  1.8135 -0.0877
 8719SOL    HW237794   1.879   2.639  14.827  1.8020 -0.2593  4.1327
 8720SOL     OW37795   2.647   4.250   4.754 -0.0044  0.3018 -0.1246
 8720SOL    HW137796   2.706   4.309   4.706  0.7404 -0.2977  0.0690
 8720SOL    HW237797   2.692   4.231   4.836  1.8906  0.3880 -1.1303
 8721SOL     OW37798   2.675   1.929   8.439 -0.5874 -0.1109 -0.2222
 8721SOL    HW137799   2.767   1.953   8.433 -0.1877 -1.3272  0.9385
 8721SOL    HW237800   2.673   1.835   8.422 -0.2956  0.2085 -1.9824
 8722SOL     OW37801   0.864   4.457   2.575 -0.2610  0.2660  0.9314
 8722SOL    HW137802   0.916   4.450   2.495 -0.9214  2.6077  0.3046
 8722SOL    HW237803   0.922   4.507   2.632 -1.2829  1.4754  0.9070
 8723SOL     OW37804   3.735   4.648  14.959  0.0642  0.0728 -0.4117
 8723SOL    HW137805   3.697   4.561  14.974 -0.3185  0.8578  3.2397
 8723SOL    HW237806   3.685   4.677  14.883  3.3335  1.0811 -2.1977
 8724SOL     OW37807   0.932   0.464   8.045 -0.4192  0.3017 -0.5548
 8724SOL    HW137808   1.007   0.414   8.014 -1.2873 -0.4940 -1.3476
 8724SOL    HW237809   0.864   0.397   8.039 -1.2958  1.0311  0.9407
 8725SOL     OW37810   2.891   3.942  15.820 -0.1072 -0.1665 -1.0334
 8725SOL    HW137811   2.869   3.980  15.735 -0.8889 -1.4039 -1.3892
 8725SOL    HW237812   2.808   3.906  15.853  0.9081 -1.2039  0.3700
 8726SOL     OW37813   3.009   3.428   4.795 -0.3248  0.5601 -0.2180
 8726SOL    HW137814   3.042   3.372   4.866 -3.4213  1.7446  2.1569
 8726SOL    HW237815   2.999   3.514   4.837  1.5330  1.6736 -2.0361
 8727SOL     OW37816   0.169   0.793  16.860  0.0014  0.1834  0.1915
 8727SOL    HW137817   0.074   0.786  16.867 -0.1576  0.9611 -1.2509
 8727SOL    HW237818   0.193   0.840  16.940  0.8438 -0.9160  0.5989
 8728SOL     OW37819   0.889   4.112   7.571  0.5470 -0.1249 -0.0408
 8728SOL    HW137820   0.968   4.089   7.619 -0.6842 -2.0965  1.0399
 8728SOL    HW237821   0.873   4.201   7.605 -0.1057 -0.3813  0.3250
 8729SOL     OW37822   3.369   3.635   8.063  0.3967  0.2310  0.4166
 8729SOL    HW137823   3.442   3.604   8.117  1.4692  0.3052 -0.9642
 8729SOL    HW237824   3.394   3.724   8.039  1.1857  0.0579  0.6011
 8730SOL     OW37825   2.051   3.254  14.285  0.4006  0.2662 -0.0992
 8730SOL    HW137826   1.973   3.238  14.232  0.4849 -1.4174  0.2630
 8730SOL    HW237827   2.033   3.200  14.362 -0.4526  1.3117  0.4228
 8731SOL     OW37828   1.687   2.949  12.273 -0.0221 -0.1407  0.1039
 8731SOL    HW137829   1.762   2.932  12.330 -0.6378 -0.3443  0.8612
 8731SOL    HW237830   1.617   2.901  12.318  0.4040  1.3015  2.3135
 8732SOL     OW37831   3.169   4.168   4.318  0.3797  0.3827  0.0187
 8732SOL    HW137832   3.236   4.180   4.251  0.3937 -0.2470 -0.0715
 8732SOL    HW237833   3.222   4.167   4.398  0.2716  2.2517  0.1334
 8733SOL     OW37834   3.891   2.586   4.082  0.2381 -0.5868 -0.5224
 8733SOL    HW137835   3.886   2.491   4.095 -1.4904 -0.3205  0.6574
 8733SOL    HW237836   3.979   2.607   4.114 -0.7774  0.3272  1.6558
 8734SOL     OW37837   0.713   2.653  14.294 -0.3471 -0.1578 -0.2058
 8734SOL    HW137838   0.677   2.604  14.220 -0.5247 -1.0076  0.4549
 8734SOL    HW237839   0.743   2.733  14.250 -0.4810  0.0337  0.0538
 8735SOL     OW37840   2.188   1.730  11.823 -0.7782  0.4098 -0.6055
 8735SOL    HW137841   2.273   1.768  11.840 -0.0285 -0.5595 -2.1238
 8735SOL    HW237842   2.141   1.782  11.888  2.5946 -0.8922  2.8540
 8736SOL     OW37843   4.577   2.921   1.984 -0.1212  0.1468  0.8327
 8736SOL    HW137844   4.569   2.987   1.914  1.3252  0.6417  1.1292
 8736SOL    HW237845   4.503   2.869   1.952 -0.4319  2.6049 -2.4881
 8737SOL     OW37846   4.559   3.829   6.035  0.4852  0.5155 -0.7499
 8737SOL    HW137847   4.520   3.881   5.964 -0.9897 -0.4110 -0.6110
 8737SOL    HW237848   4.547   3.884   6.112  1.1712 -0.3297 -0.0489
 8738SOL     OW37849   1.770   3.111   9.371  0.0362  0.3152  0.2379
 8738SOL    HW137850   1.807   3.029   9.403  3.4086  2.4974  1.8116
 8738SOL    HW237851   1.682   3.115   9.410  0.5760  0.3788  1.4443
 8739SOL     OW37852   2.874   4.184   5.383 -0.4266 -0.0081  0.5128
 8739SOL    HW137853   2.822   4.126   5.327  1.4399 -0.3381 -0.8855
 8739SOL    HW237854   2.798   4.230   5.416  0.6088  0.9612  1.5230
 8740SOL     OW37855   1.491   0.181   4.493 -0.0347  0.5200 -0.2351
 8740SOL    HW137856   1.568   0.235   4.480  0.9807 -1.0893 -0.9722
 8740SOL    HW237857   1.473   0.137   4.410  2.0786 -0.3456 -0.2361
 8741SOL     OW37858   0.769   3.392  15.727  0.0249 -0.4909 -0.0248
 8741SOL    HW137859   0.773   3.444  15.646  0.0910 -2.4951 -1.3159
 8741SOL    HW237860   0.809   3.309  15.700  0.4827 -0.8521  1.8077
 8742SOL     OW37861   0.848   1.553   5.914  0.4597 -0.2507  0.2373
 8742SOL    HW137862   0.927   1.590   5.952 -0.2335  1.5954 -0.1194
 8742SOL    HW237863   0.812   1.510   5.992 -1.8719  0.5526 -0.3885
 8743SOL     OW37864   0.695   2.017   6.611  0.6551  0.5063  0.2477
 8743SOL    HW137865   0.684   2.103   6.571 -1.3076  0.4502  0.6640
 8743SOL    HW237866   0.614   1.973   6.584 -0.7771  2.2514  1.7392
 8744SOL     OW37867   1.885   3.231   6.813 -0.3078 -0.9249  0.5107
 8744SOL    HW137868   1.806   3.277   6.783  1.3552  0.5846 -1.6296
 8744SOL    HW237869   1.924   3.308   6.855 -1.6722  1.2947 -2.2742
 8745SOL     OW37870   0.104   0.998   1.186  0.1662  0.2505 -0.7985
 8745SOL    HW137871   0.091   1.068   1.122  2.1289  2.5880  1.3415
 8745SOL    HW237872   0.017   0.964   1.203  0.1107  1.6552  1.7157
 8746SOL     OW37873   0.075   1.228   3.415  0.1575  0.2496 -0.2429
 8746SOL    HW137874   0.130   1.150   3.404 -0.4658 -0.6065  2.6047
 8746SOL    HW237875   0.082   1.226   3.511 -0.9651  1.3612 -0.1323
 8747SOL     OW37876   1.793   0.822  13.283 -0.3617 -0.6230  0.2101
 8747SOL    HW137877   1.738   0.901  13.278 -0.5745 -0.7074  1.2178
 8747SOL    HW237878   1.827   0.845  13.370  0.2532  0.5506 -0.3456
 8748SOL     OW37879   0.597   3.487   7.910  0.2157 -0.1406 -0.4281
 8748SOL    HW137880   0.556   3.532   7.985  0.6664 -1.2984  0.5098
 8748SOL    HW237881   0.535   3.418   7.889 -1.0356  0.5475  0.9427
 8749SOL     OW37882   2.418   4.148  15.832  0.1589  0.2864 -0.5978
 8749SOL    HW137883   2.377   4.202  15.900 -0.8738 -0.5546 -0.5632
 8749SOL    HW237884   2.345   4.087  15.820 -1.4593  1.7146  1.9853
 8750SOL     OW37885   2.350   1.327  11.440  0.1242  0.3714 -0.0211
 8750SOL    HW137886   2.348   1.422  11.429  0.6039  0.5961  1.7659
 8750SOL    HW237887   2.331   1.300  11.350  0.7841  0.3085 -0.1402
 8751SOL     OW37888   1.654   4.295   5.987  0.1109 -0.1400 -0.4226
 8751SOL    HW137889   1.627   4.206   5.962  1.3203 -1.2971  2.4038
 8751SOL    HW237890   1.677   4.293   6.080 -1.6193  0.6985  0.0178
 8752SOL     OW37891   2.145   4.508   4.215  0.1683 -0.0081  0.1758
 8752SOL    HW137892   2.218   4.465   4.171 -1.7555 -1.9810 -1.0389
 8752SOL    HW237893   2.073   4.493   4.154  1.5320 -1.8284 -0.9753
 8753SOL     OW37894   3.439   2.185   0.858  0.2323  0.5987  0.5042
 8753SOL    HW137895   3.499   2.260   0.868  1.7277 -0.8839  2.5574
 8753SOL    HW237896   3.492   2.106   0.854 -1.3357 -0.4664  1.0238
 8754SOL     OW37897   0.598   2.085   3.872  0.1787 -0.1449  0.0792
 8754SOL    HW137898   0.618   2.057   3.783  1.4152 -2.1809  1.0014
 8754SOL    HW237899   0.607   2.002   3.919 -0.7193 -0.9144 -1.1048
 8755SOL     OW37900   1.482   3.177   3.029  0.1732  0.2835 -0.1268
 8755SOL    HW137901   1.513   3.122   2.957 -0.5773  0.3089 -0.4659
 8755SOL    HW237902   1.389   3.174   3.008  0.5325  2.1428 -1.9336
 8756SOL     OW37903   0.315   4.116   5.957 -0.0150  0.5925  0.2378
 8756SOL    HW137904   0.275   4.196   5.925 -1.9672 -0.8134 -0.8414
 8756SOL    HW237905   0.404   4.148   5.971  0.4647 -1.4031  1.7874
 8757SOL     OW37906   2.373   2.058   8.072  0.7337 -0.3332  0.4034
 8757SOL    HW137907   2.382   2.040   7.978 -1.5337 -1.8407  0.4967
 8757SOL    HW237908   2.279   2.074   8.075  0.8632  1.0472 -2.5337
 8758SOL     OW37909   1.702   1.174  14.777 -0.0113 -0.7713  0.3512
 8758SOL    HW137910   1.789   1.166  14.739  0.2521  1.3029  0.5081
 8758SOL    HW237911   1.651   1.141  14.703  2.0918  1.3902 -2.0341
 8759SOL     OW37912   3.820   2.241   7.395 -0.5510  0.0208 -0.5648
 8759SOL    HW137913   3.777   2.300   7.333 -1.7560 -1.7488 -1.4396
 8759SOL    HW237914   3.910   2.274   7.394 -1.0062  1.1766 -2.1850
 8760SOL     OW37915   3.909   3.421   3.587 -0.3760  0.1980 -0.0630
 8760SOL    HW137916   3.995   3.409   3.547 -1.8094  0.2215 -3.1279
 8760SOL    HW237917   3.928   3.508   3.621  0.4898 -1.7778  4.6287
 8761SOL     OW37918   2.955   3.430   3.714 -0.3935 -0.7343  0.3239
 8761SOL    HW137919   3.002   3.365   3.766  0.4964 -0.3702 -0.0184
 8761SOL    HW237920   3.015   3.439   3.640 -1.6971  0.1276 -0.6402
 8762SOL     OW37921   3.789   3.252   5.715 -0.3666 -0.0815 -0.0833
 8762SOL    HW137922   3.743   3.324   5.670  1.9450 -0.2767 -2.7799
 8762SOL    HW237923   3.753   3.183   5.660 -0.8837  1.1640 -1.3174
 8763SOL     OW37924   4.596   1.453   6.973 -0.0233 -0.0500 -0.8044
 8763SOL    HW137925   4.628   1.363   6.959 -0.5060 -0.2751 -0.4394
 8763SOL    HW237926   4.682   1.494   6.963 -0.4287  0.7071 -1.1792
 8764SOL     OW37927   2.216   4.061  16.261 -0.1495  0.4339  0.2537
 8764SOL    HW137928   2.192   4.035  16.350 -0.4526 -0.1473  0.0070
 8764SOL    HW237929   2.158   4.006  16.207 -0.7345  1.3590 -0.0560
 8765SOL     OW37930   3.100   1.826   6.089 -0.3410 -1.1005  0.3969
 8765SOL    HW137931   3.175   1.827   6.148 -2.0486 -2.9658  2.5899
 8765SOL    HW237932   3.148   1.816   6.007  0.9977  2.7216  0.7214
 8766SOL     OW37933   0.050   1.321  12.209 -0.0915  0.4245 -0.2230
 8766SOL    HW137934   0.081   1.235  12.181  0.6383  0.6173 -0.0094
 8766SOL    HW237935   0.134   1.360  12.232  0.3208  0.0231 -1.0638
 8767SOL     OW37936   1.641   3.944   0.908  0.2117  0.5122 -0.3863
 8767SOL    HW137937   1.665   3.870   0.964  1.2936  1.2256  0.0844
 8767SOL    HW237938   1.569   3.907   0.855 -1.3022  2.5082  0.2810
 8768SOL     OW37939   3.321   2.599   3.771  0.1124  0.0449  0.1991
 8768SOL    HW137940   3.278   2.547   3.704  1.1112  0.1050 -0.4817
 8768SOL    HW237941   3.413   2.596   3.748 -0.0748  0.1938 -0.5574
 8769SOL     OW37942   2.925   2.828   3.409  0.3807 -0.4410  0.1863
 8769SOL    HW137943   2.847   2.839   3.463 -0.7009 -0.0902 -1.4141
 8769SOL    HW237944   2.882   2.794   3.330 -1.2550  0.4910  0.6811
 8770SOL     OW37945   1.484   3.623   8.069  0.2762 -0.0133  0.3220
 8770SOL    HW137946   1.459   3.641   8.160  0.2603 -0.3818  0.3895
 8770SOL    HW237947   1.501   3.712   8.040 -0.4142  0.0880  0.2214
 8771SOL     OW37948   0.541   4.093   2.756  0.1962 -0.1909 -0.0157
 8771SOL    HW137949   0.623   4.092   2.804  1.0817  1.0019 -1.5046
 8771SOL    HW237950   0.553   4.035   2.681  0.7072 -2.6490  1.9682
 8772SOL     OW37951   2.772   2.991   9.986 -0.0383 -0.3146 -0.1541
 8772SOL    HW137952   2.682   2.960   9.975 -0.9556  1.1561  3.1371
 8772SOL    HW237953   2.813   2.929   9.926  0.4946 -1.0526  0.9700
 8773SOL     OW37954   2.437   1.738  10.067 -0.9602 -0.3735 -0.2063
 8773SOL    HW137955   2.404   1.775   9.985  0.0117  0.2287 -0.3237
 8773SOL    HW237956   2.367   1.678  10.094 -0.4185 -0.6016  0.7083
 8774SOL     OW37957   4.703   4.048   0.223  0.0114  0.2140  0.6313
 8774SOL    HW137958   4.715   4.143   0.220 -2.0744  0.3771 -1.9889
 8774SOL    HW237959   4.632   4.031   0.161  0.7019 -0.9968  0.1548
 8775SOL     OW37960   0.629   4.608   1.377  0.4363 -0.0012 -0.3252
 8775SOL    HW137961   0.652   4.583   1.466  4.3224 -1.6488 -1.8194
 8775SOL    HW237962   0.545   4.654   1.386 -1.3520 -2.6771 -3.1671
 8776SOL     OW37963   4.443   1.391   3.129  0.0316  0.5597 -0.0582
 8776SOL    HW137964   4.458   1.319   3.190 -0.9729 -0.6061 -1.1771
 8776SOL    HW237965   4.527   1.394   3.084  0.3069  0.5969  0.4661
 8777SOL     OW37966   1.659   0.931  14.979  0.0787  0.7909  0.3506
 8777SOL    HW137967   1.660   0.967  15.067 -0.5055  0.7392  0.3790
 8777SOL    HW237968   1.690   1.009  14.932  0.5339 -0.6254 -1.6854
 8778SOL     OW37969   1.220   1.241   6.886  0.0670 -0.5778  0.1352
 8778SOL    HW137970   1.126   1.250   6.871 -0.2058 -1.3954  1.3810
 8778SOL    HW237971   1.219   1.197   6.971 -1.4426 -0.7952 -0.0087
 8779SOL     OW37972   4.356   1.790   2.204  0.3301  0.4866 -0.6739
 8779SOL    HW137973   4.312   1.863   2.160  0.3648  0.9619  0.0695
 8779SOL    HW237974   4.323   1.722   2.146  3.3047 -0.0027 -1.7975
 8780SOL     OW37975   2.054   1.900  10.346  0.3702 -0.1471  0.4176
 8780SOL    HW137976   2.099   1.978  10.380  1.4121 -1.0724  1.1639
 8780SOL    HW237977   2.066   1.831  10.412  0.2841  0.2865  0.8883
 8781SOL     OW37978   2.138   1.650   5.892  0.1779  0.4618 -0.2230
 8781SOL    HW137979   2.123   1.600   5.972 -0.2594  0.1655 -0.4841
 8781SOL    HW237980   2.086   1.605   5.825 -0.5027 -0.8012  1.1358
 8782SOL     OW37981   3.088   2.729   6.860  0.7881 -0.0764 -0.3283
 8782SOL    HW137982   3.110   2.738   6.768  0.8815  0.2346 -0.2747
 8782SOL    HW237983   3.077   2.634   6.870 -1.1333  0.0732 -1.0747
 8783SOL     OW37984   2.324   3.726   9.617 -0.3745 -0.4763 -0.6058
 8783SOL    HW137985   2.249   3.697   9.564  0.1728  0.1729 -1.7519
 8783SOL    HW237986   2.298   3.812   9.652  0.5185  0.3290 -1.9026
 8784SOL     OW37987   3.436   3.629  13.172  0.1141  0.0504 -0.5349
 8784SOL    HW137988   3.466   3.629  13.263 -0.6707 -4.4337 -0.2702
 8784SOL    HW237989   3.515   3.663  13.130  0.2437  1.1529  0.6336
 8785SOL     OW37990   3.784   0.024   7.346  0.1691 -0.3220  0.5778
 8785SOL    HW137991   3.736   0.054   7.269 -2.1486 -0.2623  2.0570
 8785SOL    HW237992   3.842   0.099   7.359  0.0466  0.0711 -1.1008
 8786SOL     OW37993   3.482   1.624  15.156  0.1847  0.6721  0.2293
 8786SOL    HW137994   3.486   1.534  15.125 -0.7801  0.8184 -0.3270
 8786SOL    HW237995   3.424   1.652  15.085 -0.1747  2.0239  1.0596
 8787SOL     OW37996   3.550   2.765   1.448 -0.0958  0.3591 -0.4553
 8787SOL    HW137997   3.644   2.748   1.457 -0.0562  0.2870 -1.0308
 8787SOL    HW237998   3.550   2.856   1.418  0.4220  0.4952 -0.0482
 8788SOL     OW37999   3.488   2.448   5.789 -0.1878 -0.0990  0.6188
 8788SOL    HW138000   3.515   2.513   5.854  1.4670  0.1160 -0.2823
 8788SOL    HW238001   3.403   2.420   5.823 -0.5984  1.0099  0.4988
 8789SOL     OW38002   4.623   0.711   7.102  0.1189 -0.2223 -0.1606
 8789SOL    HW138003   4.637   0.644   7.036  1.4419  1.1914 -1.3080
 8789SOL    HW238004   4.608   0.790   7.049 -3.9589 -1.4496 -0.8583
 8790SOL     OW38005   4.168   4.376   2.573 -0.5130 -0.0489 -0.2560
 8790SOL    HW138006   4.114   4.392   2.496 -0.2662 -0.8053 -0.5845
 8790SOL    HW238007   4.256   4.378   2.536 -0.0622 -2.5425  0.7168
 8791SOL     OW38008   4.533   4.703   2.270  0.4395 -0.2520 -1.0432
 8791SOL    HW138009   4.599   4.635   2.259  3.0401  1.9260  0.8015
 8791SOL    HW238010   4.593   0.032   2.302 -0.8820 -0.0513  0.9763
 8792SOL     OW38011   0.854   1.581   6.214 -0.0615 -0.3153  0.0677
 8792SOL    HW138012   0.947   1.572   6.236 -0.6193 -1.8205  1.7994
 8792SOL    HW238013   0.820   1.499   6.250  1.3636 -1.0062 -0.1605
 8793SOL     OW38014   3.398   4.229   6.739  0.3067 -0.1444 -0.5699
 8793SOL    HW138015   3.366   4.310   6.699 -1.3802  0.6653  2.3866
 8793SOL    HW238016   3.491   4.232   6.720  0.3889  0.2355 -0.1218
 8794SOL     OW38017   2.839   3.561   8.372  0.1681  0.1210  0.1571
 8794SOL    HW138018   2.862   3.599   8.287 -0.2681 -0.9707 -0.4486
 8794SOL    HW238019   2.912   3.501   8.389 -0.1518  0.3964  2.5020
 8795SOL     OW38020   4.613   3.467   5.406  0.3560  0.0093  0.0351
 8795SOL    HW138021   4.589   3.512   5.487  1.5912  0.8194 -0.0525
 8795SOL    HW238022   4.697   3.435   5.437 -0.7334 -3.1877 -0.3036
 8796SOL     OW38023   1.144   2.261   8.433 -0.1323 -0.3443  0.4762
 8796SOL    HW138024   1.176   2.334   8.380 -2.1890  0.5102  0.4149
 8796SOL    HW238025   1.180   2.185   8.387 -2.5406 -1.1884  0.0228
 8797SOL     OW38026   0.507   2.875   1.103 -0.4303  0.0914 -0.2662
 8797SOL    HW138027   0.447   2.911   1.038  0.2264  0.6451 -0.5630
 8797SOL    HW238028   0.507   2.780   1.093  0.7922  0.0849 -0.2707
 8798SOL     OW38029   1.026   2.681   5.931  0.3706  0.3570  0.1973
 8798SOL    HW138030   1.068   2.633   5.860 -1.5896 -0.5388 -0.3694
 8798SOL    HW238031   0.933   2.665   5.915  0.7256 -2.3065  0.8458
 8799SOL     OW38032   1.729   0.925   7.564 -0.3565  0.0626 -0.4235
 8799SOL    HW138033   1.805   0.921   7.622 -0.2010 -0.7236 -0.6795
 8799SOL    HW238034   1.660   0.929   7.631 -0.0892  1.4058 -0.2423
 8800SOL     OW38035   3.395   0.057   8.624 -0.3801 -0.4758 -0.1512
 8800SOL    HW138036   3.410   0.144   8.588  1.5722  0.1680  2.3134
 8800SOL    HW238037   3.355   0.096   8.701  0.5501 -2.3490  1.2830
 8801SOL     OW38038   2.714   0.569  15.118 -0.0329  0.0157 -0.1140
 8801SOL    HW138039   2.804   0.586  15.089  0.4325  0.3948  1.5694
 8801SOL    HW238040   2.664   0.629  15.064 -0.7963 -2.3999 -2.0961
 8802SOL     OW38041   2.931   4.066   7.019  0.5280  0.1155  0.0380
 8802SOL    HW138042   2.927   4.103   6.930 -1.6717 -0.4220 -0.0681
 8802SOL    HW238043   2.889   3.981   7.013 -0.8340  0.8627 -1.0257
 8803SOL     OW38044   3.171   3.635   6.009 -0.0654  0.6630 -0.0580
 8803SOL    HW138045   3.084   3.595   6.009 -1.0501  2.7486  0.0251
 8803SOL    HW238046   3.198   3.630   5.917  0.4779 -0.3712  0.1626
 8804SOL     OW38047   0.138   1.968   2.434 -0.7450  1.1077  0.0394
 8804SOL    HW138048   0.205   2.016   2.482  1.5361 -2.3561  0.2903
 8804SOL    HW238049   0.185   1.886   2.418 -0.4667  1.4466 -0.9329
 8805SOL     OW38050   0.938   0.974   2.682 -0.4995 -0.5934  0.5224
 8805SOL    HW138051   0.886   1.045   2.642 -2.6767 -1.8917  1.0910
 8805SOL    HW238052   0.883   0.959   2.759  0.4714 -1.8755  0.9614
 8806SOL     OW38053   3.424   0.596   0.501 -0.0702  0.1787  0.6795
 8806SOL    HW138054   3.379   0.514   0.481 -1.4200  0.3856  2.8703
 8806SOL    HW238055   3.352   0.658   0.512 -0.9723 -0.7370 -0.1370
 8807SOL     OW38056   0.956   2.089  16.407 -0.0806  0.2809  0.1891
 8807SOL    HW138057   0.994   2.146  16.474 -0.9170  1.9695 -0.7570
 8807SOL    HW238058   0.959   2.004  16.451 -0.6633 -0.1511 -0.5774
 8808SOL     OW38059   1.751   0.205   2.496 -0.4802  0.5123  0.1905
 8808SOL    HW138060   1.769   0.177   2.406  0.7691 -0.3355  0.6981
 8808SOL    HW238061   1.797   0.134   2.542  1.5511  3.5128  2.7622
 8809SOL     OW38062   4.552   3.869   9.020 -0.6698 -0.3910  0.5410
 8809SOL    HW138063   4.585   3.959   9.013  0.8866 -0.7792  2.9142
 8809SOL    HW238064   4.511   3.866   9.106  0.2233  1.1492  1.0288
 8810SOL     OW38065   3.990   4.253  17.118  0.2745 -0.3595 -0.1512
 8810SOL    HW138066   3.959   4.304  17.193  0.3033 -0.6246  0.0453
 8810SOL    HW238067   3.992   4.326  17.057  0.2321  1.7874  2.4020
 8811SOL     OW38068   4.653   3.922  13.878  0.7174 -0.2401  0.1876
 8811SOL    HW138069   4.617   3.974  13.949 -0.5436 -0.3795 -0.3463
 8811SOL    HW238070   4.585   3.923  13.810  0.2847 -0.2295  0.6223
 8812SOL     OW38071   1.630   1.151  15.192  0.1533 -0.5254  0.3525
 8812SOL    HW138072   1.550   1.177  15.237  1.0648  1.6860  0.7062
 8812SOL    HW238073   1.651   1.229  15.140  1.2319 -1.5662 -0.7652
 8813SOL     OW38074   2.864   1.492  17.481  0.4518 -0.3391 -0.0652
 8813SOL    HW138075   2.937   1.469  17.423 -0.5488  0.2060 -1.5518
 8813SOL    HW238076   2.890   1.584  17.487 -2.7295  0.5824 -0.3506
 8814SOL     OW38077   2.951   3.885   6.766 -0.5921  0.1879 -0.5113
 8814SOL    HW138078   3.002   3.966   6.768  0.9669 -0.7366 -2.4739
 8814SOL    HW238079   2.923   3.878   6.857 -1.7068  0.6061 -0.8296
 8815SOL     OW38080   3.040   1.454   8.485  0.2747 -0.3584  0.0734
 8815SOL    HW138081   3.067   1.545   8.490 -2.7940  0.5943 -0.7822
 8815SOL    HW238082   3.082   1.418   8.563  0.2934  0.4375  0.4260
 8816SOL     OW38083   1.873   1.565  17.704  0.0335 -0.5862  0.8681
 8816SOL    HW138084   1.783   1.536  17.721 -0.4387 -0.3738 -1.2616
 8816SOL    HW238085   1.870   1.588  17.611 -0.4732  0.9563  1.2617
 8817SOL     OW38086   2.339   4.361   5.754  0.3176  0.0173 -0.1081
 8817SOL    HW138087   2.307   4.272   5.742 -0.4645  0.3672 -0.6356
 8817SOL    HW238088   2.402   4.354   5.825  1.1754  1.6453 -0.7244
 8818SOL     OW38089   1.247   0.362  12.216 -0.4742 -0.2405 -0.0136
 8818SOL    HW138090   1.264   0.268  12.225 -1.8336 -0.4432  0.3147
 8818SOL    HW238091   1.233   0.397  12.304 -1.0471  1.0796 -0.6469
 8819SOL     OW38092   3.480   3.030   4.264 -0.6399 -0.4483  0.4111
 8819SOL    HW138093   3.507   3.008   4.353  1.2120 -1.2711 -0.3522
 8819SOL    HW238094   3.430   2.952   4.242 -0.5733  0.0472 -1.5303
 8820SOL     OW38095   1.782   1.665   6.983 -0.1992  0.2249  0.1301
 8820SOL    HW138096   1.774   1.654   7.078  2.3905 -2.1031  0.1106
 8820SOL    HW238097   1.742   1.751   6.978 -0.2212  0.2710  1.1361
 8821SOL     OW38098   3.669   0.764   6.392 -0.3352 -0.1304 -0.2430
 8821SOL    HW138099   3.714   0.810   6.463  1.2904  1.2060 -2.1080
 8821SOL    HW238100   3.699   0.676   6.414 -2.7854 -0.5500  1.3526
 8822SOL     OW38101   0.518   1.465  15.406  0.1836 -0.1406  0.4884
 8822SOL    HW138102   0.507   1.455  15.500 -1.0024  0.0915  0.3749
 8822SOL    HW238103   0.468   1.546  15.397  1.1001  0.2375 -1.3982
 8823SOL     OW38104   0.371   2.349  17.019 -0.2325  0.3428  0.1036
 8823SOL    HW138105   0.380   2.399  16.937 -1.9669 -0.2021 -0.4221
 8823SOL    HW238106   0.457   2.319  17.047 -0.8826 -0.9987  0.6280
 8824SOL     OW38107   3.599   3.727  17.563  0.4906  0.1024  0.0868
 8824SOL    HW138108   3.595   3.657  17.497  0.3453 -0.4669  0.6944
 8824SOL    HW238109   3.508   3.733  17.592  1.0011  2.1951  1.2412
 8825SOL     OW38110   1.016   0.088   0.283 -0.1503 -0.0339  0.0020
 8825SOL    HW138111   1.047   0.071   0.372  0.6092 -0.7650 -0.4092
 8825SOL    HW238112   0.934   0.134   0.303 -0.0324  0.1596  0.0355
 8826SOL     OW38113   4.472   0.926   5.391  0.8986  0.0893  0.3997
 8826SOL    HW138114   4.464   0.989   5.320 -3.4052 -1.0390 -0.1103
 8826SOL    HW238115   4.482   0.843   5.345  0.3056  0.2089  0.0665
 8827SOL     OW38116   2.550   4.236   5.911  0.9777  0.2918 -1.0474
 8827SOL    HW138117   2.621   4.288   5.949  0.3877 -1.0326  1.8925
 8827SOL    HW238118   2.578   4.244   5.820  0.8385  1.7355 -0.9568
 8828SOL     OW38119   4.472   0.812   6.699 -0.4244  0.2812 -0.0690
 8828SOL    HW138120   4.403   0.748   6.717  2.6648 -2.7853  0.8589
 8828SOL    HW238121   4.451   0.838   6.609 -0.5999 -0.3209 -0.2007
 8829SOL     OW38122   3.873   2.752   8.291  0.9668 -0.4948 -0.5942
 8829SOL    HW138123   3.938   2.703   8.241 -0.9079 -3.2892 -0.2375
 8829SOL    HW238124   3.935   2.794   8.352 -1.4483  1.0751  0.7770
 8830SOL     OW38125   2.692   1.988  15.001  0.0390  0.5295  0.1028
 8830SOL    HW138126   2.683   1.936  14.921  0.0322  0.9525 -0.1680
 8830SOL    HW238127   2.677   1.931  15.076 -1.2471 -0.4335 -0.8865
 8831SOL     OW38128   2.020   2.298   6.008 -0.6385 -0.0222  0.2141
 8831SOL    HW138129   2.066   2.218   6.033 -1.6531 -0.5305  0.4515
 8831SOL    HW238130   2.027   2.343   6.092  0.7596 -0.7677  0.4982
 8832SOL     OW38131   2.436   2.206   2.659  0.2624 -0.6642  0.2901
 8832SOL    HW138132   2.472   2.134   2.608 -1.4493 -1.2059 -0.1476
 8832SOL    HW238133   2.378   2.160   2.720  0.0289  0.1238  0.6601
 8833SOL     OW38134   2.498   0.108   7.830 -0.1445  0.1183 -0.1365
 8833SOL    HW138135   2.435   0.125   7.760 -0.0481  1.7585  0.1609
 8833SOL    HW238136   2.540   0.031   7.791  2.2046  0.6963  1.2687
 8834SOL     OW38137   4.125   0.470   8.151 -0.4464  0.3211 -0.0979
 8834SOL    HW138138   4.062   0.499   8.085 -0.8297  1.2489  0.6705
 8834SOL    HW238139   4.180   0.548   8.157  0.9406 -0.5717 -1.2978
 8835SOL     OW38140   2.865   1.447   8.773  0.2584 -0.2090 -0.1167
 8835SOL    HW138141   2.857   1.543   8.767 -3.4776 -0.4943  0.0919
 8835SOL    HW238142   2.958   1.429   8.767  1.4787  5.3346  1.3110
 8836SOL     OW38143   4.528   0.211   8.509 -0.0237 -0.2010 -0.3858
 8836SOL    HW138144   4.524   0.203   8.604 -1.1212  0.4906 -0.3736
 8836SOL    HW238145   4.495   0.301   8.502 -0.2130 -0.1088  1.7184
 8837SOL     OW38146   3.442   1.302  17.222 -0.6549  0.1932 -0.0902
 8837SOL    HW138147   3.363   1.251  17.239 -0.5596 -0.5676 -1.9256
 8837SOL    HW238148   3.456   1.348  17.305  0.3828  0.1313 -0.2375
 8838SOL     OW38149   3.560   4.028   1.724  0.1845 -0.3586 -0.0151
 8838SOL    HW138150   3.467   4.029   1.701  0.3917 -0.9567 -0.8657
 8838SOL    HW238151   3.582   4.121   1.717  2.6998 -1.0076 -0.8205
 8839SOL     OW38152   3.863   2.117   2.488  0.1117 -0.4576 -0.1017
 8839SOL    HW138153   3.849   2.052   2.557  2.2498  0.7696  1.4879
 8839SOL    HW238154   3.924   2.172   2.536 -0.0416  0.0027 -0.4339
 8840SOL     OW38155   3.104   4.271  16.533  0.1917  0.6018 -0.2862
 8840SOL    HW138156   3.116   4.285  16.627 -1.8280  1.1276 -0.1155
 8840SOL    HW238157   3.159   4.192  16.528 -1.1933 -0.4211  0.4899
 8841SOL     OW38158   1.073   4.677   6.975  0.1340 -0.3968  0.5978
 8841SOL    HW138159   1.010   4.617   6.937  1.1951 -0.0444 -1.7574
 8841SOL    HW238160   1.077   0.000   6.902 -0.6066  0.0290  0.9220
 8842SOL     OW38161   1.793   3.403   8.258  0.6903 -0.1122 -0.2913
 8842SOL    HW138162   1.875   3.360   8.284 -0.0530 -2.4211 -1.7430
 8842SOL    HW238163   1.725   3.349   8.299 -2.2867  2.3681 -1.9837
 8843SOL     OW38164   3.464   2.594   2.801 -0.6050 -0.4962  0.5473
 8843SOL    HW138165   3.468   2.500   2.819 -0.0850 -0.5721  0.0191
 8843SOL    HW238166   3.375   2.625   2.822  0.0013  0.5223  1.5885
 8844SOL     OW38167   0.514   1.445   7.504 -0.0250  0.1185 -0.1338
 8844SOL    HW138168   0.442   1.464   7.444 -1.5113  0.2616  1.6993
 8844SOL    HW238169   0.511   1.349   7.505  1.5210  0.0664 -0.8738
 8845SOL     OW38170   2.892   1.015  10.920 -0.0961 -0.5394 -0.0033
 8845SOL    HW138171   2.916   1.107  10.906 -0.6061 -0.3217  0.5511
 8845SOL    HW238172   2.938   1.001  11.003  0.3395 -0.6038 -0.2510
 8846SOL     OW38173   3.930   2.186   6.852 -0.0958  0.4653  0.1485
 8846SOL    HW138174   4.017   2.191   6.891  0.3357  0.3439 -0.7932
 8846SOL    HW238175   3.897   2.100   6.878  0.7700  0.4950  1.3491
 8847SOL     OW38176   0.930   2.253  17.391  0.2195  0.2823  0.5663
 8847SOL    HW138177   0.976   2.172  17.372  0.3214  0.6018 -0.6133
 8847SOL    HW238178   0.845   2.227  17.426 -0.6020  2.2909  0.1109
 8848SOL     OW38179   0.252   1.208  14.864 -0.2331 -0.3106 -0.2614
 8848SOL    HW138180   0.226   1.138  14.804  0.8832  0.3056 -1.4680
 8848SOL    HW238181   0.344   1.222  14.844 -0.1702 -1.2150 -0.5988
 8849SOL     OW38182   1.018   3.061   5.405  0.3462 -0.1832 -0.0727
 8849SOL    HW138183   0.979   3.078   5.319  0.2713 -0.5244 -0.1041
 8849SOL    HW238184   1.080   3.134   5.406  1.2034 -0.9332  1.1708
 8850SOL     OW38185   4.312   0.351  12.326  0.0494  0.2446  0.4989
 8850SOL    HW138186   4.242   0.341  12.261 -0.4069  2.7389  0.5936
 8850SOL    HW238187   4.346   0.263  12.340  3.4573  1.2883 -1.2439
 8851SOL     OW38188   3.128   1.466   8.226 -0.3972  0.1068  0.4445
 8851SOL    HW138189   3.078   1.420   8.159  1.0103  0.6188 -0.9516
 8851SOL    HW238190   3.058   1.502   8.281 -2.1225 -0.8021 -1.1874
 8852SOL     OW38191   3.977   4.655  12.061  0.0032  0.2753 -0.0591
 8852SOL    HW138192   3.992   4.564  12.088  1.6197  1.2937  2.5273
 8852SOL    HW238193   3.907   4.689  12.116 -0.3203 -0.5242  0.0326
 8853SOL     OW38194   0.942   1.206   6.889  0.3274  0.3526  0.5373
 8853SOL    HW138195   0.874   1.265   6.856 -0.2117 -0.4700  0.2081
 8853SOL    HW238196   0.897   1.131   6.927  1.9503  0.7949  3.3792
 8854SOL     OW38197   0.124   2.901   1.436 -0.5534 -0.1606  0.3168
 8854SOL    HW138198   0.190   2.939   1.493 -0.1996 -0.9993  0.4594
 8854SOL    HW238199   0.171   2.878   1.356 -0.7033  2.3119 -0.4973
 8855SOL     OW38200   2.691   3.862   3.081 -0.3011  0.0992  0.1014
 8855SOL    HW138201   2.712   3.769   3.066 -0.4546 -0.2730  2.1932
 8855SOL    HW238202   2.595   3.862   3.080 -0.2957 -0.3484 -0.4748
 8856SOL     OW38203   3.358   1.855   9.422 -0.5000  0.3526 -0.1190
 8856SOL    HW138204   3.443   1.895   9.443 -0.0621 -1.4081  1.5110
 8856SOL    HW238205   3.313   1.867   9.506 -0.6063  0.5731 -0.2075
 8857SOL     OW38206   4.177   3.953   8.805  0.3950 -0.5098 -0.0191
 8857SOL    HW138207   4.259   4.001   8.813 -0.0980  0.5656 -1.6663
 8857SOL    HW238208   4.150   3.992   8.723 -0.9945  0.4198  0.8789
 8858SOL     OW38209   0.590   4.461   3.622 -0.5583 -0.2835  0.7234
 8858SOL    HW138210   0.505   4.423   3.601 -0.4862  0.3657 -0.7215
 8858SOL    HW238211   0.603   4.438   3.714  1.2103 -0.7305  0.3721
 8859SOL     OW38212   3.251   3.558   3.136  0.2289  0.4997 -0.1348
 8859SOL    HW138213   3.322   3.504   3.172  0.9216  2.0587  0.8130
 8859SOL    HW238214   3.239   3.512   3.053  0.2903  0.5428 -0.1669
 8860SOL     OW38215   0.633   4.550   9.359  0.0236  0.1534 -0.8251
 8860SOL    HW138216   0.613   4.472   9.308 -0.4345  0.2953 -0.8592
 8860SOL    HW238217   0.563   4.609   9.333  0.2029  0.9828  0.5667
 8861SOL     OW38218   0.284   1.883   4.533 -0.0151  0.2349 -0.0289
 8861SOL    HW138219   0.236   1.804   4.557  0.2570 -0.3488 -1.3986
 8861SOL    HW238220   0.344   1.901   4.605  0.0217  1.5857 -0.4098
 8862SOL     OW38221   0.055   3.068   6.161 -0.0420  0.1248  0.0486
 8862SOL    HW138222   4.711   3.038   6.124  1.1177 -0.4100 -2.1379
 8862SOL    HW238223   0.076   3.126   6.088 -0.4081  0.7138  0.4207
 8863SOL     OW38224   4.432   3.553   1.949 -0.4496  0.1451  0.3043
 8863SOL    HW138225   4.373   3.541   2.023 -0.1320 -0.9392  0.3958
 8863SOL    HW238226   4.370   3.565   1.877  2.1220 -1.9672 -2.3083
 8864SOL     OW38227   4.073   1.926   7.122 -0.3269  0.4139 -0.0625
 8864SOL    HW138228   4.089   2.019   7.140 -0.2547  0.6899 -1.5552
 8864SOL    HW238229   3.989   1.928   7.075 -0.8163  1.7219  0.8840
 8865SOL     OW38230   2.158   3.431   0.298  0.3125  0.3956  0.8927
 8865SOL    HW138231   2.132   3.518   0.266  0.4136 -0.7509 -2.3302
 8865SOL    HW238232   2.187   3.390   0.217 -1.4057  2.2522 -0.6775
 8866SOL     OW38233   2.130   2.118  10.554  0.0643  0.1078 -0.5343
 8866SOL    HW138234   2.097   2.166  10.478 -1.2952  1.1138  0.6856
 8866SOL    HW238235   2.084   2.159  10.628  1.4300 -0.6116  0.7171
 8867SOL     OW38236   0.425   4.154  10.233 -0.6143  0.8026 -0.2267
 8867SOL    HW138237   0.506   4.203  10.217  1.4472 -2.2141  1.0667
 8867SOL    HW238238   0.381   4.153  10.149 -1.9068 -1.8539  0.4877
 8868SOL     OW38239   2.629   3.502   2.454 -0.4961  0.4587 -0.2321
 8868SOL    HW138240   2.640   3.558   2.531  1.7574 -1.4416  0.8296
 8868SOL    HW238241   2.702   3.530   2.399 -0.6280  1.8793  0.3058
 8869SOL     OW38242   0.237   3.911   4.246  0.1969  0.2911 -0.2465
 8869SOL    HW138243   0.332   3.912   4.260 -0.1801  0.9016  2.2635
 8869SOL    HW238244   0.223   3.822   4.277  0.3021  0.1349 -0.6493
 8870SOL     OW38245   1.873   1.224   1.187  0.2710 -0.3657  0.1374
 8870SOL    HW138246   1.806   1.171   1.142  0.3831 -0.9495  0.6683
 8870SOL    HW238247   1.804   1.287   1.207 -0.9464 -1.1469 -1.5573
 8871SOL     OW38248   2.751   3.654   8.603 -0.0797 -0.2792  0.3573
 8871SOL    HW138249   2.777   3.610   8.522 -1.1385 -0.1243 -0.0632
 8871SOL    HW238250   2.655   3.647   8.600  0.0304 -0.8040 -2.0530
 8872SOL     OW38251   2.439   3.963   2.363 -0.3375  0.4111  0.4228
 8872SOL    HW138252   2.420   3.941   2.455  3.0844 -1.9412  0.5605
 8872SOL    HW238253   2.527   3.929   2.350 -0.3930  1.1478 -1.7434
 8873SOL     OW38254   3.771   0.145  11.296  0.5046 -0.0653 -0.3115
 8873SOL    HW138255   3.854   0.097  11.298 -0.0691 -1.1090 -1.7083
 8873SOL    HW238256   3.778   0.181  11.384  1.7717 -1.4045  0.1286
 8874SOL     OW38257   1.995   4.286   2.169  0.6653 -0.7170  0.0708
 8874SOL    HW138258   2.076   4.249   2.133  0.6892 -1.1109  0.5379
 8874SOL    HW238259   2.034   4.322   2.249  0.6728 -1.8290  0.5647
 8875SOL     OW38260   3.544   2.581  11.448  0.2347 -0.3718  0.1868
 8875SOL    HW138261   3.592   2.584  11.364  2.1744  2.6577  1.4184
 8875SOL    HW238262   3.482   2.511  11.431  0.4680 -0.8190  1.1983
 8876SOL     OW38263   4.535   4.448   9.013 -0.3105  0.4195 -0.0893
 8876SOL    HW138264   4.616   4.453   9.063 -0.0392 -2.0588 -0.2629
 8876SOL    HW238265   4.545   4.524   8.956 -1.3264 -0.1823 -1.0912
 8877SOL     OW38266   0.742   4.063   7.364  0.7521  0.5634 -0.4438
 8877SOL    HW138267   0.792   3.998   7.315 -0.3422 -2.5371  2.4771
 8877SOL    HW238268   0.804   4.085   7.433  1.1509  2.1769 -1.3183
 8878SOL     OW38269   0.590   2.984   2.718  0.1015  0.1379 -0.2180
 8878SOL    HW138270   0.581   2.891   2.741 -1.5179  0.8132  1.9191
 8878SOL    HW238271   0.628   2.977   2.630  1.1693  1.1721  0.1645
 8879SOL     OW38272   1.652   3.145   8.975 -0.3232 -0.0128 -0.2323
 8879SOL    HW138273   1.706   3.075   9.011 -1.3375  0.4812  2.2383
 8879SOL    HW238274   1.566   3.104   8.965 -0.1792 -0.1372 -0.9815
 8880SOL     OW38275   3.538   4.198   5.456 -0.4024 -0.0635  0.2056
 8880SOL    HW138276   3.590   4.150   5.521 -1.0400 -1.6053 -0.4335
 8880SOL    HW238277   3.507   4.128   5.398 -0.4038  0.0859  0.0263
 8881SOL     OW38278   1.958   2.326   4.477  0.2657 -0.4178 -0.1281
 8881SOL    HW138279   2.002   2.242   4.480 -0.8101 -0.9028  1.9285
 8881SOL    HW238280   2.010   2.381   4.536 -1.1778 -0.1591  0.9071
 8882SOL     OW38281   0.408   4.719   3.768 -0.5859 -0.2538  0.4716
 8882SOL    HW138282   0.397   0.073   3.753  1.6461  0.3123  2.3647
 8882SOL    HW238283   0.498   4.715   3.799 -1.0434  0.0283  1.8124
 8883SOL     OW38284   0.390   2.971   4.083  0.3178  0.3881 -0.0759
 8883SOL    HW138285   0.463   2.919   4.119  1.3957  2.5373  0.8125
 8883SOL    HW238286   0.424   3.060   4.089 -0.4867  0.6043  1.2269
 8884SOL     OW38287   4.551   2.178   6.833 -0.0515  0.2150 -0.6020
 8884SOL    HW138288   4.536   2.104   6.774  1.3033 -0.6710  0.1503
 8884SOL    HW238289   4.460   2.196   6.857  0.5856  1.0575  1.1884
 8885SOL     OW38290   0.274   4.225   4.399 -0.1871  0.0812  0.0292
 8885SOL    HW138291   0.294   4.319   4.403 -0.9128  0.1839  1.0794
 8885SOL    HW238292   0.198   4.209   4.455 -0.6276  2.1395  0.0039
 8886SOL     OW38293   0.726   1.776   9.772 -0.1757 -0.1842  0.8364
 8886SOL    HW138294   0.822   1.767   9.774 -0.0406  1.4140  1.1127
 8886SOL    HW238295   0.712   1.871   9.773  0.4523 -0.0714 -0.5688
 8887SOL     OW38296   4.609   1.189  11.832 -0.1742 -0.7871  0.3801
 8887SOL    HW138297   4.694   1.147  11.820 -0.9267 -2.9491  2.6109
 8887SOL    HW238298   4.604   1.233  11.747  1.8884  1.3942  1.3912
 8888SOL     OW38299   0.754   1.717  15.052  0.3984  0.6951  0.1439
 8888SOL    HW138300   0.689   1.766  15.002 -0.4673  0.3076  0.8865
 8888SOL    HW238301   0.756   1.765  15.135 -0.6363  0.1866  0.4615
 8889SOL     OW38302   2.007   3.034   1.932  0.9789 -0.5718  0.5514
 8889SOL    HW138303   1.978   3.056   1.843  1.8291  0.7296  0.5977
 8889SOL    HW238304   1.969   3.107   1.981  0.6486  0.1408 -0.7619
 8890SOL     OW38305   0.729   4.139   4.204 -0.4352  0.3191  0.1311
 8890SOL    HW138306   0.769   4.088   4.134 -0.1141  0.5355  0.1586
 8890SOL    HW238307   0.636   4.150   4.185 -1.1786 -0.1024  3.5098
 8891SOL     OW38308   2.367   1.712   2.113 -0.4617 -0.0896  0.1179
 8891SOL    HW138309   2.456   1.715   2.148  0.0761 -1.1858 -1.1958
 8891SOL    HW238310   2.335   1.798   2.142 -1.5342 -0.3654 -0.2254
 8892SOL     OW38311   2.424   0.821  15.206 -0.4184  0.1102 -0.1922
 8892SOL    HW138312   2.331   0.823  15.230  0.2570  0.1434  2.4359
 8892SOL    HW238313   2.443   0.729  15.185  2.0527 -0.5279  4.6981
 8893SOL     OW38314   3.158   0.088   7.794 -0.0484 -0.4392 -0.1025
 8893SOL    HW138315   3.210   0.012   7.767  0.6785 -0.3607  1.1076
 8893SOL    HW238316   3.220   0.154   7.824 -0.2336  0.3381 -1.4311
 8894SOL     OW38317   4.103   3.346   4.929 -0.2330 -0.2665 -0.2375
 8894SOL    HW138318   4.185   3.362   4.881  0.2425 -0.5090  0.4956
 8894SOL    HW238319   4.134   3.350   5.019 -0.7070  2.6973 -0.1910
 8895SOL     OW38320   3.032   0.498   4.896 -0.0151  0.5570 -0.4469
 8895SOL    HW138321   2.970   0.511   4.824 -2.7999 -1.7950  1.5751
 8895SOL    HW238322   3.038   0.591   4.921 -0.1667 -0.3916  3.1350
 8896SOL     OW38323   3.979   1.711   8.191 -0.1804  0.0793 -0.3361
 8896SOL    HW138324   3.980   1.807   8.192  2.4749  0.0583  0.3603
 8896SOL    HW238325   4.055   1.687   8.245 -1.1824  1.7947  1.8745
 8897SOL     OW38326   2.884   1.905   4.983  0.0416 -0.4478  0.4915
 8897SOL    HW138327   2.816   1.840   5.000 -0.8754 -0.1344 -2.0528
 8897SOL    HW238328   2.959   1.845   4.987  2.3810  2.3867 -1.3348
 8898SOL     OW38329   4.113   4.084   1.628 -0.0490 -0.8001 -0.0256
 8898SOL    HW138330   4.183   4.124   1.680  1.2700 -0.4268 -2.0620
 8898SOL    HW238331   4.149   4.119   1.546 -1.0599 -2.0819 -1.0026
 8899SOL     OW38332   2.815   1.839   7.146  0.5386 -0.5092  0.0547
 8899SOL    HW138333   2.776   1.867   7.064 -1.6190  0.7818  1.5137
 8899SOL    HW238334   2.827   1.744   7.141 -0.5225 -0.5653 -1.4364
 8900SOL     OW38335   1.309   3.989  14.697  0.0764  0.5823  0.3020
 8900SOL    HW138336   1.298   4.082  14.717  1.2818  1.1984 -1.9075
 8900SOL    HW238337   1.369   3.988  14.622 -0.4649 -0.0492 -0.1220
 8901SOL     OW38338   3.209   0.653   7.239  0.3889 -0.5225  0.1700
 8901SOL    HW138339   3.114   0.642   7.244  0.3025  1.6456  3.0338
 8901SOL    HW238340   3.226   0.600   7.161  2.3124  1.3234 -0.6613
 8902SOL     OW38341   2.179   0.736  10.118  0.5434  0.5517  0.5155
 8902SOL    HW138342   2.238   0.803  10.085 -1.6441  1.8980 -0.6148
 8902SOL    HW238343   2.104   0.759  10.064  1.1197  1.6335  0.1820
 8903SOL     OW38344   4.552   3.270   1.131  0.0391  0.4333 -1.0540
 8903SOL    HW138345   4.497   3.256   1.209  0.3585 -0.1295 -0.9309
 8903SOL    HW238346   4.565   3.364   1.142 -1.9524  0.5650  0.1884
 8904SOL     OW38347   1.427   1.841   2.767  0.2161 -0.3030 -0.0118
 8904SOL    HW138348   1.411   1.897   2.843  0.0645  0.5366 -0.6525
 8904SOL    HW238349   1.409   1.753   2.798  0.2403  0.1082  1.1783
 8905SOL     OW38350   2.079   3.734  13.543 -0.3838 -0.1642 -0.1310
 8905SOL    HW138351   2.033   3.761  13.622  0.0273 -0.5361  0.2367
 8905SOL    HW238352   2.136   3.807  13.518 -2.5609  1.3043 -0.7153
 8906SOL     OW38353   2.943   4.664   8.866 -0.7955 -0.3088 -0.2920
 8906SOL    HW138354   2.902   0.011   8.870 -0.7810 -0.3164  0.0296
 8906SOL    HW238355   2.992   4.664   8.783 -1.1125  1.3636 -0.4674
 8907SOL     OW38356   2.675   2.494   8.090 -0.0131  0.1303 -0.8697
 8907SOL    HW138357   2.758   2.453   8.114  0.5101  0.8776 -1.3726
 8907SOL    HW238358   2.676   2.574   8.143 -0.0395 -2.2903  2.7598
 8908SOL     OW38359   0.357   4.632   7.657 -0.0598 -0.1814 -0.0934
 8908SOL    HW138360   0.429   4.681   7.698  0.2040 -0.1948 -0.5461
 8908SOL    HW238361   0.380   4.542   7.678 -1.2817 -0.6333 -0.7193
 8909SOL     OW38362   2.445   2.471   8.727  0.3747 -0.5007  0.1743
 8909SOL    HW138363   2.515   2.431   8.778 -0.2640  0.1207  1.5462
 8909SOL    HW238364   2.374   2.468   8.792  1.6582  1.1477  1.6395
 8910SOL     OW38365   3.764   0.422   7.581 -0.6330  0.1778  0.7875
 8910SOL    HW138366   3.693   0.485   7.564  0.6451  1.1020 -1.1398
 8910SOL    HW238367   3.840   0.476   7.603  0.5744 -0.4493 -1.7528
 8911SOL     OW38368   4.605   1.976   2.444  0.0460  0.0698 -0.3872
 8911SOL    HW138369   4.700   1.987   2.448 -0.2809  2.8267 -0.2966
 8911SOL    HW238370   4.585   1.995   2.536 -1.6522 -0.0012 -0.7315
 8912SOL     OW38371   4.172   4.063   9.442  0.1100  0.2878  0.4039
 8912SOL    HW138372   4.191   4.071   9.348  0.4197 -1.4820  0.3339
 8912SOL    HW238373   4.078   4.071   9.423 -0.1096  1.7256  2.0351
 8913SOL     OW38374   1.679   2.797  17.548 -0.1659  0.1332 -0.4813
 8913SOL    HW138375   1.644   2.859  17.484 -0.1893 -0.1108 -0.7006
 8913SOL    HW238376   1.616   2.727  17.534 -1.3536  0.9409  0.7188
 8914SOL     OW38377   0.127   0.924   7.753 -0.0945  0.4196 -0.0680
 8914SOL    HW138378   0.110   0.868   7.828 -0.4939 -1.0369 -1.2366
 8914SOL    HW238379   0.036   0.931   7.725 -0.6642 -1.1002  1.3900
 8915SOL     OW38380   0.185   0.252   3.320 -0.5562 -0.4410  1.2428
 8915SOL    HW138381   0.187   0.222   3.411 -3.5537 -2.1589  0.7512
 8915SOL    HW238382   0.255   0.201   3.280  0.1538  0.4356  1.3739
 8916SOL     OW38383   2.873   0.225  15.372  0.3370 -0.2110 -0.3511
 8916SOL    HW138384   2.832   0.151  15.417  1.9632 -0.0211  1.4485
 8916SOL    HW238385   2.934   0.263  15.435 -0.9676 -0.6563  1.1504
 8917SOL     OW38386   2.066   1.341   7.299  0.4758 -0.3194  0.1997
 8917SOL    HW138387   2.064   1.397   7.221  0.4217 -2.5586 -1.4155
 8917SOL    HW238388   1.977   1.313   7.317  1.5444 -2.4828  2.0843
 8918SOL     OW38389   0.993   2.318   7.477 -0.2856 -0.0589  0.4385
 8918SOL    HW138390   0.945   2.241   7.448 -1.9701  1.1516 -0.0171
 8918SOL    HW238391   1.066   2.276   7.522 -1.0149 -2.7396 -0.8780
 8919SOL     OW38392   4.588   4.125   4.542  0.0636 -0.2601 -0.3492
 8919SOL    HW138393   4.582   4.127   4.446  0.7639 -3.6588 -0.4652
 8919SOL    HW238394   4.514   4.067   4.561 -0.2484  0.4155  0.4564
 8920SOL     OW38395   2.687   4.610  16.936 -0.7879 -0.2253 -0.1925
 8920SOL    HW138396   2.702   4.632  17.028 -0.3309  2.6389 -0.9582
 8920SOL    HW238397   2.627   4.535  16.944 -0.5236 -0.2099  1.8569
 8921SOL     OW38398   4.256   2.791  11.350 -0.1845  0.2742  0.0333
 8921SOL    HW138399   4.322   2.836  11.403  0.4002 -1.5803  0.9161
 8921SOL    HW238400   4.207   2.754  11.424 -1.5454 -1.0404 -1.5386
 8922SOL     OW38401   4.536   3.532   4.472  0.1506  0.1116  0.2590
 8922SOL    HW138402   4.445   3.515   4.494 -0.8323  2.5887 -1.8680
 8922SOL    HW238403   4.555   3.478   4.395 -1.0745  0.9804 -0.6587
 8923SOL     OW38404   3.353   2.137  16.849 -0.5460 -0.0141 -0.1021
 8923SOL    HW138405   3.278   2.192  16.868  1.4590  2.8253 -0.4120
 8923SOL    HW238406   3.411   2.206  16.817  0.4479 -1.6698 -1.9436
 8924SOL     OW38407   2.283   1.674   8.824 -0.0606 -0.0826 -0.1489
 8924SOL    HW138408   2.203   1.682   8.772 -0.2015  2.7633  0.5417
 8924SOL    HW238409   2.337   1.743   8.788 -1.6581  3.5897  4.5581
 8925SOL     OW38410   0.984   2.938   6.575  0.4612 -0.4133 -0.3958
 8925SOL    HW138411   1.045   2.868   6.550 -1.2425 -2.0195 -0.0651
 8925SOL    HW238412   1.034   3.016   6.600  2.0435 -0.9462 -1.9878
 8926SOL     OW38413   4.207   4.722   9.903 -0.6221  0.1390  0.0910
 8926SOL    HW138414   4.158   4.690   9.979 -0.3963  1.1860  0.6748
 8926SOL    HW238415   4.143   0.044   9.868  0.1770  1.4307  0.8930
 8927SOL     OW38416   2.060   4.136   6.038 -0.3337 -0.4348  0.1625
 8927SOL    HW138417   2.030   4.219   6.000  2.9658 -0.9420 -3.6070
 8927SOL    HW238418   2.155   4.144   6.026 -0.3625  0.9160  0.7461
 8928SOL     OW38419   4.604   0.792   2.821  0.2058  0.8095  0.1118
 8928SOL    HW138420   4.588   0.856   2.891  0.7716 -0.7810  1.7125
 8928SOL    HW238421   4.648   0.716   2.860 -2.4524 -1.0756 -0.5687
 8929SOL     OW38422   4.238   1.445   7.581  0.2549 -0.4680  0.0855
 8929SOL    HW138423   4.248   1.353   7.557  0.8273  0.0422 -1.6024
 8929SOL    HW238424   4.321   1.482   7.552  0.4377 -0.5943  0.4599
 8930SOL     OW38425   2.152   2.045   4.148 -0.2450 -0.4015 -0.0183
 8930SOL    HW138426   2.246   2.060   4.133 -0.0937 -1.7307 -0.4112
 8930SOL    HW238427   2.131   2.012   4.061 -1.4048  2.2992 -0.7844
 8931SOL     OW38428   1.832   1.285  17.411 -0.5575 -0.2943 -0.0738
 8931SOL    HW138429   1.926   1.306  17.405 -0.5115 -0.0347  1.7395
 8931SOL    HW238430   1.841   1.220  17.341 -0.6240  1.6224 -1.8613
 8932SOL     OW38431   4.095   1.528   5.367 -0.0392 -0.2315  0.1749
 8932SOL    HW138432   4.131   1.473   5.297  1.6286 -0.1719  0.9843
 8932SOL    HW238433   4.039   1.585   5.315 -1.2659 -1.3624  0.2557
 8933SOL     OW38434   2.062   4.003  10.210 -0.3204  0.6205 -0.7089
 8933SOL    HW138435   2.100   4.084  10.174 -1.4888  0.8797 -1.3810
 8933SOL    HW238436   2.137   3.951  10.180 -1.5507 -0.3278 -2.1354
 8934SOL     OW38437   3.764   1.675   4.225 -0.1309 -0.0935  0.8267
 8934SOL    HW138438   3.702   1.713   4.288 -0.1105  1.2292  0.0517
 8934SOL    HW238439   3.728   1.586   4.229 -2.4159  0.8514  1.5785
 8935SOL     OW38440   2.732   2.687   7.544 -0.1063  0.1267 -0.2872
 8935SOL    HW138441   2.825   2.680   7.569 -0.4354 -1.2973  0.5346
 8935SOL    HW238442   2.707   2.596   7.556  0.7198 -0.5801 -3.8433
 8936SOL     OW38443   0.792   0.210   0.316 -0.5664  1.2744 -0.9509
 8936SOL    HW138444   0.769   0.261   0.238  2.1243  2.5889 -0.9122
 8936SOL    HW238445   0.734   0.134   0.312 -0.3879  1.2020 -2.0138
 8937SOL     OW38446   3.997   4.142   2.133  0.0892 -0.8409  0.2638
 8937SOL    HW138447   3.913   4.182   2.108 -0.2444 -0.9832  1.1624
 8937SOL    HW238448   3.989   4.126   2.227  0.0541  0.0592  0.4138
 8938SOL     OW38449   2.931   2.974   3.749  0.2812 -0.0104 -0.2797
 8938SOL    HW138450   2.946   2.891   3.794 -0.7964 -0.6657 -1.1371
 8938SOL    HW238451   3.022   3.002   3.753 -0.0565  1.1558 -0.6170
 8939SOL     OW38452   1.476   3.951   4.375 -0.7173  0.8822 -0.2218
 8939SOL    HW138453   1.526   3.983   4.450 -0.7159  0.5524 -0.0799
 8939SOL    HW238454   1.385   3.935   4.402 -0.8901 -1.2973 -2.0957
 8940SOL     OW38455   2.062   3.350   5.874 -0.4733 -0.1109 -0.1873
 8940SOL    HW138456   2.033   3.260   5.858 -1.1220 -0.2918  1.9795
 8940SOL    HW238457   2.049   3.392   5.789 -0.3734 -0.8317 -0.5635
 8941SOL     OW38458   1.241   3.922  13.597  0.2174  0.2704  0.4371
 8941SOL    HW138459   1.177   3.901  13.666 -1.3210  0.3146 -0.9731
 8941SOL    HW238460   1.239   3.845  13.541  0.4073 -0.8748  1.9966
 8942SOL     OW38461   0.059   2.813  12.166  0.0126 -0.2188  0.4095
 8942SOL    HW138462   0.050   2.869  12.243  0.3247  1.6280 -0.8949
 8942SOL    HW238463   4.723   2.756  12.183  2.1658 -2.2906  2.9883
 8943SOL     OW38464   0.762   0.712   7.652 -0.1041 -0.5087  0.0470
 8943SOL    HW138465   0.754   0.801   7.688  2.2532 -0.0498 -0.5365
 8943SOL    HW238466   0.702   0.725   7.579  1.0500  1.5636 -0.5525
 8944SOL     OW38467   2.181   3.266   2.517  0.0024 -1.0337 -1.0858
 8944SOL    HW138468   2.242   3.214   2.570 -0.1551 -2.6470 -2.5127
 8944SOL    HW238469   2.239   3.337   2.489  1.8885 -0.8230  3.2876
 8945SOL     OW38470   4.202   0.526   4.028 -0.1165 -0.1612  0.0913
 8945SOL    HW138471   4.203   0.467   4.103 -1.0861 -1.4845 -0.9404
 8945SOL    HW238472   4.249   0.600   4.067 -3.3412  0.4319  2.8599
 8946SOL     OW38473   3.683   3.292   4.665 -0.0560 -0.5632  0.7536
 8946SOL    HW138474   3.663   3.200   4.646 -0.0911 -0.4703  0.3401
 8946SOL    HW238475   3.595   3.324   4.681 -0.1235 -0.6324  0.5224
 8947SOL     OW38476   3.581   3.691   4.151  0.2771 -0.1535  0.2962
 8947SOL    HW138477   3.609   3.717   4.063 -1.9328 -2.8505 -1.2194
 8947SOL    HW238478   3.661   3.692   4.204  0.2601  0.4598  0.3046
 8948SOL     OW38479   4.003   3.546   9.129  0.3632  0.3923 -0.6464
 8948SOL    HW138480   4.038   3.635   9.120  0.8171  0.2629 -0.1726
 8948SOL    HW238481   4.042   3.529   9.215 -1.9493  1.5414  0.6355
 8949SOL     OW38482   0.334   2.565  16.832  0.1133 -0.1140  0.5175
 8949SOL    HW138483   0.414   2.612  16.856  1.0719 -0.8606 -1.1934
 8949SOL    HW238484   0.272   2.630  16.863 -0.3035 -0.3065  0.0893
 8950SOL     OW38485   0.053   1.705   5.535 -0.4033 -0.2522 -0.0109
 8950SOL    HW138486   4.720   1.757   5.568 -1.8027 -1.2626 -1.4818
 8950SOL    HW238487   0.065   1.749   5.451 -0.2241 -4.2467 -2.0965
 8951SOL     OW38488   3.546   0.716   5.646 -0.1145  0.3909  0.3929
 8951SOL    HW138489   3.455   0.716   5.617 -0.6138  1.5620  1.9612
 8951SOL    HW238490   3.542   0.771   5.724  1.2630  3.2457 -1.5092
 8952SOL     OW38491   1.799   1.558   5.444  0.0909  0.4768 -0.6125
 8952SOL    HW138492   1.755   1.636   5.411  1.7426  1.6618 -0.0133
 8952SOL    HW238493   1.760   1.494   5.384 -1.0227 -1.1195  1.8201
 8953SOL     OW38494   4.718   3.227   9.910  0.0422  0.1986 -0.0106
 8953SOL    HW138495   4.649   3.210   9.975 -0.0628 -2.4190 -0.7903
 8953SOL    HW238496   0.005   3.136   9.892 -2.6638 -0.3218 -1.3018
 8954SOL     OW38497   0.626   2.288   7.613 -0.4300  0.9189  0.6188
 8954SOL    HW138498   0.581   2.329   7.687 -3.6419 -2.4870  0.5291
 8954SOL    HW238499   0.674   2.223   7.664 -0.0824 -0.9321 -2.0918
 8955SOL     OW38500   2.794   1.438   6.177  0.2724  0.4880  0.2310
 8955SOL    HW138501   2.820   1.529   6.165 -1.0278  0.7311 -0.7948
 8955SOL    HW238502   2.711   1.457   6.220  0.2774 -1.3669  1.0632
 8956SOL     OW38503   2.903   3.473   1.704 -0.0207 -0.4248  0.2426
 8956SOL    HW138504   2.916   3.389   1.748 -1.0667 -0.5898  0.2405
 8956SOL    HW238505   2.968   3.518   1.758 -0.9682  0.5772  0.5348
 8957SOL     OW38506   3.082   2.125   1.971 -0.2462 -0.1883 -0.0452
 8957SOL    HW138507   3.084   2.219   1.986  0.4143 -0.2148  0.0581
 8957SOL    HW238508   3.055   2.085   2.054  1.3840  0.8130  0.9683
 8958SOL     OW38509   2.960   1.315   5.143  0.1636  0.4136  0.0316
 8958SOL    HW138510   2.895   1.361   5.196 -0.2423  0.0695 -0.1601
 8958SOL    HW238511   2.976   1.243   5.205 -2.2620 -0.9332 -0.8906
 8959SOL     OW38512   4.126   4.556   6.226  0.3244 -0.0300  0.3144
 8959SOL    HW138513   4.112   4.469   6.266 -2.9773  0.5568  0.4864
 8959SOL    HW238514   4.125   4.536   6.133 -0.9415 -0.6325  0.4461
 8960SOL     OW38515   3.208   4.128   7.600 -0.0780 -0.1910  0.4165
 8960SOL    HW138516   3.213   4.127   7.504  1.7463 -2.0673  0.5296
 8960SOL    HW238517   3.127   4.177   7.620 -0.5731 -0.6862 -0.3925
 8961SOL     OW38518   1.991   1.523  13.533 -0.0211  0.0939 -0.4537
 8961SOL    HW138519   1.940   1.488  13.607 -2.2035  1.9901 -1.0706
 8961SOL    HW238520   2.055   1.584  13.568  0.4152 -1.5793  1.6557
 8962SOL     OW38521   1.089   3.272  14.547 -0.8458  0.5232  0.4864
 8962SOL    HW138522   1.052   3.300  14.631 -0.1509 -1.2166  1.3755
 8962SOL    HW238523   1.012   3.279  14.489 -2.3696  0.1086  2.4610
 8963SOL     OW38524   1.747   0.130   3.612  0.4104  0.1674  0.2962
 8963SOL    HW138525   1.828   0.152   3.659  0.0497 -0.0774  1.0341
 8963SOL    HW238526   1.693   0.206   3.632  1.3685  0.3806  2.1049
 8964SOL     OW38527   4.247   2.229   3.086 -0.1745 -0.6451  0.0793
 8964SOL    HW138528   4.164   2.212   3.041  0.3688 -2.0672 -0.3930
 8964SOL    HW238529   4.324   2.208   3.034 -0.8658  2.9568 -2.3738
 8965SOL     OW38530   1.696   4.304  10.493  0.1872  0.0583 -0.0746
 8965SOL    HW138531   1.676   4.280  10.583 -0.5217  0.2132 -0.1881
 8965SOL    HW238532   1.609   4.330  10.461  0.0865 -0.5460 -0.3037
 8966SOL     OW38533   4.247   0.531   3.311  0.0022  1.1176 -0.1589
 8966SOL    HW138534   4.331   0.525   3.266 -0.1942  2.0809 -0.6443
 8966SOL    HW238535   4.220   0.618   3.281 -4.4383 -1.0919 -2.4295
 8967SOL     OW38536   2.133   0.597   4.395 -0.2055 -0.0172  0.6258
 8967SOL    HW138537   2.126   0.530   4.327 -0.0217  0.3455  0.2570
 8967SOL    HW238538   2.228   0.585   4.407 -0.1340 -0.8528 -0.7954
 8968SOL     OW38539   0.803   4.730   2.231 -0.4730  0.2196 -0.4099
 8968SOL    HW138540   0.793   0.079   2.195 -3.8506 -0.1689 -0.4244
 8968SOL    HW238541   0.898   4.726   2.245 -0.3889  0.5218 -0.9044
 8969SOL     OW38542   0.920   0.054  16.552 -0.3694  0.2462 -0.1433
 8969SOL    HW138543   0.981   0.120  16.584  1.9228 -1.3571 -1.1993
 8969SOL    HW238544   0.887   0.017  16.633 -0.6158 -0.2166 -0.4528
 8970SOL     OW38545   2.705   0.210   7.230 -0.5785  0.0555 -0.0824
 8970SOL    HW138546   2.700   0.208   7.326  1.0509 -1.6827 -0.0342
 8970SOL    HW238547   2.787   0.254   7.211 -1.1516  1.2062  0.1015
 8971SOL     OW38548   1.876   3.500  10.135  0.1872  0.0819  0.6326
 8971SOL    HW138549   1.858   3.593  10.118 -0.7386  0.3909  3.3404
 8971SOL    HW238550   1.875   3.470  10.044  1.2590  0.2996  0.5404
 8972SOL     OW38551   3.520   4.604  14.739 -0.2311  0.6402  0.1823
 8972SOL    HW138552   3.461   4.553  14.795 -0.5843  0.2036 -0.5794
 8972SOL    HW238553   3.455   4.663  14.700 -1.2861 -0.8954 -0.3649
 8973SOL     OW38554   0.410   4.664   4.538  0.0278 -0.4394 -0.1440
 8973SOL    HW138555   0.457   0.006   4.557 -0.1440  0.0546 -1.7935
 8973SOL    HW238556   0.320   4.696   4.549 -0.3064 -1.1777 -0.6842
 8974SOL     OW38557   2.704   0.346   3.474 -0.1259  0.9387  0.3663
 8974SOL    HW138558   2.609   0.352   3.484 -0.3343 -2.6962  0.7727
 8974SOL    HW238559   2.734   0.436   3.467  1.4489  0.5572  2.1491
 8975SOL     OW38560   1.945   4.670   4.337  0.4254  0.7499  0.3444
 8975SOL    HW138561   1.922   4.709   4.253 -1.1676  0.6067  0.7126
 8975SOL    HW238562   2.015   4.607   4.319 -0.9200 -0.1539 -1.6081
 8976SOL     OW38563   4.027   0.384   3.837 -0.5563 -0.2993 -0.1845
 8976SOL    HW138564   4.004   0.327   3.911 -2.0855  1.2470  0.5450
 8976SOL    HW238565   4.099   0.436   3.873 -2.4634  2.6351 -0.6779
 8977SOL     OW38566   2.310   1.258  12.270  0.2683 -0.4920 -0.2355
 8977SOL    HW138567   2.258   1.179  12.285 -0.8595 -0.0623 -1.8365
 8977SOL    HW238568   2.384   1.238  12.327  0.6596 -1.0883 -0.9504
 8978SOL     OW38569   4.610   2.013   3.758 -0.3250  0.0944  0.1686
 8978SOL    HW138570   4.657   1.934   3.730 -0.3925  0.2719 -0.4468
 8978SOL    HW238571   4.652   2.022   3.844  1.4876 -1.0985 -0.5971
 8979SOL     OW38572   3.510   3.546  14.253  0.1591  0.1852 -0.1932
 8979SOL    HW138573   3.461   3.478  14.208  3.9204 -1.6032 -1.6069
 8979SOL    HW238574   3.514   3.598  14.173  1.7016  0.4987  0.0838
 8980SOL     OW38575   4.384   2.767   1.853 -0.6580 -0.4716  0.0046
 8980SOL    HW138576   4.289   2.769   1.844 -0.8177 -0.5300  1.5804
 8980SOL    HW238577   4.413   2.725   1.772  1.7900  1.3030 -0.0691
 8981SOL     OW38578   1.128   1.390   9.561 -0.5905  0.0045  0.5248
 8981SOL    HW138579   1.185   1.467   9.565 -0.7108  0.0615  1.0514
 8981SOL    HW238580   1.161   1.325   9.623 -1.8682 -2.0590 -0.9521
 8982SOL     OW38581   4.042   3.509   6.646  0.0339  0.0024  0.2479
 8982SOL    HW138582   4.059   3.572   6.577  1.4818 -0.5600  0.1040
 8982SOL    HW238583   3.979   3.559   6.698 -0.6196 -0.9497  0.3894
 8983SOL     OW38584   2.470   4.170  16.217  0.0265  0.0590 -0.1219
 8983SOL    HW138585   2.435   4.241  16.271 -0.6490 -0.6212  0.3372
 8983SOL    HW238586   2.405   4.103  16.240 -0.5655  0.0519 -1.8319
 8984SOL     OW38587   3.396   1.738   2.788  0.3878 -0.2768 -0.6420
 8984SOL    HW138588   3.491   1.726   2.797  0.6372 -0.8209 -3.9457
 8984SOL    HW238589   3.376   1.726   2.881 -0.6577  0.7732 -0.7350
 8985SOL     OW38590   2.273   0.281   2.136 -0.7488  0.1466  0.1060
 8985SOL    HW138591   2.284   0.187   2.120 -0.4253  0.5145 -1.8252
 8985SOL    HW238592   2.329   0.293   2.212  0.1534 -2.8539 -0.0529
 8986SOL     OW38593   2.543   2.421   3.208  1.0166 -0.1905 -0.3455
 8986SOL    HW138594   2.532   2.328   3.191 -2.0170 -0.3131  2.3719
 8986SOL    HW238595   2.482   2.456   3.272  1.6468  2.2103 -1.0394
 8987SOL     OW38596   2.062   0.304   3.030  0.0428  0.2242  0.3275
 8987SOL    HW138597   1.997   0.251   2.986  0.2448  0.5469 -0.3627
 8987SOL    HW238598   2.074   0.373   2.964  0.8334  0.0629  0.2965
 8988SOL     OW38599   2.065   1.960   2.749 -0.2150  0.2514  0.5183
 8988SOL    HW138600   2.101   1.975   2.662 -1.3716 -0.9674 -0.1633
 8988SOL    HW238601   2.016   2.042   2.752 -0.3113  0.1869  0.7553
 8989SOL     OW38602   3.386   0.413   4.923 -0.0380  0.5788 -0.0726
 8989SOL    HW138603   3.380   0.402   5.018  0.0909  0.4314 -0.0833
 8989SOL    HW238604   3.404   0.325   4.890 -1.9851 -0.9478  2.9813
 8990SOL     OW38605   0.409   0.748  16.098 -0.0385 -0.2049 -0.3491
 8990SOL    HW138606   0.425   0.838  16.072 -0.8481  0.4625  1.4735
 8990SOL    HW238607   0.315   0.739  16.085 -0.3915  1.8037  0.9114
 8991SOL     OW38608   3.249   1.495   4.878 -0.1467 -0.2683  0.5067
 8991SOL    HW138609   3.177   1.478   4.817 -0.6279 -1.1904  1.3304
 8991SOL    HW238610   3.314   1.514   4.809  1.5211 -2.8058  1.3601
 8992SOL     OW38611   3.080   4.561  10.264  0.2013  0.0640  0.1660
 8992SOL    HW138612   3.091   4.628  10.196  1.9602  0.5674  0.9634
 8992SOL    HW238613   3.078   4.486  10.204 -1.1152 -0.3359  0.7097
 8993SOL     OW38614   3.706   1.956   3.129 -0.2873 -0.3609  0.1760
 8993SOL    HW138615   3.658   1.933   3.208  2.4853  1.2006  2.2864
 8993SOL    HW238616   3.754   2.033   3.161  2.7164 -2.2544  0.1602
 8994SOL     OW38617   3.276   1.824  12.220 -0.9482 -0.3404  0.8510
 8994SOL    HW138618   3.325   1.749  12.253  2.4649  1.0544 -0.9940
 8994SOL    HW238619   3.206   1.773  12.178  0.6717  1.0675 -3.5654
 8995SOL     OW38620   2.193   3.520   5.171 -0.3623 -0.0868  0.4902
 8995SOL    HW138621   2.127   3.453   5.156 -0.4705 -0.0673  0.8864
 8995SOL    HW238622   2.202   3.541   5.264 -3.3306 -1.5247  1.1055
 8996SOL     OW38623   3.438   0.050   3.300 -0.3628 -0.5019  0.0056
 8996SOL    HW138624   3.390   4.723   3.249 -1.3222  0.4722 -0.3558
 8996SOL    HW238625   3.450   0.120   3.237 -1.0530 -0.1995  0.2121
 8997SOL     OW38626   1.778   1.267   2.919 -0.2306  0.5558  0.0731
 8997SOL    HW138627   1.810   1.354   2.943  0.4252  0.1519  0.6886
 8997SOL    HW238628   1.702   1.296   2.870  0.8539 -0.1022 -1.9811
 8998SOL     OW38629   1.151   0.518   2.304 -0.3499 -0.1564  0.4274
 8998SOL    HW138630   1.207   0.594   2.290  2.0414 -2.2238 -1.0412
 8998SOL    HW238631   1.094   0.559   2.370 -0.6383  1.7008 -0.9802
 8999SOL     OW38632   0.710   4.212   5.517  0.1046  0.0042  0.4875
 8999SOL    HW138633   0.774   4.174   5.577  0.6567  0.4215  0.1674
 8999SOL    HW238634   0.668   4.136   5.478 -1.0384 -0.3153  2.3570
 9000SOL     OW38635   4.293   2.754   4.323  0.5418  0.2649 -0.3748
 9000SOL    HW138636   4.343   2.776   4.244  1.8376 -2.3576 -0.2731
 9000SOL    HW238637   4.314   2.662   4.340 -1.1355 -0.0145  0.1785
 9001SOL     OW38638   4.712   0.002   8.113  0.2887 -0.6398  0.2588
 9001SOL    HW138639   0.019   0.043   8.187 -0.4214 -1.5804  1.2165
 9001SOL    HW238640   4.630   4.722   8.157 -0.4325 -0.6096 -1.0900
 9002SOL     OW38641   3.172   4.159   8.310 -0.2881  0.7902  0.5301
 9002SOL    HW138642   3.109   4.217   8.354  1.3502  2.8810  0.1050
 9002SOL    HW238643   3.256   4.182   8.349 -0.1138  1.0752 -0.0239
 9003SOL     OW38644   0.145   0.570  14.924 -0.1669 -0.3579  0.6782
 9003SOL    HW138645   0.149   0.665  14.935 -1.1652 -0.0121 -1.9265
 9003SOL    HW238646   0.109   0.572  14.835  3.6054 -0.1548 -0.8313
 9004SOL     OW38647   0.197   2.263   0.242  0.2017 -1.0098  0.0488
 9004SOL    HW138648   0.266   2.264   0.308  0.1531 -1.3409  0.1047
 9004SOL    HW238649   0.144   2.194   0.282 -2.1873 -1.4049 -3.7035
 9005SOL     OW38650   0.603   4.014  13.350 -0.6643  0.4070  0.2625
 9005SOL    HW138651   0.681   4.054  13.310  0.3837 -2.4711 -0.5820
 9005SOL    HW238652   0.631   3.933  13.393 -0.3527  0.2596 -0.2062
 9006SOL     OW38653   4.293   4.572   4.461 -0.2141 -0.5004 -0.1081
 9006SOL    HW138654   4.268   4.630   4.533  0.1854  0.9040 -1.1096
 9006SOL    HW238655   4.254   4.487   4.481 -2.2549 -0.0452 -2.1617
 9007SOL     OW38656   3.921   2.852   5.947  0.2245  0.0778  0.4277
 9007SOL    HW138657   3.891   2.941   5.964  0.9852  0.5299 -0.6342
 9007SOL    HW238658   3.888   2.804   6.024  0.0687  0.0364  0.3356
 9008SOL     OW38659   2.837   0.990  13.330  0.4307 -0.7118 -0.2726
 9008SOL    HW138660   2.777   1.017  13.261 -0.3139  0.9363  1.0340
 9008SOL    HW238661   2.925   1.017  13.303 -0.0293  3.9782  2.9525
 9009SOL     OW38662   3.227   4.203   7.994 -0.3887  0.4581  0.2493
 9009SOL    HW138663   3.290   4.243   8.054  0.7514 -2.2549  0.8672
 9009SOL    HW238664   3.171   4.146   8.047 -1.7173 -0.1782 -1.8394
 9010SOL     OW38665   3.127   2.321  13.986  0.0050 -0.0939  0.3710
 9010SOL    HW138666   3.110   2.287  13.898  1.6796 -1.2729  0.4994
 9010SOL    HW238667   3.138   2.248  14.046  2.5403 -0.1331 -0.1716
 9011SOL     OW38668   1.824   0.135   1.808 -0.2377 -0.2929 -0.2641
 9011SOL    HW138669   1.903   0.156   1.857  0.4530 -2.7395 -0.3382
 9011SOL    HW238670   1.853   0.053   1.767 -1.3417 -0.5949 -0.4543
 9012SOL     OW38671   1.945   3.017  15.070 -0.7967 -0.1443 -0.2797
 9012SOL    HW138672   1.976   2.950  15.009  0.5364 -0.1398  0.4061
 9012SOL    HW238673   1.915   2.966  15.145  1.2764 -1.9008 -0.6657
 9013SOL     OW38674   2.292   1.584   4.100 -0.1665 -0.1919  0.6339
 9013SOL    HW138675   2.385   1.564   4.106  0.4434  2.0751 -1.1356
 9013SOL    HW238676   2.274   1.623   4.185  0.5014 -1.3394  1.2958
 9014SOL     OW38677   1.827   3.196  14.108 -0.1915 -0.1377  0.0504
 9014SOL    HW138678   1.777   3.242  14.040 -1.5310  1.3764  2.0706
 9014SOL    HW238679   1.873   3.132  14.054 -1.0858 -1.6546  1.1033
 9015SOL     OW38680   0.139   3.609   1.922 -0.0060 -0.2491  0.9597
 9015SOL    HW138681   0.057   3.636   1.963 -2.1509 -1.4391 -2.5700
 9015SOL    HW238682   0.163   3.696   1.889 -1.4660 -0.5562 -0.9386
 9016SOL     OW38683   4.355   1.970   4.638 -0.1364 -0.3877 -0.2664
 9016SOL    HW138684   4.302   1.891   4.651 -0.0333 -0.0574  2.0434
 9016SOL    HW238685   4.444   1.935   4.644 -1.1554 -2.6615  1.4756
 9017SOL     OW38686   1.315   1.335  16.797  0.0551 -0.5796 -0.1458
 9017SOL    HW138687   1.303   1.395  16.870  0.4018 -2.9995  1.9237
 9017SOL    HW238688   1.238   1.278  16.796 -1.7303  1.9343 -2.7247
 9018SOL     OW38689   2.837   3.290   2.265  0.0858 -1.2085 -0.6199
 9018SOL    HW138690   2.920   3.273   2.310  0.1745  0.5869 -0.1081
 9018SOL    HW238691   2.773   3.256   2.327  0.1112  0.9215  0.5725
 9019SOL     OW38692   0.194   3.207   6.404  0.1128  0.1402 -0.5177
 9019SOL    HW138693   0.133   3.139   6.376 -2.3856  1.3993  1.9963
 9019SOL    HW238694   0.135   3.260   6.457  0.1214 -0.5641  0.1824
 9020SOL     OW38695   2.380   4.526   4.882 -0.5324 -0.1548  0.8467
 9020SOL    HW138696   2.290   4.550   4.903  0.0081  0.9345  1.9716
 9020SOL    HW238697   2.368   4.450   4.825  1.2920  0.7623 -0.7591
 9021SOL     OW38698   0.085   4.096   8.254 -0.0431  0.7400 -0.0239
 9021SOL    HW138699   0.069   4.174   8.307 -1.0040 -0.5687  1.5808
 9021SOL    HW238700   0.049   4.124   8.170 -1.0577 -1.6990 -0.4129
 9022SOL     OW38701   0.912   3.253   6.500  0.4548 -0.5083  0.5764
 9022SOL    HW138702   0.946   3.202   6.427 -2.3897 -1.7153  0.0957
 9022SOL    HW238703   0.834   3.201   6.518 -1.2600  1.1579 -2.0672
 9023SOL     OW38704   4.100   2.806   6.928  0.2182  1.1760  0.7953
 9023SOL    HW138705   4.029   2.844   6.875  2.0581  0.8680 -1.9043
 9023SOL    HW238706   4.171   2.856   6.888  0.4577  0.7188  0.6424
 9024SOL     OW38707   0.064   2.172   3.354  0.5158 -0.4446  1.2097
 9024SOL    HW138708   0.009   2.248   3.371 -1.2183 -1.4211 -0.1081
 9024SOL    HW238709   0.148   2.218   3.354  0.0458  0.3893 -1.3990
 9025SOL     OW38710   2.970   2.019   2.181 -0.1678  0.6655 -0.3752
 9025SOL    HW138711   2.991   1.944   2.238  1.7223  3.3698  2.5163
 9025SOL    HW238712   2.905   2.071   2.226  0.6794  1.9116 -0.6024
 9026SOL     OW38713   4.217   2.371   8.904 -0.3042  0.6412 -0.6478
 9026SOL    HW138714   4.153   2.390   8.973 -0.3309  1.7667 -0.9788
 9026SOL    HW238715   4.292   2.424   8.928  1.7735 -2.2180 -0.8113
 9027SOL     OW38716   2.339   0.783  12.166  0.2440 -0.1746  0.2551
 9027SOL    HW138717   2.287   0.818  12.238 -0.8627  1.5490 -1.3697
 9027SOL    HW238718   2.365   0.701  12.208 -0.6918 -1.2120 -1.1885
 9028SOL     OW38719   4.068   1.211   6.357  0.3441 -0.0110  0.7441
 9028SOL    HW138720   3.996   1.262   6.396 -0.0245 -1.2302  1.6774
 9028SOL    HW238721   4.022   1.142   6.309  2.1261 -1.2970  0.9211
 9029SOL     OW38722   1.138   3.342  16.653  0.4118 -0.1554 -0.6323
 9029SOL    HW138723   1.107   3.282  16.585 -3.2351  0.1534  0.7517
 9029SOL    HW238724   1.190   3.290  16.714  0.8127  2.8916  1.6263
 9030SOL     OW38725   0.487   1.264  15.032  0.2492  0.4916 -0.5331
 9030SOL    HW138726   0.507   1.349  15.072 -0.5197  0.4095  0.0139
 9030SOL    HW238727   0.498   1.276  14.938  3.3261 -2.7764 -0.5837
 9031SOL     OW38728   1.845   4.625   2.858  0.0671  0.0077  0.9264
 9031SOL    HW138729   1.834   4.585   2.771 -1.5429  1.6047  0.4023
 9031SOL    HW238730   1.753   4.636   2.883  0.2840  2.2831  0.7172
 9032SOL     OW38731   3.915   1.537   7.015 -0.3380 -0.4473 -0.7938
 9032SOL    HW138732   3.914   1.535   7.111 -1.4008 -0.7981 -0.8139
 9032SOL    HW238733   3.959   1.453   6.999  0.1332 -0.3471 -0.0623
 9033SOL     OW38734   3.192   4.369  14.519 -0.5134 -0.1685  0.1785
 9033SOL    HW138735   3.131   4.362  14.446 -1.2167 -0.2583  0.7788
 9033SOL    HW238736   3.199   4.464  14.521  0.4102 -0.2544  0.9326
 9034SOL     OW38737   4.100   3.959  16.120  0.4716  0.1741 -0.4716
 9034SOL    HW138738   4.004   3.957  16.120  0.4696  0.6080  0.2049
 9034SOL    HW238739   4.125   4.028  16.060  0.0788  0.4252 -0.3483
 9035SOL     OW38740   0.145   2.553   5.127  0.0800 -0.2229  0.4291
 9035SOL    HW138741   0.115   2.518   5.043  0.2758 -0.1333  0.3222
 9035SOL    HW238742   0.146   2.649   5.120  2.7032 -0.2255  0.9083
 9036SOL     OW38743   1.872   4.510   8.068 -0.2525 -0.1979  0.3728
 9036SOL    HW138744   1.816   4.527   7.993 -1.0290  1.0708  1.2435
 9036SOL    HW238745   1.808   4.528   8.138 -1.2450  0.5644 -0.7301
 9037SOL     OW38746   2.796   2.267   7.120 -0.3530  0.2170  0.0621
 9037SOL    HW138747   2.879   2.304   7.150  0.1506 -0.9596  0.1322
 9037SOL    HW238748   2.779   2.221   7.202 -0.3315  0.3880  0.1612
 9038SOL     OW38749   4.014   3.746  12.456 -0.3780  0.1519  0.4863
 9038SOL    HW138750   4.000   3.682  12.386 -1.3084  1.6148 -0.6680
 9038SOL    HW238751   3.959   3.819  12.427  1.2635  2.0973  2.2069
 9039SOL     OW38752   2.177   2.471   5.063 -0.4257 -1.2289  0.1694
 9039SOL    HW138753   2.140   2.520   5.137  0.4812 -2.4297  1.4243
 9039SOL    HW238754   2.271   2.488   5.074 -1.0343  0.9475  2.0459
 9040SOL     OW38755   3.652   0.734   1.477  0.1330 -0.2085  0.2196
 9040SOL    HW138756   3.638   0.821   1.441  0.3010  0.5763  2.0598
 9040SOL    HW238757   3.590   0.721   1.548  0.8449 -2.5753  0.4201
 9041SOL     OW38758   2.019   3.333  13.246  0.2777  0.0734 -0.2588
 9041SOL    HW138759   2.028   3.318  13.152 -2.7010 -0.9561 -0.3778
 9041SOL    HW238760   1.994   3.426  13.240 -1.0498 -0.2313  0.6343
 9042SOL     OW38761   3.905   1.854   3.774  0.6135  0.0124  0.1692
 9042SOL    HW138762   3.962   1.782   3.748 -1.0578 -1.0195 -0.6410
 9042SOL    HW238763   3.830   1.809   3.814  0.2732  0.5712  0.1656
 9043SOL     OW38764   4.382   0.752  15.951  0.0799 -0.4379  0.7837
 9043SOL    HW138765   4.291   0.757  15.980  0.1404  0.7286  0.7818
 9043SOL    HW238766   4.382   0.662  15.921 -3.2822 -0.4931  0.9766
 9044SOL     OW38767   0.963   3.261   4.589 -0.5282  0.4521 -0.2862
 9044SOL    HW138768   0.949   3.337   4.645 -0.4662 -0.2496  0.6993
 9044SOL    HW238769   1.028   3.218   4.645  1.0611 -0.2890 -2.6981
 9045SOL     OW38770   0.924   0.441   4.890 -0.5070  0.7573 -0.3237
 9045SOL    HW138771   0.916   0.348   4.871  1.5939  0.2428  1.2877
 9045SOL    HW238772   0.874   0.449   4.971  0.6014 -2.0691  0.6397
 9046SOL     OW38773   2.490   0.755  11.282 -0.1582 -0.3634  0.3592
 9046SOL    HW138774   2.431   0.716  11.218 -0.6873  0.0438  0.5991
 9046SOL    HW238775   2.438   0.824  11.324  1.2289  0.0093  1.4897
 9047SOL     OW38776   1.692   4.486   3.136 -0.4943  0.0852 -0.1154
 9047SOL    HW138777   1.602   4.509   3.157 -0.5450 -0.1744 -0.0483
 9047SOL    HW238778   1.669   4.411   3.081  0.0337 -0.0375 -0.1747
 9048SOL     OW38779   0.083   0.237   8.239 -0.5437  0.4678 -0.1447
 9048SOL    HW138780   0.162   0.284   8.267  0.0370 -0.6853  0.1135
 9048SOL    HW238781   0.044   0.283   8.164  0.0300 -0.6144 -1.1113
 9049SOL     OW38782   1.369   4.121   5.524 -0.2862 -0.0301  0.1184
 9049SOL    HW138783   1.408   4.097   5.608  0.2933 -0.6696 -0.3277
 9049SOL    HW238784   1.277   4.117   5.550 -0.3913 -0.2697 -0.2873
 9050SOL     OW38785   1.702   0.358  10.055 -0.0937 -0.2880 -0.3583
 9050SOL    HW138786   1.652   0.309   9.990 -0.7175 -0.1594  0.0228
 9050SOL    HW238787   1.645   0.348  10.131  1.0247 -1.6464  0.2975
 9051SOL     OW38788   3.330   3.633   2.355 -0.3186 -0.1947 -0.3122
 9051SOL    HW138789   3.340   3.599   2.444 -0.4415  2.8832  0.8636
 9051SOL    HW238790   3.280   3.711   2.379  0.1960 -0.1665  0.6696
 9052SOL     OW38791   0.282   4.426   8.287  0.0648  0.1088  0.5457
 9052SOL    HW138792   0.292   4.353   8.226 -1.1895 -1.0839  1.7839
 9052SOL    HW238793   0.205   4.459   8.242 -0.7552 -0.1436  1.7692
 9053SOL     OW38794   0.158   1.137   6.773 -0.5100  0.4147 -0.4473
 9053SOL    HW138795   0.159   1.047   6.806  3.3710  0.5294 -0.2721
 9053SOL    HW238796   0.235   1.145   6.717  0.6048  1.3750  1.2169
 9054SOL     OW38797   2.425   2.683   6.838 -0.4930 -1.2852 -0.0928
 9054SOL    HW138798   2.384   2.608   6.795 -1.7248  0.4791 -1.9875
 9054SOL    HW238799   2.423   2.729   6.754 -0.8062 -3.6178 -1.3657
 9055SOL     OW38800   4.272   3.473  10.070  0.5677  1.0332  0.7310
 9055SOL    HW138801   4.233   3.465  10.157 -0.3498  1.7008  0.3787
 9055SOL    HW238802   4.278   3.567  10.056 -1.7687  1.2736  1.4098
 9056SOL     OW38803   4.400   1.506   3.413  0.3794  0.3376  0.6243
 9056SOL    HW138804   4.427   1.499   3.321  2.0096  3.8737  0.8330
 9056SOL    HW238805   4.487   1.495   3.451  0.5473 -0.7714 -0.0889
 9057SOL     OW38806   4.150   1.528   0.721  0.0270 -0.8797  0.0607
 9057SOL    HW138807   4.129   1.479   0.800  2.1868 -0.8323  0.6713
 9057SOL    HW238808   4.180   1.612   0.754 -0.5647 -0.1435 -1.2938
 9058SOL     OW38809   2.506   3.671   7.500  0.2767 -0.4231  0.0703
 9058SOL    HW138810   2.473   3.625   7.422 -2.6002  1.7923 -0.0430
 9058SOL    HW238811   2.598   3.673   7.476 -0.0091  0.5832 -0.9934
 9059SOL     OW38812   4.287   3.598   3.285 -0.4944 -0.2923  0.1894
 9059SOL    HW138813   4.199   3.559   3.282 -0.4104 -0.5885  1.9881
 9059SOL    HW238814   4.281   3.684   3.243  3.8596  1.0394  2.4157
 9060SOL     OW38815   3.414   1.720   5.234 -0.6925  0.1084 -0.1481
 9060SOL    HW138816   3.468   1.642   5.247  0.9637  1.4693  1.1175
 9060SOL    HW238817   3.377   1.715   5.322 -0.7727  0.1985 -0.1767
 9061SOL     OW38818   3.637   0.784   3.931 -0.0609 -0.0504 -0.3034
 9061SOL    HW138819   3.623   0.867   3.886  2.7052  0.8952  0.5648
 9061SOL    HW238820   3.641   0.714   3.865  0.1568 -1.7686  1.5236
 9062SOL     OW38821   2.812   0.012   7.088 -0.0245  0.3593 -0.2042
 9062SOL    HW138822   2.781   4.679   7.143  3.1273 -0.1045  0.9676
 9062SOL    HW238823   2.764   0.088   7.120 -2.3268 -1.1346 -0.1485
 9063SOL     OW38824   2.422   4.670   9.089  0.0124 -0.0948 -0.4009
 9063SOL    HW138825   2.474   4.636   9.017 -1.9050 -0.6889 -1.5023
 9063SOL    HW238826   2.385   4.587   9.120  1.0985 -0.9047 -1.2813
 9064SOL     OW38827   4.049   2.101   7.859 -0.2626  0.0041 -0.0903
 9064SOL    HW138828   4.047   2.182   7.910  0.8619  0.2473 -0.4227
 9064SOL    HW238829   3.992   2.126   7.787 -1.2561 -1.2840  0.2503
 9065SOL     OW38830   1.072   0.643   1.759  0.0211 -0.2461  0.6921
 9065SOL    HW138831   1.078   0.548   1.748 -2.8628 -0.4618  0.7474
 9065SOL    HW238832   1.154   0.675   1.724 -1.5056  1.0278 -1.6822
 9066SOL     OW38833   1.544   0.303   6.096 -0.0049  0.0810  0.5119
 9066SOL    HW138834   1.564   0.343   6.181  2.1327 -0.1015  0.0881
 9066SOL    HW238835   1.466   0.351   6.068 -0.6483 -2.8042 -2.7185
 9067SOL     OW38836   3.599   1.908   8.360  0.1714  0.4350 -0.0402
 9067SOL    HW138837   3.622   1.959   8.283  0.1920 -1.5057 -1.3262
 9067SOL    HW238838   3.682   1.869   8.388 -0.2153 -0.5724 -0.2723
 9068SOL     OW38839   4.508   2.092   5.993 -0.1549 -0.3593  0.1119
 9068SOL    HW138840   4.539   2.002   5.987 -0.5362 -0.5842  1.4782
 9068SOL    HW238841   4.539   2.127   6.076 -0.2426  1.4257 -0.6104
 9069SOL     OW38842   1.107   4.168   4.036  0.0569 -0.0684  0.1202
 9069SOL    HW138843   1.183   4.218   4.066  0.9406 -1.4389  0.2135
 9069SOL    HW238844   1.048   4.238   4.011 -0.5452 -0.4613  0.4553
 9070SOL     OW38845   1.029   1.074   8.341  0.3450 -0.2416  0.1635
 9070SOL    HW138846   0.973   1.145   8.311 -0.5198 -1.5478 -1.3079
 9070SOL    HW238847   0.999   1.074   8.432 -0.3102 -1.1064 -0.0578
 9071SOL     OW38848   2.423   1.825  13.732 -0.5297 -0.0931 -0.2902
 9071SOL    HW138849   2.511   1.792  13.713 -0.3186  0.9151 -1.0684
 9071SOL    HW238850   2.423   1.812  13.827 -0.0278 -0.7254 -0.3804
 9072SOL     OW38851   1.480   0.225   3.886 -0.5538  0.7287  0.2899
 9072SOL    HW138852   1.503   0.265   3.802 -0.8816 -1.8364 -1.0430
 9072SOL    HW238853   1.416   0.288   3.919 -1.9692 -1.0508  0.9904
 9073SOL     OW38854   0.090   4.646  12.444 -0.1514  0.0162 -0.4227
 9073SOL    HW138855   0.168   4.616  12.491  0.1302  0.6149 -0.5043
 9073SOL    HW238856   0.050   4.563  12.419  2.1025 -1.7052  1.6797
 9074SOL     OW38857   4.630   0.585   6.414  0.0201 -0.0193 -0.1275
 9074SOL    HW138858   4.694   0.606   6.346  1.6777 -0.9373  1.1741
 9074SOL    HW238859   4.558   0.642   6.387 -0.8908  0.4283  3.2628
 9075SOL     OW38860   3.240   4.055   3.577  0.1690 -0.2383 -0.5137
 9075SOL    HW138861   3.174   4.124   3.578  1.3718  0.8862  0.3165
 9075SOL    HW238862   3.197   3.981   3.534 -2.0110  0.4779  0.4150
 9076SOL     OW38863   3.640   0.474   2.040  0.0046 -0.1819 -0.1208
 9076SOL    HW138864   3.694   0.527   2.099 -1.8862  0.8281  0.7300
 9076SOL    HW238865   3.676   0.484   1.953  1.0879  0.0135  0.3547
 9077SOL     OW38866   2.399   0.182   5.261 -0.0284  0.0238  0.0097
 9077SOL    HW138867   2.332   0.145   5.318 -0.5187 -0.2004 -0.7163
 9077SOL    HW238868   2.479   0.149   5.303  0.2619  1.2919  0.4763
 9078SOL     OW38869   4.361   4.069  11.018  0.0898  0.3941 -0.5361
 9078SOL    HW138870   4.286   4.092  11.073 -0.1404  0.7506 -0.9984
 9078SOL    HW238871   4.314   4.023  10.948 -0.3335 -2.1934  1.4308
 9079SOL     OW38872   2.153   2.806   4.172  0.0939 -0.1884  0.4796
 9079SOL    HW138873   2.153   2.784   4.079  1.9157 -0.3811  0.5351
 9079SOL    HW238874   2.241   2.792   4.205  0.2582  1.7410  0.8766
 9080SOL     OW38875   4.723   1.273   8.798 -0.4120 -0.0158  0.4736
 9080SOL    HW138876   0.024   1.209   8.857 -0.6713  0.0721  0.7442
 9080SOL    HW238877   0.060   1.324   8.769  0.9715 -2.7348 -0.6314
 9081SOL     OW38878   4.337   2.566   6.964  0.5955  1.0336  0.1335
 9081SOL    HW138879   4.295   2.618   6.895 -0.5214  0.8860  0.7019
 9081SOL    HW238880   4.428   2.585   6.939  1.5831 -0.3490  2.6630
 9082SOL     OW38881   1.414   3.706   2.851 -0.3575  0.1332  0.3172
 9082SOL    HW138882   1.335   3.716   2.905 -1.1867 -0.2652 -0.8365
 9082SOL    HW238883   1.383   3.754   2.775 -0.6121  0.9234  0.9235
 9083SOL     OW38884   4.163   1.100   3.835  0.7202 -0.5324 -0.9074
 9083SOL    HW138885   4.208   1.018   3.854  0.4889 -0.3574  0.3410
 9083SOL    HW238886   4.156   1.132   3.924 -1.3289 -2.4631 -0.3823
 9084SOL     OW38887   4.100   1.943   8.091 -0.4180 -0.0988 -0.7034
 9084SOL    HW138888   4.120   1.871   8.031  2.2158  1.5708 -1.8227
 9084SOL    HW238889   4.073   2.009   8.028  0.5993 -0.8104 -1.8715
 9085SOL     OW38890   0.993   2.685   6.782 -0.0111  0.4515  0.1544
 9085SOL    HW138891   1.047   2.624   6.831  2.0928  1.3942 -0.9725
 9085SOL    HW238892   0.994   2.655   6.691 -3.7359  1.3936 -0.2061
 9086SOL     OW38893   2.183   0.376   9.022 -0.2421 -0.3714 -0.1388
 9086SOL    HW138894   2.182   0.453   9.079 -1.3216  0.5839 -1.4369
 9086SOL    HW238895   2.215   0.308   9.080 -1.9933 -0.9123  0.1778
 9087SOL     OW38896   1.712   4.170   6.623 -0.2314  0.4274 -0.5804
 9087SOL    HW138897   1.750   4.245   6.577 -0.8327  0.3673 -1.1659
 9087SOL    HW238898   1.787   4.134   6.670 -0.1059  1.2729 -0.1276
 9088SOL     OW38899   0.425   4.330   9.894  0.2127 -0.4809  0.6260
 9088SOL    HW138900   0.479   4.322   9.815  0.0405 -0.2675  0.4876
 9088SOL    HW238901   0.373   4.250   9.885 -0.0516 -0.2489  0.1254
 9089SOL     OW38902   2.895   2.710  11.010  0.6031 -0.1572  0.1542
 9089SOL    HW138903   2.859   2.692  10.923 -0.4746 -0.8873  0.7550
 9089SOL    HW238904   2.875   2.632  11.062 -0.3919  0.3116  0.4857
 9090SOL     OW38905   2.165   2.060   3.505 -0.4328  0.4277 -0.2913
 9090SOL    HW138906   2.244   2.063   3.451 -0.4873  4.4265 -0.1695
 9090SOL    HW238907   2.174   1.969   3.535  0.4274  1.3211  2.1475
 9091SOL     OW38908   3.113   2.434  12.106  0.2482  0.3145 -0.0631
 9091SOL    HW138909   3.207   2.423  12.121 -0.3555 -2.7770  1.5287
 9091SOL    HW238910   3.099   2.506  12.168  0.9545 -2.0884  2.8846
 9092SOL     OW38911   3.918   4.022  12.649 -0.1350 -0.3751 -0.0261
 9092SOL    HW138912   3.993   4.019  12.709  0.5726  1.3521 -0.8126
 9092SOL    HW238913   3.971   4.061  12.579  0.2718 -0.0241  0.4773
 9093SOL     OW38914   2.579   1.591   5.367  0.2627 -0.7495 -0.4879
 9093SOL    HW138915   2.516   1.643   5.418 -1.1214 -1.5136 -1.4062
 9093SOL    HW238916   2.516   1.522   5.347 -0.3931 -0.6106  1.1364
 9094SOL     OW38917   0.752   3.133   8.328 -0.5673 -0.1791  0.0111
 9094SOL    HW138918   0.755   3.127   8.232  1.5670  1.5190 -0.0318
 9094SOL    HW238919   0.844   3.120   8.350 -0.8832 -3.0177 -0.2684
 9095SOL     OW38920   1.775   4.579   8.318 -0.2028  0.2936 -0.0558
 9095SOL    HW138921   1.700   4.579   8.378  0.3410  1.2447  0.6237
 9095SOL    HW238922   1.842   4.544   8.376  0.0763  0.6032 -0.1931
 9096SOL     OW38923   2.724   0.680   8.810  0.4493 -0.3209  0.1880
 9096SOL    HW138924   2.696   0.768   8.836 -1.9810 -1.0241  0.0084
 9096SOL    HW238925   2.644   0.627   8.807 -0.1758  0.6841 -0.9895
 9097SOL     OW38926   2.502   4.678  15.250  0.2288 -0.0597  0.3002
 9097SOL    HW138927   2.585   4.661  15.206 -1.7895 -1.3020 -3.0126
 9097SOL    HW238928   2.473   0.027  15.227  1.3524 -0.3483 -2.1781
 9098SOL     OW38929   2.307   2.494   8.286  0.2317 -0.4141  0.0930
 9098SOL    HW138930   2.360   2.451   8.219 -1.3683  1.8271 -2.5873
 9098SOL    HW238931   2.359   2.478   8.364  1.5646 -0.9942 -0.9174
 9099SOL     OW38932   2.221   4.038  17.468 -0.3729 -0.0868  0.5083
 9099SOL    HW138933   2.137   3.998  17.441  0.2541 -1.8138  1.0881
 9099SOL    HW238934   2.216   4.124  17.426  3.2791  0.3461  1.0252
 9100SOL     OW38935   3.340   1.841   2.281 -0.5251 -0.1816 -0.3127
 9100SOL    HW138936   3.370   1.892   2.356 -1.4471 -2.9298  1.9043
 9100SOL    HW238937   3.247   1.838   2.305 -0.7690  0.2519 -1.1876
 9101SOL     OW38938   3.077   2.079   4.406  0.6060  0.4477 -0.1045
 9101SOL    HW138939   3.064   2.153   4.465  2.2813 -1.0492  2.1266
 9101SOL    HW238940   3.008   2.082   4.339 -0.4601 -1.8917  0.8606
 9102SOL     OW38941   0.703   2.485  17.296  0.4308  0.4711  0.2612
 9102SOL    HW138942   0.628   2.543  17.314 -0.6347 -0.5598 -0.8137
 9102SOL    HW238943   0.763   2.552  17.263  0.9856 -0.5281 -0.7379
 9103SOL     OW38944   3.882   3.705   1.428 -0.5089  0.9147 -0.4310
 9103SOL    HW138945   3.882   3.799   1.407  0.3567  0.8366 -0.8029
 9103SOL    HW238946   3.872   3.701   1.523 -1.7924 -0.4139 -0.6220
 9104SOL     OW38947   3.531   3.417  13.449 -0.2138 -0.3010  0.0220
 9104SOL    HW138948   3.625   3.428  13.436 -0.3872  1.3244  0.0956
 9104SOL    HW238949   3.497   3.506  13.436 -1.1135 -0.7507 -0.6465
 9105SOL     OW38950   1.401   2.399   8.598 -0.0681 -0.3704 -0.1390
 9105SOL    HW138951   1.465   2.463   8.567  0.2209 -2.3258 -3.5048
 9105SOL    HW238952   1.313   2.435   8.585  1.5360  3.7858  0.4608
 9106SOL     OW38953   3.754   0.504  17.409 -0.0735  0.1844 -0.0928
 9106SOL    HW138954   3.830   0.491  17.466 -0.8398 -2.2166  0.3798
 9106SOL    HW238955   3.686   0.508  17.477  0.2643 -1.7567  0.3501
 9107SOL     OW38956   4.624   4.052  15.319 -0.1438  0.1552  0.4219
 9107SOL    HW138957   4.719   4.040  15.308 -0.1151  0.2018  0.6090
 9107SOL    HW238958   4.595   3.961  15.325  0.6308 -0.2196 -1.3235
 9108SOL     OW38959   2.128   3.258   7.797  0.0311 -0.4677 -0.3574
 9108SOL    HW138960   2.195   3.234   7.861  0.5537  0.4841 -0.5459
 9108SOL    HW238961   2.185   3.277   7.722  1.1841  0.9931  0.8798
 9109SOL     OW38962   4.379   1.198   2.861  0.1059 -0.9149 -0.3406
 9109SOL    HW138963   4.419   1.281   2.889 -1.2616 -0.4812  0.3146
 9109SOL    HW238964   4.365   1.152   2.944 -0.0701  1.6306  1.0636
 9110SOL     OW38965   0.867   3.132  15.705  0.0386 -0.1333 -0.0222
 9110SOL    HW138966   0.826   3.086  15.779  0.9503  1.0205  1.2164
 9110SOL    HW238967   0.961   3.129  15.725  0.5446  4.3814 -1.7160
 9111SOL     OW38968   3.168   0.192   5.639  0.3394  0.4612 -0.9282
 9111SOL    HW138969   3.228   0.127   5.677  0.8818  1.2405 -0.4498
 9111SOL    HW238970   3.229   0.259   5.610  0.5370  1.3321  1.5290
 9112SOL     OW38971   4.065   3.786   9.666  0.0416  0.1414 -0.5434
 9112SOL    HW138972   4.056   3.691   9.669  0.8362  0.0918  0.0830
 9112SOL    HW238973   3.975   3.817   9.654 -0.3388 -0.3470  1.1006
 9113SOL     OW38974   3.130   3.720   4.333  0.1054  0.0876 -0.1880
 9113SOL    HW138975   3.135   3.714   4.237 -0.7971 -1.0704 -0.1596
 9113SOL    HW238976   3.049   3.770   4.346 -0.6825 -0.9928 -0.8440
 9114SOL     OW38977   2.687   4.316   5.631 -0.0551  0.3928  0.3387
 9114SOL    HW138978   2.682   4.410   5.613  1.2954  1.1834  4.1022
 9114SOL    HW238979   2.778   4.317   5.660  0.4326 -1.8747 -1.0522
 9115SOL     OW38980   4.297   1.221   7.051  0.0348 -0.4720 -0.0471
 9115SOL    HW138981   4.287   1.284   7.122  2.2058 -0.6986  0.4592
 9115SOL    HW238982   4.214   1.231   7.003  1.4918  0.8469 -2.2371
 9116SOL     OW38983   4.589   4.730   3.088  0.7115 -0.2982  0.2197
 9116SOL    HW138984   4.673   4.692   3.062  1.8994  1.5897  1.3495
 9116SOL    HW238985   4.583   4.686   3.172 -0.2749 -0.7913 -0.1005
 9117SOL     OW38986   2.332   1.437   6.739 -0.5467  0.0780 -0.4132
 9117SOL    HW138987   2.369   1.379   6.805  1.1479 -0.1847 -1.5789
 9117SOL    HW238988   2.336   1.518   6.790 -1.5558 -0.8184  1.0841
 9118SOL     OW38989   4.470   3.633   0.600  0.0069  0.2651 -0.1558
 9118SOL    HW138990   4.558   3.623   0.563  0.2234  1.5241  0.0108
 9118SOL    HW238991   4.408   3.629   0.527  3.0027 -0.5590 -2.6801
 9119SOL     OW38992   4.037   3.074  13.877 -0.1817 -0.3141  0.0191
 9119SOL    HW138993   4.112   3.132  13.887 -0.2045 -0.7053  2.4600
 9119SOL    HW238994   3.979   3.109  13.944  2.0776 -1.6942  2.6849
 9120SOL     OW38995   2.155   4.188  10.023  0.0835  0.7045  0.6079
 9120SOL    HW138996   2.088   4.251   9.997 -0.5803 -0.3152 -0.1445
 9120SOL    HW238997   2.227   4.251  10.014  1.0845 -0.5286  0.0044
 9121SOL     OW38998   0.876   3.349  10.674 -0.5321  0.3778  0.3631
 9121SOL    HW138999   0.969   3.331  10.660 -0.5515 -1.3244  2.3825
 9121SOL    HW239000   0.881   3.426  10.732 -1.2960 -1.2754  2.6348
 9122SOL     OW39001   4.305   2.668   9.813 -0.4843  0.0912  0.3952
 9122SOL    HW139002   4.311   2.741   9.876 -0.6255 -0.2793  0.8410
 9122SOL    HW239003   4.271   2.598   9.869  1.0127  0.3418  1.6324
 9123SOL     OW39004   2.297   3.190   8.155 -0.1037 -0.1647 -0.1372
 9123SOL    HW139005   2.284   3.136   8.077 -1.5520 -0.2639  0.1604
 9123SOL    HW239006   2.318   3.275   8.118  2.2508 -1.3677 -1.5471
 9124SOL     OW39007   3.701   0.703   3.026  0.0634  0.0853  0.1400
 9124SOL    HW139008   3.769   0.673   2.966  0.2481  0.0441  0.3705
 9124SOL    HW239009   3.643   0.748   2.964 -2.9262 -2.3490  1.1959
 9125SOL     OW39010   1.551   3.015   5.126 -0.4370  0.2782 -0.4760
 9125SOL    HW139011   1.496   2.966   5.186  0.0558 -1.3091 -1.3293
 9125SOL    HW239012   1.490   3.084   5.099 -0.0216  0.1250 -1.7698
 9126SOL     OW39013   0.565   2.822  15.638 -0.1255 -0.1388 -0.4433
 9126SOL    HW139014   0.632   2.754  15.636  1.4145  1.4286 -1.4340
 9126SOL    HW239015   0.529   2.809  15.550  1.1751  0.5342 -1.0559
 9127SOL     OW39016   2.775   0.117  13.302 -0.2596 -0.0950 -0.2589
 9127SOL    HW139017   2.839   0.128  13.373  0.8952 -2.7434 -0.8775
 9127SOL    HW239018   2.737   0.029  13.302  0.7450 -0.5390  0.4873
 9128SOL     OW39019   1.423   2.330   2.845  0.4280  0.4115 -0.3388
 9128SOL    HW139020   1.466   2.321   2.930  1.6785 -0.6602 -1.0867
 9128SOL    HW239021   1.477   2.277   2.787  0.4051 -0.0250  0.0358
 9129SOL     OW39022   3.691   3.597   7.545 -0.8263 -0.3947  0.0006
 9129SOL    HW139023   3.700   3.584   7.640  0.3210 -0.1683 -0.0714
 9129SOL    HW239024   3.664   3.689   7.552  0.1747 -0.0779 -0.3402
 9130SOL     OW39025   4.094   2.133   2.228  0.8032  0.4442 -0.5559
 9130SOL    HW139026   4.187   2.112   2.216  0.7771 -0.0487  0.0969
 9130SOL    HW239027   4.094   2.200   2.296  1.1180  0.8358 -0.9403
 9131SOL     OW39028   4.400   1.993   8.581  0.0890 -0.0976  0.0462
 9131SOL    HW139029   4.363   1.959   8.662 -0.1300 -0.8726 -0.3807
 9131SOL    HW239030   4.419   2.079   8.620  0.6487  0.1509 -0.7651
 9132SOL     OW39031   4.588   1.774  17.716  0.0101  0.0173  0.0718
 9132SOL    HW139032   4.572   1.795  17.624 -0.4375 -2.7144 -0.4880
 9132SOL    HW239033   4.588   1.859   0.004 -0.1993 -0.4730  1.0450
 9133SOL     OW39034   4.227   1.848   3.843 -0.6579  0.0191  0.1959
 9133SOL    HW139035   4.199   1.924   3.791  2.5224  0.9331 -0.1594
 9133SOL    HW239036   4.171   1.780   3.806  0.4357 -0.1635 -1.1120
 9134SOL     OW39037   4.381   0.668   4.598 -0.0071  0.0603 -0.2705
 9134SOL    HW139038   4.357   0.598   4.659 -0.2023  0.3205 -0.0492
 9134SOL    HW239039   4.297   0.660   4.552  0.0018  0.7633 -0.4049
 9135SOL     OW39040   3.965   0.735   3.966 -0.7510 -0.1206 -0.3612
 9135SOL    HW139041   3.926   0.650   3.986  1.4381 -0.7931  1.0599
 9135SOL    HW239042   3.885   0.772   3.929  0.8075  0.4222 -3.1920
 9136SOL     OW39043   0.988   4.668  15.882  0.5167  0.2257  0.4460
 9136SOL    HW139044   0.905   4.634  15.848  0.9774  1.9403 -2.4119
 9136SOL    HW239045   1.019   4.602  15.944  0.2766  0.2529  0.5988
 9137SOL     OW39046   3.115   1.701   5.562  0.2149  0.0626  0.3593
 9137SOL    HW139047   3.122   1.656   5.646 -1.1175  0.1472  0.5031
 9137SOL    HW239048   3.206   1.691   5.534 -0.1243 -2.8165  0.3325
 9138SOL     OW39049   0.278   2.622   7.293 -0.0459  0.1295 -0.2905
 9138SOL    HW139050   0.309   2.614   7.203  1.0681  1.1811  0.0009
 9138SOL    HW239051   0.352   2.583   7.339  0.2388  0.4960 -0.4452
 9139SOL     OW39052   2.141   2.393   0.320 -0.7733 -0.3233  0.2110
 9139SOL    HW139053   2.094   2.366   0.241  0.7455  0.1069 -0.8244
 9139SOL    HW239054   2.119   2.321   0.380 -0.7951 -1.0057 -0.6139
 9140SOL     OW39055   3.403   3.555   8.835  0.5233 -0.7245  0.0836
 9140SOL    HW139056   3.488   3.578   8.875  0.6908 -1.5808  0.2198
 9140SOL    HW239057   3.386   3.628   8.776 -0.0973  0.3296  1.5708
 9141SOL     OW39058   1.612   0.676   0.421 -0.2614  1.2205 -0.8495
 9141SOL    HW139059   1.682   0.691   0.358  1.0439  0.5347  0.4427
 9141SOL    HW239060   1.579   0.595   0.382  3.1661  0.0527 -1.2778
 9142SOL     OW39061   2.008   4.735   5.440 -0.2117 -0.2095 -0.0847
 9142SOL    HW139062   2.020   4.656   5.387 -1.6746 -1.2030  1.0561
 9142SOL    HW239063   1.916   0.020   5.430 -0.5548 -1.2287  0.5696
 9143SOL     OW39064   3.218   0.604   8.011 -0.2282  0.0161  0.4186
 9143SOL    HW139065   3.166   0.627   7.934  0.0942  0.7892  0.4350
 9143SOL    HW239066   3.156   0.622   8.081 -0.5672  0.6971 -0.0621
 9144SOL     OW39067   3.109   0.108  13.427  0.0452  0.3821 -0.2826
 9144SOL    HW139068   3.035   0.160  13.458  1.2529  1.7005  0.3876
 9144SOL    HW239069   3.184   0.159  13.459  2.8671 -2.1610 -2.8081
 9145SOL     OW39070   2.086   3.207   6.436 -0.3318 -0.2499 -0.3018
 9145SOL    HW139071   1.990   3.198   6.440 -0.3035 -0.5532 -0.3427
 9145SOL    HW239072   2.081   3.265   6.360  0.2390 -2.0559 -1.7256
 9146SOL     OW39073   0.729   3.569  10.093 -0.4383  0.4041 -0.4366
 9146SOL    HW139074   0.684   3.515  10.158  1.4990  0.3017  0.8054
 9146SOL    HW239075   0.680   3.548  10.013 -1.0693  0.4611 -0.0710
 9147SOL     OW39076   2.590   3.977   6.221  0.2579 -0.3043  0.4984
 9147SOL    HW139077   2.557   3.968   6.131  0.1581 -1.0341  0.6074
 9147SOL    HW239078   2.506   3.995   6.264  1.4047  0.6290  2.3482
 9148SOL     OW39079   2.579   3.904   6.967  0.0660  0.2010 -0.0880
 9148SOL    HW139080   2.534   3.924   6.885  0.3446  0.7776 -0.1063
 9148SOL    HW239081   2.607   3.990   6.999  0.8599  0.0075 -0.2459
 9149SOL     OW39082   2.468   0.080  13.407  0.0470 -0.4687 -0.5243
 9149SOL    HW139083   2.420   0.106  13.486  3.5840  1.6062  0.9187
 9149SOL    HW239084   2.546   0.043  13.447 -0.2369 -1.7257 -1.1402
 9150SOL     OW39085   4.039   2.420   4.969  0.3427  0.3670 -0.0672
 9150SOL    HW139086   4.096   2.346   4.989 -1.2968 -0.7940  0.3106
 9150SOL    HW239087   3.997   2.400   4.885 -1.3601 -3.5118  1.7080
 9151SOL     OW39088   4.594   2.258   4.949 -0.1609  0.4583  0.1472
 9151SOL    HW139089   4.679   2.241   4.990 -0.1456  0.6315  0.1874
 9151SOL    HW239090   4.605   2.224   4.860 -0.3605 -3.2253  1.5270
 9152SOL     OW39091   3.803   0.688   8.534  0.0779  0.0056 -0.0455
 9152SOL    HW139092   3.811   0.728   8.448 -1.6676 -2.9956 -1.6010
 9152SOL    HW239093   3.806   0.594   8.518  1.3334 -0.0905  0.7321
 9153SOL     OW39094   2.123   0.125   1.904 -0.2573  0.4436 -0.9772
 9153SOL    HW139095   2.128   0.106   1.998  4.0037  1.5162 -0.9679
 9153SOL    HW239096   2.163   0.043   1.876 -1.5572  0.0375 -1.6500
 9154SOL     OW39097   3.577   0.934   6.207  0.2656 -0.7191 -0.4810
 9154SOL    HW139098   3.657   0.901   6.248  1.1101  1.3057 -0.5058
 9154SOL    HW239099   3.513   0.906   6.272 -1.7613  2.0182 -1.3188
 9155SOL     OW39100   1.841   0.714   6.077 -0.0375  0.3042 -0.0129
 9155SOL    HW139101   1.894   0.643   6.114 -1.7567 -1.3271 -0.6679
 9155SOL    HW239102   1.787   0.728   6.154 -2.1640  0.9445 -1.5980
 9156SOL     OW39103   3.065   1.207   6.831  0.0480  0.1319  0.1854
 9156SOL    HW139104   3.010   1.227   6.755  0.9671  4.4532  0.6841
 9156SOL    HW239105   3.049   1.114   6.847  0.7012 -0.3417 -2.0514
 9157SOL     OW39106   1.523   3.261   3.450  0.5344  0.0749  0.3214
 9157SOL    HW139107   1.550   3.178   3.409 -1.3411 -0.0085 -0.7423
 9157SOL    HW239108   1.430   3.246   3.469  0.5744 -1.3422 -0.5543
 9158SOL     OW39109   0.807   1.481   1.452  0.1568  0.5669  0.0552
 9158SOL    HW139110   0.881   1.540   1.467  0.7739 -0.6101  1.5931
 9158SOL    HW239111   0.792   1.468   1.546 -2.6324  2.7352 -0.1177
 9159SOL     OW39112   3.284   1.594   9.241  0.8281  0.3322 -0.4134
 9159SOL    HW139113   3.363   1.642   9.217  0.8423  0.1388 -0.7693
 9159SOL    HW239114   3.320   1.512   9.275 -0.9803  0.0715  0.9031
 9160SOL     OW39115   2.265   2.148   2.230  0.3475 -0.1534 -0.5487
 9160SOL    HW139116   2.173   2.143   2.204 -0.0803 -1.0641  1.1268
 9160SOL    HW239117   2.275   2.234   2.269  1.4019 -1.7366  2.6329
 9161SOL     OW39118   4.215   1.460   4.831 -0.2994 -0.2533 -0.1997
 9161SOL    HW139119   4.247   1.462   4.921 -2.3935  1.3714  0.4833
 9161SOL    HW239120   4.172   1.374   4.833 -0.2524 -0.2853 -0.5097
 9162SOL     OW39121   2.492   3.343  17.169  0.2358  0.4749  0.0965
 9162SOL    HW139122   2.467   3.254  17.192  2.4196 -0.2192 -0.2363
 9162SOL    HW239123   2.409   3.391  17.174  0.2985  0.8404 -2.6349
 9163SOL     OW39124   2.570   2.453   9.629  0.1899  0.0497  0.1626
 9163SOL    HW139125   2.528   2.406   9.558 -1.3898  1.5528  0.1062
 9163SOL    HW239126   2.637   2.396   9.667  0.8463  1.4788  1.1410
 9164SOL     OW39127   3.225   1.727  17.294 -0.0464 -0.0146  0.0905
 9164SOL    HW139128   3.314   1.710  17.263 -0.7696 -2.8238 -0.4741
 9164SOL    HW239129   3.229   1.811  17.340  0.5020 -0.4665  0.8653
 9165SOL     OW39130   4.413   3.003   8.941  0.0298  0.1672 -0.8241
 9165SOL    HW139131   4.443   3.094   8.942 -1.2925  0.5822  0.1881
 9165SOL    HW239132   4.480   2.959   8.887 -0.2461 -0.1506 -0.9037
 9166SOL     OW39133   2.580   0.398  12.275 -0.1473  0.1969 -0.4009
 9166SOL    HW139134   2.600   0.483  12.315  1.1059 -0.5512  0.5553
 9166SOL    HW239135   2.578   0.424  12.183 -2.8164  3.0434  0.4668
 9167SOL     OW39136   0.001   2.930  11.898 -0.2457  0.2836  0.4900
 9167SOL    HW139137   0.005   2.889  11.984  2.1002  0.3454  0.4193
 9167SOL    HW239138   0.069   2.997  11.905 -0.8840  1.0335 -0.4524
 9168SOL     OW39139   0.268   1.869  16.589  0.0770  0.1570 -0.1651
 9168SOL    HW139140   0.181   1.862  16.552 -0.7883  0.4638  1.8065
 9168SOL    HW239141   0.265   1.960  16.619 -1.1568 -0.3622  1.2691
 9169SOL     OW39142   1.668   3.353   6.650 -0.6555  0.2951 -0.3320
 9169SOL    HW139143   1.574   3.354   6.632 -1.1195  0.3739  2.0961
 9169SOL    HW239144   1.681   3.447   6.635 -1.6072  0.3220 -0.9735
 9170SOL     OW39145   2.850   4.238   4.392 -0.5303 -0.1517 -0.5747
 9170SOL    HW139146   2.802   4.298   4.334 -1.7838  0.4371  1.0678
 9170SOL    HW239147   2.898   4.182   4.331 -0.5216 -1.6200  0.8122
 9171SOL     OW39148   1.748   2.782   8.928  0.5075 -0.5044  0.6353
 9171SOL    HW139149   1.806   2.718   8.968  0.9471 -1.3938 -1.4040
 9171SOL    HW239150   1.758   2.859   8.984 -0.9990  0.3265 -0.2308
 9172SOL     OW39151   2.404   3.927   2.648  0.3913  0.2598  0.2403
 9172SOL    HW139152   2.374   4.004   2.696 -2.3272 -0.8551  0.3179
 9172SOL    HW239153   2.439   3.874   2.720  0.3698 -1.5560 -1.0914
 9173SOL     OW39154   1.810   2.999   3.345 -0.1639  0.3121  0.4082
 9173SOL    HW139155   1.814   3.019   3.438 -2.3522  0.4277  0.4782
 9173SOL    HW239156   1.715   3.005   3.335 -0.2102 -1.3333 -0.1437
 9174SOL     OW39157   0.787   1.055   7.160 -0.2645  0.0498  0.9620
 9174SOL    HW139158   0.801   1.129   7.220 -0.2919 -0.8564  2.0733
 9174SOL    HW239159   0.753   0.980   7.208  0.3223 -1.0326 -0.3208
 9175SOL     OW39160   2.270   2.837   9.828  0.6180  0.6919  0.5391
 9175SOL    HW139161   2.200   2.772   9.840  0.0969  1.5850  2.2906
 9175SOL    HW239162   2.289   2.826   9.735  3.0131  2.0500  0.8890
 9176SOL     OW39163   2.082   1.450   7.051 -0.3086  0.0806  0.1512
 9176SOL    HW139164   1.989   1.467   7.036 -0.1160 -1.5177 -2.8616
 9176SOL    HW239165   2.120   1.529   7.013  1.7547 -0.6623  0.6676
 9177SOL     OW39166   0.620   3.787   8.963  0.0935 -0.1428  0.1429
 9177SOL    HW139167   0.704   3.808   9.002  0.1685  1.6988 -1.0099
 9177SOL    HW239168   0.646   3.749   8.879  2.4326  0.4413  0.6007
 9178SOL     OW39169   2.078   3.411   9.530 -0.5346  0.8542  0.3002
 9178SOL    HW139170   2.091   3.468   9.605 -2.1177  2.9835 -1.0749
 9178SOL    HW239171   2.066   3.471   9.457  0.4908 -0.6582 -1.1322
 9179SOL     OW39172   0.380   4.368   3.377 -0.2821  0.0982 -0.0781
 9179SOL    HW139173   0.336   4.437   3.328 -0.5000  0.3018  0.3969
 9179SOL    HW239174   0.450   4.373   3.312  2.4819  1.3450  2.9757
 9180SOL     OW39175   0.572   1.712   1.828 -0.3708 -0.0967  0.6442
 9180SOL    HW139176   0.624   1.792   1.821 -0.0211 -0.5324 -1.7938
 9180SOL    HW239177   0.492   1.742   1.785  0.4157  1.3409  0.1895
 9181SOL     OW39178   2.035   1.001   2.827 -0.3399  0.6195  0.6818
 9181SOL    HW139179   2.043   1.070   2.761  0.6012 -0.4905 -0.3486
 9181SOL    HW239180   1.958   0.952   2.800  0.1224 -0.2393  0.9120
 9182SOL     OW39181   4.238   1.587   8.986  0.2702 -0.4422 -0.4273
 9182SOL    HW139182   4.306   1.645   9.018 -0.9979  0.5692  0.4642
 9182SOL    HW239183   4.160   1.623   9.030 -0.1566 -1.0032 -0.7294
 9183SOL     OW39184   0.901   3.329   1.568 -0.0970  0.2763 -0.4594
 9183SOL    HW139185   0.904   3.285   1.483  0.1628  0.3985 -0.5127
 9183SOL    HW239186   0.964   3.401   1.560  0.1890  0.4825  3.7263
 9184SOL     OW39187   2.106   4.236   8.614 -0.2456 -0.3234  0.0841
 9184SOL    HW139188   2.176   4.189   8.570 -0.4239  0.8598 -1.4505
 9184SOL    HW239189   2.143   4.278   8.691 -1.7002  2.8374 -0.9686
 9185SOL     OW39190   1.917   0.197   1.152 -0.3120  0.3221 -0.3023
 9185SOL    HW139191   1.918   0.189   1.247  2.2529 -0.2555 -0.3890
 9185SOL    HW239192   1.852   0.130   1.129  0.4690 -0.9368  1.1823
 9186SOL     OW39193   1.840   1.867   2.526 -0.2741  0.0112  0.6956
 9186SOL    HW139194   1.751   1.898   2.541  1.0922  3.6618  1.2553
 9186SOL    HW239195   1.847   1.792   2.585 -0.0524  0.5848  1.3916
 9187SOL     OW39196   4.237   3.267  16.698  0.2823  0.3498  0.3533
 9187SOL    HW139197   4.223   3.346  16.646  1.3795 -1.6247 -2.9306
 9187SOL    HW239198   4.233   3.202  16.627  3.2574  0.1248  0.3914
 9188SOL     OW39199   3.627   3.011   4.891 -0.1381 -0.1292 -0.1052
 9188SOL    HW139200   3.630   2.995   4.985 -0.6055  0.7910  0.0764
 9188SOL    HW239201   3.720   3.018   4.871 -0.4437  1.6108 -0.9340
 9189SOL     OW39202   0.599   4.217  15.895 -0.5892  0.1462  0.1800
 9189SOL    HW139203   0.557   4.302  15.904 -0.7782  0.2341 -1.6167
 9189SOL    HW239204   0.609   4.187  15.986 -4.8186 -0.7002  0.3390
 9190SOL     OW39205   2.529   4.006  13.459  0.0171 -0.2451  0.2644
 9190SOL    HW139206   2.509   4.020  13.367  1.4836  1.8541  0.2428
 9190SOL    HW239207   2.473   3.931  13.477 -1.8249  1.5637  2.0224
 9191SOL     OW39208   1.007   4.262  14.283 -0.1567 -0.4632 -0.3548
 9191SOL    HW139209   1.051   4.259  14.198 -1.3641 -1.3932 -0.9502
 9191SOL    HW239210   1.002   4.169  14.306 -1.5260 -0.5658 -1.0381
 9192SOL     OW39211   4.475   0.202   0.038 -0.1921  0.5125  0.6080
 9192SOL    HW139212   4.458   0.294   0.058  1.3858  0.6352  1.4021
 9192SOL    HW239213   4.513   0.165   0.117  2.6110 -0.8801 -1.3682
 9193SOL     OW39214   0.053   1.331   7.352  0.1554 -0.0384 -0.2544
 9193SOL    HW139215   4.733   1.395   7.313 -0.1901 -0.0561  0.2462
 9193SOL    HW239216   0.000   1.252   7.352  1.0857 -0.6399 -2.3542
 9194SOL     OW39217   2.114   2.075   8.196 -0.3036  0.5581 -0.7173
 9194SOL    HW139218   2.097   2.163   8.229 -2.5441  0.0104 -0.4232
 9194SOL    HW239219   2.108   2.027   8.279 -0.0449 -0.9647 -1.5701
 9195SOL     OW39220   3.947   1.568   4.983 -0.0555 -0.8138  0.3111
 9195SOL    HW139221   3.877   1.626   4.957 -0.0682 -0.6131  0.7843
 9195SOL    HW239222   4.016   1.584   4.918 -0.5501 -1.0288 -0.2641
 9196SOL     OW39223   2.176   0.053   3.850 -0.3874  0.0989  0.3454
 9196SOL    HW139224   2.095   0.050   3.800 -0.0821  0.3998 -0.1727
 9196SOL    HW239225   2.215   4.707   3.830  3.0714  1.0276  3.0401
 9197SOL     OW39226   2.452   4.724   4.463 -0.4321  0.4901 -0.2042
 9197SOL    HW139227   2.469   0.049   4.394  0.8865 -2.2377 -2.4275
 9197SOL    HW239228   2.364   0.012   4.491 -0.9141  0.7668 -1.9728
 9198SOL     OW39229   1.263   3.799   4.639  0.6849  0.1742  0.2077
 9198SOL    HW139230   1.258   3.851   4.719  0.4904 -0.8120  0.8326
 9198SOL    HW239231   1.175   3.811   4.604  1.9145  0.4429 -2.8293
 9199SOL     OW39232   4.544   1.434   9.395 -0.4294  0.6416 -0.0471
 9199SOL    HW139233   4.532   1.370   9.324 -2.6539  1.0664 -0.0267
 9199SOL    HW239234   4.456   1.469   9.401 -0.5045  0.8173 -1.9974
 9200SOL     OW39235   0.405   4.195   5.390  0.9779 -0.1606  0.4918
 9200SOL    HW139236   0.406   4.099   5.392  0.4697 -0.2378 -3.2112
 9200SOL    HW239237   0.459   4.219   5.315 -2.2133 -0.2442 -1.8513
 9201SOL     OW39238   2.214   2.987   6.046 -0.0195  0.2984 -0.2273
 9201SOL    HW139239   2.219   2.893   6.029 -1.5843 -0.0781  1.3315
 9201SOL    HW239240   2.119   2.997   6.036 -0.3424 -1.4350  1.0960
 9202SOL     OW39241   0.022   0.311   7.642 -0.0213  0.3357 -0.8192
 9202SOL    HW139242   4.733   0.220   7.631  2.4404 -0.2129 -2.6332
 9202SOL    HW239243   4.734   0.330   7.732  0.4162  1.4613 -0.9318
 9203SOL     OW39244   2.374   0.615  12.408 -0.5318 -0.4061 -0.1304
 9203SOL    HW139245   2.463   0.630  12.441 -0.8752 -0.8582  1.0185
 9203SOL    HW239246   2.346   0.544  12.466  0.3658 -0.9622 -0.3806
 9204SOL     OW39247   1.688   2.708   6.760 -0.2236 -0.2752 -0.0703
 9204SOL    HW139248   1.607   2.726   6.807  0.8182  0.5669  1.4163
 9204SOL    HW239249   1.730   2.794   6.765  1.3346 -1.1846  2.5182
 9205SOL     OW39250   4.209   0.451   7.057  0.8836 -0.0005 -0.1979
 9205SOL    HW139251   4.265   0.528   7.070 -0.5000  1.2694 -1.7196
 9205SOL    HW239252   4.245   0.373   7.099  2.1150  0.5674 -0.1914
 9206SOL     OW39253   2.893   3.447   4.300  0.0072 -0.0580 -0.2983
 9206SOL    HW139254   2.965   3.464   4.239  0.0705 -2.3189 -0.8498
 9206SOL    HW239255   2.953   3.419   4.370 -1.2305 -1.8108  0.0730
 9207SOL     OW39256   3.970   0.129   6.869  0.0132 -0.6325  0.0636
 9207SOL    HW139257   3.994   0.078   6.946  2.4933 -0.1561 -0.3927
 9207SOL    HW239258   4.048   0.120   6.815  0.6837  1.3914  0.6886
 9208SOL     OW39259   4.105   2.780   1.771  0.1679 -0.2505  0.1672
 9208SOL    HW139260   4.054   2.702   1.794  0.8300 -1.1640 -1.4662
 9208SOL    HW239261   4.035   2.845   1.767  1.0624  0.8142  1.9779
 9209SOL     OW39262   3.570   3.541   3.822 -0.4651  0.4780 -0.2006
 9209SOL    HW139263   3.514   3.476   3.778 -3.4169  1.8172  1.5485
 9209SOL    HW239264   3.583   3.504   3.909  0.0927  0.0276 -0.4750
 9210SOL     OW39265   3.740   1.785  16.702  0.3358  0.0171 -0.2407
 9210SOL    HW139266   3.685   1.709  16.688  0.5782 -0.2122  0.0491
 9210SOL    HW239267   3.823   1.738  16.696 -0.4330 -1.5964  1.7868
 9211SOL     OW39268   4.337   1.404   8.486 -0.2263 -0.0670  0.1037
 9211SOL    HW139269   4.367   1.331   8.432 -2.7504 -1.0051 -0.0310
 9211SOL    HW239270   4.409   1.408   8.549 -1.2707  1.8321  1.1782
 9212SOL     OW39271   1.903   1.093   3.135  0.0838  0.1037 -0.2353
 9212SOL    HW139272   1.906   1.125   3.045  0.5147  2.5988  0.6812
 9212SOL    HW239273   1.999   1.091   3.143  0.2052 -1.7473 -1.9806
 9213SOL     OW39274   3.766   3.484  13.335  0.3794  0.1688  0.3155
 9213SOL    HW139275   3.842   3.475  13.393  0.9836 -0.2924 -0.5482
 9213SOL    HW239276   3.806   3.450  13.255  2.2686 -2.0371  2.1913
 9214SOL     OW39277   0.035   2.358   6.845  0.3672  0.2831 -0.8141
 9214SOL    HW139278   4.694   2.309   6.826 -2.2341  2.6808  4.0478
 9214SOL    HW239279   0.097   2.286   6.845  0.2749  0.2050 -0.5745
 9215SOL     OW39280   2.990   0.438   8.342  0.3818 -0.1975  0.1079
 9215SOL    HW139281   2.968   0.347   8.322  1.2397 -1.0591  3.1179
 9215SOL    HW239282   3.051   0.438   8.416  0.3167  0.2345  0.1606
 9216SOL     OW39283   4.471   2.148   9.792 -0.0324 -0.4248 -0.3447
 9216SOL    HW139284   4.466   2.125   9.885 -1.6103  0.0332 -0.3177
 9216SOL    HW239285   4.483   2.062   9.752 -1.0555 -0.3513 -0.8109
 9217SOL     OW39286   1.480   2.692   6.557 -0.2353 -0.0810 -0.3211
 9217SOL    HW139287   1.492   2.774   6.605  0.0952 -1.1355  1.3758
 9217SOL    HW239288   1.567   2.654   6.546  0.0480  0.6244 -0.5378
 9218SOL     OW39289   3.208   2.865  13.743  0.0218 -0.5425 -0.4780
 9218SOL    HW139290   3.163   2.846  13.825  1.0525 -0.2329  0.1629
 9218SOL    HW239291   3.135   2.888  13.685 -0.0235 -2.2323 -1.0731
 9219SOL     OW39292   1.023   4.266   4.341 -1.0784 -0.1626  0.3301
 9219SOL    HW139293   1.042   4.259   4.434  0.7924  0.7365  0.0093
 9219SOL    HW239294   0.956   4.199   4.326  1.2187 -2.1676 -0.9373
 9220SOL     OW39295   1.035   2.103   6.579  0.3134 -0.1121 -0.6179
 9220SOL    HW139296   1.044   2.191   6.616  0.1376  1.0978 -3.4538
 9220SOL    HW239297   1.079   2.105   6.494  0.3648  2.7382 -0.5328
 9221SOL     OW39298   0.638   2.909   5.648  0.0016  0.3055  0.4480
 9221SOL    HW139299   0.618   2.903   5.555 -1.1120  0.9935  0.6526
 9221SOL    HW239300   0.563   2.955   5.686  1.6426  2.4926  1.0096
 9222SOL     OW39301   1.015   3.445   7.282  0.0916 -0.3019 -0.4560
 9222SOL    HW139302   1.020   3.406   7.369 -1.5067 -0.2876 -0.3705
 9222SOL    HW239303   0.941   3.393   7.251  0.5234 -0.8109 -0.6322
 9223SOL     OW39304   2.243   3.999   4.780  0.8548 -0.0628 -0.0556
 9223SOL    HW139305   2.319   3.993   4.837  0.2411 -2.1913  0.5505
 9223SOL    HW239306   2.213   3.909   4.765  1.8768 -0.4076 -0.0650
 9224SOL     OW39307   0.157   4.665  13.909 -0.0868  0.1656 -0.0102
 9224SOL    HW139308   0.181   4.686  14.000 -2.0108 -0.4694  0.6551
 9224SOL    HW239309   0.166   0.007  13.860 -1.6474  1.1638  1.3091
 9225SOL     OW39310   4.643   0.486   1.872  0.7089 -0.3532 -0.8061
 9225SOL    HW139311   4.563   0.529   1.901  1.0073 -0.2242 -0.1881
 9225SOL    HW239312   4.634   0.478   1.777 -0.0025 -1.1451 -0.6715
 9226SOL     OW39313   3.595   2.961   4.522  0.0076 -0.1755  0.0656
 9226SOL    HW139314   3.588   2.866   4.530  0.3907 -0.0785  1.5303
 9226SOL    HW239315   3.675   2.966   4.470  0.3164  1.0268  0.6611
 9227SOL     OW39316   1.473   2.322   0.116 -0.3195 -0.1339  0.5801
 9227SOL    HW139317   1.393   2.349   0.161 -1.4502  0.1508 -1.5942
 9227SOL    HW239318   1.493   2.243   0.166  0.5680  0.4440  1.1172
 9228SOL     OW39319   2.551   0.870   4.228 -0.1463 -0.1969  0.0838
 9228SOL    HW139320   2.554   0.966   4.229 -0.0808 -0.1991  0.1194
 9228SOL    HW239321   2.639   0.834   4.232  0.9135  2.2109 -1.9855
 9229SOL     OW39322   3.473   1.372   1.679 -0.2131  0.1248 -0.0225
 9229SOL    HW139323   3.399   1.415   1.721 -1.4744 -0.7706 -1.2994
 9229SOL    HW239324   3.539   1.441   1.673  0.2183 -0.2778  0.1255
 9230SOL     OW39325   0.740   1.581  14.814  0.4591  0.3882  0.5730
 9230SOL    HW139326   0.784   1.664  14.795 -2.1279  1.5801 -0.3698
 9230SOL    HW239327   0.754   1.583  14.908  1.6027  0.5539  0.3909
 9231SOL     OW39328   2.223   3.017  11.635 -0.1983 -0.0222  0.4525
 9231SOL    HW139329   2.252   3.103  11.604 -1.7108 -0.0686 -1.0663
 9231SOL    HW239330   2.299   2.961  11.653  1.9486  2.2761 -1.4921
 9232SOL     OW39331   3.377   3.050   3.739  0.1887  0.0145 -0.0418
 9232SOL    HW139332   3.315   2.978   3.747 -1.6690  1.5949 -0.1233
 9232SOL    HW239333   3.439   3.023   3.808  0.4803 -0.5626 -0.5351
 9233SOL     OW39334   3.867   1.512  12.246  0.3095  0.0727  0.1614
 9233SOL    HW139335   3.875   1.590  12.300  0.2491 -0.6853  1.2559
 9233SOL    HW239336   3.928   1.546  12.180  0.2635 -2.9437 -1.4428
 9234SOL     OW39337   4.544   4.599  11.762  0.5809 -0.6016 -0.0661
 9234SOL    HW139338   4.463   4.589  11.812 -0.1173  1.4788 -0.7733
 9234SOL    HW239339   4.537   4.527  11.699  0.9678 -0.0386 -0.7557
 9235SOL     OW39340   4.261   4.013  15.047  0.1258 -0.0016 -0.5053
 9235SOL    HW139341   4.178   3.969  15.063  0.7815 -1.5461 -1.3844
 9235SOL    HW239342   4.281   4.050  15.133 -0.9392  0.4410 -0.4464
 9236SOL     OW39343   3.490   1.311   8.747 -0.9213 -0.5023 -0.3798
 9236SOL    HW139344   3.532   1.238   8.792  0.2529  0.0324 -0.6203
 9236SOL    HW239345   3.398   1.297   8.724 -1.4073  2.5561 -0.3148
 9237SOL     OW39346   1.200   0.968   2.642 -0.2082 -0.1791  0.3565
 9237SOL    HW139347   1.211   1.063   2.637 -2.1187  0.0009 -0.6361
 9237SOL    HW239348   1.106   0.969   2.623 -0.4861 -1.1498  1.7060
 9238SOL     OW39349   3.429   0.571  14.709  0.3448 -0.0643 -0.0901
 9238SOL    HW139350   3.441   0.589  14.802  1.2064  1.0926 -0.4258
 9238SOL    HW239351   3.358   0.507  14.710  0.4396 -0.1308  1.8722
 9239SOL     OW39352   3.089   3.342  11.107  0.7251 -0.4060  0.5545
 9239SOL    HW139353   3.065   3.256  11.071  0.8339 -0.5431  0.8127
 9239SOL    HW239354   3.173   3.327  11.151  1.7555  0.6088 -1.0729
 9240SOL     OW39355   1.928   3.544   3.398 -0.6424  0.6488 -0.0435
 9240SOL    HW139356   1.885   3.462   3.420 -0.7719  0.3543 -1.4299
 9240SOL    HW239357   1.995   3.536   3.466 -2.6239  1.8068  2.0326
 9241SOL     OW39358   2.287   3.003   1.918  0.0655  0.5184  0.1410
 9241SOL    HW139359   2.339   3.079   1.890  1.1005  0.4441  1.8897
 9241SOL    HW239360   2.195   3.014   1.891  0.8904  0.0815 -2.8449
 9242SOL     OW39361   1.221   3.567   6.723  0.4406 -0.1002  0.0268
 9242SOL    HW139362   1.309   3.535   6.703  1.3347  1.3979  1.5595
 9242SOL    HW239363   1.239   3.622   6.800 -0.0757  2.2306 -1.5152
 9243SOL     OW39364   3.803   1.375  16.048  0.3439 -0.2572 -0.1171
 9243SOL    HW139365   3.886   1.414  16.020 -0.6976 -0.0652 -2.9436
 9243SOL    HW239366   3.755   1.380  15.966 -2.2911  1.0008  1.5072
 9244SOL     OW39367   0.173   4.588  13.632 -0.0407 -0.2866 -0.0064
 9244SOL    HW139368   0.260   4.557  13.607  0.3605  0.4540  0.4651
 9244SOL    HW239369   0.180   4.586  13.727  1.9258 -1.6869 -0.1858
 9245SOL     OW39370   4.348   3.560   8.003  0.6174  0.2032 -0.5346
 9245SOL    HW139371   4.424   3.551   8.061 -1.1375  0.1062  1.7671
 9245SOL    HW239372   4.338   3.655   8.014  0.5482  0.1693 -0.2975
 9246SOL     OW39373   0.118   0.759  14.648  0.0954 -0.0882  0.0315
 9246SOL    HW139374   0.207   0.792  14.656 -1.7155  4.7677  0.2892
 9246SOL    HW239375   0.087   0.841  14.608  0.1519 -0.7169 -1.2887
 9247SOL     OW39376   0.547   0.513  11.628 -0.1912  0.8275  0.1986
 9247SOL    HW139377   0.552   0.467  11.544  2.7637 -1.7237  1.7314
 9247SOL    HW239378   0.594   0.452  11.686  0.2724  0.1098 -0.9223
 9248SOL     OW39379   2.101   1.648  13.067 -0.7238  0.2134 -0.5038
 9248SOL    HW139380   2.083   1.738  13.094 -1.5384  0.3592 -1.5470
 9248SOL    HW239381   2.033   1.609  13.121  0.0150  2.3578  1.9601
 9249SOL     OW39382   1.935   2.924  17.591  0.2342 -0.0834  0.0703
 9249SOL    HW139383   1.928   2.948  17.499  0.1729  2.5242  0.7535
 9249SOL    HW239384   1.847   2.897  17.619  0.2502 -0.1815  0.0261
 9250SOL     OW39385   2.086   2.968   7.511 -0.5944 -0.1552  0.3502
 9250SOL    HW139386   2.015   2.938   7.453 -0.3135 -0.1667  0.0137
 9250SOL    HW239387   2.086   3.063   7.494  1.9782 -0.4817 -1.4198
 9251SOL     OW39388   0.490   0.583   5.639 -0.5548 -0.3485 -0.2536
 9251SOL    HW139389   0.518   0.659   5.690  0.0722 -0.0544 -1.0402
 9251SOL    HW239390   0.448   0.528   5.705 -1.4357 -1.3979 -1.6727
 9252SOL     OW39391   2.450   3.442  10.764  0.3934 -0.1434  0.7574
 9252SOL    HW139392   2.426   3.407  10.850 -0.9272 -0.1528  0.3819
 9252SOL    HW239393   2.545   3.433  10.765  0.3065 -0.9773  0.7494
 9253SOL     OW39394   3.948   4.052   2.382  0.2339 -0.0206  0.4465
 9253SOL    HW139395   3.918   3.963   2.401 -0.6907 -0.2224 -2.0005
 9253SOL    HW239396   3.994   4.067   2.465  0.1479 -0.4602  0.5754
 9254SOL     OW39397   2.479   0.281  17.032  0.3463 -0.0621 -0.3114
 9254SOL    HW139398   2.438   0.271  17.118  2.4804  0.2159  0.7341
 9254SOL    HW239399   2.424   0.223  16.980  0.4116 -0.0295 -0.4155
 9255SOL     OW39400   2.073   1.079   7.470 -0.2577  0.2028  0.3965
 9255SOL    HW139401   2.032   1.039   7.547  2.3991 -2.6076  0.3400
 9255SOL    HW239402   2.097   1.167   7.499 -0.0799  0.3439 -0.1803
 9256SOL     OW39403   0.895   2.005  16.156 -0.2018 -0.1134 -0.2056
 9256SOL    HW139404   0.934   2.039  16.236  0.2016 -2.4160  0.5676
 9256SOL    HW239405   0.884   2.092  16.117 -0.5890 -0.6384 -1.2770
 9257SOL     OW39406   4.222   0.349   4.228 -0.2214  0.6179 -0.0305
 9257SOL    HW139407   4.303   0.299   4.242 -1.2202 -0.7618  0.7477
 9257SOL    HW239408   4.172   0.295   4.289  0.0650 -0.0413 -0.3746
 9258SOL     OW39409   1.099   4.569   2.689  0.0356  0.0716 -0.3232
 9258SOL    HW139410   1.143   4.526   2.615 -0.0928 -1.7712  0.6824
 9258SOL    HW239411   1.128   4.506   2.754 -1.3459 -0.1078  0.0996
 9259SOL     OW39412   1.793   0.301   0.808  0.2269  0.1895  0.6278
 9259SOL    HW139413   1.875   0.252   0.818  0.0550  0.0237  1.2074
 9259SOL    HW239414   1.782   0.332   0.898  0.5287 -2.1682  1.4684
 9260SOL     OW39415   0.363   2.630   2.307  0.0367 -0.2761  0.4610
 9260SOL    HW139416   0.298   2.644   2.239  1.0471  2.4848  0.0663
 9260SOL    HW239417   0.320   2.560   2.355  0.5943 -0.4254  0.7484
 9261SOL     OW39418   1.433   1.292   0.654  0.1321 -0.2897  0.9918
 9261SOL    HW139419   1.489   1.216   0.639 -0.6945 -0.6681 -0.1295
 9261SOL    HW239420   1.341   1.273   0.636  0.6965 -0.8900 -1.3698
 9262SOL     OW39421   3.820   1.123   8.088 -0.2752  0.6197 -0.4987
 9262SOL    HW139422   3.838   1.131   7.994 -1.0127  2.3212 -0.4905
 9262SOL    HW239423   3.732   1.159   8.098  0.1826  1.5755  0.0674
 9263SOL     OW39424   4.124   3.391  13.757  0.1090  0.0872 -0.3450
 9263SOL    HW139425   4.162   3.325  13.815 -3.1207 -0.5637  1.0313
 9263SOL    HW239426   4.203   3.438  13.728 -0.9512  2.0062 -0.1201
 9264SOL     OW39427   2.007   4.426   4.782  0.5018 -0.0937  0.1498
 9264SOL    HW139428   2.029   4.351   4.837 -0.9851  0.3036  1.2994
 9264SOL    HW239429   1.923   4.408   4.739  1.0049  1.6840 -1.5728
 9265SOL     OW39430   2.465   3.679   8.616 -0.5644  0.1217 -0.3524
 9265SOL    HW139431   2.428   3.759   8.653 -4.0165 -1.9243  0.5715
 9265SOL    HW239432   2.401   3.621   8.657 -0.2490  0.2028  0.2587
 9266SOL     OW39433   1.121   3.606  10.659  0.1498  0.1596  0.0558
 9266SOL    HW139434   1.061   3.676  10.634  0.1688  0.0609 -0.2694
 9266SOL    HW239435   1.132   3.614  10.754  0.5852 -0.6277  0.0747
 9267SOL     OW39436   3.467   3.359   3.211  0.1192  0.0236 -0.8745
 9267SOL    HW139437   3.456   3.382   3.119  1.3930  0.5807 -0.8938
 9267SOL    HW239438   3.561   3.376   3.215 -0.2495  1.4952  1.3763
 9268SOL     OW39439   3.798   1.098  15.032  0.6296  0.3122 -0.2806
 9268SOL    HW139440   3.839   1.039  14.968 -1.4239 -0.1120 -1.2126
 9268SOL    HW239441   3.870   1.086  15.094  0.5067 -4.2863 -0.9744
 9269SOL     OW39442   1.051   1.286  10.454 -0.4689 -0.3902 -0.0058
 9269SOL    HW139443   1.045   1.380  10.469  2.3173 -0.0871 -0.7722
 9269SOL    HW239444   1.034   1.264  10.545 -0.0115  1.9474  0.6373
 9270SOL     OW39445   2.676   0.277  16.397 -0.0232  0.1943  0.7642
 9270SOL    HW139446   2.599   0.330  16.416 -0.0931  0.3242  0.0990
 9270SOL    HW239447   2.710   0.335  16.329 -1.1797  0.1604  0.1587
 9271SOL     OW39448   4.400   0.464   8.518 -0.3914 -0.3328  0.6898
 9271SOL    HW139449   4.308   0.448   8.499 -0.4128  0.5670  0.0697
 9271SOL    HW239450   4.408   0.553   8.484 -0.7376 -1.3484 -2.0026
 9272SOL     OW39451   4.639   1.385   6.048 -0.4051  0.2947 -0.3217
 9272SOL    HW139452   4.598   1.354   5.967 -0.1516  2.7816 -1.4011
 9272SOL    HW239453   4.628   1.309   6.105  0.9616 -0.0279 -0.4884
 9273SOL     OW39454   0.554   1.931   7.255  0.0411 -0.4278  0.2509
 9273SOL    HW139455   0.616   2.004   7.262 -1.2963  0.6828  0.4024
 9273SOL    HW239456   0.584   1.865   7.193 -2.2578 -2.1750  0.9954
 9274SOL     OW39457   0.977   4.715   5.615 -0.0653  0.1941  0.4576
 9274SOL    HW139458   1.002   0.006   5.702  0.4847 -1.9976  1.0543
 9274SOL    HW239459   1.038   4.641   5.607  1.0839  1.3617 -1.6682
 9275SOL     OW39460   1.542   3.068  14.513 -0.1262  0.3933  0.1712
 9275SOL    HW139461   1.587   3.151  14.494  0.4353 -0.2946 -1.4810
 9275SOL    HW239462   1.529   3.074  14.608  0.4754  0.6856  0.2370
 9276SOL     OW39463   0.433   3.186   2.829  0.5100  0.0680  0.5978
 9276SOL    HW139464   0.478   3.230   2.902  1.6935  1.9697 -1.2755
 9276SOL    HW239465   0.503   3.130   2.795  0.2725  0.4877 -0.5692
 9277SOL     OW39466   4.088   3.659   6.431 -0.1836  0.1656  0.0915
 9277SOL    HW139467   4.139   3.733   6.464  1.8561  0.5785 -3.9899
 9277SOL    HW239468   4.157   3.596   6.414  0.1444  0.6988 -0.5584
 9278SOL     OW39469   0.946   3.745  17.450 -0.0763  0.2266 -0.3992
 9278SOL    HW139470   1.035   3.750  17.415  0.3190  1.0529  0.7232
 9278SOL    HW239471   0.890   3.728  17.374 -0.1259 -1.6625  0.0445
 9279SOL     OW39472   0.977   2.466   2.782 -0.0131  0.6507 -0.4539
 9279SOL    HW139473   1.069   2.489   2.769  0.3033 -0.2332  0.1927
 9279SOL    HW239474   0.965   2.500   2.871 -0.2553  0.3386 -0.3669
 9280SOL     OW39475   1.343   2.845   4.792  0.1906 -0.8114 -0.1531
 9280SOL    HW139476   1.352   2.936   4.763 -1.7408 -1.3458 -2.4484
 9280SOL    HW239477   1.359   2.817   4.702 -1.2994 -2.2056  0.0311
 9281SOL     OW39478   3.709   3.831   5.454  0.1005  0.5030  0.2020
 9281SOL    HW139479   3.777   3.896   5.469 -1.1337  1.7046  0.6165
 9281SOL    HW239480   3.641   3.868   5.511 -1.2824 -0.5903 -0.7335
 9282SOL     OW39481   4.342   1.163  12.001  0.3786 -0.0102  0.2420
 9282SOL    HW139482   4.427   1.158  11.957  0.7251 -0.5413  0.9628
 9282SOL    HW239483   4.374   1.164  12.091 -3.5454 -3.0080  1.6757
 9283SOL     OW39484   4.472   4.691   7.222  0.0112  0.5272  0.6036
 9283SOL    HW139485   4.561   4.690   7.259 -0.5193 -2.5477  1.8334
 9283SOL    HW239486   4.424   4.719   7.299 -0.6705 -2.1977  1.1825
 9284SOL     OW39487   0.267   4.156   7.519  0.6679 -0.5341 -0.0731
 9284SOL    HW139488   0.216   4.082   7.489 -0.3034  1.0004 -2.2071
 9284SOL    HW239489   0.219   4.172   7.600  0.0608 -0.9716 -0.3468
 9285SOL     OW39490   2.722   2.430  13.617  0.4005  0.2211  0.1126
 9285SOL    HW139491   2.681   2.398  13.536  1.1642  2.1404 -1.0345
 9285SOL    HW239492   2.663   2.506  13.621 -0.1012 -0.1072 -0.8959
 9286SOL     OW39493   0.873   1.075   0.360  0.6874 -0.4269  0.2173
 9286SOL    HW139494   0.810   1.143   0.383 -0.8295 -1.6965 -0.1781
 9286SOL    HW239495   0.861   1.084   0.266 -0.9982 -1.9510  0.2637
 9287SOL     OW39496   2.853   0.182   0.145  0.4840 -0.1490  0.0196
 9287SOL    HW139497   2.914   0.171   0.218  0.6320 -1.0563 -0.2423
 9287SOL    HW239498   2.813   0.095   0.144  1.7626 -0.7483  0.5576
 9288SOL     OW39499   0.778   2.618   5.851 -0.2013  0.2733  0.2324
 9288SOL    HW139500   0.704   2.576   5.894  0.4857 -0.0793  1.0840
 9288SOL    HW239501   0.717   2.682   5.814  0.0642  0.1576 -0.3962
 9289SOL     OW39502   2.064   1.328   7.926 -0.0318 -0.0517  0.5113
 9289SOL    HW139503   2.073   1.311   8.020  0.5305 -0.1270  0.4440
 9289SOL    HW239504   2.049   1.422   7.925  2.6080  0.3151 -3.1731
 9290SOL     OW39505   2.446   4.581  14.825  0.0761 -0.3457  0.0548
 9290SOL    HW139506   2.393   4.538  14.892  2.4121  0.3582  2.3328
 9290SOL    HW239507   2.484   4.656  14.871 -3.1873  1.4530 -0.2444
 9291SOL     OW39508   3.989   0.620   3.141  0.2026 -0.3081  0.1088
 9291SOL    HW139509   4.078   0.633   3.109  0.3350  0.5064  0.8310
 9291SOL    HW239510   3.955   0.709   3.135 -1.3894 -1.1373 -3.1204
 9292SOL     OW39511   3.454   0.465  10.150  0.1573 -0.1170 -0.0011
 9292SOL    HW139512   3.464   0.492  10.059 -2.8027  0.1945 -0.2570
 9292SOL    HW239513   3.508   0.526  10.200 -0.1709 -0.0432  0.2680
 9293SOL     OW39514   2.172   3.999   7.630  0.0568 -0.3702 -0.2017
 9293SOL    HW139515   2.214   3.975   7.548 -0.7343 -1.3159 -0.3345
 9293SOL    HW239516   2.093   3.947   7.617 -0.2625 -0.0208  0.3483
 9294SOL     OW39517   2.696   0.966  11.681  0.3376 -0.4408  0.0300
 9294SOL    HW139518   2.701   1.001  11.592  0.3358  0.6277  0.4602
 9294SOL    HW239519   2.786   0.977  11.712  1.1261 -0.1782 -2.3207
 9295SOL     OW39520   3.381   0.706   0.879  0.7199  0.3733  0.2269
 9295SOL    HW139521   3.466   0.737   0.847  0.1021  0.2677 -1.4686
 9295SOL    HW239522   3.372   0.623   0.832  1.4959  1.6887 -2.2206
 9296SOL     OW39523   1.445   3.757   8.306  0.2070 -0.2981 -0.4422
 9296SOL    HW139524   1.534   3.793   8.300  0.6831 -1.6697 -1.6658
 9296SOL    HW239525   1.451   3.717   8.393  0.4865  1.3968  0.3248
 9297SOL     OW39526   2.560   4.480   2.071  0.2643  0.6277 -0.0846
 9297SOL    HW139527   2.554   4.413   2.138  0.2015  2.1708  1.4613
 9297SOL    HW239528   2.575   4.431   1.990 -0.6411 -0.9193  0.6816
 9298SOL     OW39529   3.290   0.677  13.225 -0.3861 -0.0602  0.5485
 9298SOL    HW139530   3.249   0.715  13.148 -0.2665 -1.0364 -0.0067
 9298SOL    HW239531   3.350   0.746  13.254 -1.2858  2.1327 -2.9276
 9299SOL     OW39532   0.477   4.567   9.989 -0.1814  0.4756 -0.1099
 9299SOL    HW139533   0.441   4.481   9.968  0.7329  0.1679 -0.4407
 9299SOL    HW239534   0.564   4.549   9.952  0.2743  2.1581  0.1251
 9300SOL     OW39535   2.330   4.133   6.365 -0.3349  0.2152 -0.2967
 9300SOL    HW139536   2.319   4.162   6.274 -1.1293 -1.3875 -0.7081
 9300SOL    HW239537   2.240   4.130   6.398  0.6858 -0.9450  2.3796
 9301SOL     OW39538   4.524   2.683   1.588  0.3600 -0.2943 -0.3144
 9301SOL    HW139539   4.558   2.607   1.542 -1.6113 -0.4812 -1.5019
 9301SOL    HW239540   4.485   2.738   1.519 -0.1987  1.0925  1.0948
 9302SOL     OW39541   0.086   1.468   6.642  0.3093  0.3511  0.0894
 9302SOL    HW139542   0.132   1.464   6.726  0.8263  1.1850 -0.1598
 9302SOL    HW239543   0.072   1.562   6.633  0.2003  0.3204 -0.0592
 9303SOL     OW39544   4.432   3.832   1.087 -0.2772  0.2278  0.2287
 9303SOL    HW139545   4.390   3.752   1.116 -0.7282  0.5310  0.4002
 9303SOL    HW239546   4.427   3.818   0.992 -2.7358 -3.4074  0.9059
 9304SOL     OW39547   2.347   3.560  16.549 -0.1299  0.0241  0.3357
 9304SOL    HW139548   2.370   3.645  16.587  0.2941 -0.1118  0.3882
 9304SOL    HW239549   2.272   3.528  16.600 -0.3077 -0.0547  0.0249
 9305SOL     OW39550   4.334   3.973   2.232  0.2746  0.0653  0.1614
 9305SOL    HW139551   4.342   3.880   2.209  0.5464 -0.5235  2.6239
 9305SOL    HW239552   4.315   4.001   2.142  1.6103  2.7578  0.7212
 9306SOL     OW39553   0.711   3.499  11.785 -0.0678 -0.6488  0.0536
 9306SOL    HW139554   0.804   3.498  11.808  0.2736 -4.3000 -1.3787
 9306SOL    HW239555   0.718   3.534  11.696  3.8050 -1.5703 -0.0063
 9307SOL     OW39556   1.412   0.854  10.775 -0.0471  0.1749 -0.0789
 9307SOL    HW139557   1.461   0.818  10.701 -0.4256  4.9769 -2.6830
 9307SOL    HW239558   1.373   0.769  10.795 -0.8624  0.3531 -0.9161
 9308SOL     OW39559   1.653   1.455  17.483 -0.1754 -0.5326 -0.6957
 9308SOL    HW139560   1.703   1.381  17.449  0.6620 -0.8139  1.1083
 9308SOL    HW239561   1.706   1.529  17.454 -1.1832  0.5514  0.2100
 9309SOL     OW39562   2.544   2.881   9.905 -0.2049 -0.4859 -0.2057
 9309SOL    HW139563   2.449   2.878   9.917  0.0691 -0.5521  1.9977
 9309SOL    HW239564   2.562   2.803   9.853  2.3576 -0.3773  0.5555
 9310SOL     OW39565   3.396   1.858   4.017 -0.3025 -0.1637 -0.3973
 9310SOL    HW139566   3.469   1.908   3.981  1.5117  0.0413  3.5063
 9310SOL    HW239567   3.326   1.923   4.023  0.7407  0.9163 -0.0199
 9311SOL     OW39568   4.226   2.522   3.163  0.1748  0.0186 -0.1785
 9311SOL    HW139569   4.200   2.504   3.253  0.8300 -1.2674 -0.2522
 9311SOL    HW239570   4.259   2.436   3.138 -0.8955 -0.9804  1.8837
 9312SOL     OW39571   2.725   3.430   7.355  0.0991 -0.0585  0.4322
 9312SOL    HW139572   2.706   3.519   7.323 -0.1878 -0.4433 -0.4726
 9312SOL    HW239573   2.711   3.381   7.274  0.2893 -0.6417  0.7554
 9313SOL     OW39574   0.186   3.503   4.276  0.3399  0.2104  0.1397
 9313SOL    HW139575   0.153   3.414   4.263  1.8408 -0.3793  0.2540
 9313SOL    HW239576   0.122   3.553   4.226  0.1788  0.9638  1.1117
 9314SOL     OW39577   2.851   4.570   4.838  0.3939  0.4254 -0.1635
 9314SOL    HW139578   2.843   4.499   4.775  1.6546  0.0347  0.1181
 9314SOL    HW239579   2.919   4.620   4.794 -0.8897  1.9426 -0.4453
 9315SOL     OW39580   1.514   0.906   3.259 -0.2318 -0.0454 -0.3643
 9315SOL    HW139581   1.451   0.973   3.283  0.0478 -0.1681  0.7128
 9315SOL    HW239582   1.517   0.857   3.341 -0.2515 -0.2114 -0.4620
 9316SOL     OW39583   0.319   2.617  10.333 -0.3503  0.2192 -0.8147
 9316SOL    HW139584   0.368   2.585  10.409 -0.4232 -0.0269 -0.8699
 9316SOL    HW239585   0.234   2.573  10.341 -0.0269 -0.3652 -0.6115
 9317SOL     OW39586   1.741   0.664   4.517 -0.0664  0.0481  0.0320
 9317SOL    HW139587   1.668   0.649   4.578 -0.4213  1.0404 -0.1476
 9317SOL    HW239588   1.692   0.715   4.453 -2.4992 -0.1103  1.7903
 9318SOL     OW39589   3.212   4.611   6.367  0.6888  0.1183  0.0073
 9318SOL    HW139590   3.253   4.677   6.423  0.4550 -0.4587  0.8656
 9318SOL    HW239591   3.286   4.551   6.359 -0.2470 -0.4179 -4.5992
 9319SOL     OW39592   3.746   0.334   0.780 -0.5475  0.1253  0.2961
 9319SOL    HW139593   3.769   0.321   0.872  1.0394  1.0532  0.0177
 9319SOL    HW239594   3.669   0.387   0.802  0.3868  2.6051 -2.5092
 9320SOL     OW39595   0.853   4.547   7.353 -0.4683  0.0544 -0.3488
 9320SOL    HW139596   0.842   4.524   7.445 -2.3763 -1.1502 -0.8784
 9320SOL    HW239597   0.896   4.627   7.383  0.3012 -0.5045  0.0431
 9321SOL     OW39598   0.584   1.921   3.621 -0.1016  0.7829  0.3852
 9321SOL    HW139599   0.542   1.837   3.606  3.7096 -1.2747  1.2405
 9321SOL    HW239600   0.656   1.933   3.559  0.8461 -1.9998  0.9627
 9322SOL     OW39601   4.664   0.893  17.361 -0.4724  0.4987  0.4661
 9322SOL    HW139602   4.652   0.909  17.267 -0.7768  0.2885  0.4688
 9322SOL    HW239603   4.582   0.863  17.400  0.2172 -2.2686 -0.1925
 9323SOL     OW39604   3.931   3.967   5.566  0.1878  0.0380 -0.0366
 9323SOL    HW139605   4.006   4.019   5.535  0.1182 -0.3542 -0.8695
 9323SOL    HW239606   3.968   3.920   5.640  1.0407  1.5779  0.5224
 9324SOL     OW39607   4.512   2.714   7.824 -0.0936  0.9427 -0.6495
 9324SOL    HW139608   4.492   2.802   7.858  0.1256 -0.1303  2.2679
 9324SOL    HW239609   4.604   2.699   7.844 -0.8339  0.4174  2.3290
 9325SOL     OW39610   1.262   2.003   5.635  0.1689 -0.5374  0.0319
 9325SOL    HW139611   1.207   2.065   5.588  0.3265  0.2973  0.9600
 9325SOL    HW239612   1.211   1.985   5.714  0.7135 -1.9171  0.0765
 9326SOL     OW39613   1.340   0.708   2.601  0.0527 -0.3136  0.4374
 9326SOL    HW139614   1.330   0.689   2.508 -1.5367 -0.9082  0.7316
 9326SOL    HW239615   1.274   0.776   2.613 -0.4141 -0.7898  0.5963
 9327SOL     OW39616   2.160   3.441  11.679 -0.8146 -0.1235  0.3655
 9327SOL    HW139617   2.229   3.442  11.745 -1.1371 -0.8923  0.7247
 9327SOL    HW239618   2.120   3.522  11.709  0.1051  0.9830 -1.4230
 9328SOL     OW39619   3.795   3.234  13.048  0.1312  0.2337 -0.1812
 9328SOL    HW139620   3.824   3.162  13.104 -2.9594 -2.2710 -1.8364
 9328SOL    HW239621   3.704   3.241  13.076  1.0720  0.7406  2.8466
 9329SOL     OW39622   1.550   4.381  10.727 -0.6803 -0.3842 -0.2339
 9329SOL    HW139623   1.576   4.345  10.811  1.5888  0.5230 -0.5352
 9329SOL    HW239624   1.465   4.343  10.707 -0.1258 -1.3448 -0.7650
 9330SOL     OW39625   1.208   4.459   0.409  0.1768  0.1592  0.6176
 9330SOL    HW139626   1.194   4.517   0.484  1.2938  0.7087  0.3948
 9330SOL    HW239627   1.258   4.514   0.349  0.5582  0.6437  1.3630
 9331SOL     OW39628   1.203   2.083  17.710  0.5652 -0.3272  0.2911
 9331SOL    HW139629   1.299   2.084  17.704  0.5366 -1.4642 -0.2263
 9331SOL    HW239630   1.180   2.173  17.684 -0.2216 -0.1356  1.6652
 9332SOL     OW39631   4.283   1.979  13.796  0.4351 -0.0191  0.4966
 9332SOL    HW139632   4.314   1.932  13.719 -0.8312 -1.2343  0.7260
 9332SOL    HW239633   4.277   2.072  13.772  1.8593  0.0024  0.2323
 9333SOL     OW39634   2.462   4.000   8.118 -0.2649 -0.1023  0.3350
 9333SOL    HW139635   2.443   3.929   8.179 -0.8489 -1.9125 -1.9230
 9333SOL    HW239636   2.538   3.958   8.079  0.1266  0.4559  0.5047
 9334SOL     OW39637   0.645   3.698   8.356 -0.6973 -0.2592 -0.1589
 9334SOL    HW139638   0.561   3.698   8.310 -0.7107  1.7403 -0.1555
 9334SOL    HW239639   0.666   3.607   8.375  1.8063  0.1638 -0.8717
 9335SOL     OW39640   2.911   2.445   5.252  0.3387  0.2746 -0.5409
 9335SOL    HW139641   2.935   2.389   5.178 -0.0917  1.0330 -1.2535
 9335SOL    HW239642   2.882   2.386   5.322  0.3192  0.3301 -0.5017
 9336SOL     OW39643   3.448   0.746  10.770  0.5835  0.0324  0.1228
 9336SOL    HW139644   3.401   0.827  10.788 -1.2373 -1.0721  0.3458
 9336SOL    HW239645   3.442   0.750  10.675 -1.4805 -0.9960  0.1937
 9337SOL     OW39646   4.149   3.851   8.387 -0.1971  0.0505 -0.0918
 9337SOL    HW139647   4.103   3.918   8.437 -1.8404 -0.5091 -0.8716
 9337SOL    HW239648   4.238   3.882   8.407  0.7188 -2.5366 -0.2413
 9338SOL     OW39649   0.275   3.750   2.278 -0.2840 -0.2730 -0.3035
 9338SOL    HW139650   0.254   3.676   2.334  0.9587 -0.8790 -0.6409
 9338SOL    HW239651   0.312   3.700   2.205  0.8368 -2.1868  1.5757
 9339SOL     OW39652   1.962   0.929   0.660  0.1960 -0.3386  0.5643
 9339SOL    HW139653   2.053   0.917   0.690  0.2314 -1.9602 -0.1809
 9339SOL    HW239654   1.920   0.944   0.745 -0.4319 -1.0311  0.3765
 9340SOL     OW39655   4.696   0.732  15.137 -0.6741 -0.2121 -0.0618
 9340SOL    HW139656   0.012   0.786  15.081 -1.7178  2.4555  1.5049
 9340SOL    HW239657   4.662   0.796  15.199  1.2410  0.1007  0.6558
 9341SOL     OW39658   0.113   3.238  14.581  0.2638  0.0553 -0.1410
 9341SOL    HW139659   0.065   3.264  14.660 -0.0569  1.2479 -0.7337
 9341SOL    HW239660   0.075   3.298  14.517  0.5975  0.4645  0.0451
 9342SOL     OW39661   3.659   1.424  17.118 -0.4329  0.8249  0.1788
 9342SOL    HW139662   3.579   1.388  17.157  1.2307 -1.9183  0.9948
 9342SOL    HW239663   3.715   1.436  17.195 -0.4847 -0.9221  0.4897
 9343SOL     OW39664   3.812   1.884   2.678 -0.5839 -0.4337  0.2869
 9343SOL    HW139665   3.745   1.899   2.745  0.3034  1.3118  0.8006
 9343SOL    HW239666   3.781   1.797   2.655  0.2017 -0.7683  0.4945
 9344SOL     OW39667   0.708   1.440   3.422 -0.3474  0.0958  0.9800
 9344SOL    HW139668   0.776   1.426   3.488  0.3653  0.6453  0.3613
 9344SOL    HW239669   0.744   1.381   3.356 -0.9351  0.5343  0.2655
 9345SOL     OW39670   1.184   1.965  12.475  0.2468  0.0438  0.2002
 9345SOL    HW139671   1.205   1.959  12.381  1.1019  2.5221  0.2346
 9345SOL    HW239672   1.194   2.060  12.480  0.4601  0.0361 -0.0643
 9346SOL     OW39673   1.641   1.869  10.108  0.6867 -0.4038  0.5619
 9346SOL    HW139674   1.652   1.828  10.194  3.6864 -1.7855 -0.5050
 9346SOL    HW239675   1.545   1.868  10.100  0.8392  0.4667 -1.4085
 9347SOL     OW39676   1.054   0.746   0.733  0.0954 -0.1289  0.9111
 9347SOL    HW139677   0.986   0.793   0.685  0.9604  1.2505  1.0392
 9347SOL    HW239678   1.105   0.721   0.657  0.9840  0.9980  1.1471
 9348SOL     OW39679   1.627   3.096   7.978  0.0357 -0.6308 -0.2421
 9348SOL    HW139680   1.688   3.170   7.972 -1.9566  1.1641  1.5251
 9348SOL    HW239681   1.669   3.033   8.036 -1.3485  0.9256  2.4791
 9349SOL     OW39682   4.589   3.836   5.617  0.1341  0.0682  0.6058
 9349SOL    HW139683   4.659   3.891   5.653  0.4694 -0.3776  0.6361
 9349SOL    HW239684   4.610   3.760   5.670  0.2093 -0.2894  0.0579
 9350SOL     OW39685   2.450   0.310  15.463  0.5259 -0.8248  0.5153
 9350SOL    HW139686   2.475   0.228  15.506  0.0001 -1.4113 -0.2997
 9350SOL    HW239687   2.532   0.340  15.423 -0.6309 -0.6276 -1.6958
 9351SOL     OW39688   1.554   3.041   3.281  0.0836 -0.4579 -0.6853
 9351SOL    HW139689   1.484   2.976   3.274 -0.2308  0.1464 -3.0944
 9351SOL    HW239690   1.565   3.073   3.191 -1.2040 -0.2477 -0.7658
 9352SOL     OW39691   1.143   3.520   4.535 -0.3585  0.1337 -0.3944
 9352SOL    HW139692   1.217   3.579   4.551  0.0865 -0.6623  0.4930
 9352SOL    HW239693   1.148   3.458   4.609 -0.3989  0.1417 -0.3847
 9353SOL     OW39694   2.615   0.469   9.514 -0.2559 -0.1096  0.6533
 9353SOL    HW139695   2.639   0.436   9.428 -0.2989 -0.4422  0.7685
 9353SOL    HW239696   2.689   0.529   9.524  1.7653 -2.0397 -2.5177
 9354SOL     OW39697   2.033   1.840  13.240 -0.8318  0.3304 -0.0203
 9354SOL    HW139698   1.994   1.925  13.222 -0.1576  0.9106  1.2648
 9354SOL    HW239699   2.042   1.846  13.335 -1.9852 -1.1440  0.1937
 9355SOL     OW39700   4.721   2.866   0.884  0.3086  0.0603 -0.1672
 9355SOL    HW139701   4.706   2.771   0.888 -2.8993  0.6833  2.3700
 9355SOL    HW239702   4.706   2.890   0.975 -0.8364 -1.5838  0.0785
 9356SOL     OW39703   2.757   4.675   3.876  0.7310 -0.2278  0.2863
 9356SOL    HW139704   2.784   4.585   3.893  1.6153 -0.1364 -0.6557
 9356SOL    HW239705   2.820   4.733   3.919 -0.4139 -0.9053  2.8986
 9357SOL     OW39706   0.942   1.548   9.893 -0.3504  0.0881 -0.1887
 9357SOL    HW139707   0.848   1.559   9.905 -0.2135  0.3390  0.6913
 9357SOL    HW239708   0.965   1.460   9.921 -2.2030 -0.4971 -0.4924
 9358SOL     OW39709   1.822   1.298  16.948  0.0548  0.0397  0.5323
 9358SOL    HW139710   1.848   1.255  16.866  0.0182  0.1623  0.4567
 9358SOL    HW239711   1.727   1.292  16.941 -0.0700 -0.2742  2.4906
 9359SOL     OW39712   0.030   4.228   6.647  0.2523 -0.6250 -0.3038
 9359SOL    HW139713   0.028   4.321   6.671  0.9485  0.1878 -3.2923
 9359SOL    HW239714   0.117   4.203   6.679  1.8386  1.8253 -2.6280
 9360SOL     OW39715   3.095   4.528   6.733  0.1636  0.5065  0.9235
 9360SOL    HW139716   3.065   4.612   6.768  1.4788  0.4027  2.3141
 9360SOL    HW239717   3.131   4.485   6.811 -1.1969 -2.1879  0.0797
 9361SOL     OW39718   2.482   4.611  12.659 -0.5132  0.6508 -0.2391
 9361SOL    HW139719   2.411   4.661  12.619 -2.1355 -1.1796  0.3618
 9361SOL    HW239720   2.477   4.657  12.743 -0.6305 -1.0560  0.6657
 9362SOL     OW39721   4.434   4.553   6.186 -0.0409  0.0867  0.1089
 9362SOL    HW139722   4.445   4.466   6.224  1.9711  0.0320 -0.6342
 9362SOL    HW239723   4.350   4.583   6.222  0.0884 -1.8802  2.0609
 9363SOL     OW39724   4.693   2.686   0.373 -0.1277 -0.0159  0.5985
 9363SOL    HW139725   4.635   2.688   0.449 -1.3981  4.4598 -0.4787
 9363SOL    HW239726   0.037   2.655   0.408 -1.0670 -1.4194  1.5701
 9364SOL     OW39727   3.317   2.487   0.226 -0.0837  0.0716  0.0248
 9364SOL    HW139728   3.331   2.572   0.185 -0.1427 -0.0736 -0.2959
 9364SOL    HW239729   3.308   2.504   0.320  2.3025  2.4908 -0.1985
 9365SOL     OW39730   4.727   3.638  10.397  0.0456 -0.0602 -0.2118
 9365SOL    HW139731   0.077   3.612  10.421 -0.2482 -1.8307 -1.0929
 9365SOL    HW239732   4.703   3.676  10.482 -0.1324  0.3060 -0.4285
 9366SOL     OW39733   0.462   1.884   4.753 -0.1372 -0.1947 -0.2937
 9366SOL    HW139734   0.501   1.954   4.806  1.2656 -2.1370  1.2556
 9366SOL    HW239735   0.448   1.825   4.827  0.3916  0.4324  0.3061
 9367SOL     OW39736   0.309   4.126   3.498  0.2006  0.1694  0.2273
 9367SOL    HW139737   0.336   4.204   3.450 -1.7847  2.0990  2.2430
 9367SOL    HW239738   0.396   4.113   3.536  0.9233  0.5048 -1.3180
 9368SOL     OW39739   4.649   2.817   1.186  0.1363  0.0498 -0.2894
 9368SOL    HW139740   4.553   2.822   1.186  0.0705 -1.1788  0.8010
 9368SOL    HW239741   4.676   2.840   1.275 -2.6562  0.1303  0.5524
 9369SOL     OW39742   2.181   3.526   9.985  0.1821  0.2918 -0.0810
 9369SOL    HW139743   2.197   3.570  10.068 -1.2322  2.8616 -1.1844
 9369SOL    HW239744   2.192   3.433  10.006 -3.3272 -0.0309  0.3227
 9370SOL     OW39745   1.854   3.904  17.710 -0.1678 -0.2240 -0.5085
 9370SOL    HW139746   1.905   3.981  17.685  0.1103 -0.8484 -1.8599
 9370SOL    HW239747   1.901   3.828  17.675  1.5644  0.1025  1.0805
 9371SOL     OW39748   0.426   2.941   1.740 -0.4211 -0.3672 -0.1407
 9371SOL    HW139749   0.352   2.941   1.679 -0.1106 -0.1819 -0.5129
 9371SOL    HW239750   0.385   2.884   1.806  0.7133 -0.9102  0.1058
 9372SOL     OW39751   3.415   0.794   5.226 -0.2684  0.1072  0.0707
 9372SOL    HW139752   3.423   0.760   5.137 -1.2252 -1.9919  0.7805
 9372SOL    HW239753   3.332   0.757   5.255 -0.5713  0.2410 -0.6332
 9373SOL     OW39754   4.024   3.922   6.310 -0.6676 -0.1732  0.3957
 9373SOL    HW139755   4.002   3.830   6.304  1.4224 -0.6910  0.6417
 9373SOL    HW239756   4.078   3.938   6.232  0.6949  5.7931  2.5248
 9374SOL     OW39757   3.939   0.901   5.123  0.3902 -0.7755 -0.3223
 9374SOL    HW139758   3.926   0.993   5.143 -4.6829 -1.8658  1.5229
 9374SOL    HW239759   3.858   0.863   5.160 -0.3043  0.4326 -0.6224
 9375SOL     OW39760   1.475   2.064   6.580 -0.2965  0.0039 -0.1002
 9375SOL    HW139761   1.569   2.058   6.594 -0.4186  1.4328  1.3466
 9375SOL    HW239762   1.469   2.060   6.485 -0.6585 -1.4327 -0.0178
 9376SOL     OW39763   1.699   3.264  10.212  0.2648  0.2528 -0.0733
 9376SOL    HW139764   1.743   3.348  10.203  0.7040 -0.0075 -0.3530
 9376SOL    HW239765   1.768   3.217  10.257 -0.6785 -0.8905  0.1875
 9377SOL     OW39766   4.303   3.431   7.758 -0.4366 -0.3775  0.2162
 9377SOL    HW139767   4.327   3.454   7.848  4.1992 -0.6570 -0.9739
 9377SOL    HW239768   4.252   3.350   7.764 -1.3948  0.0881 -1.6639
 9378SOL     OW39769   2.968   2.311   6.543 -0.3876  0.1381  0.3751
 9378SOL    HW139770   2.957   2.372   6.617  2.1738 -0.2787  1.1068
 9378SOL    HW239771   2.885   2.270   6.521 -0.3112 -0.5541  1.3756
 9379SOL     OW39772   2.294   4.426   6.564 -0.2107 -0.5195  0.2671
 9379SOL    HW139773   2.385   4.395   6.565  0.0748  0.3531  0.9224
 9379SOL    HW239774   2.280   4.450   6.472 -0.0012  0.3788  0.4784
 9380SOL     OW39775   3.939   1.299   9.552 -0.1286 -0.4075 -0.7493
 9380SOL    HW139776   4.033   1.312   9.537 -0.3042 -0.6953 -2.1198
 9380SOL    HW239777   3.956   1.272   9.642  0.0566  2.3740  0.0462
 9381SOL     OW39778   2.642   1.118  12.661 -0.0764 -0.1051  0.3842
 9381SOL    HW139779   2.625   1.155  12.747 -0.7401 -0.6967  0.5090
 9381SOL    HW239780   2.736   1.132  12.654 -0.2503  1.0329  0.3443
 9382SOL     OW39781   4.649   3.995  12.747 -0.3353 -0.0522  0.1245
 9382SOL    HW139782   4.629   3.923  12.687 -1.9053  1.7406 -1.4912
 9382SOL    HW239783   4.708   3.952  12.808  1.2837  2.7616  0.5120
 9383SOL     OW39784   0.035   4.523   6.653 -0.7375 -0.3097 -0.5265
 9383SOL    HW139785   4.730   4.608   6.654 -0.2975 -0.0713 -1.5936
 9383SOL    HW239786   0.125   4.556   6.646 -0.1360 -1.2476  2.8215
 9384SOL     OW39787   2.426   2.869   6.560  0.7120  0.1358 -0.1808
 9384SOL    HW139788   2.354   2.898   6.504  0.4863  1.1649  0.6502
 9384SOL    HW239789   2.492   2.843   6.496  0.2223  1.8038 -1.3744
 9385SOL     OW39790   0.118   1.198   2.969 -0.2543  0.1086 -0.1290
 9385SOL    HW139791   0.147   1.116   3.010 -1.4548  0.4339  1.3870
 9385SOL    HW239792   0.147   1.184   2.879 -3.8024  2.8858 -1.6953
 9386SOL     OW39793   1.377   4.612  10.861 -0.2986  0.5047 -0.3265
 9386SOL    HW139794   1.372   4.576  10.772  2.5008 -1.9837  0.5107
 9386SOL    HW239795   1.302   4.566  10.899  0.7345 -0.4433  0.5616
 9387SOL     OW39796   0.443   0.115  11.052  0.0513  0.4363  0.2559
 9387SOL    HW139797   0.534   0.096  11.029 -0.1921 -1.0125  0.5038
 9387SOL    HW239798   0.445   0.210  11.061  2.6826  0.5228 -1.3508
 9388SOL     OW39799   2.768   0.790   7.774  0.4194  0.0410  0.1709
 9388SOL    HW139800   2.698   0.853   7.791  0.4692 -0.1062  0.9170
 9388SOL    HW239801   2.828   0.842   7.720 -1.9299  1.1268 -1.4037
 9389SOL     OW39802   0.126   4.028  10.544 -0.3672 -0.4274 -0.5381
 9389SOL    HW139803   0.050   4.049  10.598 -1.1440 -0.9798 -1.4038
 9389SOL    HW239804   0.144   3.943  10.582 -1.3284 -0.1009  0.6482
 9390SOL     OW39805   2.826   0.048   5.698  0.2316 -0.4100  0.4509
 9390SOL    HW139806   2.911   0.042   5.655 -0.0304 -1.5589  0.1024
 9390SOL    HW239807   2.842   0.132   5.742 -1.2740  0.4353 -0.6238
 9391SOL     OW39808   2.554   1.505   4.107 -0.4920  0.1676  0.3467
 9391SOL    HW139809   2.636   1.554   4.099  0.1376 -0.8740  0.3713
 9391SOL    HW239810   2.588   1.440   4.168  1.3588  0.4547 -0.3816
 9392SOL     OW39811   0.763   4.602   6.266  0.0959  0.0120 -0.2053
 9392SOL    HW139812   0.843   4.650   6.248 -0.0937 -0.1079 -1.3657
 9392SOL    HW239813   0.739   4.631   6.354  0.2381  0.8392 -0.4358
 9393SOL     OW39814   3.433   0.736   8.195 -0.0355  0.4965  0.4966
 9393SOL    HW139815   3.396   0.824   8.186 -0.8635 -0.0723 -1.4993
 9393SOL    HW239816   3.453   0.708   8.106  0.8051 -0.7375  1.0752
 9394SOL     OW39817   1.619   4.374   6.440  0.0739 -0.4138  0.1660
 9394SOL    HW139818   1.600   4.468   6.447 -0.5283 -0.5723  0.6706
 9394SOL    HW239819   1.534   4.333   6.457  0.2152 -0.7671  0.0204
 9395SOL     OW39820   0.068   1.797   3.737  0.1660  0.3542 -0.2691
 9395SOL    HW139821   0.146   1.750   3.768 -0.9340 -1.2680  0.0362
 9395SOL    HW239822   0.058   1.758   3.650  3.2134 -0.6641 -0.1794
 9396SOL     OW39823   3.226   1.621   2.617 -0.3532 -0.3943  0.6743
 9396SOL    HW139824   3.303   1.646   2.667 -0.5276 -0.5559  1.0267
 9396SOL    HW239825   3.164   1.673   2.667  0.1311  1.2129 -0.3832
 9397SOL     OW39826   4.081   1.520   6.513  0.5290 -0.0646 -0.2432
 9397SOL    HW139827   3.992   1.524   6.478  0.7009  0.3783 -0.6248
 9397SOL    HW239828   4.130   1.562   6.442  0.1488  0.8562  0.0456
 9398SOL     OW39829   2.949   2.090   8.388  0.1694  0.6428 -0.1632
 9398SOL    HW139830   2.968   2.037   8.310 -0.6053  0.9975 -0.5921
 9398SOL    HW239831   2.998   2.172   8.387  1.5740 -0.2331 -3.7154
 9399SOL     OW39832   1.358   2.990   7.894 -0.2001 -0.2272  0.0747
 9399SOL    HW139833   1.367   2.929   7.966 -0.0058 -0.4453 -0.1325
 9399SOL    HW239834   1.449   3.020   7.885 -0.9514  2.2262  0.6896
 9400SOL     OW39835   0.979   0.601   4.240  0.0948 -0.2872 -1.1539
 9400SOL    HW139836   1.053   0.573   4.293  1.1155 -0.1256 -2.4739
 9400SOL    HW239837   0.906   0.558   4.285  0.5050 -1.0970 -1.2752
 9401SOL     OW39838   1.884   0.881   2.112  0.8567  0.4539  0.1348
 9401SOL    HW139839   1.940   0.946   2.154  1.6132  0.2924 -0.6195
 9401SOL    HW239840   1.949   0.828   2.066  0.7000  1.3641 -1.1474
 9402SOL     OW39841   2.161   4.440   9.405 -0.2291  0.8228  0.2755
 9402SOL    HW139842   2.156   4.445   9.501  1.2363 -0.2621  0.4100
 9402SOL    HW239843   2.070   4.418   9.386  0.0205  0.7583 -0.8212
 9403SOL     OW39844   2.498   2.219  13.951 -0.3454  0.4329 -0.4580
 9403SOL    HW139845   2.485   2.180  13.864  1.1797 -1.8655  0.3183
 9403SOL    HW239846   2.523   2.310  13.936 -1.1769  0.2706 -2.7622
 9404SOL     OW39847   2.071   1.558   5.449  0.3113 -0.0106 -0.2142
 9404SOL    HW139848   2.086   1.479   5.396  0.5117 -0.7497  0.9408
 9404SOL    HW239849   1.977   1.555   5.467  0.4839  2.6400  1.0978
 9405SOL     OW39850   3.733   3.621   6.147  0.3408 -0.2252 -0.0737
 9405SOL    HW139851   3.711   3.545   6.093  0.2026  0.8012 -1.4782
 9405SOL    HW239852   3.794   3.576   6.205 -1.1823 -0.1547  1.5735
 9406SOL     OW39853   1.435   0.454   8.565 -0.4758 -0.2538 -0.0128
 9406SOL    HW139854   1.400   0.405   8.639  2.4375 -1.0974  0.7879
 9406SOL    HW239855   1.436   0.541   8.605 -0.1340  0.4802 -1.5834
 9407SOL     OW39856   1.764   3.861   5.464  0.3414 -0.3409 -0.3467
 9407SOL    HW139857   1.675   3.858   5.428  0.0387 -0.4580  0.4024
 9407SOL    HW239858   1.809   3.838   5.383 -0.4425  0.7523 -1.0916
 9408SOL     OW39859   2.935   0.303   5.763  0.3119  0.7379  0.0989
 9408SOL    HW139860   3.031   0.296   5.759  0.0278 -3.0241  0.1403
 9408SOL    HW239861   2.935   0.370   5.832  1.8842  1.2256 -0.3774
 9409SOL     OW39862   2.637   0.566   7.632 -0.2012 -0.6681 -0.3461
 9409SOL    HW139863   2.573   0.515   7.681 -1.2703  0.8303 -0.1832
 9409SOL    HW239864   2.645   0.649   7.679  1.8890 -0.5832 -0.8555
 9410SOL     OW39865   2.607   1.971   8.165 -0.6133  0.3646  0.1046
 9410SOL    HW139866   2.610   1.993   8.258  0.3906  0.3019  0.0863
 9410SOL    HW239867   2.517   1.998   8.148 -1.3102 -1.8646  0.2063
 9411SOL     OW39868   3.230   0.990   4.417 -0.1184 -0.1011 -0.4467
 9411SOL    HW139869   3.317   0.963   4.446  0.3577  1.2759 -0.6256
 9411SOL    HW239870   3.239   1.081   4.446 -1.6578  0.6044 -2.1342
 9412SOL     OW39871   2.913   2.363   9.315 -0.7116  0.3781 -0.3537
 9412SOL    HW139872   2.876   2.404   9.237 -3.7019 -0.3345  0.7005
 9412SOL    HW239873   2.998   2.403   9.332 -1.1252  0.0446  2.6278
 9413SOL     OW39874   2.928   1.693  15.171  0.1947  0.6054 -0.0636
 9413SOL    HW139875   2.952   1.732  15.087 -3.1273 -1.5912 -2.0236
 9413SOL    HW239876   2.842   1.733  15.178  1.0508  2.1733  1.5049
 9414SOL     OW39877   0.439   3.178   2.403  0.0949 -0.3464 -0.4856
 9414SOL    HW139878   0.488   3.229   2.467 -0.2261 -0.6727  0.0168
 9414SOL    HW239879   0.480   3.185   2.317 -1.4428 -1.1905 -1.2778
 9415SOL     OW39880   4.216   4.534   1.727 -0.0620 -0.4533 -0.4220
 9415SOL    HW139881   4.193   4.613   1.775  2.0899 -0.6762  1.0038
 9415SOL    HW239882   4.306   4.555   1.700 -0.3352 -0.8917 -1.6617
 9416SOL     OW39883   1.501   3.899  17.509 -0.1787  0.0992 -0.1582
 9416SOL    HW139884   1.530   3.985  17.479 -1.0913  0.4989  0.0992
 9416SOL    HW239885   1.529   3.901  17.600 -0.0360 -0.2399 -0.1953
 9417SOL     OW39886   1.205   3.285   1.125  0.6016 -0.1389  0.5157
 9417SOL    HW139887   1.196   3.286   1.030  0.1622 -1.3834  0.5397
 9417SOL    HW239888   1.279   3.345   1.132 -0.4834  1.2712 -0.2887
 9418SOL     OW39889   3.772   2.827  11.262 -0.0333 -0.0815  0.2308
 9418SOL    HW139890   3.753   2.851  11.353 -1.2064  1.0886 -0.3396
 9418SOL    HW239891   3.761   2.731  11.263 -0.9859  0.0145 -0.7816
 9419SOL     OW39892   1.565   0.318  12.815  0.2311  0.2660 -0.2413
 9419SOL    HW139893   1.628   0.354  12.877  2.1223 -0.7622 -1.5893
 9419SOL    HW239894   1.618   0.260  12.761  0.7581  2.5025 -2.1180
 9420SOL     OW39895   3.676   1.012   3.754 -0.6174  0.9444 -0.0964
 9420SOL    HW139896   3.653   0.986   3.665  2.2604 -1.2422 -0.2230
 9420SOL    HW239897   3.770   1.029   3.745  0.0546 -1.5268  2.4149
 9421SOL     OW39898   4.501   0.070  12.018 -0.2564 -0.2204 -0.1180
 9421SOL    HW139899   4.550   0.030  12.090  2.0541 -0.4077 -1.8188
 9421SOL    HW239900   4.412   0.062  12.051 -0.4645  0.5444 -0.4880
 9422SOL     OW39901   0.112   3.959   2.175 -0.6745 -0.4577  0.4439
 9422SOL    HW139902   0.175   3.901   2.218 -4.7874 -3.1875  2.8066
 9422SOL    HW239903   0.057   4.000   2.241  0.3386  1.5461  0.0380
 9423SOL     OW39904   3.632   2.607   9.470 -0.0633  0.6174  0.1992
 9423SOL    HW139905   3.704   2.651   9.517 -0.7275 -0.9221  2.6435
 9423SOL    HW239906   3.621   2.670   9.399  0.8181  0.5434 -0.0016
 9424SOL     OW39907   4.706   3.727   4.350 -0.0283 -0.0780  0.0403
 9424SOL    HW139908   4.684   3.797   4.288  0.4101  1.7507  1.9252
 9424SOL    HW239909   4.624   3.678   4.359  0.5978 -1.2032 -0.4181
 9425SOL     OW39910   4.065   2.736   3.049  0.4673 -0.2278  0.2356
 9425SOL    HW139911   4.114   2.654   3.043  0.5062 -0.0940 -1.1959
 9425SOL    HW239912   4.038   2.748   2.958  0.1454  1.3042  0.5365
 9426SOL     OW39913   0.561   0.751   3.693  0.1553 -0.1637 -0.0232
 9426SOL    HW139914   0.605   0.675   3.731 -1.4158  0.1263  2.4161
 9426SOL    HW239915   0.584   0.821   3.755  0.5371 -0.4732  0.1843
 9427SOL     OW39916   3.485   2.314   3.557 -0.3963  0.0743 -0.2200
 9427SOL    HW139917   3.470   2.403   3.526  1.0503  0.0010 -1.1013
 9427SOL    HW239918   3.487   2.271   3.472 -1.0720  0.8113 -0.6038
 9428SOL     OW39919   4.545   0.344  16.781  0.8981  0.4142 -0.4459
 9428SOL    HW139920   4.506   0.318  16.698  1.8761 -0.2898 -0.6753
 9428SOL    HW239921   4.475   0.312  16.839 -0.5790  0.0885 -2.4157
 9429SOL     OW39922   3.031   2.894   8.281 -0.3486 -0.0399  0.0238
 9429SOL    HW139923   3.017   2.937   8.365  0.8564 -1.3611  0.9108
 9429SOL    HW239924   3.114   2.938   8.264 -0.8682  1.2136  0.7396
 9430SOL     OW39925   2.662   2.180   7.680 -0.0953  0.0358  0.4551
 9430SOL    HW139926   2.690   2.098   7.720 -0.6101 -0.7684 -0.8251
 9430SOL    HW239927   2.582   2.145   7.642 -0.3179  1.4945 -0.4177
 9431SOL     OW39928   2.329   0.937   5.805 -0.1838 -0.4017  0.2388
 9431SOL    HW139929   2.365   0.900   5.885  3.6580 -0.0015 -1.3133
 9431SOL    HW239930   2.412   0.975   5.775  0.2905 -0.0834  1.9787
 9432SOL     OW39931   0.022   2.943  13.632  0.1149  0.2192  0.2030
 9432SOL    HW139932   4.710   3.006  13.684  1.0350  1.3375 -0.2327
 9432SOL    HW239933   0.109   2.953  13.672 -0.3112  2.3098  0.6463
 9433SOL     OW39934   3.560   1.457   3.229 -0.0280  0.1151 -0.7579
 9433SOL    HW139935   3.544   1.394   3.159 -1.0911 -0.1094 -0.3150
 9433SOL    HW239936   3.486   1.516   3.216  1.2962  1.6109 -1.4949
 9434SOL     OW39937   0.691   1.552   9.970 -0.2747 -0.1384  0.1384
 9434SOL    HW139938   0.650   1.469   9.947  0.9626 -0.9237  0.7300
 9434SOL    HW239939   0.668   1.602   9.892 -1.2169  0.1475  0.6015
 9435SOL     OW39940   3.214   2.602  11.582  0.2379  0.3002 -0.4017
 9435SOL    HW139941   3.123   2.630  11.573  0.7071  2.0320  0.1254
 9435SOL    HW239942   3.270   2.660  11.530 -2.5282  0.8901 -2.6859
 9436SOL     OW39943   3.712   0.749   3.358 -0.2504 -0.1855 -0.1568
 9436SOL    HW139944   3.783   0.689   3.380 -0.0415 -0.1575 -0.7461
 9436SOL    HW239945   3.710   0.741   3.263 -0.9538  0.2851 -0.1794
 9437SOL     OW39946   2.139   3.739   5.669 -0.3243 -0.1174 -0.4053
 9437SOL    HW139947   2.130   3.800   5.596  1.8859 -2.5723 -2.7441
 9437SOL    HW239948   2.067   3.770   5.723  1.5640  0.4074  1.8240
 9438SOL     OW39949   3.357   0.817   2.339 -0.2814  0.0609 -0.3623
 9438SOL    HW139950   3.290   0.853   2.397  4.1969  3.1554  2.7810
 9438SOL    HW239951   3.435   0.854   2.379 -0.4348 -0.6357  0.5780
 9439SOL     OW39952   1.104   1.017   5.706  0.6657 -0.4250 -0.6964
 9439SOL    HW139953   1.082   1.074   5.779 -2.2194 -1.4358 -0.7678
 9439SOL    HW239954   1.182   1.063   5.674 -0.6399  0.1232 -3.0443
 9440SOL     OW39955   2.409   4.253   4.980  0.2083 -0.0947 -0.2578
 9440SOL    HW139956   2.495   4.217   5.004  1.3816  1.4015 -2.1876
 9440SOL    HW239957   2.413   4.269   4.885 -0.8314  1.3638 -0.0623
 9441SOL     OW39958   1.412   1.660   1.368 -0.5855  0.4429 -0.7320
 9441SOL    HW139959   1.481   1.627   1.425 -3.9136 -0.3043  2.8720
 9441SOL    HW239960   1.395   1.582   1.315 -0.2149  0.7941 -1.3661
 9442SOL     OW39961   1.146   1.114   2.989 -0.0207 -0.3270  0.0834
 9442SOL    HW139962   1.242   1.107   2.988 -0.0053 -0.0669 -0.4416
 9442SOL    HW239963   1.114   1.040   2.937  3.2234 -1.8206  0.1691
 9443SOL     OW39964   0.620   2.158  15.151  0.6808 -0.6521  0.3077
 9443SOL    HW139965   0.573   2.136  15.070  1.7197 -1.8062  0.0268
 9443SOL    HW239966   0.648   2.248  15.132  0.0569 -0.8129 -1.3915
 9444SOL     OW39967   4.070   3.658   4.120 -0.3435 -0.4156 -0.1964
 9444SOL    HW139968   4.149   3.711   4.108  0.5421 -1.5699  0.5526
 9444SOL    HW239969   4.098   3.568   4.101  3.4355  0.3752  1.7687
 9445SOL     OW39970   3.319   2.417  16.865 -0.0443 -0.4714 -0.2698
 9445SOL    HW139971   3.294   2.470  16.941 -0.6402 -0.3200 -0.5709
 9445SOL    HW239972   3.413   2.434  16.855 -0.1117 -0.0565 -0.1939
 9446SOL     OW39973   0.741   0.052  16.355  0.1553  0.1714 -0.2664
 9446SOL    HW139974   0.789   0.083  16.278  1.6765 -0.8107  0.2691
 9446SOL    HW239975   0.809   0.050  16.422  0.4021  1.4811 -0.4797
 9447SOL     OW39976   0.959   4.381   3.946  0.2327  0.0916 -0.0650
 9447SOL    HW139977   0.969   4.421   3.859  0.3766 -1.0520 -0.5736
 9447SOL    HW239978   0.922   4.450   4.001 -0.0084  0.9989 -1.3438
 9448SOL     OW39979   3.851   1.016   5.992  0.2175 -0.0370 -0.3377
 9448SOL    HW139980   3.798   0.936   5.996  0.4750 -0.3501 -3.1572
 9448SOL    HW239981   3.921   0.990   6.051 -1.1447 -0.4052  1.1048
 9449SOL     OW39982   0.975   1.532   0.693  0.1515  0.1856  0.3404
 9449SOL    HW139983   0.905   1.532   0.759 -1.2276 -2.7992 -1.1225
 9449SOL    HW239984   1.048   1.496   0.743  0.6492  0.5893 -0.1082
 9450SOL     OW39985   4.644   1.890  11.945  0.1196  0.5648  0.3461
 9450SOL    HW139986   4.622   1.828  11.876 -1.1335  0.2048  1.0673
 9450SOL    HW239987   4.720   1.934  11.907 -0.8741  0.9270 -1.1956
 9451SOL     OW39988   2.239   2.763   8.311  0.5419  0.5024 -0.3845
 9451SOL    HW139989   2.317   2.818   8.308 -1.5335  3.4078 -1.1067
 9451SOL    HW239990   2.272   2.674   8.295 -2.0081 -0.4046 -0.6481
 9452SOL     OW39991   0.742   4.189  16.367 -0.4735 -0.1834 -0.4554
 9452SOL    HW139992   0.798   4.126  16.412  0.0176  2.3978  2.5104
 9452SOL    HW239993   0.812   4.246  16.333 -0.3911  0.0625  0.1281
 9453SOL     OW39994   1.738   1.282  10.339  0.1537 -0.3341 -0.3297
 9453SOL    HW139995   1.700   1.266  10.426  0.6315 -2.2431 -0.4749
 9453SOL    HW239996   1.833   1.270  10.349 -0.1227 -1.6052  0.7160
 9454SOL     OW39997   1.942   3.146   1.695  0.3004 -0.2796 -0.2698
 9454SOL    HW139998   1.905   3.129   1.609  0.8759  1.5164 -0.8760
 9454SOL    HW239999   2.034   3.126   1.679 -0.6676 -2.9934 -2.4948
 9455SOL     OW40000   4.687   0.283  11.506  0.6262  0.7183  0.5460
 9455SOL    HW140001   4.706   0.373  11.530 -0.7824  1.0252  0.4807
 9455SOL    HW240002   4.661   0.261  11.596 -0.6740 -0.3511 -0.0887
 9456SOL     OW40003   1.836   3.011   1.470  0.1850  0.6788  0.0028
 9456SOL    HW140004   1.775   3.024   1.542  0.0112  1.5339 -0.3034
 9456SOL    HW240005   1.883   2.937   1.508  0.2211  1.0958  0.7766
 9457SOL     OW40006   1.074   0.103  12.202 -0.4163  0.0052 -0.9412
 9457SOL    HW140007   1.049   0.089  12.293 -0.9977  0.4849 -1.0217
 9457SOL    HW240008   1.043   0.021  12.165  1.2756 -1.6593  1.3548
 9458SOL     OW40009   2.048   4.508  14.578 -0.0455  0.4030 -0.0752
 9458SOL    HW140010   2.030   4.542  14.490  0.3851 -2.5947 -1.3153
 9458SOL    HW240011   2.029   4.584  14.633  1.0965  0.7051 -0.1144
 9459SOL     OW40012   0.412   2.032   9.937 -0.4774 -0.7545  0.5198
 9459SOL    HW140013   0.440   2.123   9.925 -1.1825 -0.8012 -1.5844
 9459SOL    HW240014   0.445   2.016  10.025  1.5979  0.0188 -0.1135
 9460SOL     OW40015   2.509   0.419   5.406 -0.0895  0.3125 -0.0530
 9460SOL    HW140016   2.482   0.332   5.379 -1.3232  0.1533  1.7243
 9460SOL    HW240017   2.561   0.392   5.482 -0.9847 -0.4020  0.3019
 9461SOL     OW40018   3.340   1.847   8.255  0.0232  0.0907 -0.0126
 9461SOL    HW140019   3.413   1.863   8.315  0.3016 -1.6160  0.1058
 9461SOL    HW240020   3.382   1.829   8.171 -0.1047 -2.2418  0.4420
 9462SOL     OW40021   0.637   2.004   4.942  0.5319 -0.2668  0.6115
 9462SOL    HW140022   0.710   2.009   4.880  1.4903 -0.8029  1.6894
 9462SOL    HW240023   0.693   2.008   5.019 -0.3766 -1.2575  1.3124
 9463SOL     OW40024   2.423   1.439  12.133 -0.3622  0.7083 -0.6468
 9463SOL    HW140025   2.505   1.391  12.144 -0.7124 -0.1116 -1.6044
 9463SOL    HW240026   2.377   1.390  12.201  3.2348 -0.4516  0.9107
 9464SOL     OW40027   4.480   1.708  17.012  0.1795  0.2997 -0.7957
 9464SOL    HW140028   4.499   1.708  17.106  1.1435 -1.0909 -0.9795
 9464SOL    HW240029   4.388   1.679  17.009  0.2613 -0.1092  0.6124
 9465SOL     OW40030   2.202   0.365  10.531  0.3500 -0.2948  0.0281
 9465SOL    HW140031   2.286   0.321  10.534  0.5985  0.0934 -1.1736
 9465SOL    HW240032   2.223   0.457  10.546 -0.1650 -0.3212  0.8824
 9466SOL     OW40033   4.045   1.651   7.606 -0.0202  0.1468 -0.0060
 9466SOL    HW140034   4.074   1.693   7.525 -0.3308 -2.1307 -1.3106
 9466SOL    HW240035   4.101   1.574   7.597  0.1755  0.6272 -2.9626
 9467SOL     OW40036   0.361   0.201   6.113  0.2360 -0.4015  0.0250
 9467SOL    HW140037   0.431   0.136   6.125 -1.0630 -1.6730  0.6399
 9467SOL    HW240038   0.327   0.183   6.201  0.4296 -1.7699 -0.1802
 9468SOL     OW40039   0.301   0.701   3.667  0.3887  0.1787  0.2236
 9468SOL    HW140040   0.396   0.700   3.665  0.3655  0.2617 -0.7017
 9468SOL    HW240041   0.288   0.749   3.749  0.1530 -0.8195  0.7660
 9469SOL     OW40042   1.124   0.062   6.387 -0.0274  0.5983 -0.1228
 9469SOL    HW140043   1.110   4.718   6.433  0.8674 -0.2657 -1.4073
 9469SOL    HW240044   1.144   0.113   6.465 -2.8415 -0.3069  1.2180
 9470SOL     OW40045   2.308   3.225   0.449  0.1537 -0.9130 -0.0742
 9470SOL    HW140046   2.309   3.146   0.395  1.0278 -1.2513  0.4418
 9470SOL    HW240047   2.250   3.279   0.395  0.0333 -2.2009 -1.2503
 9471SOL     OW40048   1.929   3.457   5.401 -0.2791 -0.2918 -0.2229
 9471SOL    HW140049   1.852   3.491   5.445  0.6251  1.0433  0.3241
 9471SOL    HW240050   1.986   3.450   5.477  1.1793  2.5666 -1.0548
 9472SOL     OW40051   4.638   2.889   8.443 -0.0727 -0.5602  0.6728
 9472SOL    HW140052   4.709   2.846   8.489  0.4348  0.9569  1.3185
 9472SOL    HW240053   4.655   2.979   8.470  0.7487 -0.3372 -0.6054
 9473SOL     OW40054   3.679   0.338   6.154 -0.1753 -0.8531 -0.1784
 9473SOL    HW140055   3.727   0.407   6.108 -1.1495  0.5752  0.9464
 9473SOL    HW240056   3.668   0.268   6.090 -2.1941 -0.3118 -0.4442
 9474SOL     OW40057   1.988   1.754  16.754 -0.0793 -0.3595 -0.2022
 9474SOL    HW140058   2.009   1.678  16.699  1.5648 -0.3900  0.4726
 9474SOL    HW240059   1.899   1.722  16.769  0.8417 -1.8964  1.9603
 9475SOL     OW40060   0.183   2.109   8.465  0.2332 -0.8242  0.2431
 9475SOL    HW140061   0.198   2.090   8.558 -0.7386  0.0232  0.5761
 9475SOL    HW240062   0.097   2.150   8.462  0.0718 -1.1229  0.7546
 9476SOL     OW40063   3.331   2.260  17.560  0.0323  0.0928  0.0818
 9476SOL    HW140064   3.380   2.339  17.581  0.7254 -0.8781  2.1542
 9476SOL    HW240065   3.320   2.226  17.649 -1.6517  0.4528  0.0070
 9477SOL     OW40066   1.694   3.091  15.189  0.4328 -0.2829 -0.4184
 9477SOL    HW140067   1.680   3.186  15.198 -2.0152 -0.7960  1.1835
 9477SOL    HW240068   1.773   3.079  15.136 -0.2258  0.5824 -1.6104
 9478SOL     OW40069   3.458   1.265   2.594  0.3021 -0.0028  0.3417
 9478SOL    HW140070   3.453   1.342   2.538  0.3471 -0.4666 -0.2950
 9478SOL    HW240071   3.539   1.236   2.553 -0.0338 -0.2682 -0.1341
 9479SOL     OW40072   3.644   2.987  13.347  0.1665  0.9365 -0.6794
 9479SOL    HW140073   3.733   2.999  13.380 -0.3857 -1.9810  1.8279
 9479SOL    HW240074   3.661   2.996  13.253 -1.5156  1.0110 -0.9685
 9480SOL     OW40075   0.864   3.418  16.239  0.3528  0.9257  0.2633
 9480SOL    HW140076   0.928   3.360  16.197 -0.7041 -0.0202 -0.0266
 9480SOL    HW240077   0.845   3.470  16.161 -1.4798  0.1925  0.2258
 9481SOL     OW40078   3.164   3.340   8.687  1.2393 -0.7186  0.0641
 9481SOL    HW140079   3.128   3.371   8.770 -1.4559 -0.8787 -1.0281
 9481SOL    HW240080   3.190   3.421   8.643 -0.8283  1.0904  2.1639
 9482SOL     OW40081   0.642   0.598  12.074 -0.0244 -0.1083 -0.7202
 9482SOL    HW140082   0.636   0.582  12.168  0.8488 -1.1605 -0.8390
 9482SOL    HW240083   0.649   0.692  12.090  0.3396 -0.1202 -0.7978
 9483SOL     OW40084   0.461   3.683   6.639  0.1360  0.2892 -0.2547
 9483SOL    HW140085   0.539   3.707   6.689  0.4760 -1.3993  0.0376
 9483SOL    HW240086   0.493   3.645   6.557  2.8593  0.1182  0.9049
 9484SOL     OW40087   0.319   3.255   3.807 -0.3695 -0.1342  0.2155
 9484SOL    HW140088   0.370   3.239   3.886 -0.8345  1.0167  0.7494
 9484SOL    HW240089   0.260   3.181   3.816 -1.6465  0.9219  0.5936
 9485SOL     OW40090   4.571   0.345  10.211 -0.8145 -0.5481 -0.2041
 9485SOL    HW140091   4.556   0.311  10.299 -0.5584 -3.7983 -1.3978
 9485SOL    HW240092   4.501   0.295  10.169 -1.3449 -0.9457  1.1708
 9486SOL     OW40093   0.921   4.365   8.842 -0.0275  0.4657 -0.7368
 9486SOL    HW140094   0.992   4.307   8.816  0.8680  1.7736 -1.2340
 9486SOL    HW240095   0.882   4.400   8.762 -1.9146  1.9755  0.8174
 9487SOL     OW40096   3.440   0.497   1.151  0.6333 -0.5800 -0.4283
 9487SOL    HW140097   3.384   0.420   1.142  0.0084 -0.3252  1.2962
 9487SOL    HW240098   3.414   0.530   1.237 -0.3936 -1.4653 -0.4043
 9488SOL     OW40099   4.131   1.628  15.709 -1.0340 -0.0668  0.4266
 9488SOL    HW140100   4.084   1.610  15.628  0.9468  1.0380 -0.9410
 9488SOL    HW240101   4.202   1.564  15.706 -0.5030  0.5594 -0.2210
 9489SOL     OW40102   2.477   0.414   2.891  0.0487 -0.2334  0.0580
 9489SOL    HW140103   2.566   0.380   2.889 -0.0596 -0.4894 -0.3303
 9489SOL    HW240104   2.478   0.451   2.980  1.6046 -2.3476  0.8906
 9490SOL     OW40105   2.757   2.361  13.009  0.4936  0.4940  0.0972
 9490SOL    HW140106   2.811   2.325  12.939  1.6886  0.5733  0.9781
 9490SOL    HW240107   2.670   2.328  12.986 -0.2724  2.4950  0.0907
 9491SOL     OW40108   3.937   2.140  15.297 -0.0493  0.1184  0.4620
 9491SOL    HW140109   3.987   2.100  15.368 -1.8620 -2.8381  0.0971
 9491SOL    HW240110   4.007   2.186  15.251  0.6023 -1.0069  0.3378
 9492SOL     OW40111   2.116   1.113   5.871  0.6977 -0.1004  0.3037
 9492SOL    HW140112   2.046   1.056   5.902  1.8362 -0.5174  2.0687
 9492SOL    HW240113   2.176   1.053   5.828  0.7483  1.1111 -1.3315
 9493SOL     OW40114   3.594   2.998   5.914  0.1177 -0.0309  0.0834
 9493SOL    HW140115   3.622   3.078   5.958 -1.0606  0.6779 -0.4637
 9493SOL    HW240116   3.637   3.011   5.829 -2.0317  3.5366 -0.4791
 9494SOL     OW40117   2.653   2.049   0.700  0.2249  0.1592  0.0091
 9494SOL    HW140118   2.645   1.998   0.780  0.1848  0.6312  0.3033
 9494SOL    HW240119   2.674   2.141   0.718 -1.4518  0.8296 -1.5278
 9495SOL     OW40120   3.862   0.478   7.200 -0.4960 -0.1892 -0.4070
 9495SOL    HW140121   3.769   0.501   7.201 -0.3766  0.3087 -0.7512
 9495SOL    HW240122   3.875   0.457   7.107  1.0644 -2.5763  0.3430
 9496SOL     OW40123   4.428   0.386   3.879  0.0103  0.3081  0.2807
 9496SOL    HW140124   4.356   0.428   3.924  1.5083  1.8057  1.2647
 9496SOL    HW240125   4.414   0.391   3.784  0.1029 -1.4405  0.1614
 9497SOL     OW40126   3.355   0.244   9.815  0.3925  0.0137 -0.0099
 9497SOL    HW140127   3.278   0.217   9.865 -0.5356 -1.4274 -2.2467
 9497SOL    HW240128   3.374   0.337   9.825  0.0723  0.1227 -0.4327
 9498SOL     OW40129   3.347   0.361   8.093 -0.1992  0.0453 -0.3527
 9498SOL    HW140130   3.341   0.385   8.186 -1.3261 -0.8527 -0.1850
 9498SOL    HW240131   3.331   0.450   8.060  0.3697  0.0154 -0.6957
 9499SOL     OW40132   1.661   3.806   2.000  0.3317  0.8224  0.3418
 9499SOL    HW140133   1.717   3.879   1.972  2.3384 -0.7714  0.2260
 9499SOL    HW240134   1.720   3.739   2.033 -1.2743 -0.7060  0.0835
 9500SOL     OW40135   3.999   1.052   7.201 -0.2509  0.1947 -0.5491
 9500SOL    HW140136   4.069   1.112   7.226  0.4937 -0.4839 -1.0347
 9500SOL    HW240137   4.047   0.970   7.211  0.0271 -0.1104 -4.2616
 9501SOL     OW40138   2.639   1.897   1.946 -0.2628 -0.4622 -0.3600
 9501SOL    HW140139   2.648   1.986   1.911  1.4831 -0.1476  0.8751
 9501SOL    HW240140   2.544   1.886   1.943 -0.0743 -1.8017 -1.2169
 9502SOL     OW40141   0.174   0.782   7.977 -0.2044  0.2166 -0.0429
 9502SOL    HW140142   0.204   0.829   8.055 -1.1037  2.3061 -0.9669
 9502SOL    HW240143   0.094   0.740   8.010  0.9706 -1.3150  0.8792
 9503SOL     OW40144   4.021   2.809   4.323 -1.0208  0.6744 -0.5835
 9503SOL    HW140145   4.114   2.788   4.328 -1.4951 -1.4521 -0.6957
 9503SOL    HW240146   4.019   2.820   4.228 -3.2912 -0.3364 -0.6595
 9504SOL     OW40147   3.537   2.106   2.932  0.0853 -0.4209 -0.2293
 9504SOL    HW140148   3.613   2.080   2.984 -1.7239 -1.8813  1.6824
 9504SOL    HW240149   3.550   2.051   2.855 -0.2961 -0.0320 -0.5685
 9505SOL     OW40150   1.954   2.996   6.030 -0.0832 -0.5494 -0.2962
 9505SOL    HW140151   1.883   3.044   6.072 -0.0485 -0.1166 -0.7309
 9505SOL    HW240152   1.922   2.908   6.009 -0.6892  0.3081 -2.9901
 9506SOL     OW40153   1.196   2.165   7.014 -0.2304  0.4258  0.9494
 9506SOL    HW140154   1.224   2.219   6.940  0.4817 -1.1880  0.0433
 9506SOL    HW240155   1.115   2.120   6.992  0.8936 -0.4735 -1.3081
 9507SOL     OW40156   0.392   0.360   0.016 -0.6080  1.0420 -0.1577
 9507SOL    HW140157   0.447   0.364  17.692 -0.2992 -1.0030 -0.0243
 9507SOL    HW240158   0.442   0.415   0.076 -0.5624  2.6628 -1.6565
 9508SOL     OW40159   4.683   1.716   0.687 -0.6427 -0.1780  0.5747
 9508SOL    HW140160   4.727   1.799   0.670  0.9565 -1.3426 -0.9469
 9508SOL    HW240161   4.596   1.730   0.649 -0.4159 -0.1025  0.0813
 9509SOL     OW40162   4.590   2.658   6.943  0.1593  0.5144  0.4405
 9509SOL    HW140163   4.619   2.576   6.983 -0.2330  0.7878  1.2950
 9509SOL    HW240164   4.652   2.671   6.872 -1.2162 -1.4459 -1.0919
 9510SOL     OW40165   3.630   2.574   7.616  0.3317  0.1473 -0.6313
 9510SOL    HW140166   3.628   2.661   7.576 -0.4845  0.6904  0.5846
 9510SOL    HW240167   3.718   2.560   7.651 -0.4348 -1.6089  0.6489
 9511SOL     OW40168   4.517   3.635   3.051  0.2546  0.8415  0.3065
 9511SOL    HW140169   4.506   3.605   3.141  1.5211 -0.6830 -0.0498
 9511SOL    HW240170   4.510   3.730   3.060 -2.9316  0.3353  3.0862
 9512SOL     OW40171   4.514   3.493   5.917  0.2230  0.4116  0.3689
 9512SOL    HW140172   4.562   3.426   5.966  0.8384 -0.2391 -1.1045
 9512SOL    HW240173   4.481   3.441   5.843 -2.5364  0.9249  1.2215
 9513SOL     OW40174   0.207   0.010  14.846 -0.0532 -0.1304  0.3793
 9513SOL    HW140175   0.288   0.029  14.894 -0.5846 -0.3777  1.3889
 9513SOL    HW240176   0.144   0.046  14.909  0.0891  0.8830 -0.0598
 9514SOL     OW40177   1.298   1.786   0.754 -0.3152  0.2710  0.6466
 9514SOL    HW140178   1.228   1.724   0.773  0.4090 -0.6053  0.4356
 9514SOL    HW240179   1.293   1.803   0.660 -1.0504  0.1140  0.6578
 9515SOL     OW40180   4.300   3.713  15.379 -0.0965  0.2750 -0.0526
 9515SOL    HW140181   4.343   3.788  15.338 -0.3330  0.3580 -0.1469
 9515SOL    HW240182   4.321   3.717  15.473 -0.1584  0.1811 -0.0349
 9516SOL     OW40183   0.082   3.525  13.507 -0.2638 -0.6456 -0.2328
 9516SOL    HW140184   0.066   3.444  13.555  0.3515 -0.4960  0.2223
 9516SOL    HW240185   0.172   3.511  13.476  1.0875  0.9319  2.9314
 9517SOL     OW40186   4.336   3.317   6.157 -0.3108  0.1983 -0.5960
 9517SOL    HW140187   4.429   3.321   6.178 -0.6876  2.0171  0.6656
 9517SOL    HW240188   4.338   3.248   6.090  2.0891 -0.1345 -0.1833
 9518SOL     OW40189   1.610   2.846   4.164 -0.2636 -0.3695 -0.0235
 9518SOL    HW140190   1.579   2.894   4.240  0.6234  0.6928 -0.3375
 9518SOL    HW240191   1.706   2.841   4.170 -0.1654  1.7527 -0.1451
 9519SOL     OW40192   1.647   2.549   7.334  0.1354 -0.0712 -0.3142
 9519SOL    HW140193   1.669   2.642   7.346  0.5011 -0.4136  1.6131
 9519SOL    HW240194   1.657   2.517   7.423  1.1481 -0.1425 -0.4563
 9520SOL     OW40195   0.661   1.800   4.626 -0.0574  0.0646  0.5243
 9520SOL    HW140196   0.730   1.866   4.628  1.3598 -1.3363 -2.3999
 9520SOL    HW240197   0.590   1.829   4.684  1.5601  1.0489  1.9880
 9521SOL     OW40198   2.987   4.578  12.314  0.1421  0.1441 -0.2467
 9521SOL    HW140199   3.061   4.625  12.276  1.7476 -1.0801  1.3228
 9521SOL    HW240200   2.969   4.633  12.391  2.2935  0.3435  0.1181
 9522SOL     OW40201   4.266   3.377   0.908 -0.3311  0.2632 -0.0680
 9522SOL    HW140202   4.353   3.417   0.901  0.5084 -1.3451  0.8390
 9522SOL    HW240203   4.256   3.324   0.829 -0.9538  2.3187 -1.3566
 9523SOL     OW40204   1.421   0.774   8.459  0.0549  0.2178  0.5497
 9523SOL    HW140205   1.420   0.834   8.385 -0.7126  1.5977  1.6737
 9523SOL    HW240206   1.368   0.823   8.523 -1.3044  2.6403 -2.4308
 9524SOL     OW40207   1.337   1.209   8.060  0.0098  0.4910 -0.0433
 9524SOL    HW140208   1.388   1.237   7.984  1.7607  0.6427  1.1974
 9524SOL    HW240209   1.357   1.280   8.121 -1.6084  0.4268  0.5802
 9525SOL     OW40210   4.648   0.634   4.518 -0.0815 -0.7513 -0.2479
 9525SOL    HW140211   4.690   0.714   4.550 -0.3072 -1.2489  1.2612
 9525SOL    HW240212   4.560   0.640   4.553  0.5170  1.9737  0.8286
 9526SOL     OW40213   0.569   2.442   5.541 -0.5442 -0.2058 -0.5376
 9526SOL    HW140214   0.547   2.488   5.621  0.1110 -2.4302  0.9339
 9526SOL    HW240215   0.611   2.508   5.486 -1.6159  0.7541 -0.1887
 9527SOL     OW40216   1.719   0.031  14.983 -0.2306  0.4117 -0.1908
 9527SOL    HW140217   1.673   0.105  15.024  0.0945  1.7816 -2.2957
 9527SOL    HW240218   1.722   0.057  14.891  1.4170  1.0473  0.0441
 9528SOL     OW40219   1.751   4.019   9.282  0.2494  0.1931  0.2704
 9528SOL    HW140220   1.773   3.949   9.220 -0.0351  0.5605 -0.2446
 9528SOL    HW240221   1.710   4.081   9.222  1.2090  0.2057 -0.3758
 9529SOL     OW40222   2.906   2.565   3.526  0.9917 -0.0202 -0.4659
 9529SOL    HW140223   2.879   2.654   3.507  0.8982  0.3588  1.4310
 9529SOL    HW240224   2.960   2.551   3.448  0.0837 -0.2904 -1.0489
 9530SOL     OW40225   2.905   4.577   2.136  0.1783  0.0587  0.1821
 9530SOL    HW140226   2.988   4.580   2.089  0.5681 -1.0644  0.8010
 9530SOL    HW240227   2.851   4.629   2.077 -0.8232 -0.8791  0.2712
 9531SOL     OW40228   0.307   1.578   3.228  0.3203  0.5418 -0.2972
 9531SOL    HW140229   0.395   1.586   3.264 -1.3250 -1.8648  4.1699
 9531SOL    HW240230   0.326   1.539   3.143  1.0233 -1.8647  0.9751
 9532SOL     OW40231   3.162   2.210   4.731  0.0727  0.2138  0.2017
 9532SOL    HW140232   3.138   2.159   4.808  3.4693  0.7922  1.6672
 9532SOL    HW240233   3.185   2.293   4.773 -1.9620  0.7194  0.3203
 9533SOL     OW40234   1.223   1.045   7.669 -0.3464  0.3898 -0.9760
 9533SOL    HW140235   1.181   1.127   7.697  0.0782  0.6091 -0.9715
 9533SOL    HW240236   1.314   1.057   7.697 -0.3658 -0.8796 -0.3749
 9534SOL     OW40237   1.387   3.251   6.634 -0.3591 -0.2584  0.3160
 9534SOL    HW140238   1.338   3.245   6.716 -0.0735  0.0607  0.5077
 9534SOL    HW240239   1.315   3.252   6.571  0.8488  0.0910 -1.0589
 9535SOL     OW40240   1.344   1.067   2.285 -0.4453  0.2128 -0.0043
 9535SOL    HW140241   1.365   1.072   2.192 -2.1013 -2.2363 -0.5273
 9535SOL    HW240242   1.263   1.018   2.268 -0.7601  1.2277 -1.4220
 9536SOL     OW40243   4.076   1.646   3.746 -0.0146 -0.0067 -0.0276
 9536SOL    HW140244   4.090   1.562   3.790  1.2914  0.5130  0.5622
 9536SOL    HW240245   4.108   1.625   3.658  0.9584  1.0898  0.0606
 9537SOL     OW40246   0.824   2.685   0.098 -0.8031 -0.0182  0.4502
 9537SOL    HW140247   0.782   2.751   0.044 -1.5260  0.6232  1.8156
 9537SOL    HW240248   0.761   2.613   0.091 -0.7500  0.3458 -3.5048
 9538SOL     OW40249   1.472   3.174  16.292  0.6466  0.2138 -0.1350
 9538SOL    HW140250   1.543   3.180  16.357 -0.7174  0.1132  1.3549
 9538SOL    HW240251   1.519   3.216  16.220 -2.6928  1.8998 -1.2825
 9539SOL     OW40252   1.139   3.962   7.595 -0.5773 -0.3834  0.7484
 9539SOL    HW140253   1.200   4.030   7.568 -0.6531 -0.0184  1.4796
 9539SOL    HW240254   1.207   3.913   7.641  0.3606  2.1850  2.1071
 9540SOL     OW40255   0.940   1.625   1.947  0.2642  0.2400 -0.3819
 9540SOL    HW140256   0.958   1.719   1.944 -0.4199  0.4788  2.7795
 9540SOL    HW240257   0.853   1.623   1.907  0.2763  2.2623 -0.5124
 9541SOL     OW40258   3.567   2.234  17.202 -0.3775  0.6822 -0.0031
 9541SOL    HW140259   3.593   2.177  17.130  0.9102  2.3667 -0.8673
 9541SOL    HW240260   3.525   2.167  17.256 -0.4300  0.2736 -0.5523
 9542SOL     OW40261   0.756   1.390   7.820  0.1306  0.6465  0.0993
 9542SOL    HW140262   0.682   1.383   7.880  0.6545  1.2819  0.8214
 9542SOL    HW240263   0.825   1.435   7.869  0.3451 -0.5638  0.8984
 9543SOL     OW40264   1.863   1.172   0.542 -0.2020  0.2469 -0.2058
 9543SOL    HW140265   1.848   1.182   0.636 -1.3864 -1.8333 -0.1710
 9543SOL    HW240266   1.880   1.078   0.538  1.3678  0.5039  0.4343
 9544SOL     OW40267   3.756   2.096   8.636  0.6447 -0.9141 -0.0931
 9544SOL    HW140268   3.683   2.148   8.604  0.8049  0.2834  1.4655
 9544SOL    HW240269   3.803   2.173   8.669 -1.8671  1.0594 -1.1254
 9545SOL     OW40270   3.641   3.311  13.935  0.0604 -0.5726  0.1125
 9545SOL    HW140271   3.694   3.255  13.992 -0.4036 -0.3003  0.8072
 9545SOL    HW240272   3.694   3.305  13.856 -0.9292 -1.8901 -0.4416
 9546SOL     OW40273   4.546   1.117  13.995 -0.0674 -0.1466 -0.3050
 9546SOL    HW140274   4.511   1.079  13.914 -1.9381  0.8434  0.0386
 9546SOL    HW240275   4.573   1.043  14.049 -0.4893  0.7092  1.0857
 9547SOL     OW40276   3.681   3.135   3.347 -0.4097  0.3441 -0.3981
 9547SOL    HW140277   3.651   3.110   3.434  0.3161  0.9722  0.0332
 9547SOL    HW240278   3.768   3.095   3.350  0.2179  1.6961 -0.6069
 9548SOL     OW40279   3.851   4.418   5.823  0.4292  0.9377 -0.1633
 9548SOL    HW140280   3.887   4.442   5.738  1.9061 -0.9950 -0.0929
 9548SOL    HW240281   3.924   4.373   5.865  0.5282  0.1919 -1.1131
 9549SOL     OW40282   1.124   2.137   7.973 -0.1409 -0.1835  0.3576
 9549SOL    HW140283   1.180   2.213   7.985 -0.5746  0.1018  0.5928
 9549SOL    HW240284   1.186   2.085   7.922 -2.4315 -1.3569 -1.2203
 9550SOL     OW40285   2.124   3.511  17.513 -0.1624 -0.3403  0.1340
 9550SOL    HW140286   2.202   3.544  17.558  0.2345 -1.1248  0.0200
 9550SOL    HW240287   2.056   3.568  17.548  2.3191  1.9158  1.2784
 9551SOL     OW40288   0.349   1.145   5.769  0.4222 -0.9918 -0.5311
 9551SOL    HW140289   0.382   1.201   5.698  0.5106 -2.1876 -1.4332
 9551SOL    HW240290   0.255   1.160   5.768  0.5728 -0.0362 -0.1620
 9552SOL     OW40291   4.388   0.180   2.436 -0.3431 -0.1293  0.0182
 9552SOL    HW140292   4.436   0.213   2.360  1.2962 -1.9328  0.2822
 9552SOL    HW240293   4.361   0.260   2.481  0.5486 -1.3688  2.7610
 9553SOL     OW40294   2.854   3.847   9.930 -0.9059 -0.2867  0.0371
 9553SOL    HW140295   2.806   3.764   9.930  0.4825 -1.0869 -2.7123
 9553SOL    HW240296   2.858   3.860   9.836 -2.2644  0.7110  0.1139
 9554SOL     OW40297   1.706   2.614   1.853  0.2169 -0.0519  0.1319
 9554SOL    HW140298   1.786   2.565   1.836  1.7780  1.6651  2.4182
 9554SOL    HW240299   1.734   2.649   1.938 -1.1448  2.5955 -0.5023
 9555SOL     OW40300   2.472   3.478   4.583 -0.0272  0.0203 -0.2483
 9555SOL    HW140301   2.490   3.540   4.513  1.3077 -0.9372 -0.7545
 9555SOL    HW240302   2.524   3.506   4.658 -0.4097  1.1999 -0.4337
 9556SOL     OW40303   4.360   2.880   1.119  0.6976 -0.4154 -0.0601
 9556SOL    HW140304   4.385   2.962   1.077  2.5044 -1.2366 -0.6433
 9556SOL    HW240305   4.349   2.832   1.036  1.0837 -1.6848  0.6160
 9557SOL     OW40306   2.246   1.116   5.212 -0.2885  0.1495 -0.3564
 9557SOL    HW140307   2.316   1.127   5.148 -1.1864  2.8693 -0.8802
 9557SOL    HW240308   2.185   1.057   5.165 -0.2002  0.5926 -1.0309
 9558SOL     OW40309   0.068   4.096   2.967  0.7165 -0.0659  0.0380
 9558SOL    HW140310   0.158   4.128   2.970  0.8673 -0.5033  0.2349
 9558SOL    HW240311   0.061   4.094   3.063 -4.2815  1.3384 -0.3014
 9559SOL     OW40312   0.822   0.119  15.406 -0.0332 -0.4724  0.1409
 9559SOL    HW140313   0.897   0.064  15.429 -0.4587 -0.6662  1.0647
 9559SOL    HW240314   0.756   0.105  15.474 -0.1046  1.3253  0.4369
 9560SOL     OW40315   0.934   0.905   6.953 -0.2322  0.7457 -0.2589
 9560SOL    HW140316   1.026   0.918   6.932  0.3407 -0.5770  1.4482
 9560SOL    HW240317   0.923   0.944   7.040 -2.2638  2.6683 -1.3695
 9561SOL     OW40318   2.005   3.379  10.354 -0.5731 -0.2033 -0.2364
 9561SOL    HW140319   2.010   3.445  10.286  1.7459 -0.1674 -0.0458
 9561SOL    HW240320   2.009   3.297  10.304 -2.8154 -0.5471  0.1396
 9562SOL     OW40321   0.896   0.446   3.619  0.6611 -0.1315  0.0283
 9562SOL    HW140322   0.908   0.394   3.540  1.4697  1.7776 -1.1186
 9562SOL    HW240323   0.949   0.523   3.599 -1.1959  1.2566  0.4761
 9563SOL     OW40324   1.780   1.403   5.679 -0.2200 -0.0659  0.0051
 9563SOL    HW140325   1.862   1.410   5.728 -1.1212  2.4985  1.1391
 9563SOL    HW240326   1.794   1.481   5.626  3.1133 -0.7998 -0.1934
 9564SOL     OW40327   1.738   3.345   7.981 -0.2660 -0.1164 -0.0166
 9564SOL    HW140328   1.832   3.351   7.962 -0.8272  2.1115 -1.9630
 9564SOL    HW240329   1.727   3.394   8.062 -0.4866  1.1369 -0.8140
 9565SOL     OW40330   3.529   0.462   9.419 -0.2812 -0.6396  0.0561
 9565SOL    HW140331   3.447   0.491   9.458  0.9158 -1.4542  3.1981
 9565SOL    HW240332   3.570   0.415   9.492 -1.4951 -1.5433  0.1650
 9566SOL     OW40333   2.722   0.867   6.647  0.0644  0.0219  0.1792
 9566SOL    HW140334   2.668   0.808   6.594 -3.7273  1.2927  2.5833
 9566SOL    HW240335   2.753   0.931   6.583  1.0813  0.5787  1.2272
 9567SOL     OW40336   4.475   0.412   5.373  0.1658  0.1031  0.2013
 9567SOL    HW140337   4.419   0.364   5.434  1.7776 -2.8560 -0.6460
 9567SOL    HW240338   4.519   0.472   5.434 -2.1233  2.2561 -0.2536
 9568SOL     OW40339   0.982   3.128   6.276  0.1193  0.7127 -0.0933
 9568SOL    HW140340   0.939   3.051   6.238  1.1239  0.6802 -1.1907
 9568SOL    HW240341   1.007   3.180   6.200  1.2682  0.9236  0.4285
 9569SOL     OW40342   1.540   3.358   6.940 -0.0436  0.1512  0.3442
 9569SOL    HW140343   1.575   3.404   6.863  0.2983  0.8855  0.9365
 9569SOL    HW240344   1.507   3.440   6.978 -0.9174 -0.7649  1.5645
   4.73912   4.73912  17.75430
